                         Program Version 5.0.0 -  RELEASE  -
|  1> !M062X D3Zero RIJCOSX def2-SVPD def2/J TightSCF
|  2> *xyz 0 1
|  3> C          2.20996       -2.81239       -3.66571
|  4> C          2.48901       -1.66851       -2.73754
|  5> N          3.59631       -0.94761       -2.95225
|  6> C          1.66394       -1.41369       -1.77781
|  7> H          0.81164       -1.96318       -1.70275
|  8> H          1.84550       -0.63508       -1.15875
|  9> H          4.20535       -1.17600       -3.73383
| 10> H          3.81723       -0.12585       -2.40604
| 11> H          2.99011       -2.87840       -4.39503
| 12> H          1.27381       -2.65174       -4.15838
| 13> H          2.16680       -3.72339       -3.10614
| 14> *
| 15>
| 16> %MaxCore 64000
| 17> %pal nprocs 4
| 18> end
| 19>
| 20> %scf
| 21>   MaxIter 150
| 22> end
| 23>
| 24>
| 25>                          ****END OF INPUT****

CARTESIAN COORDINATES (ANGSTROEM)
---------------------------------
  C      2.209960   -2.812390   -3.665710
  C      2.489010   -1.668510   -2.737540
  N      3.596310   -0.947610   -2.952250
  C      1.663940   -1.413690   -1.777810
  H      0.811640   -1.963180   -1.702750
  H      1.845500   -0.635080   -1.158750
  H      4.205350   -1.176000   -3.733830
  H      3.817230   -0.125850   -2.406040
  H      2.990110   -2.878400   -4.395030
  H      1.273810   -2.651740   -4.158380
  H      2.166800   -3.723390   -3.106140

 Total Charge           Charge          ....    0
 Multiplicity           Mult            ....    1
 Number of Electrons    NEL             ....   32
 Basis Dimension        Dim             ....  136

ORBITAL ENERGIES
----------------

  NO   OCC          E(Eh)            E(eV)
   0   2.0000     -14.761597      -401.6835
   1   2.0000     -10.570523      -287.6386
   2   2.0000     -10.540194      -286.8133
   3   2.0000     -10.480579      -285.1910
   4   2.0000      -1.018402       -27.7121
   5   2.0000      -0.849099       -23.1052
   6   2.0000      -0.775798       -21.1105
   7   2.0000      -0.644208       -17.5298
   8   2.0000      -0.595282       -16.1984
   9   2.0000      -0.545938       -14.8557
  10   2.0000      -0.498993       -13.5783
  11   2.0000      -0.465393       -12.6640
  12   2.0000      -0.457758       -12.4562
  13   2.0000      -0.414818       -11.2878
  14   2.0000      -0.400865       -10.9081
  15   2.0000      -0.246831        -6.7166
  16   0.0000       0.038883         1.0581
  17   0.0000       0.071470         1.9448
  18   0.0000       0.076689         2.0868
  19   0.0000       0.083316         2.2671
  20   0.0000       0.109969         2.9924

MULLIKEN ATOMIC CHARGES
-----------------------
   0 C :    0.788676
   1 C :   -0.254184
   2 N :   -0.000350
   3 C :    0.281106
   4 H :   -0.198424
   5 H :   -0.325316
   6 H :   -0.070422
   7 H :   -0.166971
   8 H :   -0.113379
   9 H :    0.028861
  10 H :    0.030402
Sum of atomic charges:   -0.0000000

LOEWDIN ATOMIC CHARGES
----------------------
   0 C :    0.167046
   1 C :   -0.289179
   2 N :    0.154778
   3 C :    0.156636
   4 H :   -0.068623
   5 H :   -0.080310
   6 H :   -0.005164
   7 H :    0.003498
   8 H :   -0.028247
   9 H :   -0.005311
  10 H :   -0.005125

  Mayer bond orders larger than 0.100000
B(  0-C ,  1-C ) :   1.0641 B(  0-C ,  2-N ) :   0.1003 B(  0-C ,  8-H ) :   0.7297
B(  0-C ,  9-H ) :   0.7471 B(  0-C , 10-H ) :   0.7418 B(  1-C ,  2-N ) :   0.9245
B(  1-C ,  3-C ) :   1.8619 B(  1-C ,  4-H ) :   0.1247 B(  1-C ,  5-H ) :   0.2592
B(  1-C ,  7-H ) :  -0.1671 B(  1-C ,  8-H ) :   0.2744 B(  1-C ,  9-H ) :   0.1756
B(  1-C , 10-H ) :   0.1815 B(  2-N ,  3-C ) :   0.2245 B(  2-N ,  6-H ) :   1.1181
B(  2-N ,  7-H ) :   1.3103 B(  3-C ,  4-H ) :   0.8681 B(  3-C ,  5-H ) :   0.7376
B(  6-H ,  7-H ) :  -0.1749

Dispersion correction           -0.000087650
FINAL SINGLE POINT ENERGY      -173.039430654320

DIPOLE MOMENT
-------------
                                X             Y             Z
Electronic contribution:      1.03117       1.25040       0.48460
Nuclear contribution   :     -0.50975      -1.14105      -0.93029
                        -----------------------------------------
Total Dipole Moment    :      0.52142       0.10934      -0.44569
                        -----------------------------------------
Magnitude (a.u.)       :      0.69460
Magnitude (Debye)      :      1.76554

Rotational constants in cm-1:     0.350603     0.305690     0.168346
Rotational constants in MHz : 10510.799277  9164.357607  5046.873498

                             ****ORCA TERMINATED NORMALLY****
TOTAL RUN TIME: 0 days 0 hours 0 minutes 12 seconds 84 msec
