                         Program Version 5.0.0 -  RELEASE  -
|  1> !M062X D3Zero RIJCOSX def2-SVPD def2/J TightSCF xyzfile
|  2>
|  3> *xyzfile 0 1 D2.xyz
|  4>
|  5> %MaxCore 64000
|  6>
|  7> %pal nprocs 4
|  8> end
|  9>
| 10> %scf
| 11>   MaxIter 150
| 12> end
| 13>
| 14>
| 15>                          ****END OF INPUT****

CARTESIAN COORDINATES (ANGSTROEM)
---------------------------------
  C      1.647032   -2.345276   -5.020411
  C      0.217628   -1.814022   -4.924389
  C      2.209964   -2.812388   -3.665708
  C     -0.811356   -2.908780   -4.607625
  C     -1.916579   -2.485081   -3.643665
  H     -2.554525   -1.712428   -4.091993
  C     -1.363531   -1.981337   -2.293608
  H     -2.553448   -3.355667   -3.458815
  F     -0.350395   -2.749689   -1.796006
  H      2.308385   -1.588704   -5.457128
  H      1.674286   -3.203478   -5.697392
  C      2.489007   -1.668510   -2.737538
  N      3.596314   -0.947608   -2.952247
  C      1.663936   -1.413685   -1.777806
  H      0.811642   -1.963178   -1.702755
  H      1.845503   -0.635078   -1.158749
  H      4.205351   -1.176003   -3.733825
  H      3.817230   -0.125845   -2.406041
  H     -1.244829   -3.280884   -5.541040
  H     -0.306331   -3.757746   -4.142734
  H     -0.036244   -1.318555   -5.865303
  H      0.175004   -1.035382   -4.158095
  H      3.143106   -3.362803   -3.811524
  H      1.487683   -3.458935   -3.165211
  H     -2.226220   -1.908386   -1.602039
  H     -1.051353   -0.915671   -2.443331

 Total Charge           Charge          ....    0
 Multiplicity           Mult            ....    1
 Number of Electrons    NEL             ....   80
 Basis Dimension        Dim             ....  331

ORBITAL ENERGIES
----------------

  NO   OCC          E(Eh)            E(eV)
   0   2.0000     -25.260715      -687.3790
   1   2.0000     -14.747423      -401.2978
   2   2.0000     -10.633809      -289.3607
   3   2.0000     -10.557185      -287.2756
   4   2.0000     -10.551140      -287.1111
   5   2.0000     -10.545293      -286.9520
   6   2.0000     -10.542301      -286.8706
   7   2.0000     -10.538431      -286.7653
   8   2.0000     -10.536410      -286.7103
   9   2.0000     -10.450805      -284.3809
  10   2.0000      -1.348359       -36.6907
  11   2.0000      -1.004987       -27.3471
  12   2.0000      -0.905136       -24.6300
  13   2.0000      -0.867941       -23.6179
  14   2.0000      -0.815190       -22.1825
  15   2.0000      -0.788236       -21.4490
  16   2.0000      -0.741357       -20.1734
  17   2.0000      -0.684687       -18.6313
  18   2.0000      -0.650094       -17.6900
  19   2.0000      -0.648298       -17.6411
  20   2.0000      -0.607028       -16.5181
  21   2.0000      -0.598329       -16.2814
  22   2.0000      -0.575127       -15.6500
  23   2.0000      -0.565842       -15.3973
  24   2.0000      -0.535438       -14.5700
  25   2.0000      -0.519890       -14.1469
  26   2.0000      -0.513290       -13.9673
  27   2.0000      -0.499247       -13.5852
  28   2.0000      -0.472722       -12.8634
  29   2.0000      -0.448170       -12.1953
  30   2.0000      -0.433029       -11.7833
  31   2.0000      -0.421882       -11.4800
  32   2.0000      -0.415808       -11.3147
  33   2.0000      -0.401940       -10.9373
  34   2.0000      -0.392608       -10.6834
  35   2.0000      -0.386675       -10.5220
  36   2.0000      -0.370681       -10.0867
  37   2.0000      -0.367869       -10.0102
  38   2.0000      -0.357142        -9.7183
  39   2.0000      -0.233301        -6.3485
  40   0.0000       0.040483         1.1016
  41   0.0000       0.046721         1.2713
  42   0.0000       0.055066         1.4984
  43   0.0000       0.063117         1.7175
  44   0.0000       0.076331         2.0771

MULLIKEN ATOMIC CHARGES
-----------------------
   0 C :    0.361803
   1 C :    0.216555
   2 C :    0.353664
   3 C :    0.099390
   4 C :    0.219117
   5 H :   -0.132375
   6 C :    0.588824
   7 H :    0.015165
   8 F :   -0.557385
   9 H :   -0.072477
  10 H :   -0.130824
  11 C :    0.073543
  12 N :   -0.002798
  13 C :    1.172291
  14 H :   -0.551926
  15 H :   -0.761606
  16 H :   -0.107947
  17 H :   -0.161258
  18 H :   -0.234111
  19 H :    0.004721
  20 H :   -0.207540
  21 H :   -0.068556
  22 H :   -0.200280
  23 H :    0.022435
  24 H :   -0.300248
  25 H :    0.361819
Sum of atomic charges:   -0.0000000

LOEWDIN ATOMIC CHARGES
----------------------
   0 C :   -0.019142
   1 C :   -0.014834
   2 C :    0.023697
   3 C :   -0.025209
   4 C :   -0.012428
   5 H :    0.033455
   6 C :    0.154629
   7 H :    0.023237
   8 F :   -0.213596
   9 H :    0.016201
  10 H :    0.020290
  11 C :   -0.241936
  12 N :    0.159317
  13 C :    0.207283
  14 H :   -0.182666
  15 H :   -0.071368
  16 H :   -0.004311
  17 H :    0.000701
  18 H :    0.023226
  19 H :    0.006886
  20 H :    0.019923
  21 H :   -0.001724
  22 H :    0.022558
  23 H :    0.002766
  24 H :    0.035924
  25 H :    0.037122

  Mayer bond orders larger than 0.100000
B(  0-C ,  1-C ) :   1.2289 B(  0-C ,  2-C ) :   1.0967 B(  0-C ,  9-H ) :   0.7606
B(  0-C , 10-H ) :   0.8379 B(  0-C , 21-H ) :   0.1588 B(  1-C ,  2-C ) :   0.1435
B(  1-C ,  3-C ) :   1.1455 B(  1-C ,  9-H ) :   0.1781 B(  1-C , 18-H ) :   0.2004
B(  1-C , 20-H ) :   0.8801 B(  1-C , 21-H ) :   0.8156 B(  2-C ,  9-H ) :   0.1118
B(  2-C , 10-H ) :   0.1519 B(  2-C , 11-C ) :   1.1567 B(  2-C , 12-N ) :   0.1495
B(  2-C , 13-C ) :   0.1089 B(  2-C , 14-H ) :  -0.1093 B(  2-C , 21-H ) :  -0.1295
B(  2-C , 22-H ) :   0.8573 B(  2-C , 23-H ) :   0.8024 B(  3-C ,  4-C ) :   1.2432
B(  3-C ,  5-H ) :   0.1197 B(  3-C ,  7-H ) :   0.2062 B(  3-C , 18-H ) :   0.9110
B(  3-C , 19-H ) :   0.8102 B(  3-C , 20-H ) :   0.1066 B(  3-C , 21-H ) :   0.1420
B(  4-C ,  5-H ) :   0.9041 B(  4-C ,  6-C ) :   1.2389 B(  4-C ,  7-H ) :   0.7034
B(  4-C , 24-H ) :   0.1304 B(  5-H ,  6-C ) :   0.1100 B(  6-C ,  8-F ) :   0.5560
B(  6-C , 14-H ) :   0.1148 B(  6-C , 24-H ) :   1.0720 B(  6-C , 25-H ) :   0.7030
B(  8-F , 14-H ) :   0.1943 B(  9-H , 10-H ) :  -0.1235 B( 11-C , 12-N ) :   0.9251
B( 11-C , 13-C ) :   1.8821 B( 11-C , 14-H ) :   0.2505 B( 11-C , 15-H ) :   0.2244
B( 11-C , 17-H ) :  -0.1089 B( 11-C , 21-H ) :   0.1136 B( 11-C , 22-H ) :   0.2278
B( 11-C , 23-H ) :   0.1543 B( 12-N , 13-C ) :   0.3409 B( 12-N , 16-H ) :   1.1858
B( 12-N , 17-H ) :   1.2641 B( 13-C , 14-H ) :   0.4867 B( 13-C , 15-H ) :   0.5130
B( 13-C , 23-H ) :  -0.1078 B( 14-H , 15-H ) :  -0.3933 B( 15-H , 21-H ) :  -0.1521
B( 16-H , 17-H ) :  -0.1699 B( 18-H , 19-H ) :  -0.1126 B( 19-H , 23-H ) :   0.1499
B( 20-H , 21-H ) :  -0.1202 B( 24-H , 25-H ) :  -0.1053

Dispersion correction           -0.001059503
FINAL SINGLE POINT ENERGY      -468.465497922075

DIPOLE MOMENT
-------------
                                X             Y             Z
Electronic contribution:      0.39535      -1.30801       6.07093
Nuclear contribution   :     -0.73748       1.64619      -6.72655
                        -----------------------------------------
Total Dipole Moment    :     -0.34214       0.33818      -0.65562
                        -----------------------------------------
Magnitude (a.u.)       :      0.81318
Magnitude (Debye)      :      2.06693

Rotational constants in cm-1:     0.063169     0.031711     0.023958
Rotational constants in MHz :  1893.751676   950.657187   718.229932

                             ****ORCA TERMINATED NORMALLY****
TOTAL RUN TIME: 0 days 0 hours 1 minutes 39 seconds 977 msec
