                         Program Version 5.0.0 -  RELEASE  -
|  1> !M062X D3Zero RIJCOSX def2-SVP def2/J TightSCF
|  2>
|  3> *xyz -1 1
|  4> C          2.95263        1.86308       -3.57485
|  5> C          4.12921        0.89839       -3.41895
|  6> H          3.73369       -0.10060       -3.23763
|  7> H          4.71910        0.86256       -4.33901
|  8> C          5.01734        1.31521       -2.22130
|  9> O          4.73706        0.85411       -1.12283
| 10> O          5.92815        2.16811       -2.49136
| 11> H          2.35067        1.56005       -4.40594
| 12> H          3.32277        2.85258       -3.74453
| 13> H          2.36134        1.85149       -2.68315
| 14> *
| 15> %MaxCore 64000
| 16>
| 17> %pal nprocs 4
| 18> end
| 19>
| 20> %scf
| 21>   MaxIter 150
| 22> end
| 23>
| 24>
| 25>                          ****END OF INPUT****

CARTESIAN COORDINATES (ANGSTROEM)
---------------------------------
  C      2.952630    1.863080   -3.574850
  C      4.129210    0.898390   -3.418950
  H      3.733690   -0.100600   -3.237630
  H      4.719100    0.862560   -4.339010
  C      5.017340    1.315210   -2.221300
  O      4.737060    0.854110   -1.122830
  O      5.928150    2.168110   -2.491360
  H      2.350670    1.560050   -4.405940
  H      3.322770    2.852580   -3.744530
  H      2.361340    1.851490   -2.683150

 Total Charge           Charge          ....   -1
 Multiplicity           Mult            ....    1
 Number of Electrons    NEL             ....   40
 Basis Dimension        Dim             ....   95

ORBITAL ENERGIES
----------------

  NO   OCC          E(Eh)            E(eV)
   0   2.0000     -19.338673      -526.2320
   1   2.0000     -19.325588      -525.8760
   2   2.0000     -10.407711      -283.2082
   3   2.0000     -10.382230      -282.5148
   4   2.0000     -10.357020      -281.8288
   5   2.0000      -0.902236       -24.5511
   6   2.0000      -0.796879       -21.6842
   7   2.0000      -0.682121       -18.5615
   8   2.0000      -0.536863       -14.6088
   9   2.0000      -0.377882       -10.2827
  10   2.0000      -0.349516        -9.5108
  11   2.0000      -0.313263        -8.5243
  12   2.0000      -0.282243        -7.6802
  13   2.0000      -0.263356        -7.1663
  14   2.0000      -0.261306        -7.1105
  15   2.0000      -0.224844        -6.1183
  16   2.0000      -0.213967        -5.8224
  17   2.0000      -0.079482        -2.1628
  18   2.0000      -0.077803        -2.1171
  19   2.0000      -0.070380        -1.9151
  20   0.0000       0.254804         6.9336
  21   0.0000       0.306785         8.3480
  22   0.0000       0.318453         8.6655
  23   0.0000       0.321445         8.7470
  24   0.0000       0.345239         9.3944

MULLIKEN ATOMIC CHARGES
-----------------------
   0 C :   -0.051403
   1 C :   -0.052102
   2 H :   -0.031823
   3 H :   -0.023109
   4 C :    0.106072
   5 O :   -0.439208
   6 O :   -0.516128
   7 H :   -0.020072
   8 H :    0.015123
   9 H :    0.012651
Sum of atomic charges:   -1.0000000

LOEWDIN ATOMIC CHARGES
----------------------
   0 C :   -0.064698
   1 C :   -0.099924
   2 H :   -0.003638
   3 H :    0.000168
   4 C :   -0.032990
   5 O :   -0.375503
   6 O :   -0.447366
   7 H :   -0.003599
   8 H :    0.013944
   9 H :    0.013606

  Mayer bond orders larger than 0.100000
B(  0-C ,  1-C ) :   1.0998 B(  0-C ,  7-H ) :   0.9731 B(  0-C ,  8-H ) :   0.9700
B(  0-C ,  9-H ) :   0.9708 B(  1-C ,  2-H ) :   0.9400 B(  1-C ,  3-H ) :   0.9437
B(  1-C ,  4-C ) :   0.9103 B(  4-C ,  5-O ) :   1.8630 B(  4-C ,  6-O ) :   1.7802
B(  5-O ,  6-O ) :   0.1077

Dispersion correction           -0.000085620
FINAL SINGLE POINT ENERGY      -267.492788313104

DIPOLE MOMENT
-------------
                                X             Y             Z
Electronic contribution:      4.50715      -0.13883       4.01077
Nuclear contribution   :     -5.85873      -0.10793      -5.24103
                        -----------------------------------------
Total Dipole Moment    :     -1.35158      -0.24676      -1.23026
                        -----------------------------------------
Magnitude (a.u.)       :      1.84423
Magnitude (Debye)      :      4.68767

Rotational constants in cm-1:     0.292505     0.135951     0.110253
Rotational constants in MHz :  8769.065873  4075.717001  3305.311891

                             ****ORCA TERMINATED NORMALLY****
TOTAL RUN TIME: 0 days 0 hours 0 minutes 11 seconds 244 msec
