                         Program Version 5.0.0 -  RELEASE  -
|  1> !M062X D3Zero RIJCOSX def2-SVP def2/J TightSCF
|  2>
|  3> *xyz 1 1
|  4> C          3.34350        3.35457       -3.59200
|  5> C          2.95263        1.86308       -3.57485
|  6> C          4.25587        3.70385       -4.72605
|  7> N          3.73403        4.29378       -5.80077
|  8> N          5.51504        3.40725       -4.63718
|  9> H          6.14919        3.60120       -5.39905
| 10> H          5.81358        2.89950       -3.80879
| 11> H          2.74138        4.51311       -5.82470
| 12> H          4.28755        4.52126       -6.61434
| 13> H          3.86125        3.59725       -2.66298
| 14> H          2.44649        3.97346       -3.65656
| 15> H          2.44395        1.61721       -4.48352
| 16> H          2.30781        1.67290       -2.74242
| 17> H          3.83491        1.26414       -3.48670
| 18> *
| 19> %MaxCore 64000
| 20>
| 21> %pal nprocs 4
| 22> end
| 23>
| 24> %scf
| 25>   MaxIter 150
| 26> end
| 27>
| 28>
| 29>                          ****END OF INPUT****

CARTESIAN COORDINATES (ANGSTROEM)
---------------------------------
  C      3.343500    3.354570   -3.592000
  C      2.952630    1.863080   -3.574850
  C      4.255870    3.703850   -4.726050
  N      3.734030    4.293780   -5.800770
  N      5.515040    3.407250   -4.637180
  H      6.149190    3.601200   -5.399050
  H      5.813580    2.899500   -3.808790
  H      2.741380    4.513110   -5.824700
  H      4.287550    4.521260   -6.614340
  H      3.861250    3.597250   -2.662980
  H      2.446490    3.973460   -3.656560
  H      2.443950    1.617210   -4.483520
  H      2.307810    1.672900   -2.742420
  H      3.834910    1.264140   -3.486700

 Total Charge           Charge          ....    1
 Multiplicity           Mult            ....    1
 Number of Electrons    NEL             ....   40
 Basis Dimension        Dim             ....  115

ORBITAL ENERGIES
----------------

  NO   OCC          E(Eh)            E(eV)
   0   2.0000     -15.011311      -408.4785
   1   2.0000     -15.005780      -408.3280
   2   2.0000     -10.876047      -295.9523
   3   2.0000     -10.748685      -292.4866
   4   2.0000     -10.707947      -291.3781
   5   2.0000      -1.305832       -35.5335
   6   2.0000      -1.202403       -32.7190
   7   2.0000      -1.057907       -28.7871
   8   2.0000      -0.941883       -25.6299
   9   2.0000      -0.895139       -24.3580
  10   2.0000      -0.853809       -23.2333
  11   2.0000      -0.825707       -22.4686
  12   2.0000      -0.772614       -21.0239
  13   2.0000      -0.721655       -19.6372
  14   2.0000      -0.692770       -18.8512
  15   2.0000      -0.681776       -18.5521
  16   2.0000      -0.606901       -16.5146
  17   2.0000      -0.598436       -16.2843
  18   2.0000      -0.590825       -16.0772
  19   2.0000      -0.553836       -15.0707
  20   0.0000      -0.160166        -4.3583
  21   0.0000      -0.109791        -2.9876
  22   0.0000      -0.063909        -1.7391
  23   0.0000      -0.061367        -1.6699
  24   0.0000      -0.032507        -0.8846

MULLIKEN ATOMIC CHARGES
-----------------------
   0 C :   -0.078486
   1 C :   -0.029355
   2 C :   -0.039578
   3 N :   -0.054426
   4 N :   -0.001928
   5 H :    0.191892
   6 H :    0.201912
   7 H :    0.201692
   8 H :    0.186709
   9 H :    0.103997
  10 H :    0.086800
  11 H :    0.068693
  12 H :    0.103300
  13 H :    0.058777
Sum of atomic charges:    1.0000000

LOEWDIN ATOMIC CHARGES
----------------------
   0 C :   -0.040002
   1 C :   -0.023960
   2 C :    0.157063
   3 N :    0.074731
   4 N :    0.099921
   5 H :    0.118833
   6 H :    0.128656
   7 H :    0.125795
   8 H :    0.113488
   9 H :    0.061593
  10 H :    0.056493
  11 H :    0.039147
  12 H :    0.055481
  13 H :    0.032760

  Mayer bond orders larger than 0.100000
B(  0-C ,  1-C ) :   1.0608 B(  0-C ,  2-C ) :   1.0166 B(  0-C ,  9-H ) :   0.9254
B(  0-C , 10-H ) :   0.9266 B(  1-C , 11-H ) :   0.9698 B(  1-C , 12-H ) :   0.9646
B(  1-C , 13-H ) :   0.9727 B(  2-C ,  3-N ) :   1.4957 B(  2-C ,  4-N ) :   1.5409
B(  3-N ,  7-H ) :   0.9141 B(  3-N ,  8-H ) :   0.9255 B(  4-N ,  5-H ) :   0.9202
B(  4-N ,  6-H ) :   0.9081

Dispersion correction           -0.000202321
FINAL SINGLE POINT ENERGY      -228.742479576703

DIPOLE MOMENT
-------------
                                X             Y             Z
Electronic contribution:      2.39622       2.58225      -2.30860
Nuclear contribution   :     -1.74195      -2.09431       1.58516
                        -----------------------------------------
Total Dipole Moment    :      0.65428       0.48794      -0.72344
                        -----------------------------------------
Magnitude (a.u.)       :      1.09066
Magnitude (Debye)      :      2.77223

Rotational constants in cm-1:     0.258965     0.126500     0.098780
Rotational constants in MHz :  7763.584551  3792.383135  2961.336502

                             ****ORCA TERMINATED NORMALLY****
TOTAL RUN TIME: 0 days 0 hours 0 minutes 14 seconds 791 msec
