                         Program Version 5.0.0 -  RELEASE  -
|  1> !M062X D3Zero RIJCOSX def2-SVP def2/J TightSCF
|  2>
|  3> *xyz 0 1
|  4> C          2.95263        1.86308       -3.57485
|  5> C          4.12921        0.89839       -3.41895
|  6> H          3.73369       -0.10060       -3.23763
|  7> H          4.71910        0.86256       -4.33901
|  8> C          5.01734        1.31521       -2.22130
|  9> F          4.73706        0.85411       -1.12283
| 10> O          5.92815        2.16811       -2.49136
| 11> H          2.35067        1.56005       -4.40594
| 12> H          3.32277        2.85258       -3.74453
| 13> H          2.36134        1.85149       -2.68315
| 14> *
| 15> %MaxCore 64000
| 16>
| 17> %pal nprocs 4
| 18> end
| 19>
| 20> %scf
| 21>   MaxIter 150
| 22> end
| 23>
| 24>
| 25>                          ****END OF INPUT****

CARTESIAN COORDINATES (ANGSTROEM)
---------------------------------
  C      2.952630    1.863080   -3.574850
  C      4.129210    0.898390   -3.418950
  H      3.733690   -0.100600   -3.237630
  H      4.719100    0.862560   -4.339010
  C      5.017340    1.315210   -2.221300
  F      4.737060    0.854110   -1.122830
  O      5.928150    2.168110   -2.491360
  H      2.350670    1.560050   -4.405940
  H      3.322770    2.852580   -3.744530
  H      2.361340    1.851490   -2.683150

 Total Charge           Charge          ....    0
 Multiplicity           Mult            ....    1
 Number of Electrons    NEL             ....   40
 Basis Dimension        Dim             ....   95

ORBITAL ENERGIES
----------------

  NO   OCC          E(Eh)            E(eV)
   0   2.0000     -25.327140      -689.1865
   1   2.0000     -19.630727      -534.1792
   2   2.0000     -10.729496      -291.9644
   3   2.0000     -10.577341      -287.8241
   4   2.0000     -10.558688      -287.3165
   5   2.0000      -1.462010       -39.7833
   6   2.0000      -1.120647       -30.4944
   7   2.0000      -0.889400       -24.2018
   8   2.0000      -0.780572       -21.2405
   9   2.0000      -0.731130       -19.8951
  10   2.0000      -0.652392       -17.7525
  11   2.0000      -0.638057       -17.3624
  12   2.0000      -0.580782       -15.8039
  13   2.0000      -0.533737       -14.5237
  14   2.0000      -0.503746       -13.7076
  15   2.0000      -0.463550       -12.6138
  16   2.0000      -0.443649       -12.0723
  17   2.0000      -0.433786       -11.8039
  18   2.0000      -0.402814       -10.9611
  19   2.0000      -0.353985        -9.6324
  20   0.0000       0.025633         0.6975
  21   0.0000       0.098765         2.6875
  22   0.0000       0.145084         3.9479
  23   0.0000       0.148908         4.0520
  24   0.0000       0.172908         4.7051

MULLIKEN ATOMIC CHARGES
-----------------------
   0 C :   -0.066239
   1 C :   -0.124669
   2 H :    0.048943
   3 H :    0.079458
   4 C :    0.283606
   5 F :   -0.066992
   6 O :   -0.314400
   7 H :    0.054679
   8 H :    0.061291
   9 H :    0.044324
Sum of atomic charges:   -0.0000000

LOEWDIN ATOMIC CHARGES
----------------------
   0 C :   -0.044969
   1 C :   -0.075165
   2 H :    0.029768
   3 H :    0.048204
   4 C :    0.114560
   5 F :    0.068614
   6 O :   -0.231895
   7 H :    0.031884
   8 H :    0.032476
   9 H :    0.026523

  Mayer bond orders larger than 0.100000
B(  0-C ,  1-C ) :   1.0781 B(  0-C ,  7-H ) :   0.9729 B(  0-C ,  8-H ) :   0.9730
B(  0-C ,  9-H ) :   0.9751 B(  1-C ,  2-H ) :   0.9389 B(  1-C ,  3-H ) :   0.9476
B(  1-C ,  4-C ) :   0.9946 B(  4-C ,  5-F ) :   1.1979 B(  4-C ,  6-O ) :   2.0283

Dispersion correction           -0.000091050
FINAL SINGLE POINT ENERGY      -292.032977003009

DIPOLE MOMENT
-------------
                                X             Y             Z
Electronic contribution:      5.09664      -1.14501       6.54103
Nuclear contribution   :     -6.06116       0.51860      -6.80802
                        -----------------------------------------
Total Dipole Moment    :     -0.96451      -0.62642      -0.26699
                        -----------------------------------------
Magnitude (a.u.)       :      1.18066
Magnitude (Debye)      :      3.00100

Rotational constants in cm-1:     0.276196     0.132056     0.105465
Rotational constants in MHz :  8280.156449  3958.940601  3161.775929

                             ****ORCA TERMINATED NORMALLY****
TOTAL RUN TIME: 0 days 0 hours 0 minutes 12 seconds 306 msec
