                         Program Version 5.0.0 -  RELEASE  -
|  1> !M062X D3Zero RIJCOSX def2-SVP def2/J TightSCF
|  2>
|  3> *xyz 0 1
|  4> C          3.34350        3.35457       -3.59200
|  5> C          2.95263        1.86308       -3.57485
|  6> C          4.25587        3.70385       -4.72605
|  7> C          3.73403        4.29378       -5.80077
|  8> N          5.51504        3.40725       -4.63718
|  9> H          6.14919        3.60120       -5.39905
| 10> H          5.81358        2.89950       -3.80879
| 11> H          2.74138        4.51311       -5.82470
| 12> H          4.28755        4.52126       -6.61434
| 13> H          3.86125        3.59725       -2.66298
| 14> H          2.44649        3.97346       -3.65656
| 15> H          2.44395        1.61721       -4.48352
| 16> H          2.30781        1.67290       -2.74242
| 17> H          3.83491        1.26414       -3.48670
| 18> *
| 19> %MaxCore 64000
| 20>
| 21> %pal nprocs 4
| 22> end
| 23>
| 24> %scf
| 25>   MaxIter 150
| 26> end
| 27>
| 28>
| 29>                          ****END OF INPUT****

CARTESIAN COORDINATES (ANGSTROEM)
---------------------------------
  C      3.343500    3.354570   -3.592000
  C      2.952630    1.863080   -3.574850
  C      4.255870    3.703850   -4.726050
  C      3.734030    4.293780   -5.800770
  N      5.515040    3.407250   -4.637180
  H      6.149190    3.601200   -5.399050
  H      5.813580    2.899500   -3.808790
  H      2.741380    4.513110   -5.824700
  H      4.287550    4.521260   -6.614340
  H      3.861250    3.597250   -2.662980
  H      2.446490    3.973460   -3.656560
  H      2.443950    1.617210   -4.483520
  H      2.307810    1.672900   -2.742420
  H      3.834910    1.264140   -3.486700

 Total Charge           Charge          ....    0
 Multiplicity           Mult            ....    1
 Number of Electrons    NEL             ....   40
 Basis Dimension        Dim             ....  115

ORBITAL ENERGIES
----------------

  NO   OCC          E(Eh)            E(eV)
   0   2.0000     -14.757778      -401.5796
   1   2.0000     -10.564716      -287.4805
   2   2.0000     -10.546801      -286.9930
   3   2.0000     -10.536846      -286.7222
   4   2.0000     -10.478423      -285.1324
   5   2.0000      -1.028452       -27.9856
   6   2.0000      -0.863423       -23.4949
   7   2.0000      -0.793776       -21.5997
   8   2.0000      -0.712473       -19.3874
   9   2.0000      -0.639836       -17.4108
  10   2.0000      -0.600361       -16.3367
  11   2.0000      -0.545693       -14.8491
  12   2.0000      -0.502866       -13.6837
  13   2.0000      -0.484690       -13.1891
  14   2.0000      -0.454282       -12.3616
  15   2.0000      -0.444079       -12.0840
  16   2.0000      -0.413251       -11.2451
  17   2.0000      -0.392370       -10.6769
  18   2.0000      -0.389857       -10.6085
  19   2.0000      -0.232340        -6.3223
  20   0.0000       0.082416         2.2426
  21   0.0000       0.105431         2.8689
  22   0.0000       0.133063         3.6208
  23   0.0000       0.142618         3.8808
  24   0.0000       0.157242         4.2788

MULLIKEN ATOMIC CHARGES
-----------------------
   0 C :   -0.032956
   1 C :   -0.018193
   2 C :   -0.146758
   3 C :   -0.068915
   4 N :   -0.097271
   5 H :    0.134266
   6 H :    0.126759
   7 H :   -0.020658
   8 H :   -0.035741
   9 H :    0.023638
  10 H :    0.040111
  11 H :    0.037371
  12 H :    0.038585
  13 H :    0.019762
Sum of atomic charges:    0.0000000

LOEWDIN ATOMIC CHARGES
----------------------
   0 C :   -0.034779
   1 C :   -0.050145
   2 C :   -0.001271
   3 C :   -0.186447
   4 N :   -0.007039
   5 H :    0.083498
   6 H :    0.076724
   7 H :    0.001126
   8 H :   -0.007631
   9 H :    0.020693
  10 H :    0.036821
  11 H :    0.027012
  12 H :    0.024329
  13 H :    0.017108

  Mayer bond orders larger than 0.100000
B(  0-C ,  1-C ) :   1.0810 B(  0-C ,  2-C ) :   1.0197 B(  0-C ,  9-H ) :   0.9374
B(  0-C , 10-H ) :   0.9408 B(  1-C , 11-H ) :   0.9714 B(  1-C , 12-H ) :   0.9720
B(  1-C , 13-H ) :   0.9724 B(  2-C ,  3-C ) :   1.8517 B(  2-C ,  4-N ) :   1.2833
B(  3-C ,  7-H ) :   0.9424 B(  3-C ,  8-H ) :   0.9543 B(  4-N ,  5-H ) :   0.9413
B(  4-N ,  6-H ) :   0.9419

Dispersion correction           -0.000198859
FINAL SINGLE POINT ENERGY      -212.287208788474

DIPOLE MOMENT
-------------
                                X             Y             Z
Electronic contribution:      2.38305       1.45389      -0.84154
Nuclear contribution   :     -1.79713      -1.86925       1.28073
                        -----------------------------------------
Total Dipole Moment    :      0.58592      -0.41536       0.43919
                        -----------------------------------------
Magnitude (a.u.)       :      0.84185
Magnitude (Debye)      :      2.13981

Rotational constants in cm-1:     0.269040     0.129645     0.102087
Rotational constants in MHz :  8065.609820  3886.645139  3060.489045

                             ****ORCA TERMINATED NORMALLY****
TOTAL RUN TIME: 0 days 0 hours 0 minutes 15 seconds 824 msec
