                         Program Version 5.0.0 -  RELEASE  -
|  1> !M062X D3Zero RIJCOSX def2-SVP def2/J TightSCF
|  2>
|  3> *xyz 0 1
|  4> C          2.95263        1.86308       -3.57485
|  5> C          4.12921        0.89839       -3.41895
|  6> H          3.73369       -0.10060       -3.23763
|  7> H          4.71910        0.86256       -4.33901
|  8> C          5.01734        1.31521       -2.22130
|  9> O          4.73706        0.85411       -1.12283
| 10> F          5.92815        2.16811       -2.49136
| 11> H          2.35067        1.56005       -4.40594
| 12> H          3.32277        2.85258       -3.74453
| 13> H          2.36134        1.85149       -2.68315
| 14> *
| 15> %MaxCore 64000
| 16>
| 17> %pal nprocs 4
| 18> end
| 19>
| 20> %scf
| 21>   MaxIter 150
| 22> end
| 23>
| 24>
| 25>                          ****END OF INPUT****

CARTESIAN COORDINATES (ANGSTROEM)
---------------------------------
  C      2.952630    1.863080   -3.574850
  C      4.129210    0.898390   -3.418950
  H      3.733690   -0.100600   -3.237630
  H      4.719100    0.862560   -4.339010
  C      5.017340    1.315210   -2.221300
  O      4.737060    0.854110   -1.122830
  F      5.928150    2.168110   -2.491360
  H      2.350670    1.560050   -4.405940
  H      3.322770    2.852580   -3.744530
  H      2.361340    1.851490   -2.683150

 Total Charge           Charge          ....    0
 Multiplicity           Mult            ....    1
 Number of Electrons    NEL             ....   40
 Basis Dimension        Dim             ....   95

ORBITAL ENERGIES
----------------

  NO   OCC          E(Eh)            E(eV)
   0   2.0000     -25.305411      -688.5952
   1   2.0000     -19.641419      -534.4702
   2   2.0000     -10.725901      -291.8666
   3   2.0000     -10.576884      -287.8117
   4   2.0000     -10.559067      -287.3268
   5   2.0000      -1.419793       -38.6345
   6   2.0000      -1.156617       -31.4731
   7   2.0000      -0.889024       -24.1916
   8   2.0000      -0.766079       -20.8461
   9   2.0000      -0.718249       -19.5445
  10   2.0000      -0.629146       -17.1199
  11   2.0000      -0.616677       -16.7806
  12   2.0000      -0.583248       -15.8710
  13   2.0000      -0.533241       -14.5102
  14   2.0000      -0.509771       -13.8716
  15   2.0000      -0.470276       -12.7969
  16   2.0000      -0.452131       -12.3031
  17   2.0000      -0.433793       -11.8041
  18   2.0000      -0.420991       -11.4557
  19   2.0000      -0.364079        -9.9071
  20   0.0000       0.031074         0.8456
  21   0.0000       0.099079         2.6961
  22   0.0000       0.144291         3.9264
  23   0.0000       0.149619         4.0713
  24   0.0000       0.172874         4.7041

MULLIKEN ATOMIC CHARGES
-----------------------
   0 C :   -0.068592
   1 C :   -0.126348
   2 H :    0.072806
   3 H :    0.057007
   4 C :    0.290663
   5 O :   -0.251656
   6 F :   -0.135318
   7 H :    0.055126
   8 H :    0.047326
   9 H :    0.058986
Sum of atomic charges:   -0.0000000

LOEWDIN ATOMIC CHARGES
----------------------
   0 C :   -0.045326
   1 C :   -0.075879
   2 H :    0.045301
   3 H :    0.033664
   4 C :    0.122875
   5 O :   -0.172210
   6 F :    0.000459
   7 H :    0.032060
   8 H :    0.026986
   9 H :    0.032070

  Mayer bond orders larger than 0.100000
B(  0-C ,  1-C ) :   1.0784 B(  0-C ,  7-H ) :   0.9731 B(  0-C ,  8-H ) :   0.9757
B(  0-C ,  9-H ) :   0.9729 B(  1-C ,  2-H ) :   0.9485 B(  1-C ,  3-H ) :   0.9401
B(  1-C ,  4-C ) :   0.9929 B(  4-C ,  5-O ) :   2.1027 B(  4-C ,  6-F ) :   1.1248

Dispersion correction           -0.000091188
FINAL SINGLE POINT ENERGY      -292.050197078455

DIPOLE MOMENT
-------------
                                X             Y             Z
Electronic contribution:      7.04406       1.00710       4.29000
Nuclear contribution   :     -7.35982      -0.91407      -5.31589
                        -----------------------------------------
Total Dipole Moment    :     -0.31576       0.09303      -1.02589
                        -----------------------------------------
Magnitude (a.u.)       :      1.07741
Magnitude (Debye)      :      2.73856

Rotational constants in cm-1:     0.275433     0.132201     0.105422
Rotational constants in MHz :  8257.268192  3963.279062  3160.465566

                             ****ORCA TERMINATED NORMALLY****
TOTAL RUN TIME: 0 days 0 hours 0 minutes 11 seconds 456 msec
