                         Program Version 5.0.0 -  RELEASE  -
|  1> !M062X D3Zero RIJCOSX def2-SVP def2/J TightSCF
|  2>
|  3> *xyz 0 1
|  4> C          3.34350        3.35457       -3.59200
|  5> C          2.95263        1.86308       -3.57485
|  6> C          4.25587        3.70385       -4.72605
|  7> N          3.73403        4.29378       -5.80077
|  8> C          5.51504        3.40725       -4.63718
|  9> H          6.14919        3.60120       -5.39905
| 10> H          5.81358        2.89950       -3.80879
| 11> H          2.74138        4.51311       -5.82470
| 12> H          4.28755        4.52126       -6.61434
| 13> H          3.86125        3.59725       -2.66298
| 14> H          2.44649        3.97346       -3.65656
| 15> H          2.44395        1.61721       -4.48352
| 16> H          2.30781        1.67290       -2.74242
| 17> H          3.83491        1.26414       -3.48670
| 18> *
| 19> %MaxCore 64000
| 20>
| 21> %pal nprocs 4
| 22> end
| 23>
| 24> %scf
| 25>   MaxIter 150
| 26> end
| 27>
| 28>
| 29>                          ****END OF INPUT****

CARTESIAN COORDINATES (ANGSTROEM)
---------------------------------
  C      3.343500    3.354570   -3.592000
  C      2.952630    1.863080   -3.574850
  C      4.255870    3.703850   -4.726050
  N      3.734030    4.293780   -5.800770
  C      5.515040    3.407250   -4.637180
  H      6.149190    3.601200   -5.399050
  H      5.813580    2.899500   -3.808790
  H      2.741380    4.513110   -5.824700
  H      4.287550    4.521260   -6.614340
  H      3.861250    3.597250   -2.662980
  H      2.446490    3.973460   -3.656560
  H      2.443950    1.617210   -4.483520
  H      2.307810    1.672900   -2.742420
  H      3.834910    1.264140   -3.486700

 Total Charge           Charge          ....    0
 Multiplicity           Mult            ....    1
 Number of Electrons    NEL             ....   40
 Basis Dimension        Dim             ....  115

ORBITAL ENERGIES
----------------

  NO   OCC          E(Eh)            E(eV)
   0   2.0000     -14.752616      -401.4391
   1   2.0000     -10.562336      -287.4158
   2   2.0000     -10.546369      -286.9813
   3   2.0000     -10.534631      -286.6619
   4   2.0000     -10.477278      -285.1012
   5   2.0000      -1.012647       -27.5555
   6   2.0000      -0.865851       -23.5610
   7   2.0000      -0.798119       -21.7179
   8   2.0000      -0.713738       -19.4218
   9   2.0000      -0.632556       -17.2127
  10   2.0000      -0.587318       -15.9817
  11   2.0000      -0.549608       -14.9556
  12   2.0000      -0.504799       -13.7363
  13   2.0000      -0.477074       -12.9818
  14   2.0000      -0.454164       -12.3584
  15   2.0000      -0.445081       -12.1113
  16   2.0000      -0.408739       -11.1223
  17   2.0000      -0.394727       -10.7411
  18   2.0000      -0.387520       -10.5450
  19   2.0000      -0.237765        -6.4699
  20   0.0000       0.086126         2.3436
  21   0.0000       0.105948         2.8830
  22   0.0000       0.134333         3.6554
  23   0.0000       0.139978         3.8090
  24   0.0000       0.160952         4.3797

MULLIKEN ATOMIC CHARGES
-----------------------
   0 C :   -0.031263
   1 C :   -0.019416
   2 C :   -0.112842
   3 N :   -0.148705
   4 C :   -0.049414
   5 H :   -0.034300
   6 H :   -0.021032
   7 H :    0.125083
   8 H :    0.128305
   9 H :    0.048037
  10 H :    0.013421
  11 H :    0.029602
  12 H :    0.035193
  13 H :    0.037332
Sum of atomic charges:    0.0000000

LOEWDIN ATOMIC CHARGES
----------------------
   0 C :   -0.035637
   1 C :   -0.046454
   2 C :    0.006274
   3 N :   -0.030180
   4 C :   -0.170996
   5 H :   -0.003498
   6 H :    0.003592
   7 H :    0.073202
   8 H :    0.077573
   9 H :    0.037070
  10 H :    0.018966
  11 H :    0.022472
  12 H :    0.022358
  13 H :    0.025258

  Mayer bond orders larger than 0.100000
B(  0-C ,  1-C ) :   1.0889 B(  0-C ,  2-C ) :   1.0021 B(  0-C ,  9-H ) :   0.9428
B(  0-C , 10-H ) :   0.9401 B(  1-C , 11-H ) :   0.9710 B(  1-C , 12-H ) :   0.9718
B(  1-C , 13-H ) :   0.9747 B(  2-C ,  3-N ) :   1.2376 B(  2-C ,  4-C ) :   1.8954
B(  3-N ,  7-H ) :   0.9470 B(  3-N ,  8-H ) :   0.9479 B(  4-C ,  5-H ) :   0.9512
B(  4-C ,  6-H ) :   0.9338

Dispersion correction           -0.000199056
FINAL SINGLE POINT ENERGY      -212.287099030936

DIPOLE MOMENT
-------------
                                X             Y             Z
Electronic contribution:      0.73895       2.29089      -1.89847
Nuclear contribution   :     -1.38463      -2.07457       1.55023
                        -----------------------------------------
Total Dipole Moment    :     -0.64567       0.21631      -0.34824
                        -----------------------------------------
Magnitude (a.u.)       :      0.76483
Magnitude (Debye)      :      1.94403

Rotational constants in cm-1:     0.272312     0.128195     0.101724
Rotational constants in MHz :  8163.717141  3843.180148  3049.598073

                             ****ORCA TERMINATED NORMALLY****
TOTAL RUN TIME: 0 days 0 hours 0 minutes 14 seconds 892 msec
