                         Program Version 5.0.0 -  RELEASE  -
|  1> !M062X D3Zero RIJCOSX def2-TZVP def2/J TightSCF xyzfile
|  2>
|  3> *xyzfile 0 1 D4.xyz
|  4>
|  5> %MaxCore 64000
|  6>
|  7> %pal nprocs 18
|  8> end
|  9>
| 10> %scf
| 11>   MaxIter 150
| 12> end
| 13>
| 14>
| 15>                          ****END OF INPUT****

CARTESIAN COORDINATES (ANGSTROEM)
---------------------------------
  C      3.343500    3.354571   -3.591998
  C      2.952633    1.863077   -3.574849
  C      4.129209    0.898394   -3.418950
  H      3.733687   -0.100605   -3.237633
  H      4.719095    0.862556   -4.339005
  C      5.017344    1.315212   -2.221305
  C      4.255868    3.703851   -4.726054
  N      3.734032    4.293783   -5.800770
  C      5.515039    3.407255   -4.637185
  H      6.149187    3.601203   -5.399053
  H      5.813584    2.899504   -3.808785
  H      2.741380    4.513109   -5.824701
  H      4.287548    4.521260   -6.614341
  H      2.278938    1.735250   -2.725496
  H      2.377466    1.625787   -4.475869
  O      4.737055    0.854112   -1.122825
  F      5.928146    2.168108   -2.491365
  H      3.861246    3.597252   -2.662979
  H      2.446493    3.973461   -3.656556

 Total Charge           Charge          ....    0
 Multiplicity           Mult            ....    1
 Number of Electrons    NEL             ....   70
 Basis Dimension        Dim             ....  339

ORBITAL ENERGIES
----------------

  NO   OCC          E(Eh)            E(eV)
   0   2.0000     -25.310379      -688.7304
   1   2.0000     -19.641473      -534.4716
   2   2.0000     -14.748703      -401.3326
   3   2.0000     -10.719642      -291.6963
   4   2.0000     -10.560402      -287.3631
   5   2.0000     -10.556848      -287.2664
   6   2.0000     -10.554889      -287.2131
   7   2.0000     -10.545773      -286.9651
   8   2.0000     -10.456532      -284.5367
   9   2.0000      -1.460516       -39.7427
  10   2.0000      -1.179315       -32.0908
  11   2.0000      -1.035752       -28.1843
  12   2.0000      -0.920373       -25.0446
  13   2.0000      -0.852341       -23.1934
  14   2.0000      -0.804800       -21.8997
  15   2.0000      -0.771698       -20.9990
  16   2.0000      -0.707180       -19.2434
  17   2.0000      -0.671475       -18.2718
  18   2.0000      -0.639209       -17.3938
  19   2.0000      -0.623640       -16.9701
  20   2.0000      -0.601438       -16.3660
  21   2.0000      -0.588981       -16.0270
  22   2.0000      -0.556832       -15.1522
  23   2.0000      -0.536781       -14.6065
  24   2.0000      -0.517929       -14.0936
  25   2.0000      -0.493483       -13.4284
  26   2.0000      -0.464665       -12.6442
  27   2.0000      -0.451525       -12.2866
  28   2.0000      -0.444416       -12.0932
  29   2.0000      -0.435973       -11.8634
  30   2.0000      -0.417005       -11.3473
  31   2.0000      -0.397688       -10.8216
  32   2.0000      -0.391147       -10.6437
  33   2.0000      -0.370893       -10.0925
  34   2.0000      -0.248859        -6.7718
  35   0.0000       0.019604         0.5335
  36   0.0000       0.052225         1.4211
  37   0.0000       0.072379         1.9695
  38   0.0000       0.086345         2.3496
  39   0.0000       0.094788         2.5793

MULLIKEN ATOMIC CHARGES
-----------------------
   0 C :   -0.472519
   1 C :   -0.236429
   2 C :   -0.366671
   3 H :    0.162247
   4 H :    0.193655
   5 C :    0.390694
   6 C :    0.420286
   7 N :   -0.568108
   8 C :   -0.498060
   9 H :    0.104442
  10 H :    0.124341
  11 H :    0.242156
  12 H :    0.245343
  13 H :    0.162713
  14 H :    0.148618
  15 O :   -0.298196
  16 F :   -0.105471
  17 H :    0.207080
  18 H :    0.143880
Sum of atomic charges:   -0.0000000

LOEWDIN ATOMIC CHARGES
----------------------
   0 C :   -0.214563
   1 C :   -0.249230
   2 C :   -0.230958
   3 H :    0.152289
   4 H :    0.150182
   5 C :   -0.485753
   6 C :   -0.371695
   7 N :   -0.020889
   8 C :   -0.262767
   9 H :    0.098661
  10 H :    0.093354
  11 H :    0.168743
  12 H :    0.170622
  13 H :    0.146193
  14 H :    0.143030
  15 O :    0.108350
  16 F :    0.308938
  17 H :    0.154389
  18 H :    0.141105

  Mayer bond orders larger than 0.100000
B(  0-C ,  1-C ) :   0.8970 B(  0-C ,  6-C ) :   0.8490 B(  0-C , 17-H ) :   1.0091
B(  0-C , 18-H ) :   0.9942 B(  1-C ,  2-C ) :   0.9193 B(  1-C , 13-H ) :   0.9802
B(  1-C , 14-H ) :   0.9659 B(  2-C ,  3-H ) :   0.9705 B(  2-C ,  4-H ) :   0.9503
B(  2-C ,  5-C ) :   0.9746 B(  5-C , 15-O ) :   2.1029 B(  5-C , 16-F ) :   1.0762
B(  6-C ,  7-N ) :   1.0550 B(  6-C ,  8-C ) :   1.6894 B(  7-N , 11-H ) :   0.9283
B(  7-N , 12-H ) :   0.9284 B(  8-C ,  9-H ) :   0.9972 B(  8-C , 10-H ) :   1.0388

Dispersion correction           -0.000552957
FINAL SINGLE POINT ENERGY      -464.409898764983

DIPOLE MOMENT
-------------
                                X             Y             Z
Electronic contribution:      6.16492      -2.82402       7.08988
Nuclear contribution   :     -6.99695       3.07955      -8.37829
                        -----------------------------------------
Total Dipole Moment    :     -0.83204       0.25553      -1.28842
                        -----------------------------------------
Magnitude (a.u.)       :      1.55486
Magnitude (Debye)      :      3.95214

Rotational constants in cm-1:     0.106302     0.035771     0.030198
Rotational constants in MHz :  3186.860872  1072.397550   905.318354

                             ****ORCA TERMINATED NORMALLY****
TOTAL RUN TIME: 0 days 0 hours 0 minutes 23 seconds 336 msec
