                         Program Version 5.0.0 -  RELEASE  -
|  1> !BLYP D3BJ RIJCOSX def2-SVPD def2/J TightSCF
|  2> *xyz -1 1
|  3> C          4.93020       -7.37532       -2.64962
|  4> C          3.84189       -6.95161       -3.63283
|  5> H          3.45814       -5.95442       -3.40712
|  6> H          2.98848       -7.64361       -3.56708
|  7> S          4.31812       -6.91593       -5.36869
|  8> O          5.40615       -5.89948       -5.51297
|  9> O          3.11191       -6.44508       -6.04379
| 10> O          4.76340       -8.23942       -5.69863
| 11> H          5.27901       -8.35440       -2.90385
| 12> H          4.53000       -7.38577       -1.65734
| 13> H          5.74437       -6.68276       -2.69856
| 14> *
| 15>
| 16> %MaxCore 64000
| 17>
| 18> %pal nprocs 4
| 19> end
| 20>
| 21> %scf
| 22>   MaxIter 150
| 23> end
| 24>
| 25>
| 26>                          ****END OF INPUT****

CARTESIAN COORDINATES (ANGSTROEM)
---------------------------------
  C      4.930200   -7.375320   -2.649620
  C      3.841890   -6.951610   -3.632830
  H      3.458140   -5.954420   -3.407120
  H      2.988480   -7.643610   -3.567080
  S      4.318120   -6.915930   -5.368690
  O      5.406150   -5.899480   -5.512970
  O      3.111910   -6.445080   -6.043790
  O      4.763400   -8.239420   -5.698630
  H      5.279010   -8.354400   -2.903850
  H      4.530000   -7.385770   -1.657340
  H      5.744370   -6.682760   -2.698560

 Total Charge           Charge          ....   -1
 Multiplicity           Mult            ....    1
 Number of Electrons    NEL             ....   58
 Basis Dimension        Dim             ....  176

ORBITAL ENERGIES
----------------

  NO   OCC          E(Eh)            E(eV)
   0   2.0000     -88.128465     -2398.0974
   1   2.0000     -18.575273      -505.4589
   2   2.0000     -18.566376      -505.2168
   3   2.0000     -18.559445      -505.0282
   4   2.0000      -9.787159      -266.3221
   5   2.0000      -9.782774      -266.2028
   6   2.0000      -7.665104      -208.5781
   7   2.0000      -5.700247      -155.1116
   8   2.0000      -5.700080      -155.1071
   9   2.0000      -5.699393      -155.0884
  10   2.0000      -0.832148       -22.6439
  11   2.0000      -0.700331       -19.0570
  12   2.0000      -0.671142       -18.2627
  13   2.0000      -0.552122       -15.0240
  14   2.0000      -0.436774       -11.8852
  15   2.0000      -0.321445        -8.7470
  16   2.0000      -0.267404        -7.2764
  17   2.0000      -0.258517        -7.0346
  18   2.0000      -0.225625        -6.1396
  19   2.0000      -0.208308        -5.6683
  20   2.0000      -0.204304        -5.5594
  21   2.0000      -0.185077        -5.0362
  22   2.0000      -0.169345        -4.6081
  23   2.0000      -0.099281        -2.7016
  24   2.0000      -0.097713        -2.6589
  25   2.0000      -0.069248        -1.8843
  26   2.0000      -0.062591        -1.7032
  27   2.0000      -0.051248        -1.3945
  28   2.0000      -0.015025        -0.4088
  29   0.0000       0.124148         3.3782
  30   0.0000       0.154382         4.2010
  31   0.0000       0.165159         4.4942
  32   0.0000       0.170104         4.6288
  33   0.0000       0.193450         5.2640

MULLIKEN ATOMIC CHARGES
-----------------------
   0 C :    1.169975
   1 C :   -0.100227
   2 H :   -0.216966
   3 H :   -0.155671
   4 S :    1.156709
   5 O :   -0.778936
   6 O :   -0.741379
   7 O :   -0.721240
   8 H :   -0.183522
   9 H :   -0.240350
  10 H :   -0.188393
Sum of atomic charges:   -1.0000000

LOEWDIN ATOMIC CHARGES
----------------------
   0 C :    0.114505
   1 C :   -0.134478
   2 H :   -0.003559
   3 H :    0.001043
   4 S :    0.814581
   5 O :   -0.578683
   6 O :   -0.568537
   7 O :   -0.552084
   8 H :   -0.026556
   9 H :   -0.040828
  10 H :   -0.025404

  Mayer bond orders larger than 0.100000
B(  0-C ,  1-C ) :   1.2725 B(  0-C ,  2-H ) :   0.1116 B(  0-C ,  3-H ) :   0.1181
B(  0-C ,  8-H ) :   0.7133 B(  0-C ,  9-H ) :   0.5982 B(  0-C , 10-H ) :   0.7228
B(  1-C ,  2-H ) :   0.9305 B(  1-C ,  3-H ) :   0.9178 B(  1-C ,  4-S ) :   0.8846
B(  1-C ,  8-H ) :   0.2572 B(  1-C ,  9-H ) :   0.3104 B(  1-C , 10-H ) :   0.2499
B(  4-S ,  5-O ) :   1.2918 B(  4-S ,  6-O ) :   1.3540 B(  4-S ,  7-O ) :   1.3414

Dispersion correction           -0.020378313
FINAL SINGLE POINT ENERGY      -702.712591182963

DIPOLE MOMENT
-------------
                                X             Y             Z
Electronic contribution:     -0.36031       0.80889      -7.81917
Nuclear contribution   :      0.07504      -1.14369       9.75001
                        -----------------------------------------
Total Dipole Moment    :     -0.28526      -0.33480       1.93084
                        -----------------------------------------
Magnitude (a.u.)       :      1.98030
Magnitude (Debye)      :      5.03354

Rotational constants in cm-1:     0.160553     0.082191     0.080550
Rotational constants in MHz :  4813.250478  2464.013016  2414.833054

                             ****ORCA TERMINATED NORMALLY****
TOTAL RUN TIME: 0 days 0 hours 0 minutes 12 seconds 14 msec
