                         Program Version 5.0.0 -  RELEASE  -
|  1> !BLYP D3BJ RIJCOSX def2-SVPD def2/J TightSCF
|  2> *xyz 1 1
|  3> C          5.55821       -1.99291       -6.21505
|  4> C          4.18188       -2.58967       -6.29891
|  5> N          3.14587       -1.76843       -6.48675
|  6> N          4.01910       -3.86431       -6.22743
|  7> H          4.76849       -4.59115       -5.99077
|  8> H          3.12241       -4.33339       -6.31462
|  9> H          3.28164       -0.77779       -6.56655
| 10> H          2.21255       -2.13419       -6.56225
| 11> C          6.41926       -2.54294       -5.07763
| 12> H          6.03683       -2.19819       -7.17685
| 13> H          5.46761       -0.90737       -6.12797
| 14> H          6.50056       -3.60553       -5.17358
| 15> H          5.96544       -2.30329       -4.13874
| 16> H          7.39438       -2.10494       -5.12457
| 17> *
| 18>
| 19> %MaxCore 64000
| 20>
| 21> %pal nprocs 4
| 22> end
| 23>
| 24> %scf
| 25>   MaxIter 150
| 26> end
| 27>
| 28>
| 29>                          ****END OF INPUT****

CARTESIAN COORDINATES (ANGSTROEM)
---------------------------------
  C      5.558210   -1.992910   -6.215050
  C      4.181880   -2.589670   -6.298910
  N      3.145870   -1.768430   -6.486750
  N      4.019100   -3.864310   -6.227430
  H      4.768490   -4.591150   -5.990770
  H      3.122410   -4.333390   -6.314620
  H      3.281640   -0.777790   -6.566550
  H      2.212550   -2.134190   -6.562250
  C      6.419260   -2.542940   -5.077630
  H      6.036830   -2.198190   -7.176850
  H      5.467610   -0.907370   -6.127970
  H      6.500560   -3.605530   -5.173580
  H      5.965440   -2.303290   -4.138740
  H      7.394380   -2.104940   -5.124570

 Total Charge           Charge          ....    1
 Multiplicity           Mult            ....    1
 Number of Electrons    NEL             ....   40
 Basis Dimension        Dim             ....  172

ORBITAL ENERGIES
----------------

  NO   OCC          E(Eh)            E(eV)
   0   2.0000     -14.275560      -388.4577
   1   2.0000     -14.265374      -388.1806
   2   2.0000     -10.238095      -278.5927
   3   2.0000     -10.120284      -275.3869
   4   2.0000     -10.079061      -274.2652
   5   2.0000      -1.105630       -30.0857
   6   2.0000      -1.015148       -27.6236
   7   2.0000      -0.885013       -24.0824
   8   2.0000      -0.795856       -21.6563
   9   2.0000      -0.749823       -20.4037
  10   2.0000      -0.718720       -19.5574
  11   2.0000      -0.687032       -18.6951
  12   2.0000      -0.647241       -17.6123
  13   2.0000      -0.600760       -16.3475
  14   2.0000      -0.573898       -15.6166
  15   2.0000      -0.552884       -15.0447
  16   2.0000      -0.504183       -13.7195
  17   2.0000      -0.493991       -13.4422
  18   2.0000      -0.479471       -13.0471
  19   2.0000      -0.451238       -12.2788
  20   0.0000      -0.239992        -6.5305
  21   0.0000      -0.184289        -5.0148
  22   0.0000      -0.150942        -4.1073
  23   0.0000      -0.139733        -3.8023
  24   0.0000      -0.118294        -3.2189

MULLIKEN ATOMIC CHARGES
-----------------------
   0 C :   -0.085484
   1 C :    0.577742
   2 N :    0.321486
   3 N :    0.368256
   4 H :   -0.019071
   5 H :   -0.245986
   6 H :   -0.067924
   7 H :   -0.224188
   8 C :    1.167421
   9 H :   -0.118287
  10 H :   -0.096629
  11 H :   -0.273052
  12 H :   -0.167982
  13 H :   -0.136301
Sum of atomic charges:    1.0000000

LOEWDIN ATOMIC CHARGES
----------------------
   0 C :    0.020700
   1 C :   -0.062484
   2 N :    0.306845
   3 N :    0.281234
   4 H :    0.091665
   5 H :    0.046049
   6 H :    0.036276
   7 H :    0.035237
   8 C :    0.178772
   9 H :    0.052303
  10 H :    0.034515
  11 H :   -0.026509
  12 H :   -0.000458
  13 H :    0.005853

  Mayer bond orders larger than 0.100000
B(  0-C ,  1-C ) :   1.0866 B(  0-C ,  2-N ) :   0.1110 B(  0-C ,  8-C ) :   1.3014
B(  0-C ,  9-H ) :   0.8143 B(  0-C , 10-H ) :   0.8326 B(  0-C , 11-H ) :   0.2470
B(  0-C , 12-H ) :   0.2720 B(  0-C , 13-H ) :   0.2331 B(  1-C ,  2-N ) :   1.0764
B(  1-C ,  3-N ) :   1.1880 B(  1-C ,  4-H ) :  -0.1105 B(  1-C ,  5-H ) :  -0.2492
B(  1-C ,  7-H ) :  -0.2326 B(  1-C ,  9-H ) :   0.1431 B(  1-C , 10-H ) :   0.1732
B(  2-N ,  3-N ) :   0.1698 B(  2-N ,  6-H ) :   1.1304 B(  2-N ,  7-H ) :   1.3260
B(  3-N ,  4-H ) :   1.1544 B(  3-N ,  5-H ) :   1.2928 B(  4-H ,  5-H ) :  -0.1948
B(  6-H ,  7-H ) :  -0.1979 B(  8-C , 10-H ) :   0.1351 B(  8-C , 11-H ) :   0.7112
B(  8-C , 12-H ) :   0.6300 B(  8-C , 13-H ) :   0.7172

Dispersion correction           -0.020444917
FINAL SINGLE POINT ENERGY      -228.785554048064

DIPOLE MOMENT
-------------
                                X             Y             Z
Electronic contribution:     -3.78638      -0.47129      -1.56909
Nuclear contribution   :      2.76041       0.12669       1.26265
                        -----------------------------------------
Total Dipole Moment    :     -1.02597      -0.34460      -0.30644
                        -----------------------------------------
Magnitude (a.u.)       :      1.12484
Magnitude (Debye)      :      2.85911

Rotational constants in cm-1:     0.280918     0.124524     0.094121
Rotational constants in MHz :  8421.697738  3733.133254  2821.684112

                             ****ORCA TERMINATED NORMALLY****
TOTAL RUN TIME: 0 days 0 hours 0 minutes 10 seconds 132 msec
