                         Program Version 5.0.0 -  RELEASE  -
|  1> !BLYP D3BJ RIJCOSX def2-SVPD def2/J TightSCF
|  2> *xyz 0 1
|  3> C          4.93020       -7.37532       -2.64962
|  4> C          3.84189       -6.95161       -3.63283
|  5> H          3.45814       -5.95442       -3.40712
|  6> H          2.98848       -7.64361       -3.56708
|  7> S          4.31812       -6.91593       -5.36869
|  8> F          5.40615       -5.89948       -5.51297
|  9> O          3.11191       -6.44508       -6.04379
| 10> O          4.76340       -8.23942       -5.69863
| 11> H          5.27901       -8.35440       -2.90385
| 12> H          4.53000       -7.38577       -1.65734
| 13> H          5.74437       -6.68276       -2.69856
| 14> *
| 15>
| 16> %MaxCore 64000
| 17>
| 18> %pal nprocs 4
| 19> end
| 20>
| 21> %scf
| 22>   MaxIter 150
| 23> end
| 24>
| 25>
| 26>                          ****END OF INPUT****

CARTESIAN COORDINATES (ANGSTROEM)
---------------------------------
  C      4.930200   -7.375320   -2.649620
  C      3.841890   -6.951610   -3.632830
  H      3.458140   -5.954420   -3.407120
  H      2.988480   -7.643610   -3.567080
  S      4.318120   -6.915930   -5.368690
  F      5.406150   -5.899480   -5.512970
  O      3.111910   -6.445080   -6.043790
  O      4.763400   -8.239420   -5.698630
  H      5.279010   -8.354400   -2.903850
  H      4.530000   -7.385770   -1.657340
  H      5.744370   -6.682760   -2.698560

 Total Charge           Charge          ....    0
 Multiplicity           Mult            ....    1
 Number of Electrons    NEL             ....   58
 Basis Dimension        Dim             ....  176

ORBITAL ENERGIES
----------------

  NO   OCC          E(Eh)            E(eV)
   0   2.0000     -88.380432     -2404.9538
   1   2.0000     -24.396169      -663.8535
   2   2.0000     -18.807083      -511.7667
   3   2.0000     -18.797445      -511.5045
   4   2.0000      -9.986874      -271.7567
   5   2.0000      -9.947532      -270.6861
   6   2.0000      -7.918139      -215.4635
   7   2.0000      -5.957253      -162.1051
   8   2.0000      -5.951204      -161.9405
   9   2.0000      -5.949613      -161.8972
  10   2.0000      -1.223770       -33.3005
  11   2.0000      -1.019813       -27.7505
  12   2.0000      -0.927457       -25.2374
  13   2.0000      -0.742859       -20.2142
  14   2.0000      -0.647946       -17.6315
  15   2.0000      -0.604208       -16.4413
  16   2.0000      -0.515972       -14.0403
  17   2.0000      -0.491220       -13.3668
  18   2.0000      -0.483561       -13.1584
  19   2.0000      -0.442481       -12.0405
  20   2.0000      -0.424824       -11.5601
  21   2.0000      -0.403573       -10.9818
  22   2.0000      -0.386984       -10.5304
  23   2.0000      -0.363934        -9.9031
  24   2.0000      -0.357321        -9.7232
  25   2.0000      -0.332932        -9.0595
  26   2.0000      -0.293898        -7.9974
  27   2.0000      -0.284094        -7.7306
  28   2.0000      -0.270104        -7.3499
  29   0.0000      -0.036284        -0.9873
  30   0.0000       0.001905         0.0518
  31   0.0000       0.012611         0.3432
  32   0.0000       0.019865         0.5406
  33   0.0000       0.026214         0.7133

MULLIKEN ATOMIC CHARGES
-----------------------
   0 C :    1.199200
   1 C :   -0.122383
   2 H :   -0.171963
   3 H :   -0.101370
   4 S :    1.328258
   5 F :   -0.382387
   6 O :   -0.603537
   7 O :   -0.592391
   8 H :   -0.158694
   9 H :   -0.206139
  10 H :   -0.188595
Sum of atomic charges:   -0.0000000

LOEWDIN ATOMIC CHARGES
----------------------
   0 C :    0.145268
   1 C :   -0.088055
   2 H :    0.016750
   3 H :    0.035482
   4 S :    1.078856
   5 F :   -0.263022
   6 O :   -0.452854
   7 O :   -0.437627
   8 H :   -0.010598
   9 H :   -0.010315
  10 H :   -0.013884

  Mayer bond orders larger than 0.100000
B(  0-C ,  1-C ) :   1.3081 B(  0-C ,  2-H ) :   0.1051 B(  0-C ,  3-H ) :   0.1079
B(  0-C ,  8-H ) :   0.7189 B(  0-C ,  9-H ) :   0.5992 B(  0-C , 10-H ) :   0.7134
B(  1-C ,  2-H ) :   0.9335 B(  1-C ,  3-H ) :   0.9180 B(  1-C ,  4-S ) :   0.9512
B(  1-C ,  8-H ) :   0.2524 B(  1-C ,  9-H ) :   0.2964 B(  1-C , 10-H ) :   0.2422
B(  4-S ,  5-F ) :   0.6539 B(  4-S ,  6-O ) :   1.5616 B(  4-S ,  7-O ) :   1.5525
B(  6-O ,  7-O ) :   0.1199

Dispersion correction           -0.019399097
FINAL SINGLE POINT ENERGY      -727.223261959478

DIPOLE MOMENT
-------------
                                X             Y             Z
Electronic contribution:      1.28262       2.60571      -8.76367
Nuclear contribution   :     -0.98922      -2.24849      10.35711
                        -----------------------------------------
Total Dipole Moment    :      0.29340       0.35722       1.59344
                        -----------------------------------------
Magnitude (a.u.)       :      1.65914
Magnitude (Debye)      :      4.21720

Rotational constants in cm-1:     0.151436     0.080885     0.078670
Rotational constants in MHz :  4539.936009  2424.868817  2358.476812

                             ****ORCA TERMINATED NORMALLY****
TOTAL RUN TIME: 0 days 0 hours 0 minutes 11 seconds 188 msec
