                         Program Version 5.0.0 -  RELEASE  -
|  1> !BLYP D3BJ RIJCOSX def2-SVPD def2/J TightSCF
|  2> *xyz 0 1
|  3> C          5.55821       -1.99291       -6.21505
|  4> C          4.18188       -2.58967       -6.29891
|  5> C          3.14587       -1.76843       -6.48675
|  6> N          4.01910       -3.86431       -6.22743
|  7> H          4.76849       -4.59115       -5.99077
|  8> H          3.12241       -4.33339       -6.31462
|  9> H          3.28164       -0.77779       -6.56655
| 10> H          2.21255       -2.13419       -6.56225
| 11> C          6.41926       -2.54294       -5.07763
| 12> H          6.03683       -2.19819       -7.17685
| 13> H          5.46761       -0.90737       -6.12797
| 14> H          6.50056       -3.60553       -5.17358
| 15> H          5.96544       -2.30329       -4.13874
| 16> H          7.39438       -2.10494       -5.12457
| 17> *
| 18>
| 19> %MaxCore 64000
| 20>
| 21> %pal nprocs 4
| 22> end
| 23>
| 24> %scf
| 25>   MaxIter 150
| 26> end
| 27>
| 28>
| 29>                          ****END OF INPUT****

CARTESIAN COORDINATES (ANGSTROEM)
---------------------------------
  C      5.558210   -1.992910   -6.215050
  C      4.181880   -2.589670   -6.298910
  C      3.145870   -1.768430   -6.486750
  N      4.019100   -3.864310   -6.227430
  H      4.768490   -4.591150   -5.990770
  H      3.122410   -4.333390   -6.314620
  H      3.281640   -0.777790   -6.566550
  H      2.212550   -2.134190   -6.562250
  C      6.419260   -2.542940   -5.077630
  H      6.036830   -2.198190   -7.176850
  H      5.467610   -0.907370   -6.127970
  H      6.500560   -3.605530   -5.173580
  H      5.965440   -2.303290   -4.138740
  H      7.394380   -2.104940   -5.124570

 Total Charge           Charge          ....    0
 Multiplicity           Mult            ....    1
 Number of Electrons    NEL             ....   40
 Basis Dimension        Dim             ....  172

ORBITAL ENERGIES
----------------

  NO   OCC          E(Eh)            E(eV)
   0   2.0000     -14.033829      -381.8799
   1   2.0000      -9.939554      -270.4690
   2   2.0000      -9.920488      -269.9502
   3   2.0000      -9.912109      -269.7222
   4   2.0000      -9.852460      -268.0991
   5   2.0000      -0.839089       -22.8328
   6   2.0000      -0.692845       -18.8533
   7   2.0000      -0.636356       -17.3161
   8   2.0000      -0.558007       -15.1841
   9   2.0000      -0.521106       -14.1800
  10   2.0000      -0.461859       -12.5678
  11   2.0000      -0.417221       -11.3532
  12   2.0000      -0.391413       -10.6509
  13   2.0000      -0.372105       -10.1255
  14   2.0000      -0.343396        -9.3443
  15   2.0000      -0.333462        -9.0740
  16   2.0000      -0.313027        -8.5179
  17   2.0000      -0.289773        -7.8851
  18   2.0000      -0.283784        -7.7222
  19   2.0000      -0.150945        -4.1074
  20   0.0000      -0.008927        -0.2429
  21   0.0000       0.015892         0.4324
  22   0.0000       0.029993         0.8162
  23   0.0000       0.034092         0.9277
  24   0.0000       0.053357         1.4519

MULLIKEN ATOMIC CHARGES
-----------------------
   0 C :    0.173843
   1 C :   -0.228392
   2 C :    0.809163
   3 N :    0.493253
   4 H :   -0.190947
   5 H :   -0.325407
   6 H :   -0.339048
   7 H :   -0.645183
   8 C :    1.151252
   9 H :   -0.203761
  10 H :   -0.026643
  11 H :   -0.304170
  12 H :   -0.182931
  13 H :   -0.181030
Sum of atomic charges:   -0.0000000

LOEWDIN ATOMIC CHARGES
----------------------
   0 C :   -0.021390
   1 C :   -0.273387
   2 C :    0.192458
   3 N :    0.169484
   4 H :    0.032553
   5 H :    0.004319
   6 H :   -0.100485
   7 H :   -0.100146
   8 C :    0.139153
   9 H :    0.021314
  10 H :    0.019292
  11 H :   -0.044060
  12 H :   -0.016435
  13 H :   -0.022671

  Mayer bond orders larger than 0.100000
B(  0-C ,  1-C ) :   1.1159 B(  0-C ,  2-C ) :   0.1749 B(  0-C ,  3-N ) :   0.1077
B(  0-C ,  6-H ) :  -0.1273 B(  0-C ,  8-C ) :   1.2401 B(  0-C ,  9-H ) :   0.7015
B(  0-C , 10-H ) :   0.8219 B(  0-C , 11-H ) :   0.2610 B(  0-C , 12-H ) :   0.2591
B(  0-C , 13-H ) :   0.2672 B(  1-C ,  2-C ) :   1.4093 B(  1-C ,  3-N ) :   1.3664
B(  1-C ,  7-H ) :   0.2799 B(  1-C ,  9-H ) :   0.2834 B(  1-C , 10-H ) :   0.1171
B(  2-C ,  3-N ) :   0.2999 B(  2-C ,  6-H ) :   0.9830 B(  2-C ,  7-H ) :   0.4064
B(  3-N ,  4-H ) :   1.1904 B(  3-N ,  5-H ) :   1.2197 B(  4-H ,  5-H ) :  -0.1691
B(  8-C , 10-H ) :   0.1448 B(  8-C , 11-H ) :   0.6980 B(  8-C , 12-H ) :   0.6452
B(  8-C , 13-H ) :   0.6742

Dispersion correction           -0.021294382
FINAL SINGLE POINT ENERGY      -212.313828783441

DIPOLE MOMENT
-------------
                                X             Y             Z
Electronic contribution:     -2.06067      -1.05918      -1.03381
Nuclear contribution   :      2.41345       0.31141       1.16343
                        -----------------------------------------
Total Dipole Moment    :      0.35278      -0.74777       0.12962
                        -----------------------------------------
Magnitude (a.u.)       :      0.83690
Magnitude (Debye)      :      2.12724

Rotational constants in cm-1:     0.287957     0.129204     0.097498
Rotational constants in MHz :  8632.737925  3873.424745  2922.919500

                             ****ORCA TERMINATED NORMALLY****
TOTAL RUN TIME: 0 days 0 hours 0 minutes 11 seconds 156 msec
