                         Program Version 5.0.0 -  RELEASE  -
|  1> !BLYP D3BJ RIJCOSX def2-SVPD def2/J TightSCF
|  2> *xyz 0 1
|  3> C          4.93020       -7.37532       -2.64962
|  4> C          3.84189       -6.95161       -3.63283
|  5> H          3.45814       -5.95442       -3.40712
|  6> H          2.98848       -7.64361       -3.56708
|  7> S          4.31812       -6.91593       -5.36869
|  8> O          5.40615       -5.89948       -5.51297
|  9> F          3.11191       -6.44508       -6.04379
| 10> O          4.76340       -8.23942       -5.69863
| 11> H          5.27901       -8.35440       -2.90385
| 12> H          4.53000       -7.38577       -1.65734
| 13> H          5.74437       -6.68276       -2.69856
| 14> *
| 15>
| 16> %MaxCore 64000
| 17>
| 18> %pal nprocs 4
| 19> end
| 20>
| 21> %scf
| 22>   MaxIter 150
| 23> end
| 24>
| 25>
| 26>                          ****END OF INPUT****

CARTESIAN COORDINATES (ANGSTROEM)
---------------------------------
  C      4.930200   -7.375320   -2.649620
  C      3.841890   -6.951610   -3.632830
  H      3.458140   -5.954420   -3.407120
  H      2.988480   -7.643610   -3.567080
  S      4.318120   -6.915930   -5.368690
  O      5.406150   -5.899480   -5.512970
  F      3.111910   -6.445080   -6.043790
  O      4.763400   -8.239420   -5.698630
  H      5.279010   -8.354400   -2.903850
  H      4.530000   -7.385770   -1.657340
  H      5.744370   -6.682760   -2.698560

 Total Charge           Charge          ....    0
 Multiplicity           Mult            ....    1
 Number of Electrons    NEL             ....   58
 Basis Dimension        Dim             ....  176

ORBITAL ENERGIES
----------------

  NO   OCC          E(Eh)            E(eV)
   0   2.0000     -88.382327     -2405.0054
   1   2.0000     -24.410207      -664.2355
   2   2.0000     -18.806402      -511.7482
   3   2.0000     -18.790084      -511.3042
   4   2.0000      -9.987908      -271.7848
   5   2.0000      -9.946306      -270.6527
   6   2.0000      -7.919993      -215.5140
   7   2.0000      -5.959253      -162.1595
   8   2.0000      -5.952959      -161.9883
   9   2.0000      -5.951290      -161.9428
  10   2.0000      -1.250318       -34.0229
  11   2.0000      -1.013916       -27.5901
  12   2.0000      -0.909180       -24.7401
  13   2.0000      -0.742998       -20.2180
  14   2.0000      -0.661154       -17.9909
  15   2.0000      -0.604500       -16.4493
  16   2.0000      -0.518022       -14.0961
  17   2.0000      -0.509772       -13.8716
  18   2.0000      -0.492834       -13.4107
  19   2.0000      -0.443649       -12.0723
  20   2.0000      -0.428632       -11.6637
  21   2.0000      -0.391830       -10.6622
  22   2.0000      -0.385452       -10.4887
  23   2.0000      -0.366568        -9.9748
  24   2.0000      -0.346483        -9.4283
  25   2.0000      -0.335769        -9.1367
  26   2.0000      -0.291416        -7.9298
  27   2.0000      -0.276052        -7.5118
  28   2.0000      -0.256930        -6.9914
  29   0.0000      -0.026889        -0.7317
  30   0.0000      -0.008538        -0.2323
  31   0.0000       0.016387         0.4459
  32   0.0000       0.023697         0.6448
  33   0.0000       0.027456         0.7471

MULLIKEN ATOMIC CHARGES
-----------------------
   0 C :    1.170632
   1 C :   -0.141521
   2 H :   -0.160271
   3 H :   -0.096877
   4 S :    1.348715
   5 O :   -0.634225
   6 F :   -0.370749
   7 O :   -0.581233
   8 H :   -0.162401
   9 H :   -0.204252
  10 H :   -0.167818
Sum of atomic charges:   -0.0000000

LOEWDIN ATOMIC CHARGES
----------------------
   0 C :    0.160100
   1 C :   -0.099884
   2 H :    0.015678
   3 H :    0.021182
   4 S :    1.081135
   5 O :   -0.462856
   6 F :   -0.254213
   7 O :   -0.439788
   8 H :   -0.007493
   9 H :   -0.007653
  10 H :   -0.006208

  Mayer bond orders larger than 0.100000
B(  0-C ,  1-C ) :   1.3522 B(  0-C ,  2-H ) :   0.1096 B(  0-C ,  3-H ) :   0.1143
B(  0-C ,  8-H ) :   0.7118 B(  0-C ,  9-H ) :   0.6096 B(  0-C , 10-H ) :   0.7232
B(  1-C ,  2-H ) :   0.9223 B(  1-C ,  3-H ) :   0.9053 B(  1-C ,  4-S ) :   0.9278
B(  1-C ,  8-H ) :   0.2496 B(  1-C ,  9-H ) :   0.2966 B(  1-C , 10-H ) :   0.2444
B(  4-S ,  5-O ) :   1.4920 B(  4-S ,  6-F ) :   0.7167 B(  4-S ,  7-O ) :   1.5478
B(  5-O ,  7-O ) :   0.1096

Dispersion correction           -0.019472208
FINAL SINGLE POINT ENERGY      -727.212125061839

DIPOLE MOMENT
-------------
                                X             Y             Z
Electronic contribution:     -2.54393       1.68975      -9.65770
Nuclear contribution   :      1.40145      -1.67996      10.91024
                        -----------------------------------------
Total Dipole Moment    :     -1.14248       0.00979       1.25254
                        -----------------------------------------
Magnitude (a.u.)       :      1.69535
Magnitude (Debye)      :      4.30924

Rotational constants in cm-1:     0.155875     0.079864     0.077188
Rotational constants in MHz :  4673.017506  2394.277415  2314.027118

                             ****ORCA TERMINATED NORMALLY****
TOTAL RUN TIME: 0 days 0 hours 0 minutes 11 seconds 199 msec
