                         Program Version 5.0.0 -  RELEASE  -
|  1> !BLYP D3BJ RIJCOSX def2-SVPD def2/J TightSCF
|  2> *xyz 0 1
|  3> C          5.55821       -1.99291       -6.21505
|  4> C          4.18188       -2.58967       -6.29891
|  5> N          3.14587       -1.76843       -6.48675
|  6> C          4.01910       -3.86431       -6.22743
|  7> H          4.76849       -4.59115       -5.99077
|  8> H          3.12241       -4.33339       -6.31462
|  9> H          3.28164       -0.77779       -6.56655
| 10> H          2.21255       -2.13419       -6.56225
| 11> C          6.41926       -2.54294       -5.07763
| 12> H          6.03683       -2.19819       -7.17685
| 13> H          5.46761       -0.90737       -6.12797
| 14> H          6.50056       -3.60553       -5.17358
| 15> H          5.96544       -2.30329       -4.13874
| 16> H          7.39438       -2.10494       -5.12457
| 17> *
| 18>
| 19> %MaxCore 64000
| 20>
| 21> %pal nprocs 4
| 22> end
| 23>
| 24> %scf
| 25>   MaxIter 150
| 26> end
| 27>
| 28>
| 29>                          ****END OF INPUT****

CARTESIAN COORDINATES (ANGSTROEM)
---------------------------------
  C      5.558210   -1.992910   -6.215050
  C      4.181880   -2.589670   -6.298910
  N      3.145870   -1.768430   -6.486750
  C      4.019100   -3.864310   -6.227430
  H      4.768490   -4.591150   -5.990770
  H      3.122410   -4.333390   -6.314620
  H      3.281640   -0.777790   -6.566550
  H      2.212550   -2.134190   -6.562250
  C      6.419260   -2.542940   -5.077630
  H      6.036830   -2.198190   -7.176850
  H      5.467610   -0.907370   -6.127970
  H      6.500560   -3.605530   -5.173580
  H      5.965440   -2.303290   -4.138740
  H      7.394380   -2.104940   -5.124570

 Total Charge           Charge          ....    0
 Multiplicity           Mult            ....    1
 Number of Electrons    NEL             ....   40
 Basis Dimension        Dim             ....  172

ORBITAL ENERGIES
----------------

  NO   OCC          E(Eh)            E(eV)
   0   2.0000     -14.023782      -381.6065
   1   2.0000      -9.937478      -270.4125
   2   2.0000      -9.921770      -269.9851
   3   2.0000      -9.906135      -269.5596
   4   2.0000      -9.859019      -268.2775
   5   2.0000      -0.829450       -22.5705
   6   2.0000      -0.695963       -18.9381
   7   2.0000      -0.632467       -17.2103
   8   2.0000      -0.568025       -15.4567
   9   2.0000      -0.496633       -13.5141
  10   2.0000      -0.467584       -12.7236
  11   2.0000      -0.430399       -11.7117
  12   2.0000      -0.395229       -10.7547
  13   2.0000      -0.368312       -10.0223
  14   2.0000      -0.336774        -9.1641
  15   2.0000      -0.324437        -8.8284
  16   2.0000      -0.305809        -8.3215
  17   2.0000      -0.291967        -7.9448
  18   2.0000      -0.279999        -7.6192
  19   2.0000      -0.157513        -4.2862
  20   0.0000       0.000173         0.0047
  21   0.0000       0.015118         0.4114
  22   0.0000       0.031213         0.8494
  23   0.0000       0.036456         0.9920
  24   0.0000       0.058019         1.5788

MULLIKEN ATOMIC CHARGES
-----------------------
   0 C :    0.223743
   1 C :    0.184731
   2 N :    0.473605
   3 C :    0.349798
   4 H :   -0.133801
   5 H :   -0.689884
   6 H :   -0.252236
   7 H :   -0.274107
   8 C :    1.186155
   9 H :   -0.208932
  10 H :   -0.219829
  11 H :   -0.274494
  12 H :   -0.186527
  13 H :   -0.178222
Sum of atomic charges:    0.0000000

LOEWDIN ATOMIC CHARGES
----------------------
   0 C :   -0.024989
   1 C :   -0.261708
   2 N :    0.197750
   3 C :    0.164725
   4 H :   -0.053589
   5 H :   -0.092218
   6 H :   -0.021495
   7 H :   -0.005556
   8 C :    0.144572
   9 H :    0.023900
  10 H :    0.005855
  11 H :   -0.036121
  12 H :   -0.016747
  13 H :   -0.024378

  Mayer bond orders larger than 0.100000
B(  0-C ,  1-C ) :   1.0030 B(  0-C ,  2-N ) :   0.1441 B(  0-C ,  3-C ) :   0.1064
B(  0-C ,  8-C ) :   1.2763 B(  0-C ,  9-H ) :   0.7766 B(  0-C , 10-H ) :   0.6913
B(  0-C , 11-H ) :   0.2360 B(  0-C , 12-H ) :   0.2789 B(  0-C , 13-H ) :   0.2405
B(  1-C ,  2-N ) :   1.1347 B(  1-C ,  3-C ) :   1.2796 B(  1-C ,  5-H ) :   0.1036
B(  1-C ,  7-H ) :  -0.1267 B(  1-C ,  9-H ) :   0.1818 B(  1-C , 10-H ) :   0.2095
B(  2-N ,  3-C ) :   0.3561 B(  2-N ,  6-H ) :   1.1007 B(  2-N ,  7-H ) :   1.2671
B(  3-C ,  4-H ) :   0.8618 B(  3-C ,  5-H ) :   0.6504 B(  4-H ,  5-H ) :  -0.1031
B(  6-H ,  7-H ) :  -0.1699 B(  8-C ,  9-H ) :   0.1214 B(  8-C , 10-H ) :   0.1168
B(  8-C , 11-H ) :   0.7152 B(  8-C , 12-H ) :   0.6530 B(  8-C , 13-H ) :   0.6827

Dispersion correction           -0.021387757
FINAL SINGLE POINT ENERGY      -212.322727337614

DIPOLE MOMENT
-------------
                                X             Y             Z
Electronic contribution:     -2.82546       0.80095      -1.29191
Nuclear contribution   :      2.61570      -0.17401       1.22349
                        -----------------------------------------
Total Dipole Moment    :     -0.20976       0.62694      -0.06842
                        -----------------------------------------
Magnitude (a.u.)       :      0.66463
Magnitude (Debye)      :      1.68934

Rotational constants in cm-1:     0.298189     0.125314     0.096441
Rotational constants in MHz :  8939.495008  3756.825352  2891.223400

                             ****ORCA TERMINATED NORMALLY****
TOTAL RUN TIME: 0 days 0 hours 0 minutes 10 seconds 565 msec
