                         Program Version 5.0.0 -  RELEASE  -
|  1> !BLYP D3BJ RIJCOSX def2-SVPD def2/J TightSCF
|  2> *xyz 0 1
|  3> C          4.93020       -7.37532       -2.64962
|  4> C          3.84189       -6.95161       -3.63283
|  5> H          3.45814       -5.95442       -3.40712
|  6> H          2.98848       -7.64361       -3.56708
|  7> S          4.31812       -6.91593       -5.36869
|  8> O          5.40615       -5.89948       -5.51297
|  9> O          3.11191       -6.44508       -6.04379
| 10> F          4.76340       -8.23942       -5.69863
| 11> H          5.27901       -8.35440       -2.90385
| 12> H          4.53000       -7.38577       -1.65734
| 13> H          5.74437       -6.68276       -2.69856
| 14> *
| 15>
| 16> %MaxCore 64000
| 17>
| 18> %pal nprocs 4
| 19> end
| 20>
| 21> %scf
| 22>   MaxIter 150
| 23> end
| 24>
| 25>
| 26>                          ****END OF INPUT****

CARTESIAN COORDINATES (ANGSTROEM)
---------------------------------
  C      4.930200   -7.375320   -2.649620
  C      3.841890   -6.951610   -3.632830
  H      3.458140   -5.954420   -3.407120
  H      2.988480   -7.643610   -3.567080
  S      4.318120   -6.915930   -5.368690
  O      5.406150   -5.899480   -5.512970
  O      3.111910   -6.445080   -6.043790
  F      4.763400   -8.239420   -5.698630
  H      5.279010   -8.354400   -2.903850
  H      4.530000   -7.385770   -1.657340
  H      5.744370   -6.682760   -2.698560

 Total Charge           Charge          ....    0
 Multiplicity           Mult            ....    1
 Number of Electrons    NEL             ....   58
 Basis Dimension        Dim             ....  176

ORBITAL ENERGIES
----------------

  NO   OCC          E(Eh)            E(eV)
   0   2.0000     -88.383867     -2405.0473
   1   2.0000     -24.423366      -664.5936
   2   2.0000     -18.797766      -511.5132
   3   2.0000     -18.791083      -511.3314
   4   2.0000      -9.988193      -271.7926
   5   2.0000      -9.948586      -270.7148
   6   2.0000      -7.921493      -215.5548
   7   2.0000      -5.961030      -162.2079
   8   2.0000      -5.954233      -162.0229
   9   2.0000      -5.952637      -161.9795
  10   2.0000      -1.272337       -34.6220
  11   2.0000      -1.003151       -27.2971
  12   2.0000      -0.901919       -24.5425
  13   2.0000      -0.745455       -20.2849
  14   2.0000      -0.665264       -18.1027
  15   2.0000      -0.613550       -16.6955
  16   2.0000      -0.536294       -14.5933
  17   2.0000      -0.523862       -14.2550
  18   2.0000      -0.489681       -13.3249
  19   2.0000      -0.443252       -12.0615
  20   2.0000      -0.425419       -11.5762
  21   2.0000      -0.401042       -10.9129
  22   2.0000      -0.383436       -10.4338
  23   2.0000      -0.364531        -9.9194
  24   2.0000      -0.353384        -9.6161
  25   2.0000      -0.325848        -8.8668
  26   2.0000      -0.283296        -7.7089
  27   2.0000      -0.274944        -7.4816
  28   2.0000      -0.251619        -6.8469
  29   0.0000      -0.034188        -0.9303
  30   0.0000       0.000377         0.0103
  31   0.0000       0.013705         0.3729
  32   0.0000       0.019170         0.5217
  33   0.0000       0.026133         0.7111

MULLIKEN ATOMIC CHARGES
-----------------------
   0 C :    1.197175
   1 C :   -0.121226
   2 H :   -0.164542
   3 H :   -0.107422
   4 S :    1.317336
   5 O :   -0.628213
   6 O :   -0.586724
   7 F :   -0.354573
   8 H :   -0.182155
   9 H :   -0.205288
  10 H :   -0.164369
Sum of atomic charges:    0.0000000

LOEWDIN ATOMIC CHARGES
----------------------
   0 C :    0.145004
   1 C :   -0.088786
   2 H :    0.029966
   3 H :    0.022179
   4 S :    1.080525
   5 O :   -0.460456
   6 O :   -0.452528
   7 F :   -0.241350
   8 H :   -0.015320
   9 H :   -0.010089
  10 H :   -0.009145

  Mayer bond orders larger than 0.100000
B(  0-C ,  1-C ) :   1.3064 B(  0-C ,  2-H ) :   0.1024 B(  0-C ,  3-H ) :   0.1096
B(  0-C ,  8-H ) :   0.7034 B(  0-C ,  9-H ) :   0.5999 B(  0-C , 10-H ) :   0.7297
B(  1-C ,  2-H ) :   0.9364 B(  1-C ,  3-H ) :   0.9176 B(  1-C ,  4-S ) :   0.9495
B(  1-C ,  8-H ) :   0.2474 B(  1-C ,  9-H ) :   0.2966 B(  1-C , 10-H ) :   0.2465
B(  4-S ,  5-O ) :   1.5061 B(  4-S ,  6-O ) :   1.5672 B(  4-S ,  7-F ) :   0.7280

Dispersion correction           -0.019379489
FINAL SINGLE POINT ENERGY      -727.200584975380

DIPOLE MOMENT
-------------
                                X             Y             Z
Electronic contribution:      0.20114      -1.27704      -9.07556
Nuclear contribution   :     -0.31946       0.18980      10.55057
                        -----------------------------------------
Total Dipole Moment    :     -0.11832      -1.08725       1.47501
                        -----------------------------------------
Magnitude (a.u.)       :      1.83624
Magnitude (Debye)      :      4.66734

Rotational constants in cm-1:     0.151421     0.081183     0.078684
Rotational constants in MHz :  4539.489207  2433.790160  2358.892966

                             ****ORCA TERMINATED NORMALLY****
TOTAL RUN TIME: 0 days 0 hours 0 minutes 11 seconds 148 msec
