                         Program Version 5.0.0 -  RELEASE  -
|  1> !BLYP D3BJ RIJCOSX def2-SVPD def2/J TightSCF xyzfile
|  2>
|  3> *xyzfile 0 1 D4.xyz
|  4>
|  5> %MaxCore 64000
|  6>
|  7> %pal nprocs 4
|  8> end
|  9>
| 10> %scf
| 11>   MaxIter 150
| 12> end
| 13>
| 14>
| 15>                          ****END OF INPUT****

CARTESIAN COORDINATES (ANGSTROEM)
---------------------------------
  C      5.558206   -1.992914   -6.215054
  C      4.930199   -7.375319   -2.649623
  C      3.841892   -6.951611   -3.632829
  H      3.458144   -5.954425   -3.407121
  H      2.988484   -7.643606   -3.567078
  S      4.318115   -6.915930   -5.368692
  C      4.181880   -2.589671   -6.298911
  N      3.145873   -1.768431   -6.486753
  C      4.019102   -3.864307   -6.227427
  H      4.768490   -4.591153   -5.990773
  H      3.122405   -4.333392   -6.314620
  H      3.281635   -0.777786   -6.566549
  H      2.212549   -2.134193   -6.562246
  O      5.406154   -5.899480   -5.512972
  F      3.111910   -6.445079   -6.043792
  C      6.419260   -2.542944   -5.077630
  C      5.872267   -5.002756   -2.427819
  C      6.173994   -6.485522   -2.606315
  H      6.734852   -6.613767   -3.534015
  H      6.821463   -6.831018   -1.793617
  H      4.469612   -7.406168   -1.655876
  H      5.230134   -8.398678   -2.885906
  C      5.896512   -2.169314   -3.694552
  H      7.428880   -2.143665   -5.208078
  H      6.505894   -3.627541   -5.175502
  C      6.807804   -2.623428   -2.551019
  H      4.894708   -2.589732   -3.557501
  H      5.778823   -1.081255   -3.635790
  C      7.111544   -4.122463   -2.520363
  H      7.751615   -2.071393   -2.614406
  H      6.345837   -2.326401   -1.604086
  H      5.362882   -4.828697   -1.471335
  H      5.174429   -4.702577   -3.211298
  H      7.778329   -4.329347   -1.677651
  H      7.673189   -4.402845   -3.417586
  O      4.763396   -8.239424   -5.698629
  H      6.036826   -2.198189   -7.176852
  H      5.467610   -0.907371   -6.127968

 Total Charge           Charge          ....    0
 Multiplicity           Mult            ....    1
 Number of Electrons    NEL             ....  136
 Basis Dimension        Dim             ....  512

ORBITAL ENERGIES
----------------

  NO   OCC          E(Eh)            E(eV)
   0   2.0000     -88.385938     -2405.1037
   1   2.0000     -24.408364      -664.1854
   2   2.0000     -18.807520      -511.7786
   3   2.0000     -18.790815      -511.3241
   4   2.0000     -14.013426      -381.3247
   5   2.0000      -9.981721      -271.6164
   6   2.0000      -9.948046      -270.7001
   7   2.0000      -9.922203      -269.9969
   8   2.0000      -9.920096      -269.9395
   9   2.0000      -9.912316      -269.7278
  10   2.0000      -9.909184      -269.6426
  11   2.0000      -9.908954      -269.6364
  12   2.0000      -9.908197      -269.6158
  13   2.0000      -9.903671      -269.4926
  14   2.0000      -9.903545      -269.4891
  15   2.0000      -9.826789      -267.4005
  16   2.0000      -7.921929      -215.5667
  17   2.0000      -5.961082      -162.2093
  18   2.0000      -5.955224      -162.0499
  19   2.0000      -5.953285      -161.9971
  20   2.0000      -1.249431       -33.9988
  21   2.0000      -1.016183       -27.6517
  22   2.0000      -0.917736       -24.9729
  23   2.0000      -0.818184       -22.2639
  24   2.0000      -0.751704       -20.4549
  25   2.0000      -0.721130       -19.6230
  26   2.0000      -0.696822       -18.9615
  27   2.0000      -0.675076       -18.3697
  28   2.0000      -0.645596       -17.5676
  29   2.0000      -0.627196       -17.0669
  30   2.0000      -0.604946       -16.4614
  31   2.0000      -0.578110       -15.7312
  32   2.0000      -0.548509       -14.9257
  33   2.0000      -0.531555       -14.4643
  34   2.0000      -0.514513       -14.0006
  35   2.0000      -0.503720       -13.7069
  36   2.0000      -0.498101       -13.5540
  37   2.0000      -0.488077       -13.2812
  38   2.0000      -0.476481       -12.9657
  39   2.0000      -0.457568       -12.4511
  40   2.0000      -0.440577       -11.9887
  41   2.0000      -0.437713       -11.9108
  42   2.0000      -0.423247       -11.5171
  43   2.0000      -0.412712       -11.2305
  44   2.0000      -0.404041       -10.9945
  45   2.0000      -0.395444       -10.7606
  46   2.0000      -0.391948       -10.6654
  47   2.0000      -0.375408       -10.2154
  48   2.0000      -0.365853        -9.9554
  49   2.0000      -0.359880        -9.7928
  50   2.0000      -0.354726        -9.6526
  51   2.0000      -0.346557        -9.4303
  52   2.0000      -0.337544        -9.1851
  53   2.0000      -0.320084        -8.7099
  54   2.0000      -0.317259        -8.6331
  55   2.0000      -0.312416        -8.5013
  56   2.0000      -0.305396        -8.3103
  57   2.0000      -0.296948        -8.0804
  58   2.0000      -0.292039        -7.9468
  59   2.0000      -0.289051        -7.8655
  60   2.0000      -0.280255        -7.6261
  61   2.0000      -0.278252        -7.5716
  62   2.0000      -0.274695        -7.4748
  63   2.0000      -0.266442        -7.2503
  64   2.0000      -0.261722        -7.1218
  65   2.0000      -0.257361        -7.0032
  66   2.0000      -0.223574        -6.0838
  67   2.0000      -0.143939        -3.9168
  68   0.0000      -0.022219        -0.6046
  69   0.0000      -0.009171        -0.2496
  70   0.0000       0.005415         0.1474
  71   0.0000       0.008342         0.2270
  72   0.0000       0.015445         0.4203

MULLIKEN ATOMIC CHARGES
-----------------------
   0 C :    1.204702
   1 C :    0.773884
   2 C :    0.255382
   3 H :    0.118861
   4 H :   -0.391869
   5 S :    1.391889
   6 C :   -0.029686
   7 N :    0.461514
   8 C :    1.423083
   9 H :   -0.324960
  10 H :   -1.302492
  11 H :   -0.241205
  12 H :   -0.281245
  13 O :   -0.828153
  14 F :   -0.455586
  15 C :    0.724491
  16 C :    0.269833
  17 C :    0.576698
  18 H :   -0.038687
  19 H :   -0.508106
  20 H :   -0.061695
  21 H :   -0.161498
  22 C :    0.174324
  23 H :   -0.263004
  24 H :   -0.810085
  25 C :    0.932642
  26 H :    0.055088
  27 H :   -0.523423
  28 C :    0.407546
  29 H :   -0.113894
  30 H :   -0.201358
  31 H :   -0.092707
  32 H :   -0.514201
  33 H :   -0.503792
  34 H :   -0.024741
  35 O :   -0.676699
  36 H :   -0.300769
  37 H :   -0.120084
Sum of atomic charges:    0.0000000

LOEWDIN ATOMIC CHARGES
----------------------
   0 C :    0.024018
   1 C :   -0.008431
   2 C :   -0.043865
   3 H :    0.011412
   4 H :    0.023704
   5 S :    1.128454
   6 C :   -0.240194
   7 N :    0.197298
   8 C :    0.180419
   9 H :   -0.170079
  10 H :   -0.102206
  11 H :   -0.025419
  12 H :   -0.008747
  13 O :   -0.436377
  14 F :   -0.244423
  15 C :   -0.007953
  16 C :   -0.024083
  17 C :   -0.016763
  18 H :    0.012353
  19 H :    0.025372
  20 H :    0.033153
  21 H :    0.026908
  22 C :   -0.023544
  23 H :    0.023537
  24 H :   -0.005726
  25 C :   -0.023109
  26 H :    0.008180
  27 H :    0.016579
  28 C :   -0.021647
  29 H :    0.015854
  30 H :    0.014665
  31 H :    0.032262
  32 H :   -0.018447
  33 H :    0.018269
  34 H :    0.016628
  35 O :   -0.421001
  36 H :    0.026330
  37 H :    0.006615

  Mayer bond orders larger than 0.100000
B(  0-C ,  6-C ) :   0.9386 B(  0-C ,  7-N ) :   0.1003 B(  0-C ,  8-C ) :   0.2147
B(  0-C ,  9-H ) :  -0.1969 B(  0-C , 15-C ) :   1.1454 B(  0-C , 24-H ) :   0.1640
B(  0-C , 36-H ) :   0.3418 B(  0-C , 37-H ) :   0.5307 B(  1-C ,  2-C ) :   1.2408
B(  1-C ,  3-H ) :   0.1300 B(  1-C ,  4-H ) :   0.2134 B(  1-C , 16-C ) :   0.1176
B(  1-C , 17-C ) :   1.1585 B(  1-C , 18-H ) :   0.1088 B(  1-C , 20-H ) :   0.5650
B(  1-C , 21-H ) :   0.5100 B(  2-C ,  3-H ) :   0.7783 B(  2-C ,  4-H ) :   0.6774
B(  2-C ,  5-S ) :   0.9550 B(  2-C , 17-C ) :   0.1273 B(  2-C , 20-H ) :   0.2745
B(  2-C , 21-H ) :   0.1476 B(  2-C , 35-O ) :   0.1309 B(  3-H , 17-C ) :  -0.1163
B(  4-H ,  5-S ) :   0.1037 B(  5-S , 13-O ) :   1.3548 B(  5-S , 14-F ) :   0.6735
B(  5-S , 35-O ) :   1.5268 B(  6-C ,  7-N ) :   0.9452 B(  6-C ,  8-C ) :   1.8626
B(  6-C ,  9-H ) :  -0.2818 B(  6-C , 10-H ) :   0.2874 B(  6-C , 12-H ) :  -0.1320
B(  6-C , 36-H ) :   0.3258 B(  6-C , 37-H ) :   0.1799 B(  7-N ,  8-C ) :   0.5636
B(  7-N ,  9-H ) :   0.1349 B(  7-N , 10-H ) :  -0.1240 B(  7-N , 11-H ) :   1.1080
B(  7-N , 12-H ) :   1.2767 B(  8-C ,  9-H ) :   0.2212 B(  8-C , 10-H ) :  -0.8294
B(  8-C , 14-F ) :  -0.1820 B(  8-C , 24-H ) :   0.2071 B(  9-H , 10-H ) :  -0.2939
B(  9-H , 13-O ) :   0.1015 B(  9-H , 14-F ) :   0.1050 B(  9-H , 15-C ) :   0.1288
B(  9-H , 24-H ) :   0.1341 B( 10-H , 14-F ) :   0.2874 B( 10-H , 24-H ) :  -0.1683
B( 11-H , 12-H ) :  -0.1631 B( 13-O , 18-H ) :   0.1077 B( 13-O , 24-H ) :   0.2119
B( 13-O , 35-O ) :   0.1756 B( 15-C , 22-C ) :   1.1408 B( 15-C , 23-H ) :   0.5576
B( 15-C , 24-H ) :   0.3080 B( 15-C , 26-H ) :   0.1877 B( 15-C , 27-H ) :   0.2158
B( 15-C , 36-H ) :   0.4203 B( 15-C , 37-H ) :   0.2167 B( 16-C , 17-C ) :   1.1654
B( 16-C , 18-H ) :   0.1857 B( 16-C , 19-H ) :   0.1957 B( 16-C , 28-C ) :   1.1833
B( 16-C , 31-H ) :   0.6505 B( 16-C , 32-H ) :   0.8692 B( 16-C , 33-H ) :   0.2477
B( 16-C , 34-H ) :   0.2069 B( 17-C , 18-H ) :   0.7543 B( 17-C , 19-H ) :   0.6272
B( 17-C , 20-H ) :   0.1171 B( 17-C , 21-H ) :   0.3275 B( 17-C , 28-C ) :   0.2027
B( 17-C , 31-H ) :   0.1219 B( 17-C , 32-H ) :   0.1269 B( 18-H , 19-H ) :  -0.1026
B( 20-H , 21-H ) :  -0.1568 B( 22-C , 23-H ) :   0.1934 B( 22-C , 24-H ) :   0.2865
B( 22-C , 25-C ) :   1.0312 B( 22-C , 26-H ) :   0.7829 B( 22-C , 27-H ) :   0.9033
B( 22-C , 28-C ) :   0.2277 B( 22-C , 29-H ) :   0.1940 B( 22-C , 30-H ) :   0.3391
B( 22-C , 34-H ) :  -0.1037 B( 24-H , 34-H ) :   0.1131 B( 25-C , 28-C ) :   1.0749
B( 25-C , 29-H ) :   0.5112 B( 25-C , 30-H ) :   0.5177 B( 25-C , 34-H ) :   0.1113
B( 26-H , 27-H ) :  -0.1465 B( 26-H , 32-H ) :   0.1888 B( 28-C , 29-H ) :   0.3026
B( 28-C , 30-H ) :   0.1428 B( 28-C , 31-H ) :   0.1439 B( 28-C , 32-H ) :   0.1266
B( 28-C , 33-H ) :   0.7714 B( 28-C , 34-H ) :   0.7318 B( 29-H , 30-H ) :  -0.1657
B( 33-H , 34-H ) :  -0.1068 B( 36-H , 37-H ) :  -0.1954

Dispersion correction           -0.092936503
FINAL SINGLE POINT ENERGY     -1134.659240625204

DIPOLE MOMENT
-------------
                                X             Y             Z
Electronic contribution:    -11.67223     -18.13881     -14.65290
Nuclear contribution   :     10.61624      18.49702      15.75668
                        -----------------------------------------
Total Dipole Moment    :     -1.05599       0.35822       1.10378
                        -----------------------------------------
Magnitude (a.u.)       :      1.56900
Magnitude (Debye)      :      3.98809

Rotational constants in cm-1:     0.017796     0.012372     0.008231
Rotational constants in MHz :   533.524905   370.895973   246.762347

                             ****ORCA TERMINATED NORMALLY****
TOTAL RUN TIME: 0 days 0 hours 1 minutes 1 seconds 935 msec
