                         Program Version 5.0.0 -  RELEASE  -
|  1> !PBE0 D3BJ RIJCOSX def2-SVPD def2/J TightSCF
|  2> *xyz -1 1
|  3> C         -0.77894        0.17197        1.80496
|  4> C         -0.60249       -0.63071        0.49224
|  5> H          0.31389       -1.24035        0.60350
|  6> H         -0.36383        0.11332       -0.30117
|  7> O         -1.71206       -1.37684        0.20253
|  8> H         -1.65864        0.77733        1.73736
|  9> H          0.07466        0.79896        1.95712
| 10> H         -0.87474       -0.50584        2.62734
| 11> *
| 12> %MaxCore 64000
| 13>
| 14> %pal nprocs 4
| 15> end
| 16>
| 17> %scf
| 18>   MaxIter 150
| 19> end
| 20>
| 21>
| 22>                          ****END OF INPUT****

CARTESIAN COORDINATES (ANGSTROEM)
---------------------------------
  C     -0.778940    0.171970    1.804960
  C     -0.602490   -0.630710    0.492240
  H      0.313890   -1.240350    0.603500
  H     -0.363830    0.113320   -0.301170
  O     -1.712060   -1.376840    0.202530
  H     -1.658640    0.777330    1.737360
  H      0.074660    0.798960    1.957120
  H     -0.874740   -0.505840    2.627340

 Total Charge           Charge          ....   -1
 Multiplicity           Mult            ....    1
 Number of Electrons    NEL             ....   26
 Basis Dimension        Dim             ....  103

ORBITAL ENERGIES
----------------

  NO   OCC          E(Eh)            E(eV)
   0   2.0000     -18.883679      -513.8510
   1   2.0000     -10.046245      -273.3722
   2   2.0000     -10.022647      -272.7301
   3   2.0000      -0.695679       -18.9304
   4   2.0000      -0.537854       -14.6357
   5   2.0000      -0.384323       -10.4580
   6   2.0000      -0.262229        -7.1356
   7   2.0000      -0.238442        -6.4883
   8   2.0000      -0.184597        -5.0231
   9   2.0000      -0.168805        -4.5934
  10   2.0000      -0.125792        -3.4230
  11   2.0000       0.020321         0.5530
  12   2.0000       0.021504         0.5851
  13   0.0000       0.186416         5.0726
  14   0.0000       0.216920         5.9027
  15   0.0000       0.251328         6.8390
  16   0.0000       0.264221         7.1898
  17   0.0000       0.281820         7.6687

MULLIKEN ATOMIC CHARGES
-----------------------
   0 C :    0.097565
   1 C :    0.117924
   2 H :   -0.113826
   3 H :   -0.092224
   4 O :   -0.947652
   5 H :   -0.032840
   6 H :    0.001754
   7 H :   -0.030701
Sum of atomic charges:   -1.0000000

LOEWDIN ATOMIC CHARGES
----------------------
   0 C :    0.056564
   1 C :   -0.255248
   2 H :   -0.034267
   3 H :   -0.032397
   4 O :   -0.586659
   5 H :   -0.042009
   6 H :   -0.062123
   7 H :   -0.043861

  Mayer bond orders larger than 0.100000
B(  0-C ,  1-C ) :   1.1949 B(  0-C ,  2-H ) :   0.1136 B(  0-C ,  3-H ) :   0.1157
B(  0-C ,  4-O ) :   0.1895 B(  0-C ,  5-H ) :   0.9367 B(  0-C ,  6-H ) :   0.9302
B(  0-C ,  7-H ) :   0.9382 B(  1-C ,  2-H ) :   0.9967 B(  1-C ,  3-H ) :   0.9845
B(  1-C ,  4-O ) :   1.0705 B(  1-C ,  5-H ) :   0.1565 B(  1-C ,  6-H ) :   0.1040
B(  1-C ,  7-H ) :   0.1436

Dispersion correction           -0.003049835
FINAL SINGLE POINT ENERGY      -154.140701203031

DIPOLE MOMENT
-------------
                                X             Y             Z
Electronic contribution:     -1.59717      -1.82807      -1.49097
Nuclear contribution   :      2.47835       2.80827       2.30058
                        -----------------------------------------
Total Dipole Moment    :      0.88117       0.98021       0.80961
                        -----------------------------------------
Magnitude (a.u.)       :      1.54685
Magnitude (Debye)      :      3.93178

Rotational constants in cm-1:     1.255775     0.327783     0.287473
Rotational constants in MHz : 37647.186859  9826.677683  8618.224821

                             ****ORCA TERMINATED NORMALLY****
TOTAL RUN TIME: 0 days 0 hours 0 minutes 10 seconds 510 msec
