                         Program Version 5.0.0 -  RELEASE  -
|  1> !PBE0 D3BJ RIJCOSX def2-SVPD def2/J TightSCF
|  2> *xyz 1 1
|  3> C         -2.12050        0.88520        1.78951
|  4> C         -0.77894        0.17197        1.80496
|  5> H         -2.32419        1.47265        2.68608
|  6> H         -2.18770        1.54127        0.91948
|  7> N         -3.17690       -0.15948        1.61070
|  8> H         -4.06474        0.23127        1.28675
|  9> H         -3.34407       -0.67151        2.48493
| 10> H         -2.71686       -0.78189        0.93588
| 11> H         -0.65708       -0.37837        0.89547
| 12> H         -0.74207       -0.50050        2.63642
| 13> H          0.00707        0.89251        1.89389
| 14> *
| 15> %MaxCore 64000
| 16>
| 17> %pal nprocs 4
| 18> end
| 19>
| 20> %scf
| 21>   MaxIter 150
| 22> end
| 23>
| 24>
| 25>                          ****END OF INPUT****

CARTESIAN COORDINATES (ANGSTROEM)
---------------------------------
  C     -2.120500    0.885200    1.789510
  C     -0.778940    0.171970    1.804960
  H     -2.324190    1.472650    2.686080
  H     -2.187700    1.541270    0.919480
  N     -3.176900   -0.159480    1.610700
  H     -4.064740    0.231270    1.286750
  H     -3.344070   -0.671510    2.484930
  H     -2.716860   -0.781890    0.935880
  H     -0.657080   -0.378370    0.895470
  H     -0.742070   -0.500500    2.636420
  H      0.007070    0.892510    1.893890

 Total Charge           Charge          ....    1
 Multiplicity           Mult            ....    1
 Number of Electrons    NEL             ....   26
 Basis Dimension        Dim             ....  124

ORBITAL ENERGIES
----------------

  NO   OCC          E(Eh)            E(eV)
   0   2.0000     -14.730493      -400.8371
   1   2.0000     -10.489915      -285.4451
   2   2.0000     -10.414113      -283.3824
   3   2.0000      -1.235464       -33.6187
   4   2.0000      -0.985365       -26.8131
   5   2.0000      -0.861471       -23.4418
   6   2.0000      -0.821513       -22.3545
   7   2.0000      -0.810442       -22.0532
   8   2.0000      -0.707962       -19.2646
   9   2.0000      -0.658819       -17.9274
  10   2.0000      -0.599339       -16.3088
  11   2.0000      -0.591334       -16.0910
  12   2.0000      -0.569175       -15.4881
  13   0.0000      -0.183399        -4.9905
  14   0.0000      -0.124367        -3.3842
  15   0.0000      -0.123533        -3.3615
  16   0.0000      -0.113761        -3.0956
  17   0.0000      -0.084137        -2.2895

MULLIKEN ATOMIC CHARGES
-----------------------
   0 C :    0.138390
   1 C :    0.390373
   2 H :   -0.058578
   3 H :    0.018563
   4 N :   -0.777121
   5 H :    0.331806
   6 H :    0.375674
   7 H :    0.460816
   8 H :    0.037404
   9 H :    0.085765
  10 H :   -0.003092
Sum of atomic charges:    1.0000000

LOEWDIN ATOMIC CHARGES
----------------------
   0 C :    0.057440
   1 C :    0.164771
   2 H :    0.055868
   3 H :    0.056696
   4 N :    0.329423
   5 H :    0.106957
   6 H :    0.110428
   7 H :    0.089541
   8 H :    0.002838
   9 H :    0.007155
  10 H :    0.018883

  Mayer bond orders larger than 0.100000
B(  0-C ,  1-C ) :   1.2907 B(  0-C ,  2-H ) :   0.9867 B(  0-C ,  3-H ) :   0.9348
B(  0-C ,  4-N ) :   0.7979 B(  0-C ,  8-H ) :   0.1137 B(  0-C ,  9-H ) :   0.1033
B(  0-C , 10-H ) :   0.1527 B(  1-C ,  8-H ) :   0.8708 B(  1-C ,  9-H ) :   0.8451
B(  1-C , 10-H ) :   0.8959 B(  4-N ,  5-H ) :   0.8114 B(  4-N ,  6-H ) :   0.7967
B(  4-N ,  7-H ) :   0.6368

Dispersion correction           -0.005073556
FINAL SINGLE POINT ENERGY      -135.280323970562

DIPOLE MOMENT
-------------
                                X             Y             Z
Electronic contribution:     -1.82404      -0.15757      -0.05868
Nuclear contribution   :      0.50278      -0.30871      -0.06979
                        -----------------------------------------
Total Dipole Moment    :     -1.32126      -0.46628      -0.12847
                        -----------------------------------------
Magnitude (a.u.)       :      1.40700
Magnitude (Debye)      :      3.57631

Rotational constants in cm-1:     0.963746     0.295157     0.256910
Rotational constants in MHz : 28892.375247  8848.576767  7701.963879

                             ****ORCA TERMINATED NORMALLY****
TOTAL RUN TIME: 0 days 0 hours 0 minutes 13 seconds 304 msec
