                         Program Version 5.0.0 -  RELEASE  -
|  1> !PBE0 D3BJ RIJCOSX def2-SVPD def2/J TightSCF xyzfile
|  2>
|  3> *xyzfile 0 1 B.xyz
|  4>
|  5> %MaxCore 64000
|  6>
|  7> %pal nprocs 4
|  8> end
|  9>
| 10> %scf
| 11>   MaxIter 150
| 12> end
| 13>
| 14>
| 15>                          ****END OF INPUT****

CARTESIAN COORDINATES (ANGSTROEM)
---------------------------------
  C     -2.120502    0.885196    1.789506
  C     -0.778939    0.171966    1.804965
  H     -2.324193    1.472649    2.686078
  H     -2.187698    1.541272    0.919482
  N     -3.176900   -0.159484    1.610700
  H      0.015695    0.910767    1.939153
  H     -0.743553   -0.506827    2.665420
  C     -0.602493   -0.630712    0.492240
  H      0.313894   -1.240346    0.603498
  H     -0.363829    0.113322   -0.301169
  O     -1.712061   -1.376836    0.202535
  H     -4.064736    0.231272    1.286754
  H     -3.344073   -0.671511    2.484928
  H     -2.716861   -0.781886    0.935880

 Total Charge           Charge          ....    0
 Multiplicity           Mult            ....    1
 Number of Electrons    NEL             ....   42
 Basis Dimension        Dim             ....  175

ORBITAL ENERGIES
----------------

  NO   OCC          E(Eh)            E(eV)
   0   2.0000     -19.090864      -519.4888
   1   2.0000     -14.477549      -393.9541
   2   2.0000     -10.298116      -280.2260
   3   2.0000     -10.231075      -278.4017
   4   2.0000     -10.228486      -278.3313
   5   2.0000      -1.011236       -27.5171
   6   2.0000      -0.912413       -24.8280
   7   2.0000      -0.788770       -21.4635
   8   2.0000      -0.670719       -18.2512
   9   2.0000      -0.609747       -16.5921
  10   2.0000      -0.589495       -16.0410
  11   2.0000      -0.559809       -15.2332
  12   2.0000      -0.502418       -13.6715
  13   2.0000      -0.451970       -12.2987
  14   2.0000      -0.418882       -11.3984
  15   2.0000      -0.416608       -11.3365
  16   2.0000      -0.374506       -10.1908
  17   2.0000      -0.353568        -9.6211
  18   2.0000      -0.332444        -9.0463
  19   2.0000      -0.198189        -5.3930
  20   2.0000      -0.189109        -5.1459
  21   0.0000      -0.004956        -0.1348
  22   0.0000       0.035858         0.9758
  23   0.0000       0.037518         1.0209
  24   0.0000       0.062119         1.6903
  25   0.0000       0.085205         2.3185

MULLIKEN ATOMIC CHARGES
-----------------------
   0 C :    0.520912
   1 C :   -0.172124
   2 H :   -0.181649
   3 H :    0.028840
   4 N :   -0.501275
   5 H :   -0.037458
   6 H :    0.057669
   7 C :    0.545294
   8 H :   -0.099836
   9 H :    0.009568
  10 O :   -0.857206
  11 H :    0.255870
  12 H :    0.368815
  13 H :    0.062579
Sum of atomic charges:   -0.0000000

LOEWDIN ATOMIC CHARGES
----------------------
   0 C :    0.074350
   1 C :   -0.025522
   2 H :    0.024140
   3 H :    0.043785
   4 N :    0.301692
   5 H :    0.024005
   6 H :    0.025816
   7 C :   -0.070495
   8 H :    0.010849
   9 H :    0.011464
  10 O :   -0.401914
  11 H :    0.078511
  12 H :    0.085966
  13 H :   -0.182646

  Mayer bond orders larger than 0.100000
B(  0-C ,  1-C ) :   1.1571 B(  0-C ,  2-H ) :   0.9490 B(  0-C ,  3-H ) :   0.8776
B(  0-C ,  4-N ) :   0.8209 B(  1-C ,  5-H ) :   0.9559 B(  1-C ,  6-H ) :   0.9144
B(  1-C ,  7-C ) :   1.1455 B(  1-C ,  8-H ) :   0.1185 B(  2-H ,  4-N ) :   0.1344
B(  4-N , 11-H ) :   0.8806 B(  4-N , 12-H ) :   0.7960 B(  4-N , 13-H ) :   0.9390
B(  5-H ,  7-C ) :   0.1099 B(  7-C ,  8-H ) :   0.9385 B(  7-C ,  9-H ) :   0.9228
B(  7-C , 10-O ) :   0.9738 B( 10-O , 13-H ) :   0.4886

Dispersion correction           -0.008648713
FINAL SINGLE POINT ENERGY      -249.213349741596

DIPOLE MOMENT
-------------
                                X             Y             Z
Electronic contribution:     -1.50314      -1.44190      -0.78809
Nuclear contribution   :      0.08650       3.01678       2.47433
                        -----------------------------------------
Total Dipole Moment    :     -1.41663       1.57488       1.68624
                        -----------------------------------------
Magnitude (a.u.)       :      2.70749
Magnitude (Debye)      :      6.88189

Rotational constants in cm-1:     0.238796     0.156489     0.106146
Rotational constants in MHz :  7158.916762  4691.413084  3182.185740

                             ****ORCA TERMINATED NORMALLY****
TOTAL RUN TIME: 0 days 0 hours 0 minutes 22 seconds 41 msec
