                         Program Version 5.0.0 -  RELEASE  -
|  1> !PBE0 D3BJ RIJCOSX def2-SVPD def2/J TightSCF
|  2> *xyz 0 1
|  3> C         -0.77894        0.17197        1.80496
|  4> C         -0.60249       -0.63071        0.49224
|  5> H          0.31389       -1.24035        0.60350
|  6> H         -0.36383        0.11332       -0.30117
|  7> F         -1.71206       -1.37684        0.20253
|  8> H         -1.65864        0.77733        1.73736
|  9> H          0.07466        0.79896        1.95712
| 10> H         -0.87474       -0.50584        2.62734
| 11> *
| 12> %MaxCore 64000
| 13>
| 14> %pal nprocs 4
| 15> end
| 16>
| 17> %scf
| 18>   MaxIter 150
| 19> end
| 20>
| 21>
| 22>                          ****END OF INPUT****

CARTESIAN COORDINATES (ANGSTROEM)
---------------------------------
  C     -0.778940    0.171970    1.804960
  C     -0.602490   -0.630710    0.492240
  H      0.313890   -1.240350    0.603500
  H     -0.363830    0.113320   -0.301170
  F     -1.712060   -1.376840    0.202530
  H     -1.658640    0.777330    1.737360
  H      0.074660    0.798960    1.957120
  H     -0.874740   -0.505840    2.627340

 Total Charge           Charge          ....    0
 Multiplicity           Mult            ....    1
 Number of Electrons    NEL             ....   26
 Basis Dimension        Dim             ....  103

ORBITAL ENERGIES
----------------

  NO   OCC          E(Eh)            E(eV)
   0   2.0000     -24.773702      -674.1267
   1   2.0000     -10.314701      -280.6773
   2   2.0000     -10.229347      -278.3547
   3   2.0000      -1.217492       -33.1296
   4   2.0000      -0.779750       -21.2181
   5   2.0000      -0.647495       -17.6192
   6   2.0000      -0.528778       -14.3888
   7   2.0000      -0.513724       -13.9791
   8   2.0000      -0.477353       -12.9894
   9   2.0000      -0.420867       -11.4524
  10   2.0000      -0.414822       -11.2879
  11   2.0000      -0.350731        -9.5439
  12   2.0000      -0.346550        -9.4301
  13   0.0000       0.030190         0.8215
  14   0.0000       0.061783         1.6812
  15   0.0000       0.082962         2.2575
  16   0.0000       0.090263         2.4562
  17   0.0000       0.116138         3.1603

MULLIKEN ATOMIC CHARGES
-----------------------
   0 C :    0.143243
   1 C :    0.363484
   2 H :   -0.019950
   3 H :    0.002050
   4 F :   -0.480495
   5 H :   -0.011304
   6 H :    0.011216
   7 H :   -0.008245
Sum of atomic charges:   -0.0000000

LOEWDIN ATOMIC CHARGES
----------------------
   0 C :    0.131742
   1 C :    0.070164
   2 H :    0.030169
   3 H :    0.033220
   4 F :   -0.222930
   5 H :   -0.013727
   6 H :   -0.013562
   7 H :   -0.015076

  Mayer bond orders larger than 0.100000
B(  0-C ,  1-C ) :   1.3401 B(  0-C ,  5-H ) :   0.9172 B(  0-C ,  6-H ) :   0.8884
B(  0-C ,  7-H ) :   0.9192 B(  1-C ,  2-H ) :   0.9601 B(  1-C ,  3-H ) :   0.9502
B(  1-C ,  4-F ) :   0.6961 B(  1-C ,  5-H ) :   0.1190 B(  1-C ,  7-H ) :   0.1087

Dispersion correction           -0.002810418
FINAL SINGLE POINT ENERGY      -178.741689047174

DIPOLE MOMENT
-------------
                                X             Y             Z
Electronic contribution:     -2.72233      -3.28124      -2.82055
Nuclear contribution   :      3.27800       3.70743       3.04146
                        -----------------------------------------
Total Dipole Moment    :      0.55568       0.42619       0.22091
                        -----------------------------------------
Magnitude (a.u.)       :      0.73431
Magnitude (Debye)      :      1.86648

Rotational constants in cm-1:     1.234437     0.305084     0.268865
Rotational constants in MHz : 37007.496448  9146.194083  8060.380630

                             ****ORCA TERMINATED NORMALLY****
TOTAL RUN TIME: 0 days 0 hours 0 minutes 9 seconds 173 msec
