                         Program Version 5.0.0 -  RELEASE  -
|  1> !PBE0 D3BJ RIJCOSX def2-SVPD def2/J TightSCF
|  2> *xyz 0 1
|  3> C         -2.12050        0.88520        1.78951
|  4> C         -0.77894        0.17197        1.80496
|  5> H         -2.32419        1.47265        2.68608
|  6> H         -2.18770        1.54127        0.91948
|  7> C         -3.17690       -0.15948        1.61070
|  8> H         -4.06474        0.23127        1.28675
|  9> H         -3.34407       -0.67151        2.48493
| 10> H         -2.71686       -0.78189        0.93588
| 11> H         -0.65708       -0.37837        0.89547
| 12> H         -0.74207       -0.50050        2.63642
| 13> H          0.00707        0.89251        1.89389
| 14> *
| 15> %MaxCore 64000
| 16>
| 17> %pal nprocs 4
| 18> end
| 19>
| 20> %scf
| 21>   MaxIter 150
| 22> end
| 23>
| 24>
| 25>                          ****END OF INPUT****

CARTESIAN COORDINATES (ANGSTROEM)
---------------------------------
  C     -2.120500    0.885200    1.789510
  C     -0.778940    0.171970    1.804960
  H     -2.324190    1.472650    2.686080
  H     -2.187700    1.541270    0.919480
  C     -3.176900   -0.159480    1.610700
  H     -4.064740    0.231270    1.286750
  H     -3.344070   -0.671510    2.484930
  H     -2.716860   -0.781890    0.935880
  H     -0.657080   -0.378370    0.895470
  H     -0.742070   -0.500500    2.636420
  H      0.007070    0.892510    1.893890

 Total Charge           Charge          ....    0
 Multiplicity           Mult            ....    1
 Number of Electrons    NEL             ....   26
 Basis Dimension        Dim             ....  124

ORBITAL ENERGIES
----------------

  NO   OCC          E(Eh)            E(eV)
   0   2.0000     -10.220204      -278.1059
   1   2.0000     -10.211799      -277.8772
   2   2.0000     -10.192429      -277.3501
   3   2.0000      -0.813569       -22.1383
   4   2.0000      -0.700690       -19.0667
   5   2.0000      -0.598613       -16.2891
   6   2.0000      -0.485987       -13.2244
   7   2.0000      -0.467325       -12.7166
   8   2.0000      -0.413136       -11.2420
   9   2.0000      -0.397297       -10.8110
  10   2.0000      -0.352538        -9.5930
  11   2.0000      -0.344069        -9.3626
  12   2.0000      -0.339131        -9.2282
  13   0.0000       0.035019         0.9529
  14   0.0000       0.063369         1.7244
  15   0.0000       0.069143         1.8815
  16   0.0000       0.092154         2.5076
  17   0.0000       0.110870         3.0169

MULLIKEN ATOMIC CHARGES
-----------------------
   0 C :   -0.670652
   1 C :    0.417032
   2 H :   -0.100534
   3 H :    0.016041
   4 C :    0.819179
   5 H :   -0.213902
   6 H :   -0.112319
   7 H :   -0.123353
   8 H :    0.031324
   9 H :    0.019723
  10 H :   -0.082540
Sum of atomic charges:    0.0000000

LOEWDIN ATOMIC CHARGES
----------------------
   0 C :   -0.121473
   1 C :    0.104368
   2 H :    0.021698
   3 H :    0.024276
   4 C :    0.114321
   5 H :   -0.032731
   6 H :   -0.025955
   7 H :   -0.039891
   8 H :   -0.014582
   9 H :   -0.009616
  10 H :   -0.020416

  Mayer bond orders larger than 0.100000
B(  0-C ,  1-C ) :   1.2351 B(  0-C ,  2-H ) :   1.0338 B(  0-C ,  3-H ) :   0.9405
B(  0-C ,  4-C ) :   1.2223 B(  0-C ,  5-H ) :   0.1610 B(  0-C ,  6-H ) :   0.1855
B(  0-C ,  7-H ) :   0.2322 B(  0-C ,  8-H ) :   0.1253 B(  0-C ,  9-H ) :   0.1410
B(  0-C , 10-H ) :   0.1527 B(  1-C ,  8-H ) :   0.8711 B(  1-C ,  9-H ) :   0.8569
B(  1-C , 10-H ) :   0.8999 B(  4-C ,  5-H ) :   0.8173 B(  4-C ,  6-H ) :   0.7605
B(  4-C ,  7-H ) :   0.7928

Dispersion correction           -0.005091972
FINAL SINGLE POINT ENERGY      -118.891009840833

DIPOLE MOMENT
-------------
                                X             Y             Z
Electronic contribution:     -0.14264       0.47141       0.11233
Nuclear contribution   :      0.13334      -0.45108      -0.10852
                        -----------------------------------------
Total Dipole Moment    :     -0.00930       0.02033       0.00381
                        -----------------------------------------
Magnitude (a.u.)       :      0.02268
Magnitude (Debye)      :      0.05765

Rotational constants in cm-1:     0.972269     0.310387     0.269029
Rotational constants in MHz : 29147.878530  9305.178981  8065.286472

                             ****ORCA TERMINATED NORMALLY****
TOTAL RUN TIME: 0 days 0 hours 0 minutes 12 seconds 220 msec
