                         Program Version 5.0.0 -  RELEASE  -
|  1> !PBE0 D3BJ RIJCOSX def2-SVPD def2/J TightSCF xyzfile
|  2>
|  3> *xyzfile 0 1 D.xyz
|  4>
|  5> %MaxCore 64000
|  6>
|  7> %pal nprocs 4
|  8> end
|  9>
| 10> %scf
| 11>   MaxIter 150
| 12> end
| 13>
| 14>
| 15>                          ****END OF INPUT****

CARTESIAN COORDINATES (ANGSTROEM)
---------------------------------
  C     -2.120502    0.885196    1.789506
  C     -0.778939    0.171966    1.804965
  H     -2.324193    1.472649    2.686078
  H     -2.187698    1.541272    0.919482
  C     -3.176900   -0.159484    1.610700
  H      0.015695    0.910767    1.939153
  H     -0.743553   -0.506827    2.665420
  C     -0.602493   -0.630712    0.492240
  H      0.313894   -1.240346    0.603498
  H     -0.363829    0.113322   -0.301169
  F     -1.712061   -1.376836    0.202535
  H     -4.064736    0.231272    1.286754
  H     -3.344073   -0.671511    2.484928
  H     -2.716861   -0.781886    0.935880

 Total Charge           Charge          ....    0
 Multiplicity           Mult            ....    1
 Number of Electrons    NEL             ....   42
 Basis Dimension        Dim             ....  175

ORBITAL ENERGIES
----------------

  NO   OCC          E(Eh)            E(eV)
   0   2.0000     -24.792164      -674.6291
   1   2.0000     -10.322191      -280.8811
   2   2.0000     -10.239041      -278.6185
   3   2.0000     -10.218667      -278.0641
   4   2.0000     -10.156562      -276.3741
   5   2.0000      -1.250267       -34.0215
   6   2.0000      -0.824879       -22.4461
   7   2.0000      -0.751777       -20.4569
   8   2.0000      -0.652580       -17.7576
   9   2.0000      -0.608145       -16.5485
  10   2.0000      -0.548654       -14.9296
  11   2.0000      -0.545314       -14.8387
  12   2.0000      -0.506467       -13.7817
  13   2.0000      -0.454619       -12.3708
  14   2.0000      -0.429400       -11.6846
  15   2.0000      -0.419423       -11.4131
  16   2.0000      -0.392959       -10.6930
  17   2.0000      -0.359792        -9.7904
  18   2.0000      -0.341416        -9.2904
  19   2.0000      -0.335067        -9.1176
  20   2.0000      -0.288708        -7.8562
  21   0.0000       0.027925         0.7599
  22   0.0000       0.054712         1.4888
  23   0.0000       0.058524         1.5925
  24   0.0000       0.062525         1.7014
  25   0.0000       0.088518         2.4087

MULLIKEN ATOMIC CHARGES
-----------------------
   0 C :   -0.356389
   1 C :   -0.140701
   2 H :   -0.196827
   3 H :    0.051992
   4 C :    1.599735
   5 H :   -0.080410
   6 H :    0.068248
   7 C :    0.727040
   8 H :   -0.017906
   9 H :    0.038901
  10 F :   -0.669189
  11 H :   -0.103529
  12 H :   -0.042623
  13 H :   -0.878343
Sum of atomic charges:    0.0000000

LOEWDIN ATOMIC CHARGES
----------------------
   0 C :   -0.065169
   1 C :   -0.022944
   2 H :    0.018785
   3 H :    0.027740
   4 C :    0.143298
   5 H :    0.026524
   6 H :    0.032823
   7 C :    0.159661
   8 H :    0.035166
   9 H :    0.044550
  10 F :   -0.194278
  11 H :   -0.028721
  12 H :   -0.021073
  13 H :   -0.156363

  Mayer bond orders larger than 0.100000
B(  0-C ,  1-C ) :   1.1163 B(  0-C ,  2-H ) :   1.0645 B(  0-C ,  3-H ) :   0.8916
B(  0-C ,  4-C ) :   1.0361 B(  0-C , 11-H ) :   0.1542 B(  0-C , 12-H ) :   0.2113
B(  0-C , 13-H ) :   0.3959 B(  1-C ,  5-H ) :   0.9764 B(  1-C ,  6-H ) :   0.9042
B(  1-C ,  7-C ) :   1.2148 B(  1-C ,  8-H ) :   0.1061 B(  1-C ,  9-H ) :   0.1034
B(  1-C , 10-F ) :   0.1350 B(  4-C , 10-F ) :  -0.1455 B(  4-C , 11-H ) :   0.5854
B(  4-C , 12-H ) :   0.4291 B(  5-H ,  7-C ) :   0.1008 B(  7-C ,  8-H ) :   0.8928
B(  7-C ,  9-H ) :   0.8920 B(  7-C , 10-F ) :   0.6350 B( 10-F , 13-H ) :   0.2698
B( 11-H , 13-H ) :   0.2339 B( 12-H , 13-H ) :   0.4091

Dispersion correction           -0.008270683
FINAL SINGLE POINT ENERGY      -257.164068257983

DIPOLE MOMENT
-------------
                                X             Y             Z
Electronic contribution:      0.89968      -4.19429      -3.73494
Nuclear contribution   :     -0.20666       4.43855       3.76066
                        -----------------------------------------
Total Dipole Moment    :      0.69302       0.24425       0.02571
                        -----------------------------------------
Magnitude (a.u.)       :      0.73525
Magnitude (Debye)      :      1.86886

Rotational constants in cm-1:     0.236353     0.155239     0.105045
Rotational constants in MHz :  7085.692869  4653.957069  3149.180346

                             ****ORCA TERMINATED NORMALLY****
TOTAL RUN TIME: 0 days 0 hours 0 minutes 20 seconds 906 msec
