                         Program Version 5.0.0 -  RELEASE  -
|  1> !wB97X-D3 RIJCOSX def2-SVPD def2/J TightSCF CPCM(Water)
|  2> *xyz -1 1
|  3> C          1.36401        0.46874       -2.81376
|  4> C          0.96805        1.63064       -3.71575
|  5> C         -0.50835        1.72268       -4.12430
|  6> S         -1.32861        0.14674       -4.43578
|  7> H         -0.59151        2.29496       -5.04722
|  8> H         -1.11411        2.23561       -3.37436
|  9> O         -2.57135        0.47573       -5.06834
| 10> O         -1.51496       -0.40051       -3.06342
| 11> H          1.57869        1.52065       -4.61273
| 12> H          1.26665        2.57599       -3.25045
| 13> O         -0.37793       -0.62756       -5.20114
| 14> H          1.07115       -0.45339       -3.27071
| 15> H          0.87480        0.56905       -1.86745
| 16> H          2.42423        0.47442       -2.66954
| 17> *
| 18> %MaxCore 64000
| 19>
| 20> %pal nprocs 18
| 21> end
| 22>
| 23> %scf
| 24>   MaxIter 150
| 25> end
| 26>
| 27>
| 28>                          ****END OF INPUT****

CARTESIAN COORDINATES (ANGSTROEM)
---------------------------------
  C      1.364010    0.468740   -2.813760
  C      0.968050    1.630640   -3.715750
  C     -0.508350    1.722680   -4.124300
  S     -1.328610    0.146740   -4.435780
  H     -0.591510    2.294960   -5.047220
  H     -1.114110    2.235610   -3.374360
  O     -2.571350    0.475730   -5.068340
  O     -1.514960   -0.400510   -3.063420
  H      1.578690    1.520650   -4.612730
  H      1.266650    2.575990   -3.250450
  O     -0.377930   -0.627560   -5.201140
  H      1.071150   -0.453390   -3.270710
  H      0.874800    0.569050   -1.867450
  H      2.424230    0.474420   -2.669540

 Total Charge           Charge          ....   -1
 Multiplicity           Mult            ....    1
 Number of Electrons    NEL             ....   66
 Basis Dimension        Dim             ....  212

ORBITAL ENERGIES
----------------

  NO   OCC          E(Eh)            E(eV)
   0   2.0000     -89.151708     -2425.9413
   1   2.0000     -19.211430      -522.7696
   2   2.0000     -19.207178      -522.6539
   3   2.0000     -19.193204      -522.2736
   4   2.0000     -10.293699      -280.1058
   5   2.0000     -10.283796      -279.8363
   6   2.0000     -10.258709      -279.1537
   7   2.0000      -8.225894      -223.8379
   8   2.0000      -6.185716      -168.3219
   9   2.0000      -6.185646      -168.3200
  10   2.0000      -6.184127      -168.2787
  11   2.0000      -1.231366       -33.5072
  12   2.0000      -1.093812       -29.7641
  13   2.0000      -1.063775       -28.9468
  14   2.0000      -0.897698       -24.4276
  15   2.0000      -0.810973       -22.0677
  16   2.0000      -0.710785       -19.3415
  17   2.0000      -0.646150       -17.5826
  18   2.0000      -0.587327       -15.9820
  19   2.0000      -0.567012       -15.4292
  20   2.0000      -0.559908       -15.2359
  21   2.0000      -0.545573       -14.8458
  22   2.0000      -0.525186       -14.2910
  23   2.0000      -0.490458       -13.3460
  24   2.0000      -0.457941       -12.4612
  25   2.0000      -0.445383       -12.1195
  26   2.0000      -0.437045       -11.8926
  27   2.0000      -0.426082       -11.5943
  28   2.0000      -0.416863       -11.3434
  29   2.0000      -0.394573       -10.7369
  30   2.0000      -0.379144       -10.3170
  31   2.0000      -0.362282        -9.8582
  32   2.0000      -0.346341        -9.4244
  33   0.0000       0.082095         2.2339
  34   0.0000       0.099369         2.7040
  35   0.0000       0.101137         2.7521
  36   0.0000       0.103016         2.8032
  37   0.0000       0.138359         3.7649

MULLIKEN ATOMIC CHARGES
-----------------------
   0 C :    0.703949
   1 C :   -0.323640
   2 C :    0.087047
   3 S :    1.256359
   4 H :   -0.004267
   5 H :    0.070514
   6 O :   -0.834451
   7 O :   -0.857284
   8 H :    0.044289
   9 H :   -0.098953
  10 O :   -0.823278
  11 H :   -0.091073
  12 H :   -0.042021
  13 H :   -0.087190
Sum of atomic charges:   -1.0000000

LOEWDIN ATOMIC CHARGES
----------------------
   0 C :    0.106721
   1 C :   -0.075895
   2 C :   -0.074491
   3 S :    0.852356
   4 H :    0.012754
   5 H :    0.018914
   6 O :   -0.592446
   7 O :   -0.624624
   8 H :    0.021160
   9 H :    0.026662
  10 O :   -0.590370
  11 H :   -0.051087
  12 H :   -0.014935
  13 H :   -0.014719

  Mayer bond orders larger than 0.100000
B(  0-C ,  1-C ) :   1.3081 B(  0-C , 11-H ) :   0.8351 B(  0-C , 12-H ) :   0.7691
B(  0-C , 13-H ) :   0.7742 B(  1-C ,  2-C ) :   1.2714 B(  1-C ,  4-H ) :   0.1390
B(  1-C ,  5-H ) :   0.1280 B(  1-C ,  8-H ) :   0.8893 B(  1-C ,  9-H ) :   0.9009
B(  1-C , 11-H ) :   0.1913 B(  1-C , 12-H ) :   0.1961 B(  1-C , 13-H ) :   0.2059
B(  2-C ,  3-S ) :   0.9190 B(  2-C ,  4-H ) :   0.9142 B(  2-C ,  5-H ) :   0.9152
B(  2-C ,  8-H ) :   0.1043 B(  2-C ,  9-H ) :   0.1081 B(  3-S ,  6-O ) :   1.3988
B(  3-S ,  7-O ) :   1.2447 B(  3-S , 10-O ) :   1.2820

Dispersion correction           -0.004643711
FINAL SINGLE POINT ENERGY      -742.068318928324

DIPOLE MOMENT
-------------
                                X             Y             Z
Electronic contribution:     -7.72712      -3.70899      -3.92663
Nuclear contribution   :      9.76868       5.90538       4.47074
                        -----------------------------------------
Total Dipole Moment    :      2.04156       2.19639       0.54411
                        -----------------------------------------
Magnitude (a.u.)       :      3.04765
Magnitude (Debye)      :      7.74651

Rotational constants in cm-1:     0.135183     0.058485     0.054837
Rotational constants in MHz :  4052.676901  1753.343161  1643.972690

                             ****ORCA TERMINATED NORMALLY****
TOTAL RUN TIME: 0 days 0 hours 0 minutes 14 seconds 482 msec
