                         Program Version 5.0.0 -  RELEASE  -
|  1> !wB97X-D3 RIJCOSX def2-SVPD def2/J TightSCF CPCM(Water)
|  2> *xyz 1 1
|  3> C          1.36401        0.46874       -2.81376
|  4> N          0.42884        0.32140       -1.65531
|  5> C          0.96805        1.63064       -3.71575
|  6> C         -0.50835        1.72268       -4.12430
|  7> H          0.74858       -0.40054       -1.00134
|  8> H         -0.46105        0.02333       -2.07773
|  9> H          0.31026        1.20137       -1.13495
| 10> H          1.29485       -0.46874       -3.36468
| 11> H          2.37622        0.59740       -2.43149
| 12> H          1.57869        1.52065       -4.61273
| 13> H          1.26665        2.57599       -3.25045
| 14> H         -0.65192        2.57663       -4.75283
| 15> H         -1.11549        1.81835       -3.24844
| 16> H         -0.78702        0.83723       -4.65648
| 17> *
| 18> %MaxCore 64000
| 19>
| 20> %pal nprocs 18
| 21> end
| 22>
| 23> %scf
| 24>   MaxIter 150
| 25> end
| 26>
| 27>
| 28>                          ****END OF INPUT****

CARTESIAN COORDINATES (ANGSTROEM)
---------------------------------
  C      1.364010    0.468740   -2.813760
  N      0.428840    0.321400   -1.655310
  C      0.968050    1.630640   -3.715750
  C     -0.508350    1.722680   -4.124300
  H      0.748580   -0.400540   -1.001340
  H     -0.461050    0.023330   -2.077730
  H      0.310260    1.201370   -1.134950
  H      1.294850   -0.468740   -3.364680
  H      2.376220    0.597400   -2.431490
  H      1.578690    1.520650   -4.612730
  H      1.266650    2.575990   -3.250450
  H     -0.651920    2.576630   -4.752830
  H     -1.115490    1.818350   -3.248440
  H     -0.787020    0.837230   -4.656480

 Total Charge           Charge          ....    1
 Multiplicity           Mult            ....    1
 Number of Electrons    NEL             ....   34
 Basis Dimension        Dim             ....  160

ORBITAL ENERGIES
----------------

  NO   OCC          E(Eh)            E(eV)
   0   2.0000     -14.556078      -396.0910
   1   2.0000     -10.351274      -281.6725
   2   2.0000     -10.300997      -280.3044
   3   2.0000     -10.280459      -279.7455
   4   2.0000      -1.108708       -30.1695
   5   2.0000      -0.906471       -24.6663
   6   2.0000      -0.815939       -22.2028
   7   2.0000      -0.718509       -19.5516
   8   2.0000      -0.689279       -18.7562
   9   2.0000      -0.677619       -18.4389
  10   2.0000      -0.595442       -16.2028
  11   2.0000      -0.558168       -15.1885
  12   2.0000      -0.538302       -14.6480
  13   2.0000      -0.510432       -13.8896
  14   2.0000      -0.459532       -12.5045
  15   2.0000      -0.452250       -12.3064
  16   2.0000      -0.438723       -11.9383
  17   0.0000       0.083210         2.2643
  18   0.0000       0.117583         3.1996
  19   0.0000       0.119941         3.2638
  20   0.0000       0.132423         3.6034
  21   0.0000       0.159052         4.3280

MULLIKEN ATOMIC CHARGES
-----------------------
   0 C :    0.468701
   1 N :   -0.780750
   2 C :   -0.438606
   3 C :    0.582303
   4 H :    0.354632
   5 H :    0.448572
   6 H :    0.439295
   7 H :    0.029869
   8 H :   -0.048770
   9 H :    0.025534
  10 H :   -0.007868
  11 H :   -0.070685
  12 H :   -0.015162
  13 H :    0.012935
Sum of atomic charges:    1.0000000

LOEWDIN ATOMIC CHARGES
----------------------
   0 C :    0.093414
   1 N :    0.356618
   2 C :   -0.053940
   3 C :    0.131089
   4 H :    0.116697
   5 H :    0.099484
   6 H :    0.121329
   7 H :    0.053814
   8 H :    0.050932
   9 H :    0.032955
  10 H :    0.032209
  11 H :   -0.008490
  12 H :   -0.019797
  13 H :   -0.006313

  Mayer bond orders larger than 0.100000
B(  0-C ,  1-N ) :   0.7949 B(  0-C ,  2-C ) :   1.1862 B(  0-C ,  7-H ) :   0.8793
B(  0-C ,  8-H ) :   0.9572 B(  0-C ,  9-H ) :   0.1426 B(  1-N ,  4-H ) :   0.7775
B(  1-N ,  5-H ) :   0.6967 B(  1-N ,  6-H ) :   0.7240 B(  1-N ,  7-H ) :   0.1123
B(  2-C ,  3-C ) :   1.2939 B(  2-C ,  7-H ) :   0.1046 B(  2-C ,  9-H ) :   0.9077
B(  2-C , 10-H ) :   0.9658 B(  2-C , 11-H ) :   0.2013 B(  2-C , 12-H ) :   0.1608
B(  2-C , 13-H ) :   0.1737 B(  3-C , 11-H ) :   0.8253 B(  3-C , 12-H ) :   0.8568
B(  3-C , 13-H ) :   0.8312

Dispersion correction           -0.002841244
FINAL SINGLE POINT ENERGY      -174.797799187731

DIPOLE MOMENT
-------------
                                X             Y             Z
Electronic contribution:      0.71530      -1.32648       2.43096
Nuclear contribution   :     -0.79558       0.15863      -0.24664
                        -----------------------------------------
Total Dipole Moment    :     -0.08028      -1.16784       2.18432
                        -----------------------------------------
Magnitude (a.u.)       :      2.47822
Magnitude (Debye)      :      6.29912

Rotational constants in cm-1:     0.425244     0.165801     0.135024
Rotational constants in MHz : 12748.492920  4970.589839  4047.903558

                             ****ORCA TERMINATED NORMALLY****
TOTAL RUN TIME: 0 days 0 hours 0 minutes 8 seconds 863 msec
