                         Program Version 5.0.0 -  RELEASE  -
|  1> !wB97X-D3 RIJCOSX def2-SVPD def2/J TightSCF CPCM(Water)
|  2> *xyz 0 1
|  3> C          1.36401        0.46874       -2.81376
|  4> C          0.96805        1.63064       -3.71575
|  5> C         -0.50835        1.72268       -4.12430
|  6> S         -1.32861        0.14674       -4.43578
|  7> H         -0.59151        2.29496       -5.04722
|  8> H         -1.11411        2.23561       -3.37436
|  9> F         -2.57135        0.47573       -5.06834
| 10> O         -1.51496       -0.40051       -3.06342
| 11> H          1.57869        1.52065       -4.61273
| 12> H          1.26665        2.57599       -3.25045
| 13> O         -0.37793       -0.62756       -5.20114
| 14> H          1.07115       -0.45339       -3.27071
| 15> H          0.87480        0.56905       -1.86745
| 16> H          2.42423        0.47442       -2.66954
| 17> *
| 18> %MaxCore 64000
| 19>
| 20> %pal nprocs 18
| 21> end
| 22>
| 23> %scf
| 24>   MaxIter 150
| 25> end
| 26>
| 27>
| 28>                          ****END OF INPUT****

CARTESIAN COORDINATES (ANGSTROEM)
---------------------------------
  C      1.364010    0.468740   -2.813760
  C      0.968050    1.630640   -3.715750
  C     -0.508350    1.722680   -4.124300
  S     -1.328610    0.146740   -4.435780
  H     -0.591510    2.294960   -5.047220
  H     -1.114110    2.235610   -3.374360
  F     -2.571350    0.475730   -5.068340
  O     -1.514960   -0.400510   -3.063420
  H      1.578690    1.520650   -4.612730
  H      1.266650    2.575990   -3.250450
  O     -0.377930   -0.627560   -5.201140
  H      1.071150   -0.453390   -3.270710
  H      0.874800    0.569050   -1.867450
  H      2.424230    0.474420   -2.669540

 Total Charge           Charge          ....    0
 Multiplicity           Mult            ....    1
 Number of Electrons    NEL             ....   66
 Basis Dimension        Dim             ....  212

ORBITAL ENERGIES
----------------

  NO   OCC          E(Eh)            E(eV)
   0   2.0000     -89.240561     -2428.3591
   1   2.0000     -24.922252      -678.1689
   2   2.0000     -19.269282      -524.3438
   3   2.0000     -19.254974      -523.9545
   4   2.0000     -10.335171      -281.2343
   5   2.0000     -10.302999      -280.3589
   6   2.0000     -10.269693      -279.4525
   7   2.0000      -8.314822      -226.2578
   8   2.0000      -6.278325      -170.8419
   9   2.0000      -6.272516      -170.6838
  10   2.0000      -6.270480      -170.6284
  11   2.0000      -1.498472       -40.7755
  12   2.0000      -1.231787       -33.5186
  13   2.0000      -1.125836       -30.6355
  14   2.0000      -0.928649       -25.2698
  15   2.0000      -0.863171       -23.4881
  16   2.0000      -0.811643       -22.0859
  17   2.0000      -0.737337       -20.0640
  18   2.0000      -0.698569       -19.0090
  19   2.0000      -0.680887       -18.5279
  20   2.0000      -0.659202       -17.9378
  21   2.0000      -0.591188       -16.0870
  22   2.0000      -0.579794       -15.7770
  23   2.0000      -0.558178       -15.1888
  24   2.0000      -0.553398       -15.0587
  25   2.0000      -0.511759       -13.9257
  26   2.0000      -0.492325       -13.3969
  27   2.0000      -0.465106       -12.6562
  28   2.0000      -0.455492       -12.3946
  29   2.0000      -0.445285       -12.1168
  30   2.0000      -0.426749       -11.6124
  31   2.0000      -0.415866       -11.3163
  32   2.0000      -0.411743       -11.2041
  33   0.0000       0.070035         1.9058
  34   0.0000       0.094890         2.5821
  35   0.0000       0.098216         2.6726
  36   0.0000       0.099618         2.7107
  37   0.0000       0.120370         3.2754

MULLIKEN ATOMIC CHARGES
-----------------------
   0 C :    0.673654
   1 C :   -0.353082
   2 C :   -0.009333
   3 S :    1.527952
   4 H :    0.081981
   5 H :    0.150865
   6 F :   -0.449753
   7 O :   -0.741542
   8 H :    0.074172
   9 H :   -0.064368
  10 O :   -0.708382
  11 H :   -0.086402
  12 H :   -0.021002
  13 H :   -0.074760
Sum of atomic charges:   -0.0000000

LOEWDIN ATOMIC CHARGES
----------------------
   0 C :    0.118567
   1 C :   -0.054546
   2 C :   -0.034897
   3 S :    1.138815
   4 H :    0.030225
   5 H :    0.035851
   6 F :   -0.233131
   7 O :   -0.522244
   8 H :    0.030754
   9 H :    0.040875
  10 O :   -0.490942
  11 H :   -0.043321
  12 H :   -0.008420
  13 H :   -0.007586

  Mayer bond orders larger than 0.100000
B(  0-C ,  1-C ) :   1.3177 B(  0-C , 11-H ) :   0.8333 B(  0-C , 12-H ) :   0.7790
B(  0-C , 13-H ) :   0.7826 B(  1-C ,  2-C ) :   1.3100 B(  1-C ,  4-H ) :   0.1450
B(  1-C ,  5-H ) :   0.1207 B(  1-C ,  8-H ) :   0.8929 B(  1-C ,  9-H ) :   0.9128
B(  1-C , 11-H ) :   0.1790 B(  1-C , 12-H ) :   0.1887 B(  1-C , 13-H ) :   0.2039
B(  2-C ,  3-S ) :   0.9547 B(  2-C ,  4-H ) :   0.8909 B(  2-C ,  5-H ) :   0.9056
B(  2-C ,  8-H ) :   0.1048 B(  2-C ,  9-H ) :   0.1041 B(  3-S ,  6-F ) :   0.7108
B(  3-S ,  7-O ) :   1.4228 B(  3-S , 10-O ) :   1.4547

Dispersion correction           -0.004621743
FINAL SINGLE POINT ENERGY      -766.459293878053

DIPOLE MOMENT
-------------
                                X             Y             Z
Electronic contribution:    -11.82025      -3.72240      -5.97537
Nuclear contribution   :     11.77809       5.83971       5.48704
                        -----------------------------------------
Total Dipole Moment    :     -0.04216       2.11731      -0.48833
                        -----------------------------------------
Magnitude (a.u.)       :      2.17330
Magnitude (Debye)      :      5.52410

Rotational constants in cm-1:     0.133968     0.056186     0.052650
Rotational constants in MHz :  4016.256208  1684.422248  1578.415210

                             ****ORCA TERMINATED NORMALLY****
TOTAL RUN TIME: 0 days 0 hours 0 minutes 15 seconds 203 msec
