                         Program Version 5.0.0 -  RELEASE  -
|  1> !wB97X-D3 RIJCOSX def2-SVPD def2/J TightSCF CPCM(Water)
|  2> *xyz 0 1
|  3> C          1.36401        0.46874       -2.81376
|  4> C          0.42884        0.32140       -1.65531
|  5> C          0.96805        1.63064       -3.71575
|  6> C         -0.50835        1.72268       -4.12430
|  7> H          0.74858       -0.40054       -1.00134
|  8> H         -0.46105        0.02333       -2.07773
|  9> H          0.31026        1.20137       -1.13495
| 10> H          1.29485       -0.46874       -3.36468
| 11> H          2.37622        0.59740       -2.43149
| 12> H          1.57869        1.52065       -4.61273
| 13> H          1.26665        2.57599       -3.25045
| 14> H         -0.65192        2.57663       -4.75283
| 15> H         -1.11549        1.81835       -3.24844
| 16> H         -0.78702        0.83723       -4.65648
| 17> *
| 18> %MaxCore 64000
| 19>
| 20> %pal nprocs 18
| 21> end
| 22>
| 23> %scf
| 24>   MaxIter 150
| 25> end
| 26>
| 27>
| 28>                          ****END OF INPUT****

CARTESIAN COORDINATES (ANGSTROEM)
---------------------------------
  C      1.364010    0.468740   -2.813760
  C      0.428840    0.321400   -1.655310
  C      0.968050    1.630640   -3.715750
  C     -0.508350    1.722680   -4.124300
  H      0.748580   -0.400540   -1.001340
  H     -0.461050    0.023330   -2.077730
  H      0.310260    1.201370   -1.134950
  H      1.294850   -0.468740   -3.364680
  H      2.376220    0.597400   -2.431490
  H      1.578690    1.520650   -4.612730
  H      1.266650    2.575990   -3.250450
  H     -0.651920    2.576630   -4.752830
  H     -1.115490    1.818350   -3.248440
  H     -0.787020    0.837230   -4.656480

 Total Charge           Charge          ....    0
 Multiplicity           Mult            ....    1
 Number of Electrons    NEL             ....   34
 Basis Dimension        Dim             ....  160

ORBITAL ENERGIES
----------------

  NO   OCC          E(Eh)            E(eV)
   0   2.0000     -10.274676      -279.5882
   1   2.0000     -10.270705      -279.4801
   2   2.0000     -10.265246      -279.3315
   3   2.0000     -10.244988      -278.7803
   4   2.0000      -0.909040       -24.7362
   5   2.0000      -0.831825       -22.6351
   6   2.0000      -0.750172       -20.4132
   7   2.0000      -0.661642       -18.0042
   8   2.0000      -0.568141       -15.4599
   9   2.0000      -0.559841       -15.2341
  10   2.0000      -0.519850       -14.1458
  11   2.0000      -0.480612       -13.0781
  12   2.0000      -0.476375       -12.9628
  13   2.0000      -0.456682       -12.4269
  14   2.0000      -0.415727       -11.3125
  15   2.0000      -0.407374       -11.0852
  16   2.0000      -0.404253       -11.0003
  17   0.0000       0.099482         2.7070
  18   0.0000       0.124209         3.3799
  19   0.0000       0.125746         3.4217
  20   0.0000       0.140851         3.8327
  21   0.0000       0.173484         4.7208

MULLIKEN ATOMIC CHARGES
-----------------------
   0 C :   -0.325966
   1 C :    0.885486
   2 C :   -0.355873
   3 C :    0.569829
   4 H :   -0.288968
   5 H :   -0.062745
   6 H :   -0.143644
   7 H :    0.003480
   8 H :   -0.104789
   9 H :   -0.073039
  10 H :    0.005608
  11 H :   -0.093180
  12 H :   -0.012850
  13 H :   -0.003348
Sum of atomic charges:    0.0000000

LOEWDIN ATOMIC CHARGES
----------------------
   0 C :   -0.080981
   1 C :    0.114331
   2 C :   -0.083618
   3 C :    0.118092
   4 H :   -0.033070
   5 H :   -0.037558
   6 H :   -0.022345
   7 H :    0.025371
   8 H :    0.021605
   9 H :    0.012543
  10 H :    0.022287
  11 H :   -0.018075
  12 H :   -0.026296
  13 H :   -0.012286

  Mayer bond orders larger than 0.100000
B(  0-C ,  1-C ) :   1.2723 B(  0-C ,  2-C ) :   1.1712 B(  0-C ,  4-H ) :   0.2137
B(  0-C ,  5-H ) :   0.2439 B(  0-C ,  6-H ) :   0.2162 B(  0-C ,  7-H ) :   0.8755
B(  0-C ,  8-H ) :   0.9590 B(  0-C ,  9-H ) :   0.1345 B(  0-C , 10-H ) :   0.1162
B(  1-C ,  4-H ) :   0.7597 B(  1-C ,  5-H ) :   0.7520 B(  1-C ,  6-H ) :   0.7432
B(  1-C ,  7-H ) :   0.1142 B(  2-C ,  3-C ) :   1.3013 B(  2-C ,  7-H ) :   0.1227
B(  2-C ,  9-H ) :   0.9356 B(  2-C , 10-H ) :   0.9239 B(  2-C , 11-H ) :   0.2065
B(  2-C , 12-H ) :   0.1703 B(  2-C , 13-H ) :   0.1762 B(  3-C , 11-H ) :   0.8085
B(  3-C , 12-H ) :   0.8528 B(  3-C , 13-H ) :   0.8252

Dispersion correction           -0.002747771
FINAL SINGLE POINT ENERGY      -158.290452112154

DIPOLE MOMENT
-------------
                                X             Y             Z
Electronic contribution:      0.84010       0.04625      -0.18596
Nuclear contribution   :     -0.83100      -0.05970       0.18742
                        -----------------------------------------
Total Dipole Moment    :      0.00910      -0.01344       0.00146
                        -----------------------------------------
Magnitude (a.u.)       :      0.01630
Magnitude (Debye)      :      0.04143

Rotational constants in cm-1:     0.433656     0.172838     0.140497
Rotational constants in MHz : 13000.688694  5181.547473  4211.992439

                             ****ORCA TERMINATED NORMALLY****
TOTAL RUN TIME: 0 days 0 hours 0 minutes 8 seconds 278 msec
