                         Program Version 5.0.0 -  RELEASE  -
|  1> !wB97X-D3 RIJCOSX def2-SVPD def2/J TightSCF CPCM(Water)
|  2> *xyz 0 1
|  3> C          1.36401        0.46874       -2.81376
|  4> C          0.96805        1.63064       -3.71575
|  5> C         -0.50835        1.72268       -4.12430
|  6> S         -1.32861        0.14674       -4.43578
|  7> H         -0.59151        2.29496       -5.04722
|  8> H         -1.11411        2.23561       -3.37436
|  9> O         -2.57135        0.47573       -5.06834
| 10> F         -1.51496       -0.40051       -3.06342
| 11> H          1.57869        1.52065       -4.61273
| 12> H          1.26665        2.57599       -3.25045
| 13> O         -0.37793       -0.62756       -5.20114
| 14> H          1.07115       -0.45339       -3.27071
| 15> H          0.87480        0.56905       -1.86745
| 16> H          2.42423        0.47442       -2.66954
| 17> *
| 18> %MaxCore 64000
| 19>
| 20> %pal nprocs 18
| 21> end
| 22>
| 23> %scf
| 24>   MaxIter 150
| 25> end
| 26>
| 27>
| 28>                          ****END OF INPUT****

CARTESIAN COORDINATES (ANGSTROEM)
---------------------------------
  C      1.364010    0.468740   -2.813760
  C      0.968050    1.630640   -3.715750
  C     -0.508350    1.722680   -4.124300
  S     -1.328610    0.146740   -4.435780
  H     -0.591510    2.294960   -5.047220
  H     -1.114110    2.235610   -3.374360
  O     -2.571350    0.475730   -5.068340
  F     -1.514960   -0.400510   -3.063420
  H      1.578690    1.520650   -4.612730
  H      1.266650    2.575990   -3.250450
  O     -0.377930   -0.627560   -5.201140
  H      1.071150   -0.453390   -3.270710
  H      0.874800    0.569050   -1.867450
  H      2.424230    0.474420   -2.669540

 Total Charge           Charge          ....    0
 Multiplicity           Mult            ....    1
 Number of Electrons    NEL             ....   66
 Basis Dimension        Dim             ....  212

ORBITAL ENERGIES
----------------

  NO   OCC          E(Eh)            E(eV)
   0   2.0000     -89.237955     -2428.2882
   1   2.0000     -24.897185      -677.4868
   2   2.0000     -19.272879      -524.4417
   3   2.0000     -19.268617      -524.3257
   4   2.0000     -10.334768      -281.2233
   5   2.0000     -10.300732      -280.2972
   6   2.0000     -10.273274      -279.5500
   7   2.0000      -8.312171      -226.1857
   8   2.0000      -6.275686      -170.7701
   9   2.0000      -6.269981      -170.6149
  10   2.0000      -6.267917      -170.5587
  11   2.0000      -1.454595       -39.5815
  12   2.0000      -1.245877       -33.9020
  13   2.0000      -1.151552       -31.3353
  14   2.0000      -0.930667       -25.3247
  15   2.0000      -0.852079       -23.1863
  16   2.0000      -0.802093       -21.8261
  17   2.0000      -0.732191       -19.9239
  18   2.0000      -0.671326       -18.2677
  19   2.0000      -0.666564       -18.1381
  20   2.0000      -0.656892       -17.8749
  21   2.0000      -0.597039       -16.2462
  22   2.0000      -0.571471       -15.5505
  23   2.0000      -0.562634       -15.3100
  24   2.0000      -0.552724       -15.0404
  25   2.0000      -0.523247       -14.2383
  26   2.0000      -0.501902       -13.6574
  27   2.0000      -0.471491       -12.8299
  28   2.0000      -0.464615       -12.6428
  29   2.0000      -0.445093       -12.1116
  30   2.0000      -0.436856       -11.8875
  31   2.0000      -0.428166       -11.6510
  32   2.0000      -0.418165       -11.3788
  33   0.0000       0.070020         1.9053
  34   0.0000       0.095038         2.5861
  35   0.0000       0.097629         2.6566
  36   0.0000       0.101716         2.7678
  37   0.0000       0.120589         3.2814

MULLIKEN ATOMIC CHARGES
-----------------------
   0 C :    0.639349
   1 C :   -0.319973
   2 C :   -0.010526
   3 S :    1.464898
   4 H :    0.074931
   5 H :    0.150971
   6 O :   -0.723853
   7 F :   -0.401787
   8 H :    0.076425
   9 H :   -0.062459
  10 O :   -0.716457
  11 H :   -0.094107
  12 H :   -0.012749
  13 H :   -0.064663
Sum of atomic charges:   -0.0000000

LOEWDIN ATOMIC CHARGES
----------------------
   0 C :    0.120147
   1 C :   -0.064350
   2 C :   -0.028519
   3 S :    1.122117
   4 H :    0.038289
   5 H :    0.036770
   6 O :   -0.485598
   7 F :   -0.263588
   8 H :    0.030249
   9 H :    0.037791
  10 O :   -0.488999
  11 H :   -0.042697
  12 H :   -0.005967
  13 H :   -0.005646

  Mayer bond orders larger than 0.100000
B(  0-C ,  1-C ) :   1.3220 B(  0-C , 11-H ) :   0.8445 B(  0-C , 12-H ) :   0.7882
B(  0-C , 13-H ) :   0.7904 B(  1-C ,  2-C ) :   1.3095 B(  1-C ,  4-H ) :   0.1302
B(  1-C ,  5-H ) :   0.1155 B(  1-C ,  8-H ) :   0.8952 B(  1-C ,  9-H ) :   0.9089
B(  1-C , 11-H ) :   0.1688 B(  1-C , 12-H ) :   0.1810 B(  1-C , 13-H ) :   0.2033
B(  2-C ,  3-S ) :   0.9764 B(  2-C ,  4-H ) :   0.9029 B(  2-C ,  5-H ) :   0.9134
B(  2-C ,  8-H ) :   0.1095 B(  3-S ,  6-O ) :   1.5723 B(  3-S ,  7-F ) :   0.6253
B(  3-S , 10-O ) :   1.4896

Dispersion correction           -0.004614094
FINAL SINGLE POINT ENERGY      -766.481568423950

DIPOLE MOMENT
-------------
                                X             Y             Z
Electronic contribution:     -9.76693      -5.43883      -2.04522
Nuclear contribution   :     10.64200       6.78206       3.33086
                        -----------------------------------------
Total Dipole Moment    :      0.87507       1.34322       1.28564
                        -----------------------------------------
Magnitude (a.u.)       :      2.05496
Magnitude (Debye)      :      5.22329

Rotational constants in cm-1:     0.128573     0.057881     0.053975
Rotational constants in MHz :  3854.523324  1735.233387  1618.120420

                             ****ORCA TERMINATED NORMALLY****
TOTAL RUN TIME: 0 days 0 hours 0 minutes 14 seconds 606 msec
