                         Program Version 5.0.0 -  RELEASE  -
|  1> !wB97X-D3 RIJCOSX def2-SVPD def2/J TightSCF CPCM(Water)
|  2> *xyz 0 1
|  3> C          1.36401        0.46874       -2.81376
|  4> C          0.96805        1.63064       -3.71575
|  5> C         -0.50835        1.72268       -4.12430
|  6> S         -1.32861        0.14674       -4.43578
|  7> H         -0.59151        2.29496       -5.04722
|  8> H         -1.11411        2.23561       -3.37436
|  9> O         -2.57135        0.47573       -5.06834
| 10> O         -1.51496       -0.40051       -3.06342
| 11> H          1.57869        1.52065       -4.61273
| 12> H          1.26665        2.57599       -3.25045
| 13> F         -0.37793       -0.62756       -5.20114
| 14> H          1.07115       -0.45339       -3.27071
| 15> H          0.87480        0.56905       -1.86745
| 16> H          2.42423        0.47442       -2.66954
| 17> *
| 18> %MaxCore 64000
| 19>
| 20> %pal nprocs 18
| 21> end
| 22>
| 23> %scf
| 24>   MaxIter 150
| 25> end
| 26>
| 27>
| 28>                          ****END OF INPUT****

CARTESIAN COORDINATES (ANGSTROEM)
---------------------------------
  C      1.364010    0.468740   -2.813760
  C      0.968050    1.630640   -3.715750
  C     -0.508350    1.722680   -4.124300
  S     -1.328610    0.146740   -4.435780
  H     -0.591510    2.294960   -5.047220
  H     -1.114110    2.235610   -3.374360
  O     -2.571350    0.475730   -5.068340
  O     -1.514960   -0.400510   -3.063420
  H      1.578690    1.520650   -4.612730
  H      1.266650    2.575990   -3.250450
  F     -0.377930   -0.627560   -5.201140
  H      1.071150   -0.453390   -3.270710
  H      0.874800    0.569050   -1.867450
  H      2.424230    0.474420   -2.669540

 Total Charge           Charge          ....    0
 Multiplicity           Mult            ....    1
 Number of Electrons    NEL             ....   66
 Basis Dimension        Dim             ....  212

ORBITAL ENERGIES
----------------

  NO   OCC          E(Eh)            E(eV)
   0   2.0000     -89.240454     -2428.3562
   1   2.0000     -24.918196      -678.0586
   2   2.0000     -19.273248      -524.4518
   3   2.0000     -19.254438      -523.9399
   4   2.0000     -10.335697      -281.2486
   5   2.0000     -10.301619      -280.3213
   6   2.0000     -10.273424      -279.5541
   7   2.0000      -8.314724      -226.2551
   8   2.0000      -6.278460      -170.8456
   9   2.0000      -6.272339      -170.6790
  10   2.0000      -6.270262      -170.6225
  11   2.0000      -1.489838       -40.5405
  12   2.0000      -1.237502       -33.6741
  13   2.0000      -1.128960       -30.7206
  14   2.0000      -0.931913       -25.3586
  15   2.0000      -0.856879       -23.3169
  16   2.0000      -0.814058       -22.1516
  17   2.0000      -0.735967       -20.0267
  18   2.0000      -0.694266       -18.8919
  19   2.0000      -0.688506       -18.7352
  20   2.0000      -0.653329       -17.7780
  21   2.0000      -0.584575       -15.9071
  22   2.0000      -0.577561       -15.7162
  23   2.0000      -0.562772       -15.3138
  24   2.0000      -0.552963       -15.0469
  25   2.0000      -0.519507       -14.1365
  26   2.0000      -0.497347       -13.5335
  27   2.0000      -0.473236       -12.8774
  28   2.0000      -0.462028       -12.5724
  29   2.0000      -0.441878       -12.0241
  30   2.0000      -0.427427       -11.6309
  31   2.0000      -0.420088       -11.4312
  32   2.0000      -0.409422       -11.1410
  33   0.0000       0.068074         1.8524
  34   0.0000       0.094798         2.5796
  35   0.0000       0.097844         2.6625
  36   0.0000       0.099618         2.7107
  37   0.0000       0.124393         3.3849

MULLIKEN ATOMIC CHARGES
-----------------------
   0 C :    0.685475
   1 C :   -0.352085
   2 C :    0.001295
   3 S :    1.465505
   4 H :    0.063681
   5 H :    0.152614
   6 O :   -0.713532
   7 O :   -0.741747
   8 H :    0.076158
   9 H :   -0.065093
  10 F :   -0.395145
  11 H :   -0.081124
  12 H :   -0.024315
  13 H :   -0.071686
Sum of atomic charges:   -0.0000000

LOEWDIN ATOMIC CHARGES
----------------------
   0 C :    0.117614
   1 C :   -0.065092
   2 C :   -0.026986
   3 S :    1.127951
   4 H :    0.030430
   5 H :    0.044720
   6 O :   -0.485999
   7 O :   -0.521656
   8 H :    0.030592
   9 H :    0.038530
  10 F :   -0.237830
  11 H :   -0.038817
  12 H :   -0.007073
  13 H :   -0.006386

  Mayer bond orders larger than 0.100000
B(  0-C ,  1-C ) :   1.3148 B(  0-C , 11-H ) :   0.8269 B(  0-C , 12-H ) :   0.7832
B(  0-C , 13-H ) :   0.7857 B(  1-C ,  2-C ) :   1.2865 B(  1-C ,  4-H ) :   0.1352
B(  1-C ,  5-H ) :   0.1225 B(  1-C ,  8-H ) :   0.8985 B(  1-C ,  9-H ) :   0.9125
B(  1-C , 11-H ) :   0.1772 B(  1-C , 12-H ) :   0.1939 B(  1-C , 13-H ) :   0.2059
B(  2-C ,  3-S ) :   0.9804 B(  2-C ,  4-H ) :   0.9190 B(  2-C ,  5-H ) :   0.9057
B(  2-C ,  8-H ) :   0.1043 B(  2-C ,  9-H ) :   0.1078 B(  3-S ,  6-O ) :   1.5708
B(  3-S ,  7-O ) :   1.4523 B(  3-S , 10-F ) :   0.6729

Dispersion correction           -0.004616749
FINAL SINGLE POINT ENERGY      -766.463475992705

DIPOLE MOMENT
-------------
                                X             Y             Z
Electronic contribution:     -7.55040      -5.84641      -6.20698
Nuclear contribution   :      9.41919       7.02624       5.62986
                        -----------------------------------------
Total Dipole Moment    :      1.86879       1.17982      -0.57712
                        -----------------------------------------
Magnitude (a.u.)       :      2.28417
Magnitude (Debye)      :      5.80590

Rotational constants in cm-1:     0.128702     0.057313     0.054552
Rotational constants in MHz :  3858.395793  1718.208003  1635.420361

                             ****ORCA TERMINATED NORMALLY****
TOTAL RUN TIME: 0 days 0 hours 0 minutes 15 seconds 461 msec
