                         Program Version 5.0.0 -  RELEASE  -
|  1> !M062X D3Zero RIJCOSX def2-SVPD def2/J TightSCF
|  2> *xyz -1 1
|  3> C          1.36401        0.46874       -2.81376
|  4> C          0.96805        1.63064       -3.71575
|  5> C         -0.50835        1.72268       -4.12430
|  6> S         -1.32861        0.14674       -4.43578
|  7> H         -0.59151        2.29496       -5.04722
|  8> H         -1.11411        2.23561       -3.37436
|  9> O         -2.57135        0.47573       -5.06834
| 10> O         -1.51496       -0.40051       -3.06342
| 11> H          1.57869        1.52065       -4.61273
| 12> H          1.26665        2.57599       -3.25045
| 13> O         -0.37793       -0.62756       -5.20114
| 14> H          1.07115       -0.45339       -3.27071
| 15> H          0.87480        0.56905       -1.86745
| 16> H          2.42423        0.47442       -2.66954
| 17> *
| 18> %MaxCore 64000
| 19>
| 20> %pal nprocs 4
| 21> end
| 22>
| 23> %scf
| 24>   MaxIter 150
| 25> end
| 26>
| 27>
| 28>                          ****END OF INPUT****

CARTESIAN COORDINATES (ANGSTROEM)
---------------------------------
  C      1.364010    0.468740   -2.813760
  C      0.968050    1.630640   -3.715750
  C     -0.508350    1.722680   -4.124300
  S     -1.328610    0.146740   -4.435780
  H     -0.591510    2.294960   -5.047220
  H     -1.114110    2.235610   -3.374360
  O     -2.571350    0.475730   -5.068340
  O     -1.514960   -0.400510   -3.063420
  H      1.578690    1.520650   -4.612730
  H      1.266650    2.575990   -3.250450
  O     -0.377930   -0.627560   -5.201140
  H      1.071150   -0.453390   -3.270710
  H      0.874800    0.569050   -1.867450
  H      2.424230    0.474420   -2.669540

 Total Charge           Charge          ....   -1
 Multiplicity           Mult            ....    1
 Number of Electrons    NEL             ....   66
 Basis Dimension        Dim             ....  212

ORBITAL ENERGIES
----------------

  NO   OCC          E(Eh)            E(eV)
   0   2.0000     -89.940021     -2447.3924
   1   2.0000     -19.424516      -528.5679
   2   2.0000     -19.422467      -528.5122
   3   2.0000     -19.405797      -528.0586
   4   2.0000     -10.419139      -283.5192
   5   2.0000     -10.410889      -283.2947
   6   2.0000     -10.392112      -282.7837
   7   2.0000      -8.263219      -224.8536
   8   2.0000      -6.188619      -168.4009
   9   2.0000      -6.188361      -168.3939
  10   2.0000      -6.188082      -168.3863
  11   2.0000      -1.055347       -28.7175
  12   2.0000      -0.915275       -24.9059
  13   2.0000      -0.882982       -24.0272
  14   2.0000      -0.743036       -20.2190
  15   2.0000      -0.647780       -17.6270
  16   2.0000      -0.546095       -14.8600
  17   2.0000      -0.460806       -12.5392
  18   2.0000      -0.406814       -11.0700
  19   2.0000      -0.389503       -10.5989
  20   2.0000      -0.372220       -10.1286
  21   2.0000      -0.358647        -9.7593
  22   2.0000      -0.341570        -9.2946
  23   2.0000      -0.317849        -8.6491
  24   2.0000      -0.285732        -7.7752
  25   2.0000      -0.276571        -7.5259
  26   2.0000      -0.256733        -6.9861
  27   2.0000      -0.231191        -6.2910
  28   2.0000      -0.226420        -6.1612
  29   2.0000      -0.194719        -5.2986
  30   2.0000      -0.179091        -4.8733
  31   2.0000      -0.163733        -4.4554
  32   2.0000      -0.141762        -3.8575
  33   0.0000       0.153479         4.1764
  34   0.0000       0.172381         4.6907
  35   0.0000       0.177289         4.8243
  36   0.0000       0.182787         4.9739
  37   0.0000       0.200586         5.4582

MULLIKEN ATOMIC CHARGES
-----------------------
   0 C :    0.736703
   1 C :   -0.306893
   2 C :    0.176642
   3 S :    1.377347
   4 H :   -0.085463
   5 H :    0.006488
   6 O :   -0.860414
   7 O :   -0.848240
   8 H :    0.023935
   9 H :   -0.174126
  10 O :   -0.828718
  11 H :   -0.045720
  12 H :   -0.034163
  13 H :   -0.137378
Sum of atomic charges:   -1.0000000

LOEWDIN ATOMIC CHARGES
----------------------
   0 C :    0.109670
   1 C :   -0.093180
   2 C :   -0.086435
   3 S :    0.895944
   4 H :   -0.002196
   5 H :    0.006336
   6 O :   -0.578769
   7 O :   -0.602992
   8 H :    0.013486
   9 H :    0.005718
  10 O :   -0.578687
  11 H :   -0.039071
  12 H :   -0.017371
  13 H :   -0.032452

  Mayer bond orders larger than 0.100000
B(  0-C ,  1-C ) :   1.3319 B(  0-C , 11-H ) :   0.8277 B(  0-C , 12-H ) :   0.7560
B(  0-C , 13-H ) :   0.7470 B(  1-C ,  2-C ) :   1.2657 B(  1-C ,  4-H ) :   0.1395
B(  1-C ,  5-H ) :   0.1334 B(  1-C ,  8-H ) :   0.8778 B(  1-C ,  9-H ) :   0.8924
B(  1-C , 11-H ) :   0.2073 B(  1-C , 12-H ) :   0.2130 B(  1-C , 13-H ) :   0.2255
B(  2-C ,  3-S ) :   0.8693 B(  2-C ,  4-H ) :   0.9211 B(  2-C ,  5-H ) :   0.9191
B(  2-C ,  8-H ) :   0.1104 B(  2-C ,  9-H ) :   0.1070 B(  3-S ,  6-O ) :   1.3352
B(  3-S ,  7-O ) :   1.2423 B(  3-S , 10-O ) :   1.2552

Dispersion correction           -0.000280629
FINAL SINGLE POINT ENERGY      -741.889189954724

DIPOLE MOMENT
-------------
                                X             Y             Z
Electronic contribution:     -8.30479      -4.41706      -4.07241
Nuclear contribution   :      9.76868       5.90538       4.47074
                        -----------------------------------------
Total Dipole Moment    :      1.46389       1.48831       0.39833
                        -----------------------------------------
Magnitude (a.u.)       :      2.12526
Magnitude (Debye)      :      5.40197

Rotational constants in cm-1:     0.135183     0.058485     0.054837
Rotational constants in MHz :  4052.676901  1753.343161  1643.972690

                             ****ORCA TERMINATED NORMALLY****
TOTAL RUN TIME: 0 days 0 hours 0 minutes 25 seconds 972 msec
