                         Program Version 5.0.0 -  RELEASE  -
|  1> !M062X D3Zero RIJCOSX def2-SVPD def2/J TightSCF
|  2> *xyz 1 1
|  3> C          1.36401        0.46874       -2.81376
|  4> N          0.42884        0.32140       -1.65531
|  5> C          0.96805        1.63064       -3.71575
|  6> C         -0.50835        1.72268       -4.12430
|  7> H          0.74858       -0.40054       -1.00134
|  8> H         -0.46105        0.02333       -2.07773
|  9> H          0.31026        1.20137       -1.13495
| 10> H          1.29485       -0.46874       -3.36468
| 11> H          2.37622        0.59740       -2.43149
| 12> H          1.57869        1.52065       -4.61273
| 13> H          1.26665        2.57599       -3.25045
| 14> H         -0.65192        2.57663       -4.75283
| 15> H         -1.11549        1.81835       -3.24844
| 16> H         -0.78702        0.83723       -4.65648
| 17> *
| 18> %MaxCore 64000
| 19>
| 20> %pal nprocs 4
| 21> end
| 22>
| 23> %scf
| 24>   MaxIter 150
| 25> end
| 26>
| 27>
| 28>                          ****END OF INPUT****

CARTESIAN COORDINATES (ANGSTROEM)
---------------------------------
  C      1.364010    0.468740   -2.813760
  N      0.428840    0.321400   -1.655310
  C      0.968050    1.630640   -3.715750
  C     -0.508350    1.722680   -4.124300
  H      0.748580   -0.400540   -1.001340
  H     -0.461050    0.023330   -2.077730
  H      0.310260    1.201370   -1.134950
  H      1.294850   -0.468740   -3.364680
  H      2.376220    0.597400   -2.431490
  H      1.578690    1.520650   -4.612730
  H      1.266650    2.575990   -3.250450
  H     -0.651920    2.576630   -4.752830
  H     -1.115490    1.818350   -3.248440
  H     -0.787020    0.837230   -4.656480

 Total Charge           Charge          ....    1
 Multiplicity           Mult            ....    1
 Number of Electrons    NEL             ....   34
 Basis Dimension        Dim             ....  160

ORBITAL ENERGIES
----------------

  NO   OCC          E(Eh)            E(eV)
   0   2.0000     -15.090200      -410.6252
   1   2.0000     -10.800348      -293.8924
   2   2.0000     -10.729218      -291.9569
   3   2.0000     -10.701976      -291.2156
   4   2.0000      -1.306410       -35.5492
   5   2.0000      -1.062174       -28.9032
   6   2.0000      -0.969538       -26.3825
   7   2.0000      -0.880373       -23.9562
   8   2.0000      -0.867583       -23.6081
   9   2.0000      -0.846521       -23.0350
  10   2.0000      -0.753362       -20.5000
  11   2.0000      -0.706566       -19.2266
  12   2.0000      -0.675499       -18.3813
  13   2.0000      -0.652544       -17.7566
  14   2.0000      -0.593592       -16.1525
  15   2.0000      -0.585113       -15.9217
  16   2.0000      -0.573006       -15.5923
  17   0.0000      -0.163267        -4.4427
  18   0.0000      -0.105395        -2.8679
  19   0.0000      -0.102947        -2.8013
  20   0.0000      -0.096102        -2.6151
  21   0.0000      -0.068031        -1.8512

MULLIKEN ATOMIC CHARGES
-----------------------
   0 C :    0.536498
   1 N :   -0.745073
   2 C :   -0.367137
   3 C :    0.685482
   4 H :    0.308515
   5 H :    0.422580
   6 H :    0.394231
   7 H :    0.002481
   8 H :   -0.098749
   9 H :    0.008988
  10 H :   -0.030979
  11 H :   -0.079796
  12 H :   -0.051493
  13 H :    0.014453
Sum of atomic charges:    1.0000000

LOEWDIN ATOMIC CHARGES
----------------------
   0 C :    0.092978
   1 N :    0.326667
   2 C :   -0.046113
   3 C :    0.149218
   4 H :    0.106575
   5 H :    0.090603
   6 H :    0.111955
   7 H :    0.054792
   8 H :    0.052670
   9 H :    0.044268
  10 H :    0.036776
  11 H :    0.007470
  12 H :   -0.026373
  13 H :   -0.001485

  Mayer bond orders larger than 0.100000
B(  0-C ,  1-N ) :   0.7929 B(  0-C ,  2-C ) :   1.1927 B(  0-C ,  7-H ) :   0.8487
B(  0-C ,  8-H ) :   0.9578 B(  0-C ,  9-H ) :   0.1455 B(  1-N ,  4-H ) :   0.8053
B(  1-N ,  5-H ) :   0.7204 B(  1-N ,  6-H ) :   0.7592 B(  1-N ,  7-H ) :   0.1226
B(  2-C ,  3-C ) :   1.3149 B(  2-C ,  7-H ) :   0.1083 B(  2-C ,  9-H ) :   0.9065
B(  2-C , 10-H ) :   0.9564 B(  2-C , 11-H ) :   0.2071 B(  2-C , 12-H ) :   0.1685
B(  2-C , 13-H ) :   0.1878 B(  3-C , 11-H ) :   0.8310 B(  3-C , 12-H ) :   0.8350
B(  3-C , 13-H ) :   0.8082

Dispersion correction           -0.000149761
FINAL SINGLE POINT ENERGY      -174.625868436734

DIPOLE MOMENT
-------------
                                X             Y             Z
Electronic contribution:      0.76916      -1.07647       1.93997
Nuclear contribution   :     -0.79558       0.15863      -0.24664
                        -----------------------------------------
Total Dipole Moment    :     -0.02642      -0.91784       1.69333
                        -----------------------------------------
Magnitude (a.u.)       :      1.92626
Magnitude (Debye)      :      4.89617

Rotational constants in cm-1:     0.425244     0.165801     0.135024
Rotational constants in MHz : 12748.492920  4970.589839  4047.903558

                             ****ORCA TERMINATED NORMALLY****
TOTAL RUN TIME: 0 days 0 hours 0 minutes 15 seconds 777 msec
