                         Program Version 5.0.0 -  RELEASE  -
|  1> !M062X D3Zero RIJCOSX def2-SVPD def2/J TightSCF xyzfile
|  2>
|  3> *xyzfile 0 1 B.xyz
|  4>
|  5> %MaxCore 64000
|  6>
|  7> %pal nprocs 4
|  8> end
|  9>
| 10> %scf
| 11>   MaxIter 150
| 12> end
| 13>
| 14>
| 15>                          ****END OF INPUT****

CARTESIAN COORDINATES (ANGSTROEM)
---------------------------------
  C      1.364014    0.468742   -2.813764
  N      0.428844    0.321402   -1.655312
  C      0.968045    1.630639   -3.715749
  C     -0.508347    1.722679   -4.124300
  S     -1.328608    0.146737   -4.435781
  H     -0.591511    2.294958   -5.047219
  H     -1.114114    2.235610   -3.374362
  H      0.748578   -0.400542   -1.001345
  H     -0.461053    0.023332   -2.077731
  H      0.310258    1.201375   -1.134948
  O     -2.571347    0.475733   -5.068341
  O     -1.514963   -0.400512   -3.063420
  H      1.294847   -0.468742   -3.364684
  H      2.376216    0.597400   -2.431495
  H      1.578688    1.520652   -4.612733
  H      1.266653    2.575988   -3.250448
  O     -0.377928   -0.627558   -5.201141

 Total Charge           Charge          ....    0
 Multiplicity           Mult            ....    1
 Number of Electrons    NEL             ....   74
 Basis Dimension        Dim             ....  248

ORBITAL ENERGIES
----------------

  NO   OCC          E(Eh)            E(eV)
   0   2.0000     -90.106106     -2451.9118
   1   2.0000     -19.595393      -533.2178
   2   2.0000     -19.578664      -532.7625
   3   2.0000     -19.576308      -532.6984
   4   2.0000     -14.896242      -405.3474
   5   2.0000     -10.646633      -289.7096
   6   2.0000     -10.597228      -288.3652
   7   2.0000     -10.574970      -287.7596
   8   2.0000      -8.429037      -229.3657
   9   2.0000      -6.354871      -172.9248
  10   2.0000      -6.354019      -172.9016
  11   2.0000      -6.353701      -172.8930
  12   2.0000      -1.221116       -33.2283
  13   2.0000      -1.130820       -30.7712
  14   2.0000      -1.069262       -29.0961
  15   2.0000      -1.067079       -29.0367
  16   2.0000      -0.919029       -25.0080
  17   2.0000      -0.827240       -22.5104
  18   2.0000      -0.737385       -20.0653
  19   2.0000      -0.706308       -19.2196
  20   2.0000      -0.688985       -18.7482
  21   2.0000      -0.627460       -17.0740
  22   2.0000      -0.600265       -16.3340
  23   2.0000      -0.562661       -15.3108
  24   2.0000      -0.547341       -14.8939
  25   2.0000      -0.541774       -14.7424
  26   2.0000      -0.511938       -13.9305
  27   2.0000      -0.503235       -13.6937
  28   2.0000      -0.470619       -12.8062
  29   2.0000      -0.460348       -12.5267
  30   2.0000      -0.443327       -12.0635
  31   2.0000      -0.400239       -10.8910
  32   2.0000      -0.391436       -10.6515
  33   2.0000      -0.358974        -9.7682
  34   2.0000      -0.348614        -9.4863
  35   2.0000      -0.330846        -9.0028
  36   2.0000      -0.310033        -8.4364
  37   0.0000      -0.021377        -0.5817
  38   0.0000       0.021281         0.5791
  39   0.0000       0.025182         0.6852
  40   0.0000       0.048282         1.3138
  41   0.0000       0.064216         1.7474

MULLIKEN ATOMIC CHARGES
-----------------------
   0 C :    0.571389
   1 N :   -0.353669
   2 C :    0.222930
   3 C :    0.205172
   4 S :    1.491399
   5 H :   -0.236748
   6 H :    0.118333
   7 H :    0.301674
   8 H :   -0.027677
   9 H :    0.422649
  10 O :   -0.817815
  11 O :   -0.926606
  12 H :    0.108980
  13 H :   -0.289765
  14 H :    0.094219
  15 H :   -0.090021
  16 O :   -0.794445
Sum of atomic charges:    0.0000000

LOEWDIN ATOMIC CHARGES
----------------------
   0 C :    0.098076
   1 N :    0.318829
   2 C :   -0.014977
   3 C :   -0.057261
   4 S :    0.978351
   5 H :    0.019593
   6 H :    0.015514
   7 H :    0.096389
   8 H :   -0.112337
   9 H :    0.098753
  10 O :   -0.516151
  11 O :   -0.526477
  12 H :    0.036717
  13 H :    0.034933
  14 H :    0.041199
  15 H :    0.025810
  16 O :   -0.536961

  Mayer bond orders larger than 0.100000
B(  0-C ,  1-N ) :   0.8655 B(  0-C ,  2-C ) :   1.2083 B(  0-C , 12-H ) :   0.7923
B(  0-C , 13-H ) :   0.9365 B(  0-C , 14-H ) :   0.1507 B(  0-C , 15-H ) :   0.1375
B(  1-N ,  7-H ) :   0.7908 B(  1-N ,  8-H ) :   1.2482 B(  1-N ,  9-H ) :   0.7297
B(  1-N , 12-H ) :   0.1271 B(  2-C ,  3-C ) :   1.2590 B(  2-C ,  5-H ) :   0.1499
B(  2-C ,  6-H ) :   0.1062 B(  2-C , 12-H ) :   0.1212 B(  2-C , 14-H ) :   0.8024
B(  2-C , 15-H ) :   0.8180 B(  3-C ,  4-S ) :   0.8616 B(  3-C ,  5-H ) :   0.9073
B(  3-C ,  6-H ) :   0.8824 B(  3-C , 11-O ) :   0.1205 B(  3-C , 14-H ) :   0.1230
B(  4-S ,  5-H ) :   0.1012 B(  4-S , 10-O ) :   1.4128 B(  4-S , 11-O ) :   1.0562
B(  4-S , 16-O ) :   1.3113 B(  8-H , 11-O ) :   0.2399 B( 12-H , 13-H ) :  -0.1105

Dispersion correction           -0.000437281
FINAL SINGLE POINT ENERGY      -797.701377319917

DIPOLE MOMENT
-------------
                                X             Y             Z
Electronic contribution:     -6.85099      -4.09005      -4.25713
Nuclear contribution   :      9.95459       5.57517       7.68169
                        -----------------------------------------
Total Dipole Moment    :      3.10359       1.48512       3.42455
                        -----------------------------------------
Magnitude (a.u.)       :      4.85443
Magnitude (Debye)      :     12.33897

Rotational constants in cm-1:     0.102119     0.045768     0.041299
Rotational constants in MHz :  3061.441288  1372.093000  1238.124534

                             ****ORCA TERMINATED NORMALLY****
TOTAL RUN TIME: 0 days 0 hours 0 minutes 49 seconds 633 msec
