                         Program Version 5.0.0 -  RELEASE  -
|  1> !M062X D3Zero RIJCOSX def2-SVPD def2/J TightSCF
|  2> *xyz 0 1
|  3> C          1.36401        0.46874       -2.81376
|  4> C          0.96805        1.63064       -3.71575
|  5> C         -0.50835        1.72268       -4.12430
|  6> S         -1.32861        0.14674       -4.43578
|  7> H         -0.59151        2.29496       -5.04722
|  8> H         -1.11411        2.23561       -3.37436
|  9> F         -2.57135        0.47573       -5.06834
| 10> O         -1.51496       -0.40051       -3.06342
| 11> H          1.57869        1.52065       -4.61273
| 12> H          1.26665        2.57599       -3.25045
| 13> O         -0.37793       -0.62756       -5.20114
| 14> H          1.07115       -0.45339       -3.27071
| 15> H          0.87480        0.56905       -1.86745
| 16> H          2.42423        0.47442       -2.66954
| 17> *
| 18> %MaxCore 64000
| 19>
| 20> %pal nprocs 4
| 21> end
| 22>
| 23> %scf
| 24>   MaxIter 150
| 25> end
| 26>
| 27>
| 28>                          ****END OF INPUT****

CARTESIAN COORDINATES (ANGSTROEM)
---------------------------------
  C      1.364010    0.468740   -2.813760
  C      0.968050    1.630640   -3.715750
  C     -0.508350    1.722680   -4.124300
  S     -1.328610    0.146740   -4.435780
  H     -0.591510    2.294960   -5.047220
  H     -1.114110    2.235610   -3.374360
  F     -2.571350    0.475730   -5.068340
  O     -1.514960   -0.400510   -3.063420
  H      1.578690    1.520650   -4.612730
  H      1.266650    2.575990   -3.250450
  O     -0.377930   -0.627560   -5.201140
  H      1.071150   -0.453390   -3.270710
  H      0.874800    0.569050   -1.867450
  H      2.424230    0.474420   -2.669540

 Total Charge           Charge          ....    0
 Multiplicity           Mult            ....    1
 Number of Electrons    NEL             ....   66
 Basis Dimension        Dim             ....  212

ORBITAL ENERGIES
----------------

  NO   OCC          E(Eh)            E(eV)
   0   2.0000     -90.199519     -2454.4537
   1   2.0000     -25.386285      -690.7959
   2   2.0000     -19.655769      -534.8607
   3   2.0000     -19.639356      -534.4141
   4   2.0000     -10.612169      -288.7718
   5   2.0000     -10.578035      -287.8430
   6   2.0000     -10.535980      -286.6986
   7   2.0000      -8.523859      -231.9460
   8   2.0000      -6.452160      -175.5722
   9   2.0000      -6.446950      -175.4304
  10   2.0000      -6.445987      -175.4042
  11   2.0000      -1.528192       -41.5842
  12   2.0000      -1.227165       -33.3928
  13   2.0000      -1.116654       -30.3857
  14   2.0000      -0.920284       -25.0422
  15   2.0000      -0.854310       -23.2470
  16   2.0000      -0.802969       -21.8499
  17   2.0000      -0.725100       -19.7310
  18   2.0000      -0.697902       -18.9909
  19   2.0000      -0.673563       -18.3286
  20   2.0000      -0.637259       -17.3407
  21   2.0000      -0.570740       -15.5306
  22   2.0000      -0.559555       -15.2263
  23   2.0000      -0.529119       -14.3980
  24   2.0000      -0.528563       -14.3829
  25   2.0000      -0.489209       -13.3120
  26   2.0000      -0.463780       -12.6201
  27   2.0000      -0.439195       -11.9511
  28   2.0000      -0.429937       -11.6992
  29   2.0000      -0.416091       -11.3224
  30   2.0000      -0.401291       -10.9197
  31   2.0000      -0.384190       -10.4543
  32   2.0000      -0.380134       -10.3440
  33   0.0000       0.009499         0.2585
  34   0.0000       0.033807         0.9199
  35   0.0000       0.040853         1.1117
  36   0.0000       0.045804         1.2464
  37   0.0000       0.068617         1.8672

MULLIKEN ATOMIC CHARGES
-----------------------
   0 C :    0.731074
   1 C :   -0.323106
   2 C :    0.086505
   3 S :    1.563535
   4 H :   -0.004615
   5 H :    0.081768
   6 F :   -0.476472
   7 O :   -0.714568
   8 H :    0.059762
   9 H :   -0.126172
  10 O :   -0.697425
  11 H :   -0.061607
  12 H :   -0.010601
  13 H :   -0.108078
Sum of atomic charges:   -0.0000000

LOEWDIN ATOMIC CHARGES
----------------------
   0 C :    0.132036
   1 C :   -0.060956
   2 C :   -0.050508
   3 S :    1.158473
   4 H :    0.014933
   5 H :    0.024933
   6 F :   -0.261218
   7 O :   -0.495595
   8 H :    0.029144
   9 H :    0.032466
  10 O :   -0.473374
  11 H :   -0.033855
  12 H :   -0.006094
  13 H :   -0.010386

  Mayer bond orders larger than 0.100000
B(  0-C ,  1-C ) :   1.3476 B(  0-C , 11-H ) :   0.8302 B(  0-C , 12-H ) :   0.7615
B(  0-C , 13-H ) :   0.7627 B(  1-C ,  2-C ) :   1.3231 B(  1-C ,  4-H ) :   0.1460
B(  1-C ,  5-H ) :   0.1203 B(  1-C ,  8-H ) :   0.8768 B(  1-C ,  9-H ) :   0.8997
B(  1-C , 11-H ) :   0.1940 B(  1-C , 12-H ) :   0.2041 B(  1-C , 13-H ) :   0.2153
B(  2-C ,  3-S ) :   0.9125 B(  2-C ,  4-H ) :   0.8937 B(  2-C ,  5-H ) :   0.9173
B(  2-C ,  8-H ) :   0.1131 B(  2-C ,  9-H ) :   0.1085 B(  3-S ,  6-F ) :   0.6365
B(  3-S ,  7-O ) :   1.4525 B(  3-S , 10-O ) :   1.4642

Dispersion correction           -0.000271386
FINAL SINGLE POINT ENERGY      -766.364524402549

DIPOLE MOMENT
-------------
                                X             Y             Z
Electronic contribution:    -11.74709      -4.26482      -5.81250
Nuclear contribution   :     11.77809       5.83971       5.48704
                        -----------------------------------------
Total Dipole Moment    :      0.03099       1.57490      -0.32546
                        -----------------------------------------
Magnitude (a.u.)       :      1.60847
Magnitude (Debye)      :      4.08841

Rotational constants in cm-1:     0.133968     0.056186     0.052650
Rotational constants in MHz :  4016.256208  1684.422248  1578.415210

                             ****ORCA TERMINATED NORMALLY****
TOTAL RUN TIME: 0 days 0 hours 0 minutes 27 seconds 486 msec
