                         Program Version 5.0.0 -  RELEASE  -
|  1> !M062X D3Zero RIJCOSX def2-SVPD def2/J TightSCF
|  2> *xyz 0 1
|  3> C          1.36401        0.46874       -2.81376
|  4> C          0.42884        0.32140       -1.65531
|  5> C          0.96805        1.63064       -3.71575
|  6> C         -0.50835        1.72268       -4.12430
|  7> H          0.74858       -0.40054       -1.00134
|  8> H         -0.46105        0.02333       -2.07773
|  9> H          0.31026        1.20137       -1.13495
| 10> H          1.29485       -0.46874       -3.36468
| 11> H          2.37622        0.59740       -2.43149
| 12> H          1.57869        1.52065       -4.61273
| 13> H          1.26665        2.57599       -3.25045
| 14> H         -0.65192        2.57663       -4.75283
| 15> H         -1.11549        1.81835       -3.24844
| 16> H         -0.78702        0.83723       -4.65648
| 17> *
| 18> %MaxCore 64000
| 19>
| 20> %pal nprocs 4
| 21> end
| 22>
| 23> %scf
| 24>   MaxIter 150
| 25> end
| 26>
| 27>
| 28>                          ****END OF INPUT****

CARTESIAN COORDINATES (ANGSTROEM)
---------------------------------
  C      1.364010    0.468740   -2.813760
  C      0.428840    0.321400   -1.655310
  C      0.968050    1.630640   -3.715750
  C     -0.508350    1.722680   -4.124300
  H      0.748580   -0.400540   -1.001340
  H     -0.461050    0.023330   -2.077730
  H      0.310260    1.201370   -1.134950
  H      1.294850   -0.468740   -3.364680
  H      2.376220    0.597400   -2.431490
  H      1.578690    1.520650   -4.612730
  H      1.266650    2.575990   -3.250450
  H     -0.651920    2.576630   -4.752830
  H     -1.115490    1.818350   -3.248440
  H     -0.787020    0.837230   -4.656480

 Total Charge           Charge          ....    0
 Multiplicity           Mult            ....    1
 Number of Electrons    NEL             ....   34
 Basis Dimension        Dim             ....  160

ORBITAL ENERGIES
----------------

  NO   OCC          E(Eh)            E(eV)
   0   2.0000     -10.539112      -286.7838
   1   2.0000     -10.535588      -286.6879
   2   2.0000     -10.530950      -286.5617
   3   2.0000     -10.511394      -286.0296
   4   2.0000      -0.893551       -24.3148
   5   2.0000      -0.813739       -22.1430
   6   2.0000      -0.728692       -19.8287
   7   2.0000      -0.637170       -17.3383
   8   2.0000      -0.541050       -14.7227
   9   2.0000      -0.532005       -14.4766
  10   2.0000      -0.492390       -13.3986
  11   2.0000      -0.452878       -12.3234
  12   2.0000      -0.446787       -12.1577
  13   2.0000      -0.428385       -11.6570
  14   2.0000      -0.385713       -10.4958
  15   2.0000      -0.378742       -10.3061
  16   2.0000      -0.374047       -10.1783
  17   0.0000       0.042505         1.1566
  18   0.0000       0.067388         1.8337
  19   0.0000       0.068410         1.8615
  20   0.0000       0.084035         2.2867
  21   0.0000       0.117126         3.1872

MULLIKEN ATOMIC CHARGES
-----------------------
   0 C :   -0.306612
   1 C :    0.942283
   2 C :   -0.334661
   3 C :    0.623521
   4 H :   -0.333840
   5 H :   -0.053136
   6 H :   -0.145712
   7 H :   -0.009336
   8 H :   -0.137501
   9 H :   -0.100837
  10 H :   -0.008785
  11 H :   -0.124333
  12 H :   -0.007345
  13 H :   -0.003706
Sum of atomic charges:    0.0000000

LOEWDIN ATOMIC CHARGES
----------------------
   0 C :   -0.080920
   1 C :    0.119875
   2 C :   -0.082979
   3 C :    0.123689
   4 H :   -0.034761
   5 H :   -0.039265
   6 H :   -0.023849
   7 H :    0.024423
   8 H :    0.020893
   9 H :    0.012303
  10 H :    0.021672
  11 H :   -0.019474
  12 H :   -0.027640
  13 H :   -0.013967

  Mayer bond orders larger than 0.100000
B(  0-C ,  1-C ) :   1.2818 B(  0-C ,  2-C ) :   1.1813 B(  0-C ,  4-H ) :   0.2216
B(  0-C ,  5-H ) :   0.2608 B(  0-C ,  6-H ) :   0.2312 B(  0-C ,  7-H ) :   0.8623
B(  0-C ,  8-H ) :   0.9682 B(  0-C ,  9-H ) :   0.1330 B(  0-C , 10-H ) :   0.1224
B(  1-C ,  4-H ) :   0.7498 B(  1-C ,  5-H ) :   0.7426 B(  1-C ,  6-H ) :   0.7276
B(  1-C ,  7-H ) :   0.1209 B(  2-C ,  3-C ) :   1.3204 B(  2-C ,  7-H ) :   0.1288
B(  2-C ,  9-H ) :   0.9430 B(  2-C , 10-H ) :   0.9161 B(  2-C , 11-H ) :   0.2165
B(  2-C , 12-H ) :   0.1795 B(  2-C , 13-H ) :   0.1912 B(  3-C , 11-H ) :   0.8000
B(  3-C , 12-H ) :   0.8456 B(  3-C , 13-H ) :   0.8083 B(  4-H ,  6-H ) :  -0.1268

Dispersion correction           -0.000145140
FINAL SINGLE POINT ENERGY      -158.227871998009

DIPOLE MOMENT
-------------
                                X             Y             Z
Electronic contribution:      0.84335       0.05411      -0.18753
Nuclear contribution   :     -0.83100      -0.05970       0.18742
                        -----------------------------------------
Total Dipole Moment    :      0.01234      -0.00559      -0.00012
                        -----------------------------------------
Magnitude (a.u.)       :      0.01355
Magnitude (Debye)      :      0.03444

Rotational constants in cm-1:     0.433656     0.172838     0.140497
Rotational constants in MHz : 13000.688694  5181.547473  4211.992439

                             ****ORCA TERMINATED NORMALLY****
TOTAL RUN TIME: 0 days 0 hours 0 minutes 13 seconds 943 msec
