                         Program Version 5.0.0 -  RELEASE  -
|  1> !M062X D3Zero RIJCOSX def2-SVPD def2/J TightSCF
|  2> *xyz 0 1
|  3> C          1.36401        0.46874       -2.81376
|  4> C          0.96805        1.63064       -3.71575
|  5> C         -0.50835        1.72268       -4.12430
|  6> S         -1.32861        0.14674       -4.43578
|  7> H         -0.59151        2.29496       -5.04722
|  8> H         -1.11411        2.23561       -3.37436
|  9> O         -2.57135        0.47573       -5.06834
| 10> F         -1.51496       -0.40051       -3.06342
| 11> H          1.57869        1.52065       -4.61273
| 12> H          1.26665        2.57599       -3.25045
| 13> O         -0.37793       -0.62756       -5.20114
| 14> H          1.07115       -0.45339       -3.27071
| 15> H          0.87480        0.56905       -1.86745
| 16> H          2.42423        0.47442       -2.66954
| 17> *
| 18> %MaxCore 64000
| 19>
| 20> %pal nprocs 4
| 21> end
| 22>
| 23> %scf
| 24>   MaxIter 150
| 25> end
| 26>
| 27>
| 28>                          ****END OF INPUT****

CARTESIAN COORDINATES (ANGSTROEM)
---------------------------------
  C      1.364010    0.468740   -2.813760
  C      0.968050    1.630640   -3.715750
  C     -0.508350    1.722680   -4.124300
  S     -1.328610    0.146740   -4.435780
  H     -0.591510    2.294960   -5.047220
  H     -1.114110    2.235610   -3.374360
  O     -2.571350    0.475730   -5.068340
  F     -1.514960   -0.400510   -3.063420
  H      1.578690    1.520650   -4.612730
  H      1.266650    2.575990   -3.250450
  O     -0.377930   -0.627560   -5.201140
  H      1.071150   -0.453390   -3.270710
  H      0.874800    0.569050   -1.867450
  H      2.424230    0.474420   -2.669540

 Total Charge           Charge          ....    0
 Multiplicity           Mult            ....    1
 Number of Electrons    NEL             ....   66
 Basis Dimension        Dim             ....  212

ORBITAL ENERGIES
----------------

  NO   OCC          E(Eh)            E(eV)
   0   2.0000     -90.197035     -2454.3861
   1   2.0000     -25.356958      -689.9979
   2   2.0000     -19.657754      -534.9147
   3   2.0000     -19.654129      -534.8160
   4   2.0000     -10.611151      -288.7441
   5   2.0000     -10.579845      -287.8922
   6   2.0000     -10.550580      -287.0959
   7   2.0000      -8.521048      -231.8695
   8   2.0000      -6.449300      -175.4944
   9   2.0000      -6.444414      -175.3614
  10   2.0000      -6.443302      -175.3312
  11   2.0000      -1.478952       -40.2443
  12   2.0000      -1.241961       -33.7955
  13   2.0000      -1.143629       -31.1197
  14   2.0000      -0.924623       -25.1603
  15   2.0000      -0.842420       -22.9234
  16   2.0000      -0.792869       -21.5751
  17   2.0000      -0.720428       -19.6038
  18   2.0000      -0.664281       -18.0760
  19   2.0000      -0.657935       -17.9033
  20   2.0000      -0.635460       -17.2917
  21   2.0000      -0.579040       -15.7565
  22   2.0000      -0.551401       -15.0044
  23   2.0000      -0.542206       -14.7542
  24   2.0000      -0.530628       -14.4391
  25   2.0000      -0.504834       -13.7372
  26   2.0000      -0.474182       -12.9032
  27   2.0000      -0.449301       -12.2261
  28   2.0000      -0.444472       -12.0947
  29   2.0000      -0.418622       -11.3913
  30   2.0000      -0.416991       -11.3469
  31   2.0000      -0.398716       -10.8496
  32   2.0000      -0.391648       -10.6573
  33   0.0000       0.014474         0.3939
  34   0.0000       0.035793         0.9740
  35   0.0000       0.042439         1.1548
  36   0.0000       0.043514         1.1841
  37   0.0000       0.069341         1.8869

MULLIKEN ATOMIC CHARGES
-----------------------
   0 C :    0.711828
   1 C :   -0.270771
   2 C :    0.094519
   3 S :    1.516884
   4 H :   -0.011957
   5 H :    0.077560
   6 O :   -0.725239
   7 F :   -0.424925
   8 H :    0.064710
   9 H :   -0.122224
  10 O :   -0.704374
  11 H :   -0.081787
  12 H :   -0.024743
  13 H :   -0.099481
Sum of atomic charges:   -0.0000000

LOEWDIN ATOMIC CHARGES
----------------------
   0 C :    0.127565
   1 C :   -0.070852
   2 C :   -0.038921
   3 S :    1.146465
   4 H :    0.029973
   5 H :    0.024386
   6 O :   -0.467484
   7 F :   -0.284789
   8 H :    0.030012
   9 H :    0.029781
  10 O :   -0.471284
  11 H :   -0.037447
  12 H :   -0.009558
  13 H :   -0.007849

  Mayer bond orders larger than 0.100000
B(  0-C ,  1-C ) :   1.3450 B(  0-C , 11-H ) :   0.8391 B(  0-C , 12-H ) :   0.7625
B(  0-C , 13-H ) :   0.7772 B(  1-C ,  2-C ) :   1.3093 B(  1-C ,  4-H ) :   0.1256
B(  1-C ,  5-H ) :   0.1202 B(  1-C ,  8-H ) :   0.8819 B(  1-C ,  9-H ) :   0.8971
B(  1-C , 11-H ) :   0.1888 B(  1-C , 12-H ) :   0.1990 B(  1-C , 13-H ) :   0.2122
B(  2-C ,  3-S ) :   0.9428 B(  2-C ,  4-H ) :   0.9155 B(  2-C ,  5-H ) :   0.9237
B(  2-C ,  8-H ) :   0.1157 B(  3-S ,  6-O ) :   1.5593 B(  3-S ,  7-F ) :   0.5745
B(  3-S , 10-O ) :   1.4997

Dispersion correction           -0.000283582
FINAL SINGLE POINT ENERGY      -766.389299142991

DIPOLE MOMENT
-------------
                                X             Y             Z
Electronic contribution:     -9.87080      -5.76009      -2.33283
Nuclear contribution   :     10.64200       6.78206       3.33086
                        -----------------------------------------
Total Dipole Moment    :      0.77120       1.02196       0.99803
                        -----------------------------------------
Magnitude (a.u.)       :      1.62334
Magnitude (Debye)      :      4.12620

Rotational constants in cm-1:     0.128573     0.057881     0.053975
Rotational constants in MHz :  3854.523324  1735.233387  1618.120420

                             ****ORCA TERMINATED NORMALLY****
TOTAL RUN TIME: 0 days 0 hours 0 minutes 26 seconds 802 msec
