                         Program Version 5.0.0 -  RELEASE  -
|  1> !M062X D3Zero RIJCOSX def2-SVPD def2/J TightSCF
|  2> *xyz 0 1
|  3> C          1.36401        0.46874       -2.81376
|  4> C          0.96805        1.63064       -3.71575
|  5> C         -0.50835        1.72268       -4.12430
|  6> S         -1.32861        0.14674       -4.43578
|  7> H         -0.59151        2.29496       -5.04722
|  8> H         -1.11411        2.23561       -3.37436
|  9> O         -2.57135        0.47573       -5.06834
| 10> O         -1.51496       -0.40051       -3.06342
| 11> H          1.57869        1.52065       -4.61273
| 12> H          1.26665        2.57599       -3.25045
| 13> F         -0.37793       -0.62756       -5.20114
| 14> H          1.07115       -0.45339       -3.27071
| 15> H          0.87480        0.56905       -1.86745
| 16> H          2.42423        0.47442       -2.66954
| 17> *
| 18> %MaxCore 64000
| 19>
| 20> %pal nprocs 4
| 21> end
| 22>
| 23> %scf
| 24>   MaxIter 150
| 25> end
| 26>
| 27>
| 28>                          ****END OF INPUT****

CARTESIAN COORDINATES (ANGSTROEM)
---------------------------------
  C      1.364010    0.468740   -2.813760
  C      0.968050    1.630640   -3.715750
  C     -0.508350    1.722680   -4.124300
  S     -1.328610    0.146740   -4.435780
  H     -0.591510    2.294960   -5.047220
  H     -1.114110    2.235610   -3.374360
  O     -2.571350    0.475730   -5.068340
  O     -1.514960   -0.400510   -3.063420
  H      1.578690    1.520650   -4.612730
  H      1.266650    2.575990   -3.250450
  F     -0.377930   -0.627560   -5.201140
  H      1.071150   -0.453390   -3.270710
  H      0.874800    0.569050   -1.867450
  H      2.424230    0.474420   -2.669540

 Total Charge           Charge          ....    0
 Multiplicity           Mult            ....    1
 Number of Electrons    NEL             ....   66
 Basis Dimension        Dim             ....  212

ORBITAL ENERGIES
----------------

  NO   OCC          E(Eh)            E(eV)
   0   2.0000     -90.198255     -2454.4193
   1   2.0000     -25.380814      -690.6471
   2   2.0000     -19.657979      -534.9208
   3   2.0000     -19.637643      -534.3674
   4   2.0000     -10.611686      -288.7587
   5   2.0000     -10.582876      -287.9747
   6   2.0000     -10.549496      -287.0664
   7   2.0000      -8.522529      -231.9098
   8   2.0000      -6.451044      -175.5418
   9   2.0000      -6.445538      -175.3920
  10   2.0000      -6.444580      -175.3659
  11   2.0000      -1.517662       -41.2977
  12   2.0000      -1.231775       -33.5183
  13   2.0000      -1.118474       -30.4352
  14   2.0000      -0.926399       -25.2086
  15   2.0000      -0.849237       -23.1089
  16   2.0000      -0.806942       -21.9580
  17   2.0000      -0.725824       -19.7507
  18   2.0000      -0.691437       -18.8149
  19   2.0000      -0.683431       -18.5971
  20   2.0000      -0.629339       -17.1252
  21   2.0000      -0.569814       -15.5054
  22   2.0000      -0.558655       -15.2018
  23   2.0000      -0.540910       -14.7189
  24   2.0000      -0.525182       -14.2909
  25   2.0000      -0.500175       -13.6104
  26   2.0000      -0.467350       -12.7172
  27   2.0000      -0.451942       -12.2980
  28   2.0000      -0.442283       -12.0351
  29   2.0000      -0.420282       -11.4364
  30   2.0000      -0.403739       -10.9863
  31   2.0000      -0.387083       -10.5331
  32   2.0000      -0.378049       -10.2872
  33   0.0000       0.008588         0.2337
  34   0.0000       0.035480         0.9655
  35   0.0000       0.041938         1.1412
  36   0.0000       0.043457         1.1825
  37   0.0000       0.069134         1.8812

MULLIKEN ATOMIC CHARGES
-----------------------
   0 C :    0.754146
   1 C :   -0.295144
   2 C :    0.107633
   3 S :    1.501717
   4 H :   -0.019443
   5 H :    0.082191
   6 O :   -0.713314
   7 O :   -0.712436
   8 H :    0.039236
   9 H :   -0.128513
  10 F :   -0.420587
  11 H :   -0.080043
  12 H :   -0.012089
  13 H :   -0.103354
Sum of atomic charges:   -0.0000000

LOEWDIN ATOMIC CHARGES
----------------------
   0 C :    0.127688
   1 C :   -0.075518
   2 C :   -0.037133
   3 S :    1.149912
   4 H :    0.018502
   5 H :    0.038067
   6 O :   -0.467193
   7 O :   -0.494450
   8 H :    0.023580
   9 H :    0.031129
  10 F :   -0.265208
  11 H :   -0.036991
  12 H :   -0.002672
  13 H :   -0.009712

  Mayer bond orders larger than 0.100000
B(  0-C ,  1-C ) :   1.3393 B(  0-C , 11-H ) :   0.8245 B(  0-C , 12-H ) :   0.7677
B(  0-C , 13-H ) :   0.7643 B(  1-C ,  2-C ) :   1.2769 B(  1-C ,  4-H ) :   0.1301
B(  1-C ,  5-H ) :   0.1270 B(  1-C ,  8-H ) :   0.8867 B(  1-C ,  9-H ) :   0.9026
B(  1-C , 11-H ) :   0.1935 B(  1-C , 12-H ) :   0.2106 B(  1-C , 13-H ) :   0.2156
B(  2-C ,  3-S ) :   0.9467 B(  2-C ,  4-H ) :   0.9364 B(  2-C ,  5-H ) :   0.9117
B(  2-C ,  8-H ) :   0.1048 B(  2-C ,  9-H ) :   0.1076 B(  3-S ,  6-O ) :   1.5616
B(  3-S ,  7-O ) :   1.4821 B(  3-S , 10-F ) :   0.6089

Dispersion correction           -0.000287243
FINAL SINGLE POINT ENERGY      -766.368505344632

DIPOLE MOMENT
-------------
                                X             Y             Z
Electronic contribution:     -7.92753      -6.12747      -5.98644
Nuclear contribution   :      9.41919       7.02624       5.62986
                        -----------------------------------------
Total Dipole Moment    :      1.49166       0.89876      -0.35658
                        -----------------------------------------
Magnitude (a.u.)       :      1.77763
Magnitude (Debye)      :      4.51839

Rotational constants in cm-1:     0.128702     0.057313     0.054552
Rotational constants in MHz :  3858.395793  1718.208003  1635.420361

                             ****ORCA TERMINATED NORMALLY****
TOTAL RUN TIME: 0 days 0 hours 0 minutes 27 seconds 250 msec
