                         Program Version 5.0.0 -  RELEASE  -
|  1> !M062X D3Zero RIJCOSX def2-SVPD def2/J TightSCF xyzfile
|  2>
|  3> *xyzfile 0 1 D2.xyz
|  4>
|  5> %MaxCore 64000
|  6>
|  7> %pal nprocs 4
|  8> end
|  9>
| 10> %scf
| 11>   MaxIter 150
| 12> end
| 13>
| 14>
| 15>                          ****END OF INPUT****

CARTESIAN COORDINATES (ANGSTROEM)
---------------------------------
  C      1.364014    0.468742   -2.813764
  C      0.428844    0.321402   -1.655312
  C      0.968045    1.630639   -3.715749
  C     -0.508347    1.722679   -4.124300
  S     -1.328608    0.146737   -4.435781
  H     -0.591511    2.294958   -5.047219
  H     -1.114114    2.235610   -3.374362
  H      0.748578   -0.400542   -1.001345
  H     -0.461053    0.023332   -2.077731
  H      0.310258    1.201375   -1.134948
  O     -2.571347    0.475733   -5.068341
  F     -1.514963   -0.400512   -3.063420
  H      1.294847   -0.468742   -3.364684
  H      2.376216    0.597400   -2.431495
  H      1.578688    1.520652   -4.612733
  H      1.266653    2.575988   -3.250448
  O     -0.377928   -0.627558   -5.201141

 Total Charge           Charge          ....    0
 Multiplicity           Mult            ....    1
 Number of Electrons    NEL             ....   74
 Basis Dimension        Dim             ....  248

ORBITAL ENERGIES
----------------

  NO   OCC          E(Eh)            E(eV)
   0   2.0000     -90.201246     -2454.5007
   1   2.0000     -25.364211      -690.1953
   2   2.0000     -19.660948      -535.0016
   3   2.0000     -19.657450      -534.9064
   4   2.0000     -10.612976      -288.7938
   5   2.0000     -10.576136      -287.7913
   6   2.0000     -10.552221      -287.1405
   7   2.0000     -10.511807      -286.0408
   8   2.0000      -8.525092      -231.9796
   9   2.0000      -6.453489      -175.6084
  10   2.0000      -6.448397      -175.4698
  11   2.0000      -6.447270      -175.4391
  12   2.0000      -1.493380       -40.6369
  13   2.0000      -1.246410       -33.9165
  14   2.0000      -1.146692       -31.2031
  15   2.0000      -0.933937       -25.4137
  16   2.0000      -0.874165       -23.7872
  17   2.0000      -0.811917       -22.0934
  18   2.0000      -0.784628       -21.3508
  19   2.0000      -0.691058       -18.8047
  20   2.0000      -0.681867       -18.5545
  21   2.0000      -0.666331       -18.1318
  22   2.0000      -0.635305       -17.2875
  23   2.0000      -0.577999       -15.7281
  24   2.0000      -0.559316       -15.2198
  25   2.0000      -0.554056       -15.0766
  26   2.0000      -0.544639       -14.8204
  27   2.0000      -0.502614       -13.6768
  28   2.0000      -0.483387       -13.1536
  29   2.0000      -0.473864       -12.8945
  30   2.0000      -0.470586       -12.8053
  31   2.0000      -0.426712       -11.6114
  32   2.0000      -0.422838       -11.5060
  33   2.0000      -0.406305       -11.0561
  34   2.0000      -0.400737       -10.9046
  35   2.0000      -0.395486       -10.7617
  36   2.0000      -0.384566       -10.4646
  37   0.0000       0.016391         0.4460
  38   0.0000       0.034337         0.9344
  39   0.0000       0.039831         1.0838
  40   0.0000       0.045248         1.2313
  41   0.0000       0.066142         1.7998

MULLIKEN ATOMIC CHARGES
-----------------------
   0 C :   -0.402513
   1 C :    2.266238
   2 C :    0.311239
   3 C :    0.105001
   4 S :    1.582664
   5 H :   -0.231243
   6 H :    0.239522
   7 H :   -0.074251
   8 H :   -1.398287
   9 H :   -0.093339
  10 O :   -0.743126
  11 F :   -0.650022
  12 H :    0.100615
  13 H :   -0.327355
  14 H :    0.037781
  15 H :   -0.005772
  16 O :   -0.717152
Sum of atomic charges:    0.0000000

LOEWDIN ATOMIC CHARGES
----------------------
   0 C :   -0.050352
   1 C :    0.153285
   2 C :   -0.026726
   3 C :   -0.025696
   4 S :    1.170087
   5 H :    0.029493
   6 H :    0.027971
   7 H :   -0.019155
   8 H :   -0.133317
   9 H :   -0.015835
  10 O :   -0.461361
  11 F :   -0.292379
  12 H :    0.015465
  13 H :    0.026973
  14 H :    0.029063
  15 H :    0.034608
  16 O :   -0.462124

  Mayer bond orders larger than 0.100000
B(  0-C ,  1-C ) :   0.9055 B(  0-C ,  2-C ) :   1.2004 B(  0-C ,  7-H ) :   0.2380
B(  0-C ,  8-H ) :   0.6058 B(  0-C ,  9-H ) :   0.2864 B(  0-C , 12-H ) :   0.8279
B(  0-C , 13-H ) :   1.0258 B(  0-C , 14-H ) :   0.1320 B(  0-C , 15-H ) :   0.1619
B(  1-C ,  7-H ) :   0.5038 B(  1-C ,  8-H ) :  -1.2069 B(  1-C ,  9-H ) :   0.1460
B(  1-C , 11-F ) :  -0.2815 B(  1-C , 12-H ) :   0.1340 B(  2-C ,  3-C ) :   1.2648
B(  2-C ,  5-H ) :   0.1658 B(  2-C , 12-H ) :   0.1397 B(  2-C , 14-H ) :   0.8405
B(  2-C , 15-H ) :   0.7762 B(  3-C ,  4-S ) :   0.9628 B(  3-C ,  5-H ) :   0.9302
B(  3-C ,  6-H ) :   0.8540 B(  3-C ,  8-H ) :   0.1428 B(  3-C , 11-F ) :   0.1197
B(  3-C , 14-H ) :   0.1406 B(  4-S ,  8-H ) :  -0.1511 B(  4-S , 10-O ) :   1.5328
B(  4-S , 11-F ) :   0.5885 B(  4-S , 16-O ) :   1.5072 B(  5-H ,  8-H ) :  -0.1014
B(  7-H ,  8-H ) :   0.2133 B(  7-H ,  9-H ) :  -0.2436 B(  8-H ,  9-H ) :   0.6200
B(  8-H , 11-F ) :   0.3861 B( 12-H , 13-H ) :  -0.1350

Dispersion correction           -0.000433640
FINAL SINGLE POINT ENERGY      -805.611573966070

DIPOLE MOMENT
-------------
                                X             Y             Z
Electronic contribution:    -10.45286      -5.51334      -6.12174
Nuclear contribution   :     11.08796       6.45140       7.05645
                        -----------------------------------------
Total Dipole Moment    :      0.63510       0.93806       0.93471
                        -----------------------------------------
Magnitude (a.u.)       :      1.46867
Magnitude (Debye)      :      3.73307

Rotational constants in cm-1:     0.100113     0.046890     0.041843
Rotational constants in MHz :  3001.313402  1405.711946  1254.411771

                             ****ORCA TERMINATED NORMALLY****
TOTAL RUN TIME: 0 days 0 hours 0 minutes 47 seconds 190 msec
