                         Program Version 5.0.0 -  RELEASE  -
|  1> !BLYP D3BJ RIJCOSX def2-SVPD def2/J TightSCF
|  2> *xyz -1 1
|  3> C          2.09343        1.86104       -4.65684
|  4> S          1.87964        0.07859       -4.46297
|  5> O          3.20757       -0.46611       -4.42026
|  6> O          1.07506       -0.05616       -3.26876
|  7> O          1.13166       -0.31996       -5.67903
|  8> H          2.68437        2.05681       -5.52711
|  9> H          2.58708        2.25699       -3.79404
| 10> H          1.13553        2.32556       -4.76426
| 11> *
| 12>
| 13> %MaxCore 64000
| 14>
| 15> %pal nprocs 8
| 16> end
| 17>
| 18> %scf
| 19>   MaxIter 150
| 20> end
| 21>
| 22>
| 23>                          ****END OF INPUT****

CARTESIAN COORDINATES (ANGSTROEM)
---------------------------------
  C      2.093430    1.861040   -4.656840
  S      1.879640    0.078590   -4.462970
  O      3.207570   -0.466110   -4.420260
  O      1.075060   -0.056160   -3.268760
  O      1.131660   -0.319960   -5.679030
  H      2.684370    2.056810   -5.527110
  H      2.587080    2.256990   -3.794040
  H      1.135530    2.325560   -4.764260

 Total Charge           Charge          ....   -1
 Multiplicity           Mult            ....    1
 Number of Electrons    NEL             ....   50
 Basis Dimension        Dim             ....  140

ORBITAL ENERGIES
----------------

  NO   OCC          E(Eh)            E(eV)
   0   2.0000     -88.128705     -2398.1040
   1   2.0000     -18.572471      -505.3826
   2   2.0000     -18.568434      -505.2728
   3   2.0000     -18.557766      -504.9825
   4   2.0000      -9.769660      -265.8460
   5   2.0000      -7.665267      -208.5825
   6   2.0000      -5.700330      -155.1139
   7   2.0000      -5.700190      -155.1100
   8   2.0000      -5.699723      -155.0973
   9   2.0000      -0.834996       -22.7214
  10   2.0000      -0.702475       -19.1153
  11   2.0000      -0.677573       -18.4377
  12   2.0000      -0.498604       -13.5677
  13   2.0000      -0.320316        -8.7163
  14   2.0000      -0.243698        -6.6314
  15   2.0000      -0.232983        -6.3398
  16   2.0000      -0.232171        -6.3177
  17   2.0000      -0.193905        -5.2764
  18   2.0000      -0.191680        -5.2159
  19   2.0000      -0.100212        -2.7269
  20   2.0000      -0.099397        -2.7047
  21   2.0000      -0.068373        -1.8605
  22   2.0000      -0.063928        -1.7396
  23   2.0000      -0.052367        -1.4250
  24   2.0000      -0.016575        -0.4510
  25   0.0000       0.137149         3.7320
  26   0.0000       0.175201         4.7675
  27   0.0000       0.175840         4.7849
  28   0.0000       0.177406         4.8275
  29   0.0000       0.200119         5.4455

MULLIKEN ATOMIC CHARGES
-----------------------
   0 C :    0.905764
   1 S :    0.917181
   2 O :   -0.689807
   3 O :   -0.704570
   4 O :   -0.745734
   5 H :   -0.229715
   6 H :   -0.232222
   7 H :   -0.220898
Sum of atomic charges:   -1.0000000

LOEWDIN ATOMIC CHARGES
----------------------
   0 C :    0.064682
   1 S :    0.788954
   2 O :   -0.558389
   3 O :   -0.565198
   4 O :   -0.582998
   5 H :   -0.048899
   6 H :   -0.050491
   7 H :   -0.047662

  Mayer bond orders larger than 0.100000
B(  0-C ,  1-S ) :   0.9038 B(  0-C ,  5-H ) :   0.8498 B(  0-C ,  6-H ) :   0.8468
B(  0-C ,  7-H ) :   0.8508 B(  1-S ,  2-O ) :   1.3896 B(  1-S ,  3-O ) :   1.3790
B(  1-S ,  4-O ) :   1.3436 B(  1-S ,  5-H ) :   0.1426 B(  1-S ,  6-H ) :   0.1347
B(  1-S ,  7-H ) :   0.1440

Dispersion correction           -0.013639445
FINAL SINGLE POINT ENERGY      -663.443990286949

DIPOLE MOMENT
-------------
                                X             Y             Z
Electronic contribution:     -0.43748      -4.35687       0.56827
Nuclear contribution   :      0.72475       5.67579      -0.57287
                        -----------------------------------------
Total Dipole Moment    :      0.28727       1.31892      -0.00460
                        -----------------------------------------
Magnitude (a.u.)       :      1.34985
Magnitude (Debye)      :      3.43105

Rotational constants in cm-1:     0.171646     0.157781     0.155534
Rotational constants in MHz :  5145.813281  4730.160232  4662.792719

                             ****ORCA TERMINATED NORMALLY****
TOTAL RUN TIME: 0 days 0 hours 0 minutes 3 seconds 361 msec
