                         Program Version 5.0.0 -  RELEASE  -
|  1> !BLYP D3BJ RIJCOSX def2-SVPD def2/J TightSCF
|  2> *xyz 1 1
|  3> C         -0.46129        2.23469       -4.98962
|  4> C         -0.42384        2.39877       -6.47432
|  5> N         -0.95947        3.49265       -7.00740
|  6> N          0.14558        1.48689       -7.20399
|  7> H          0.56537        0.69681       -6.72386
|  8> H          0.22068        1.58177       -8.20752
|  9> H         -1.40624        4.18151       -6.40326
| 10> H         -0.93421        3.68160       -7.99947
| 11> H          0.00645        1.31059       -4.72100
| 12> H         -1.47822        2.22967       -4.65687
| 13> H          0.06109        3.04632       -4.52779
| 14> *
| 15>
| 16> %MaxCore 64000
| 17>
| 18> %pal nprocs 8
| 19> end
| 20>
| 21> %scf
| 22>   MaxIter 150
| 23> end
| 24>
| 25>
| 26>                          ****END OF INPUT****

CARTESIAN COORDINATES (ANGSTROEM)
---------------------------------
  C     -0.461290    2.234690   -4.989620
  C     -0.423840    2.398770   -6.474320
  N     -0.959470    3.492650   -7.007400
  N      0.145580    1.486890   -7.203990
  H      0.565370    0.696810   -6.723860
  H      0.220680    1.581770   -8.207520
  H     -1.406240    4.181510   -6.403260
  H     -0.934210    3.681600   -7.999470
  H      0.006450    1.310590   -4.721000
  H     -1.478220    2.229670   -4.656870
  H      0.061090    3.046320   -4.527790

 Total Charge           Charge          ....    1
 Multiplicity           Mult            ....    1
 Number of Electrons    NEL             ....   32
 Basis Dimension        Dim             ....  136

ORBITAL ENERGIES
----------------

  NO   OCC          E(Eh)            E(eV)
   0   2.0000     -14.279647      -388.5690
   1   2.0000     -14.273003      -388.3882
   2   2.0000     -10.246728      -278.8276
   3   2.0000     -10.122478      -275.4466
   4   2.0000      -1.113048       -30.2876
   5   2.0000      -1.024424       -27.8760
   6   2.0000      -0.875924       -23.8351
   7   2.0000      -0.779290       -21.2056
   8   2.0000      -0.729122       -19.8404
   9   2.0000      -0.713016       -19.4022
  10   2.0000      -0.656706       -17.8699
  11   2.0000      -0.610201       -16.6044
  12   2.0000      -0.571921       -15.5628
  13   2.0000      -0.554973       -15.1016
  14   2.0000      -0.531561       -14.4645
  15   2.0000      -0.458442       -12.4748
  16   0.0000      -0.246840        -6.7169
  17   0.0000      -0.189550        -5.1579
  18   0.0000      -0.144607        -3.9349
  19   0.0000      -0.142848        -3.8871
  20   0.0000      -0.119836        -3.2609

MULLIKEN ATOMIC CHARGES
-----------------------
   0 C :    0.994449
   1 C :    0.175205
   2 N :    0.365101
   3 N :    0.307419
   4 H :    0.019747
   5 H :   -0.219001
   6 H :   -0.041230
   7 H :   -0.244156
   8 H :   -0.118997
   9 H :   -0.113269
  10 H :   -0.125266
Sum of atomic charges:    1.0000000

LOEWDIN ATOMIC CHARGES
----------------------
   0 C :    0.246994
   1 C :   -0.085433
   2 N :    0.296431
   3 N :    0.302927
   4 H :    0.052775
   5 H :    0.050672
   6 H :    0.055496
   7 H :    0.039830
   8 H :    0.001780
   9 H :    0.018982
  10 H :    0.019545

  Mayer bond orders larger than 0.100000
B(  0-C ,  1-C ) :   1.2753 B(  0-C ,  8-H ) :   0.6964 B(  0-C ,  9-H ) :   0.6545
B(  0-C , 10-H ) :   0.6769 B(  1-C ,  2-N ) :   1.2280 B(  1-C ,  3-N ) :   1.1697
B(  1-C ,  5-H ) :  -0.2568 B(  1-C ,  7-H ) :  -0.1890 B(  1-C ,  8-H ) :   0.3310
B(  1-C ,  9-H ) :   0.2365 B(  1-C , 10-H ) :   0.2201 B(  2-N ,  3-N ) :   0.1734
B(  2-N ,  6-H ) :   1.1231 B(  2-N ,  7-H ) :   1.2553 B(  3-N ,  4-H ) :   1.0512
B(  3-N ,  5-H ) :   1.3633 B(  4-H ,  5-H ) :  -0.1901 B(  6-H ,  7-H ) :  -0.1758
B(  8-H ,  9-H ) :   0.1002 B(  9-H , 10-H ) :   0.1160

Dispersion correction           -0.014126672
FINAL SINGLE POINT ENERGY      -189.521699600793

DIPOLE MOMENT
-------------
                                X             Y             Z
Electronic contribution:      0.06076       0.18062      -2.18934
Nuclear contribution   :     -0.00094      -0.11553       1.69525
                        -----------------------------------------
Total Dipole Moment    :      0.05982       0.06509      -0.49409
                        -----------------------------------------
Magnitude (a.u.)       :      0.50194
Magnitude (Debye)      :      1.27582

Rotational constants in cm-1:     0.329971     0.303414     0.162776
Rotational constants in MHz :  9892.292308  9096.128349  4879.901854

                             ****ORCA TERMINATED NORMALLY****
TOTAL RUN TIME: 0 days 0 hours 0 minutes 3 seconds 474 msec
