                         Program Version 5.0.0 -  RELEASE  -
|  1> !BLYP D3BJ RIJCOSX def2-SVPD def2/J TightSCF
|  2> *xyz 0 1
|  3> C          2.09343        1.86104       -4.65684
|  4> S          1.87964        0.07859       -4.46297
|  5> F          3.20757       -0.46611       -4.42026
|  6> O          1.07506       -0.05616       -3.26876
|  7> O          1.13166       -0.31996       -5.67903
|  8> H          2.68437        2.05681       -5.52711
|  9> H          2.58708        2.25699       -3.79404
| 10> H          1.13553        2.32556       -4.76426
| 11> *
| 12>
| 13> %MaxCore 64000
| 14>
| 15> %pal nprocs 8
| 16> end
| 17>
| 18> %scf
| 19>   MaxIter 150
| 20> end
| 21>
| 22>
| 23>                          ****END OF INPUT****

CARTESIAN COORDINATES (ANGSTROEM)
---------------------------------
  C      2.093430    1.861040   -4.656840
  S      1.879640    0.078590   -4.462970
  F      3.207570   -0.466110   -4.420260
  O      1.075060   -0.056160   -3.268760
  O      1.131660   -0.319960   -5.679030
  H      2.684370    2.056810   -5.527110
  H      2.587080    2.256990   -3.794040
  H      1.135530    2.325560   -4.764260

 Total Charge           Charge          ....    0
 Multiplicity           Mult            ....    1
 Number of Electrons    NEL             ....   50
 Basis Dimension        Dim             ....  140

ORBITAL ENERGIES
----------------

  NO   OCC          E(Eh)            E(eV)
   0   2.0000     -88.390717     -2405.2337
   1   2.0000     -24.426360      -664.6750
   2   2.0000     -18.805710      -511.7294
   3   2.0000     -18.794714      -511.4302
   4   2.0000      -9.978915      -271.5401
   5   2.0000      -7.928046      -215.7331
   6   2.0000      -5.967456      -162.3827
   7   2.0000      -5.960755      -162.2004
   8   2.0000      -5.959463      -162.1652
   9   2.0000      -1.275479       -34.7075
  10   2.0000      -1.015330       -27.6285
  11   2.0000      -0.914996       -24.8983
  12   2.0000      -0.721059       -19.6210
  13   2.0000      -0.653197       -17.7744
  14   2.0000      -0.544535       -14.8175
  15   2.0000      -0.527574       -14.3560
  16   2.0000      -0.496227       -13.5030
  17   2.0000      -0.425529       -11.5792
  18   2.0000      -0.424085       -11.5399
  19   2.0000      -0.415082       -11.2950
  20   2.0000      -0.388708       -10.5773
  21   2.0000      -0.338198        -9.2028
  22   2.0000      -0.292096        -7.9483
  23   2.0000      -0.280890        -7.6434
  24   2.0000      -0.260722        -7.0946
  25   0.0000      -0.035022        -0.9530
  26   0.0000       0.005406         0.1471
  27   0.0000       0.007465         0.2031
  28   0.0000       0.030717         0.8358
  29   0.0000       0.031587         0.8595

MULLIKEN ATOMIC CHARGES
-----------------------
   0 C :    0.877777
   1 S :    1.096043
   2 F :   -0.328015
   3 O :   -0.557588
   4 O :   -0.594193
   5 H :   -0.166056
   6 H :   -0.164581
   7 H :   -0.163386
Sum of atomic charges:   -0.0000000

LOEWDIN ATOMIC CHARGES
----------------------
   0 C :    0.132263
   1 S :    1.062439
   2 F :   -0.240782
   3 O :   -0.444706
   4 O :   -0.460629
   5 H :   -0.021005
   6 H :   -0.021590
   7 H :   -0.005989

  Mayer bond orders larger than 0.100000
B(  0-C ,  1-S ) :   0.9644 B(  0-C ,  5-H ) :   0.8540 B(  0-C ,  6-H ) :   0.8519
B(  0-C ,  7-H ) :   0.8507 B(  1-S ,  2-F ) :   0.7746 B(  1-S ,  3-O ) :   1.5774
B(  1-S ,  4-O ) :   1.5424 B(  1-S ,  5-H ) :   0.1137 B(  1-S ,  6-H ) :   0.1076
B(  1-S ,  7-H ) :   0.1422 B(  3-O ,  4-O ) :   0.1017

Dispersion correction           -0.012779920
FINAL SINGLE POINT ENERGY      -687.932017953077

DIPOLE MOMENT
-------------
                                X             Y             Z
Electronic contribution:      1.75776      -5.21393       0.65655
Nuclear contribution   :     -0.60459       6.33153      -0.64388
                        -----------------------------------------
Total Dipole Moment    :      1.15317       1.11760       0.01267
                        -----------------------------------------
Magnitude (a.u.)       :      1.60592
Magnitude (Debye)      :      4.08193

Rotational constants in cm-1:     0.163601     0.155191     0.147098
Rotational constants in MHz :  4904.622287  4652.507792  4409.891356

                             ****ORCA TERMINATED NORMALLY****
TOTAL RUN TIME: 0 days 0 hours 0 minutes 3 seconds 675 msec
