                         Program Version 5.0.0 -  RELEASE  -
|  1> !BLYP D3BJ RIJCOSX def2-SVPD def2/J TightSCF
|  2> *xyz 0 1
|  3> C         -0.46129        2.23469       -4.98962
|  4> C         -0.42384        2.39877       -6.47432
|  5> C         -0.95947        3.49265       -7.00740
|  6> N          0.14558        1.48689       -7.20399
|  7> H          0.56537        0.69681       -6.72386
|  8> H          0.22068        1.58177       -8.20752
|  9> H         -1.40624        4.18151       -6.40326
| 10> H         -0.93421        3.68160       -7.99947
| 11> H          0.00645        1.31059       -4.72100
| 12> H         -1.47822        2.22967       -4.65687
| 13> H          0.06109        3.04632       -4.52779
| 14> *
| 15>
| 16> %MaxCore 64000
| 17>
| 18> %pal nprocs 8
| 19> end
| 20>
| 21> %scf
| 22>   MaxIter 150
| 23> end
| 24>
| 25>
| 26>                          ****END OF INPUT****

CARTESIAN COORDINATES (ANGSTROEM)
---------------------------------
  C     -0.461290    2.234690   -4.989620
  C     -0.423840    2.398770   -6.474320
  C     -0.959470    3.492650   -7.007400
  N      0.145580    1.486890   -7.203990
  H      0.565370    0.696810   -6.723860
  H      0.220680    1.581770   -8.207520
  H     -1.406240    4.181510   -6.403260
  H     -0.934210    3.681600   -7.999470
  H      0.006450    1.310590   -4.721000
  H     -1.478220    2.229670   -4.656870
  H      0.061090    3.046320   -4.527790

 Total Charge           Charge          ....    0
 Multiplicity           Mult            ....    1
 Number of Electrons    NEL             ....   32
 Basis Dimension        Dim             ....  136

ORBITAL ENERGIES
----------------

  NO   OCC          E(Eh)            E(eV)
   0   2.0000     -14.029897      -381.7729
   1   2.0000      -9.938837      -270.4495
   2   2.0000      -9.913959      -269.7725
   3   2.0000      -9.851215      -268.0652
   4   2.0000      -0.841190       -22.8899
   5   2.0000      -0.672757       -18.3066
   6   2.0000      -0.607467       -16.5300
   7   2.0000      -0.513622       -13.9764
   8   2.0000      -0.475744       -12.9457
   9   2.0000      -0.417464       -11.3598
  10   2.0000      -0.380557       -10.3555
  11   2.0000      -0.349883        -9.5208
  12   2.0000      -0.339419        -9.2360
  13   2.0000      -0.307419        -8.3653
  14   2.0000      -0.292571        -7.9613
  15   2.0000      -0.149385        -4.0650
  16   0.0000      -0.003084        -0.0839
  17   0.0000       0.018975         0.5163
  18   0.0000       0.034454         0.9375
  19   0.0000       0.042246         1.1496
  20   0.0000       0.066665         1.8140

MULLIKEN ATOMIC CHARGES
-----------------------
   0 C :    1.237356
   1 C :   -0.465275
   2 C :    0.646247
   3 N :    0.489316
   4 H :   -0.154438
   5 H :   -0.268983
   6 H :   -0.333531
   7 H :   -0.630774
   8 H :   -0.287347
   9 H :   -0.105694
  10 H :   -0.126876
Sum of atomic charges:   -0.0000000

LOEWDIN ATOMIC CHARGES
----------------------
   0 C :    0.178923
   1 C :   -0.297970
   2 C :    0.173991
   3 N :    0.186601
   4 H :   -0.005976
   5 H :    0.007873
   6 H :   -0.086044
   7 H :   -0.101495
   8 H :   -0.034398
   9 H :   -0.010879
  10 H :   -0.010626

  Mayer bond orders larger than 0.100000
B(  0-C ,  1-C ) :   1.0363 B(  0-C ,  2-C ) :   0.1426 B(  0-C ,  3-N ) :   0.1436
B(  0-C ,  8-H ) :   0.5615 B(  0-C ,  9-H ) :   0.6177 B(  0-C , 10-H ) :   0.6412
B(  1-C ,  2-C ) :   1.6096 B(  1-C ,  3-N ) :   1.2112 B(  1-C ,  5-H ) :  -0.1433
B(  1-C ,  7-H ) :   0.2173 B(  1-C ,  8-H ) :   0.3835 B(  1-C ,  9-H ) :   0.2552
B(  1-C , 10-H ) :   0.2393 B(  2-C ,  3-N ) :   0.2820 B(  2-C ,  6-H ) :   0.7411
B(  2-C ,  7-H ) :   0.6267 B(  3-N ,  4-H ) :   1.0463 B(  3-N ,  5-H ) :   1.2935
B(  4-H ,  5-H ) :  -0.1608

Dispersion correction           -0.014905176
FINAL SINGLE POINT ENERGY      -173.053898556127

DIPOLE MOMENT
-------------
                                X             Y             Z
Electronic contribution:      0.54258      -0.82059      -1.55141
Nuclear contribution   :     -0.12116       0.12783       1.56719
                        -----------------------------------------
Total Dipole Moment    :      0.42142      -0.69276       0.01578
                        -----------------------------------------
Magnitude (a.u.)       :      0.81102
Magnitude (Debye)      :      2.06145

Rotational constants in cm-1:     0.350065     0.307664     0.168807
Rotational constants in MHz : 10494.676477  9223.531181  5060.697310

                             ****ORCA TERMINATED NORMALLY****
TOTAL RUN TIME: 0 days 0 hours 0 minutes 3 seconds 572 msec
