                         Program Version 5.0.0 -  RELEASE  -
|  1> !BLYP D3BJ RIJCOSX def2-SVPD def2/J TightSCF
|  2> *xyz 0 1
|  3> C          2.09343        1.86104       -4.65684
|  4> S          1.87964        0.07859       -4.46297
|  5> O          3.20757       -0.46611       -4.42026
|  6> F          1.07506       -0.05616       -3.26876
|  7> O          1.13166       -0.31996       -5.67903
|  8> H          2.68437        2.05681       -5.52711
|  9> H          2.58708        2.25699       -3.79404
| 10> H          1.13553        2.32556       -4.76426
| 11> *
| 12>
| 13> %MaxCore 64000
| 14>
| 15> %pal nprocs 8
| 16> end
| 17>
| 18> %scf
| 19>   MaxIter 150
| 20> end
| 21>
| 22>
| 23>                          ****END OF INPUT****

CARTESIAN COORDINATES (ANGSTROEM)
---------------------------------
  C      2.093430    1.861040   -4.656840
  S      1.879640    0.078590   -4.462970
  O      3.207570   -0.466110   -4.420260
  F      1.075060   -0.056160   -3.268760
  O      1.131660   -0.319960   -5.679030
  H      2.684370    2.056810   -5.527110
  H      2.587080    2.256990   -3.794040
  H      1.135530    2.325560   -4.764260

 Total Charge           Charge          ....    0
 Multiplicity           Mult            ....    1
 Number of Electrons    NEL             ....   50
 Basis Dimension        Dim             ....  140

ORBITAL ENERGIES
----------------

  NO   OCC          E(Eh)            E(eV)
   0   2.0000     -88.390138     -2405.2179
   1   2.0000     -24.420734      -664.5219
   2   2.0000     -18.809658      -511.8368
   3   2.0000     -18.794505      -511.4245
   4   2.0000      -9.978735      -271.5352
   5   2.0000      -7.927474      -215.7175
   6   2.0000      -5.966816      -162.3653
   7   2.0000      -5.960266      -162.1871
   8   2.0000      -5.958931      -162.1508
   9   2.0000      -1.266351       -34.4592
  10   2.0000      -1.019747       -27.7487
  11   2.0000      -0.918301       -24.9882
  12   2.0000      -0.720878       -19.6161
  13   2.0000      -0.648664       -17.6511
  14   2.0000      -0.540103       -14.6969
  15   2.0000      -0.521261       -14.1842
  16   2.0000      -0.495349       -13.4791
  17   2.0000      -0.425605       -11.5813
  18   2.0000      -0.425240       -11.5714
  19   2.0000      -0.414230       -11.2718
  20   2.0000      -0.390405       -10.6235
  21   2.0000      -0.340941        -9.2775
  22   2.0000      -0.296601        -8.0709
  23   2.0000      -0.281288        -7.6542
  24   2.0000      -0.263268        -7.1639
  25   0.0000      -0.034134        -0.9288
  26   0.0000       0.006814         0.1854
  27   0.0000       0.007318         0.1991
  28   0.0000       0.031152         0.8477
  29   0.0000       0.032291         0.8787

MULLIKEN ATOMIC CHARGES
-----------------------
   0 C :    0.876951
   1 S :    1.096584
   2 O :   -0.547176
   3 F :   -0.334311
   4 O :   -0.597293
   5 H :   -0.171214
   6 H :   -0.166783
   7 H :   -0.156759
Sum of atomic charges:    0.0000000

LOEWDIN ATOMIC CHARGES
----------------------
   0 C :    0.132456
   1 S :    1.061755
   2 O :   -0.438594
   3 F :   -0.246329
   4 O :   -0.460808
   5 H :   -0.006788
   6 H :   -0.022131
   7 H :   -0.019562

  Mayer bond orders larger than 0.100000
B(  0-C ,  1-S ) :   0.9635 B(  0-C ,  5-H ) :   0.8496 B(  0-C ,  6-H ) :   0.8511
B(  0-C ,  7-H ) :   0.8565 B(  1-S ,  2-O ) :   1.5875 B(  1-S ,  3-F ) :   0.7617
B(  1-S ,  4-O ) :   1.5423 B(  1-S ,  5-H ) :   0.1415 B(  1-S ,  6-H ) :   0.1078
B(  1-S ,  7-H ) :   0.1162 B(  2-O ,  4-O ) :   0.1065

Dispersion correction           -0.012777305
FINAL SINGLE POINT ENERGY      -687.937020615686

DIPOLE MOMENT
-------------
                                X             Y             Z
Electronic contribution:     -1.72797      -4.54531       2.54311
Nuclear contribution   :      1.52593       5.92196      -1.79430
                        -----------------------------------------
Total Dipole Moment    :     -0.20204       1.37665       0.74881
                        -----------------------------------------
Magnitude (a.u.)       :      1.58009
Magnitude (Debye)      :      4.01628

Rotational constants in cm-1:     0.162837     0.155564     0.147443
Rotational constants in MHz :  4881.731197  4663.686927  4420.233103

                             ****ORCA TERMINATED NORMALLY****
TOTAL RUN TIME: 0 days 0 hours 0 minutes 3 seconds 592 msec
