                         Program Version 5.0.0 -  RELEASE  -
|  1> !BLYP D3BJ RIJCOSX def2-SVPD def2/J TightSCF
|  2> *xyz 0 1
|  3> C         -0.46129        2.23469       -4.98962
|  4> C         -0.42384        2.39877       -6.47432
|  5> N         -0.95947        3.49265       -7.00740
|  6> C          0.14558        1.48689       -7.20399
|  7> H          0.56537        0.69681       -6.72386
|  8> H          0.22068        1.58177       -8.20752
|  9> H         -1.40624        4.18151       -6.40326
| 10> H         -0.93421        3.68160       -7.99947
| 11> H          0.00645        1.31059       -4.72100
| 12> H         -1.47822        2.22967       -4.65687
| 13> H          0.06109        3.04632       -4.52779
| 14> *
| 15>
| 16> %MaxCore 64000
| 17>
| 18> %pal nprocs 8
| 19> end
| 20>
| 21> %scf
| 22>   MaxIter 150
| 23> end
| 24>
| 25>
| 26>                          ****END OF INPUT****

CARTESIAN COORDINATES (ANGSTROEM)
---------------------------------
  C     -0.461290    2.234690   -4.989620
  C     -0.423840    2.398770   -6.474320
  N     -0.959470    3.492650   -7.007400
  C      0.145580    1.486890   -7.203990
  H      0.565370    0.696810   -6.723860
  H      0.220680    1.581770   -8.207520
  H     -1.406240    4.181510   -6.403260
  H     -0.934210    3.681600   -7.999470
  H      0.006450    1.310590   -4.721000
  H     -1.478220    2.229670   -4.656870
  H      0.061090    3.046320   -4.527790

 Total Charge           Charge          ....    0
 Multiplicity           Mult            ....    1
 Number of Electrons    NEL             ....   32
 Basis Dimension        Dim             ....  136

ORBITAL ENERGIES
----------------

  NO   OCC          E(Eh)            E(eV)
   0   2.0000     -14.025476      -381.6526
   1   2.0000      -9.938062      -270.4284
   2   2.0000      -9.912276      -269.7268
   3   2.0000      -9.855681      -268.1867
   4   2.0000      -0.829028       -22.5590
   5   2.0000      -0.676546       -18.4098
   6   2.0000      -0.611176       -16.6309
   7   2.0000      -0.509706       -13.8698
   8   2.0000      -0.466999       -12.7077
   9   2.0000      -0.419855       -11.4248
  10   2.0000      -0.380482       -10.3534
  11   2.0000      -0.347790        -9.4639
  12   2.0000      -0.345320        -9.3966
  13   2.0000      -0.307853        -8.3771
  14   2.0000      -0.285217        -7.7611
  15   2.0000      -0.158725        -4.3191
  16   0.0000      -0.001799        -0.0489
  17   0.0000       0.024090         0.6555
  18   0.0000       0.034780         0.9464
  19   0.0000       0.044949         1.2231
  20   0.0000       0.068502         1.8640

MULLIKEN ATOMIC CHARGES
-----------------------
   0 C :    1.272274
   1 C :   -0.527618
   2 N :    0.510159
   3 C :    0.629292
   4 H :   -0.216538
   5 H :   -0.628679
   6 H :   -0.239584
   7 H :   -0.296170
   8 H :   -0.117683
   9 H :   -0.186911
  10 H :   -0.198542
Sum of atomic charges:    0.0000000

LOEWDIN ATOMIC CHARGES
----------------------
   0 C :    0.175594
   1 C :   -0.300525
   2 N :    0.185781
   3 C :    0.178238
   4 H :   -0.086056
   5 H :   -0.087359
   6 H :   -0.004894
   7 H :   -0.004145
   8 H :   -0.020146
   9 H :   -0.018674
  10 H :   -0.017813

  Mayer bond orders larger than 0.100000
B(  0-C ,  1-C ) :   1.2303 B(  0-C ,  2-N ) :   0.1001 B(  0-C ,  3-C ) :   0.1289
B(  0-C ,  8-H ) :   0.7184 B(  0-C ,  9-H ) :   0.5237 B(  0-C , 10-H ) :   0.5185
B(  1-C ,  2-N ) :   1.2699 B(  1-C ,  3-C ) :   1.5408 B(  1-C ,  5-H ) :   0.2052
B(  1-C ,  8-H ) :   0.2924 B(  1-C ,  9-H ) :   0.3664 B(  1-C , 10-H ) :   0.3728
B(  2-N ,  3-C ) :   0.3158 B(  2-N ,  6-H ) :   1.1360 B(  2-N ,  7-H ) :   1.2033
B(  3-C ,  4-H ) :   0.8499 B(  3-C ,  5-H ) :   0.5788 B(  3-C ,  7-H ) :  -0.1002
B(  6-H ,  7-H ) :  -0.1446

Dispersion correction           -0.014902965
FINAL SINGLE POINT ENERGY      -173.057466903219

DIPOLE MOMENT
-------------
                                X             Y             Z
Electronic contribution:     -0.44447       0.95659      -1.41502
Nuclear contribution   :      0.12666      -0.32199       1.52310
                        -----------------------------------------
Total Dipole Moment    :     -0.31780       0.63460       0.10808
                        -----------------------------------------
Magnitude (a.u.)       :      0.71791
Magnitude (Debye)      :      1.82479

Rotational constants in cm-1:     0.352483     0.305471     0.168700
Rotational constants in MHz : 10567.165953  9157.779739  5057.501411

                             ****ORCA TERMINATED NORMALLY****
TOTAL RUN TIME: 0 days 0 hours 0 minutes 3 seconds 474 msec
