                         Program Version 5.0.0 -  RELEASE  -
|  1> !BLYP D3BJ RIJCOSX def2-SVPD def2/J TightSCF
|  2> *xyz 0 1
|  3> C          2.09343        1.86104       -4.65684
|  4> S          1.87964        0.07859       -4.46297
|  5> O          3.20757       -0.46611       -4.42026
|  6> O          1.07506       -0.05616       -3.26876
|  7> F          1.13166       -0.31996       -5.67903
|  8> H          2.68437        2.05681       -5.52711
|  9> H          2.58708        2.25699       -3.79404
| 10> H          1.13553        2.32556       -4.76426
| 11> *
| 12>
| 13> %MaxCore 64000
| 14>
| 15> %pal nprocs 8
| 16> end
| 17>
| 18> %scf
| 19>   MaxIter 150
| 20> end
| 21>
| 22>
| 23>                          ****END OF INPUT****

CARTESIAN COORDINATES (ANGSTROEM)
---------------------------------
  C      2.093430    1.861040   -4.656840
  S      1.879640    0.078590   -4.462970
  O      3.207570   -0.466110   -4.420260
  O      1.075060   -0.056160   -3.268760
  F      1.131660   -0.319960   -5.679030
  H      2.684370    2.056810   -5.527110
  H      2.587080    2.256990   -3.794040
  H      1.135530    2.325560   -4.764260

 Total Charge           Charge          ....    0
 Multiplicity           Mult            ....    1
 Number of Electrons    NEL             ....   50
 Basis Dimension        Dim             ....  140

ORBITAL ENERGIES
----------------

  NO   OCC          E(Eh)            E(eV)
   0   2.0000     -88.388158     -2405.1640
   1   2.0000     -24.403798      -664.0611
   2   2.0000     -18.809360      -511.8287
   3   2.0000     -18.805178      -511.7149
   4   2.0000      -9.977870      -271.5116
   5   2.0000      -7.925506      -215.6640
   6   2.0000      -5.964613      -162.3054
   7   2.0000      -5.958484      -162.1386
   8   2.0000      -5.957165      -162.1027
   9   2.0000      -1.237213       -33.6663
  10   2.0000      -1.026973       -27.9454
  11   2.0000      -0.936316       -25.4784
  12   2.0000      -0.718499       -19.5514
  13   2.0000      -0.634862       -17.2755
  14   2.0000      -0.528298       -14.3757
  15   2.0000      -0.501312       -13.6414
  16   2.0000      -0.491276       -13.3683
  17   2.0000      -0.426264       -11.5992
  18   2.0000      -0.424579       -11.5534
  19   2.0000      -0.412659       -11.2290
  20   2.0000      -0.394655       -10.7391
  21   2.0000      -0.345504        -9.4017
  22   2.0000      -0.298515        -8.1230
  23   2.0000      -0.293441        -7.9849
  24   2.0000      -0.276207        -7.5160
  25   0.0000      -0.032370        -0.8808
  26   0.0000       0.005532         0.1505
  27   0.0000       0.008456         0.2301
  28   0.0000       0.032294         0.8788
  29   0.0000       0.033465         0.9106

MULLIKEN ATOMIC CHARGES
-----------------------
   0 C :    0.876058
   1 S :    1.102984
   2 O :   -0.557724
   3 O :   -0.570899
   4 F :   -0.353570
   5 H :   -0.165617
   6 H :   -0.172212
   7 H :   -0.159020
Sum of atomic charges:   -0.0000000

LOEWDIN ATOMIC CHARGES
----------------------
   0 C :    0.132865
   1 S :    1.060214
   2 O :   -0.438870
   3 O :   -0.445348
   4 F :   -0.260307
   5 H :   -0.020666
   6 H :   -0.007833
   7 H :   -0.020054

  Mayer bond orders larger than 0.100000
B(  0-C ,  1-S ) :   0.9624 B(  0-C ,  5-H ) :   0.8560 B(  0-C ,  6-H ) :   0.8455
B(  0-C ,  7-H ) :   0.8557 B(  1-S ,  2-O ) :   1.5842 B(  1-S ,  3-O ) :   1.5745
B(  1-S ,  4-F ) :   0.7152 B(  1-S ,  5-H ) :   0.1160 B(  1-S ,  6-H ) :   0.1350
B(  1-S ,  7-H ) :   0.1170 B(  2-O ,  3-O ) :   0.1229

Dispersion correction           -0.012778801
FINAL SINGLE POINT ENERGY      -687.951533364651

DIPOLE MOMENT
-------------
                                X             Y             Z
Electronic contribution:     -1.64552      -4.98024      -1.42283
Nuclear contribution   :      1.46938       6.18552       0.61372
                        -----------------------------------------
Total Dipole Moment    :     -0.17614       1.20528      -0.80911
                        -----------------------------------------
Magnitude (a.u.)       :      1.46232
Magnitude (Debye)      :      3.71692

Rotational constants in cm-1:     0.163578     0.153284     0.148718
Rotational constants in MHz :  4903.939615  4595.352658  4458.447794

                             ****ORCA TERMINATED NORMALLY****
TOTAL RUN TIME: 0 days 0 hours 0 minutes 3 seconds 462 msec
