                         Program Version 5.0.0 -  RELEASE  -
|  1> !BLYP D3BJ RIJCOSX def2-SVPD def2/J TightSCF xyzfile
|  2>
|  3> *xyzfile 0 1 D1.xyz
|  4>
|  5> %MaxCore 64000
|  6>
|  7> %pal nprocs 4
|  8> end
|  9>
| 10> %scf
| 11>   MaxIter 150
| 12> end
| 13>
| 14>
| 15>                          ****END OF INPUT****

CARTESIAN COORDINATES (ANGSTROEM)
---------------------------------
  C     -0.461293    2.234686   -4.989619
  C      0.848883    2.667967   -4.302351
  C      2.093434    1.861037   -4.656845
  H      2.444814    2.041567   -5.674990
  H      2.901748    2.137864   -3.980338
  S      1.879644    0.078594   -4.462965
  C     -0.423841    2.398772   -6.474317
  C     -0.959467    3.492647   -7.007401
  N      0.145585    1.486891   -7.203987
  H      0.565371    0.696807   -6.723858
  H      0.220682    1.581768   -8.207520
  H     -1.406243    4.181507   -6.403261
  H     -0.934215    3.681601   -7.999468
  F      3.207574   -0.466111   -4.420259
  O      1.075064   -0.056160   -3.268758
  O      1.131661   -0.319960   -5.679031
  H      0.668432    2.559427   -3.232850
  H      1.034074    3.729426   -4.497081
  H     -1.288884    2.826737   -4.594997
  H     -0.651696    1.186343   -4.756552

 Total Charge           Charge          ....    0
 Multiplicity           Mult            ....    1
 Number of Electrons    NEL             ....   88
 Basis Dimension        Dim             ....  296

ORBITAL ENERGIES
----------------

  NO   OCC          E(Eh)            E(eV)
   0   2.0000     -88.402566     -2405.5561
   1   2.0000     -24.437099      -664.9673
   2   2.0000     -18.818581      -512.0796
   3   2.0000     -18.814730      -511.9748
   4   2.0000     -14.000549      -380.9743
   5   2.0000      -9.986427      -271.7445
   6   2.0000      -9.950025      -270.7539
   7   2.0000      -9.930164      -270.2135
   8   2.0000      -9.922751      -270.0118
   9   2.0000      -9.848368      -267.9877
  10   2.0000      -7.939691      -216.0500
  11   2.0000      -5.978954      -162.6956
  12   2.0000      -5.972907      -162.5311
  13   2.0000      -5.970680      -162.4705
  14   2.0000      -1.285630       -34.9838
  15   2.0000      -1.032418       -28.0935
  16   2.0000      -0.936825       -25.4923
  17   2.0000      -0.826009       -22.4769
  18   2.0000      -0.751521       -20.4499
  19   2.0000      -0.692050       -18.8316
  20   2.0000      -0.661772       -18.0077
  21   2.0000      -0.618612       -16.8333
  22   2.0000      -0.577442       -15.7130
  23   2.0000      -0.541669       -14.7396
  24   2.0000      -0.532008       -14.4767
  25   2.0000      -0.517658       -14.0862
  26   2.0000      -0.496080       -13.4990
  27   2.0000      -0.469499       -12.7757
  28   2.0000      -0.448050       -12.1921
  29   2.0000      -0.437026       -11.8921
  30   2.0000      -0.419173       -11.4063
  31   2.0000      -0.405333       -11.0297
  32   2.0000      -0.397713       -10.8223
  33   2.0000      -0.363465        -9.8904
  34   2.0000      -0.351090        -9.5536
  35   2.0000      -0.346303        -9.4234
  36   2.0000      -0.332035        -9.0351
  37   2.0000      -0.320904        -8.7322
  38   2.0000      -0.303502        -8.2587
  39   2.0000      -0.298343        -8.1183
  40   2.0000      -0.285299        -7.7634
  41   2.0000      -0.281186        -7.6515
  42   2.0000      -0.274974        -7.4824
  43   2.0000      -0.143792        -3.9128
  44   0.0000      -0.040607        -1.1050
  45   0.0000      -0.009253        -0.2518
  46   0.0000       0.005040         0.1371
  47   0.0000       0.009747         0.2652
  48   0.0000       0.017635         0.4799

MULLIKEN ATOMIC CHARGES
-----------------------
   0 C :    0.835428
   1 C :    0.410256
   2 C :    0.427116
   3 H :    0.017695
   4 H :   -0.304569
   5 S :    1.414693
   6 C :   -0.208943
   7 C :    0.559368
   8 N :    0.997327
   9 H :   -0.553090
  10 H :   -0.311105
  11 H :   -0.235303
  12 H :   -0.615189
  13 F :   -0.407886
  14 O :   -0.608307
  15 O :   -0.739536
  16 H :    0.037641
  17 H :   -0.366614
  18 H :   -0.136027
  19 H :   -0.212955
Sum of atomic charges:   -0.0000000

LOEWDIN ATOMIC CHARGES
----------------------
   0 C :    0.037815
   1 C :    0.003145
   2 C :   -0.036413
   3 H :    0.017964
   4 H :    0.011103
   5 S :    1.132768
   6 C :   -0.252072
   7 C :    0.182976
   8 N :    0.221139
   9 H :   -0.142963
  10 H :    0.012162
  11 H :   -0.093973
  12 H :   -0.098837
  13 F :   -0.229325
  14 O :   -0.422956
  15 O :   -0.432891
  16 H :    0.021555
  17 H :    0.034913
  18 H :    0.026334
  19 H :    0.007557

  Mayer bond orders larger than 0.100000
B(  0-C ,  1-C ) :   1.1049 B(  0-C ,  6-C ) :   1.0976 B(  0-C ,  8-N ) :   0.1398
B(  0-C , 16-H ) :   0.1872 B(  0-C , 17-H ) :   0.1161 B(  0-C , 18-H ) :   0.5911
B(  0-C , 19-H ) :   0.5491 B(  1-C ,  2-C ) :   1.3343 B(  1-C ,  3-H ) :   0.1646
B(  1-C ,  4-H ) :   0.2736 B(  1-C ,  6-C ) :   0.1222 B(  1-C , 16-H ) :   0.7109
B(  1-C , 17-H ) :   0.7456 B(  1-C , 18-H ) :   0.1780 B(  1-C , 19-H ) :   0.2180
B(  2-C ,  3-H ) :   0.8416 B(  2-C ,  4-H ) :   0.6388 B(  2-C ,  5-S ) :   0.8938
B(  2-C , 15-O ) :   0.1432 B(  2-C , 16-H ) :   0.1686 B(  2-C , 17-H ) :   0.1597
B(  4-H ,  5-S ) :   0.1067 B(  5-S , 13-F ) :   0.7214 B(  5-S , 14-O ) :   1.5523
B(  5-S , 15-O ) :   1.4004 B(  6-C ,  7-C ) :   1.3236 B(  6-C ,  8-N ) :   1.2586
B(  6-C , 10-H ) :  -0.1057 B(  6-C , 12-H ) :   0.1984 B(  6-C , 18-H ) :   0.2343
B(  6-C , 19-H ) :   0.2314 B(  7-C ,  8-N ) :   0.2248 B(  7-C , 11-H ) :   0.8792
B(  7-C , 12-H ) :   0.4570 B(  8-N ,  9-H ) :   0.7877 B(  8-N , 10-H ) :   1.1625
B(  9-H , 10-H ) :  -0.2178 B(  9-H , 15-O ) :   0.2044 B( 16-H , 17-H ) :  -0.1252

Dispersion correction           -0.047125866
FINAL SINGLE POINT ENERGY      -899.073206284348

DIPOLE MOMENT
-------------
                                X             Y             Z
Electronic contribution:     10.10299     -13.92014       5.43251
Nuclear contribution   :     -8.53047      14.15581      -5.17613
                        -----------------------------------------
Total Dipole Moment    :      1.57252       0.23567       0.25637
                        -----------------------------------------
Magnitude (a.u.)       :      1.61062
Magnitude (Debye)      :      4.09386

Rotational constants in cm-1:     0.081196     0.024861     0.022477
Rotational constants in MHz :  2434.181666   745.320670   673.846846

                             ****ORCA TERMINATED NORMALLY****
TOTAL RUN TIME: 0 days 0 hours 0 minutes 19 seconds 32 msec
