                         Program Version 5.0.0 -  RELEASE  -
|  1> !BLYP D3BJ RIJCOSX def2-SVPD def2/J TightSCF xyzfile
|  2>
|  3> *xyzfile 0 1 D3.xyz
|  4>
|  5> %MaxCore 64000
|  6>
|  7> %pal nprocs 4
|  8> end
|  9>
| 10> %scf
| 11>   MaxIter 150
| 12> end
| 13>
| 14>
| 15>                          ****END OF INPUT****

CARTESIAN COORDINATES (ANGSTROEM)
---------------------------------
  C     -0.461293    2.234686   -4.989619
  C      0.848883    2.667967   -4.302351
  C      2.093434    1.861037   -4.656845
  H      2.444814    2.041567   -5.674990
  H      2.901748    2.137864   -3.980338
  S      1.879644    0.078594   -4.462965
  C     -0.423841    2.398772   -6.474317
  C     -0.959467    3.492647   -7.007401
  N      0.145585    1.486891   -7.203987
  H      0.565371    0.696807   -6.723858
  H      0.220682    1.581768   -8.207520
  H     -1.406243    4.181507   -6.403261
  H     -0.934215    3.681601   -7.999468
  O      3.207574   -0.466111   -4.420259
  F      1.075064   -0.056160   -3.268758
  O      1.131661   -0.319960   -5.679031
  H      0.668432    2.559427   -3.232850
  H      1.034074    3.729426   -4.497081
  H     -1.288884    2.826737   -4.594997
  H     -0.651696    1.186343   -4.756552

 Total Charge           Charge          ....    0
 Multiplicity           Mult            ....    1
 Number of Electrons    NEL             ....   88
 Basis Dimension        Dim             ....  296

ORBITAL ENERGIES
----------------

  NO   OCC          E(Eh)            E(eV)
   0   2.0000     -88.402064     -2405.5425
   1   2.0000     -24.432021      -664.8291
   2   2.0000     -18.821542      -512.1602
   3   2.0000     -18.813579      -511.9435
   4   2.0000     -14.003090      -381.0435
   5   2.0000      -9.986113      -271.7359
   6   2.0000      -9.955229      -270.8955
   7   2.0000      -9.935450      -270.3573
   8   2.0000      -9.932825      -270.2859
   9   2.0000      -9.852874      -268.1103
  10   2.0000      -7.939094      -216.0337
  11   2.0000      -5.978538      -162.6843
  12   2.0000      -5.972266      -162.5136
  13   2.0000      -5.970009      -162.4522
  14   2.0000      -1.277332       -34.7580
  15   2.0000      -1.034879       -28.1605
  16   2.0000      -0.939998       -25.5787
  17   2.0000      -0.829547       -22.5731
  18   2.0000      -0.756936       -20.5973
  19   2.0000      -0.689969       -18.7750
  20   2.0000      -0.662402       -18.0249
  21   2.0000      -0.622754       -16.9460
  22   2.0000      -0.579023       -15.7560
  23   2.0000      -0.541492       -14.7348
  24   2.0000      -0.537163       -14.6170
  25   2.0000      -0.512532       -13.9467
  26   2.0000      -0.501551       -13.6479
  27   2.0000      -0.463440       -12.6108
  28   2.0000      -0.447535       -12.1781
  29   2.0000      -0.439333       -11.9549
  30   2.0000      -0.422395       -11.4939
  31   2.0000      -0.408831       -11.1249
  32   2.0000      -0.402920       -10.9640
  33   2.0000      -0.371230       -10.1017
  34   2.0000      -0.355916        -9.6850
  35   2.0000      -0.351410        -9.5624
  36   2.0000      -0.336197        -9.1484
  37   2.0000      -0.333311        -9.0698
  38   2.0000      -0.301657        -8.2085
  39   2.0000      -0.300143        -8.1673
  40   2.0000      -0.294773        -8.0212
  41   2.0000      -0.282782        -7.6949
  42   2.0000      -0.276265        -7.5175
  43   2.0000      -0.147601        -4.0164
  44   0.0000      -0.042000        -1.1429
  45   0.0000      -0.004189        -0.1140
  46   0.0000       0.004574         0.1245
  47   0.0000       0.006726         0.1830
  48   0.0000       0.016281         0.4430

MULLIKEN ATOMIC CHARGES
-----------------------
   0 C :    0.857261
   1 C :    0.436045
   2 C :    0.449633
   3 H :    0.004918
   4 H :   -0.327412
   5 S :    1.340943
   6 C :   -0.200242
   7 C :    0.556745
   8 N :    0.994562
   9 H :   -0.549144
  10 H :   -0.305980
  11 H :   -0.241130
  12 H :   -0.609552
  13 O :   -0.569629
  14 F :   -0.385062
  15 O :   -0.729332
  16 H :    0.012453
  17 H :   -0.368727
  18 H :   -0.144196
  19 H :   -0.222154
Sum of atomic charges:    0.0000000

LOEWDIN ATOMIC CHARGES
----------------------
   0 C :    0.030063
   1 C :   -0.011726
   2 C :   -0.023864
   3 H :    0.030507
   4 H :    0.015281
   5 S :    1.125661
   6 C :   -0.251018
   7 C :    0.184610
   8 N :    0.222375
   9 H :   -0.141659
  10 H :    0.013654
  11 H :   -0.093468
  12 H :   -0.096930
  13 O :   -0.418664
  14 F :   -0.230217
  15 O :   -0.430626
  16 H :    0.016004
  17 H :    0.032710
  18 H :    0.025471
  19 H :    0.001836

  Mayer bond orders larger than 0.100000
B(  0-C ,  1-C ) :   1.1046 B(  0-C ,  6-C ) :   1.1028 B(  0-C ,  8-N ) :   0.1387
B(  0-C , 16-H ) :   0.1805 B(  0-C , 17-H ) :   0.1150 B(  0-C , 18-H ) :   0.5981
B(  0-C , 19-H ) :   0.5248 B(  1-C ,  2-C ) :   1.3002 B(  1-C ,  3-H ) :   0.1642
B(  1-C ,  4-H ) :   0.2521 B(  1-C ,  6-C ) :   0.1254 B(  1-C , 16-H ) :   0.7070
B(  1-C , 17-H ) :   0.7427 B(  1-C , 18-H ) :   0.1826 B(  1-C , 19-H ) :   0.2088
B(  2-C ,  3-H ) :   0.8376 B(  2-C ,  4-H ) :   0.6923 B(  2-C ,  5-S ) :   0.9206
B(  2-C , 15-O ) :   0.1203 B(  2-C , 16-H ) :   0.1671 B(  2-C , 17-H ) :   0.1478
B(  4-H ,  5-S ) :   0.1118 B(  5-S , 13-O ) :   1.6236 B(  5-S , 14-F ) :   0.7095
B(  5-S , 15-O ) :   1.4334 B(  6-C ,  7-C ) :   1.3163 B(  6-C ,  8-N ) :   1.2638
B(  6-C ,  9-H ) :   0.1022 B(  6-C , 10-H ) :  -0.1008 B(  6-C , 12-H ) :   0.1916
B(  6-C , 18-H ) :   0.2334 B(  6-C , 19-H ) :   0.2500 B(  7-C ,  8-N ) :   0.2302
B(  7-C , 11-H ) :   0.8760 B(  7-C , 12-H ) :   0.4710 B(  8-N ,  9-H ) :   0.7761
B(  8-N , 10-H ) :   1.1590 B(  9-H , 10-H ) :  -0.2200 B(  9-H , 15-O ) :   0.1997
B( 16-H , 17-H ) :  -0.1367

Dispersion correction           -0.046844075
FINAL SINGLE POINT ENERGY      -899.077176738807

DIPOLE MOMENT
-------------
                                X             Y             Z
Electronic contribution:      6.46562     -13.17015       7.31870
Nuclear contribution   :     -6.19944      13.70770      -6.43483
                        -----------------------------------------
Total Dipole Moment    :      0.26618       0.53754       0.88387
                        -----------------------------------------
Magnitude (a.u.)       :      1.06819
Magnitude (Debye)      :      2.71513

Rotational constants in cm-1:     0.079903     0.025241     0.022805
Rotational constants in MHz :  2395.439281   756.708181   683.680583

                             ****ORCA TERMINATED NORMALLY****
TOTAL RUN TIME: 0 days 0 hours 0 minutes 20 seconds 698 msec
