                         Program Version 5.0.0 -  RELEASE  -
|  1> !BLYP D3BJ RIJCOSX def2-SVPD def2/J TightSCF
|  2> *xyz -1 1
|  3> C         -0.72184       -0.99951       -3.43931
|  4> C          0.28725       -1.71177       -2.52740
|  5> H          1.13178       -2.06738       -3.15940
|  6> H         -0.20414       -2.63733       -2.17048
|  7> O          0.71050       -0.92751       -1.48177
|  8> H         -1.01315       -1.65739       -4.23129
|  9> H         -0.27123       -0.12142       -3.85259
| 10> H         -1.58442       -0.72333       -2.86958
| 11> *
| 12> %MaxCore 64000
| 13>
| 14> %pal nprocs 4
| 15> end
| 16>
| 17> %scf
| 18>   MaxIter 150
| 19> end
| 20>
| 21>
| 22>                          ****END OF INPUT****

CARTESIAN COORDINATES (ANGSTROEM)
---------------------------------
  C     -0.721840   -0.999510   -3.439310
  C      0.287250   -1.711770   -2.527400
  H      1.131780   -2.067380   -3.159400
  H     -0.204140   -2.637330   -2.170480
  O      0.710500   -0.927510   -1.481770
  H     -1.013150   -1.657390   -4.231290
  H     -0.271230   -0.121420   -3.852590
  H     -1.584420   -0.723330   -2.869580

 Total Charge           Charge          ....   -1
 Multiplicity           Mult            ....    1
 Number of Electrons    NEL             ....   26
 Basis Dimension        Dim             ....  103

ORBITAL ENERGIES
----------------

  NO   OCC          E(Eh)            E(eV)
   0   2.0000     -18.470509      -502.6081
   1   2.0000      -9.739726      -265.0314
   2   2.0000      -9.716816      -264.4080
   3   2.0000      -0.585878       -15.9426
   4   2.0000      -0.446577       -12.1520
   5   2.0000      -0.305605        -8.3159
   6   2.0000      -0.200291        -5.4502
   7   2.0000      -0.178961        -4.8698
   8   2.0000      -0.129893        -3.5346
   9   2.0000      -0.112645        -3.0652
  10   2.0000      -0.068548        -1.8653
  11   2.0000       0.067638         1.8405
  12   2.0000       0.071433         1.9438
  13   0.0000       0.162537         4.4229
  14   0.0000       0.191969         5.2237
  15   0.0000       0.222705         6.0601
  16   0.0000       0.235196         6.4000
  17   0.0000       0.254827         6.9342

MULLIKEN ATOMIC CHARGES
-----------------------
   0 C :    0.600918
   1 C :    0.323596
   2 H :   -0.275935
   3 H :   -0.281981
   4 O :   -0.819412
   5 H :   -0.159012
   6 H :   -0.196028
   7 H :   -0.192147
Sum of atomic charges:   -1.0000000

LOEWDIN ATOMIC CHARGES
----------------------
   0 C :    0.072486
   1 C :   -0.261220
   2 H :   -0.043223
   3 H :   -0.046577
   4 O :   -0.545732
   5 H :   -0.073102
   6 H :   -0.051790
   7 H :   -0.050843

  Mayer bond orders larger than 0.100000
B(  0-C ,  1-C ) :   1.1615 B(  0-C ,  2-H ) :   0.1798 B(  0-C ,  3-H ) :   0.1925
B(  0-C ,  4-O ) :   0.3045 B(  0-C ,  5-H ) :   0.8779 B(  0-C ,  6-H ) :   0.8485
B(  0-C ,  7-H ) :   0.8416 B(  1-C ,  2-H ) :   0.9265 B(  1-C ,  3-H ) :   0.9142
B(  1-C ,  4-O ) :   1.1535 B(  1-C ,  5-H ) :   0.1783 B(  1-C ,  6-H ) :   0.2292
B(  1-C ,  7-H ) :   0.2305 B(  2-H ,  3-H ) :   0.1102

Dispersion correction           -0.007741611
FINAL SINGLE POINT ENERGY      -154.268208335193

DIPOLE MOMENT
-------------
                                X             Y             Z
Electronic contribution:      1.51912       0.71455       2.44665
Nuclear contribution   :     -2.24828      -1.06600      -3.62481
                        -----------------------------------------
Total Dipole Moment    :     -0.72915      -0.35145      -1.17815
                        -----------------------------------------
Magnitude (a.u.)       :      1.42941
Magnitude (Debye)      :      3.63328

Rotational constants in cm-1:     1.278116     0.325414     0.286672
Rotational constants in MHz : 38316.964654  9755.653004  8594.216906

                             ****ORCA TERMINATED NORMALLY****
TOTAL RUN TIME: 0 days 0 hours 0 minutes 7 seconds 854 msec
