                         Program Version 5.0.0 -  RELEASE  -
|  1> !BLYP D3BJ RIJCOSX def2-SVPD def2/J TightSCF
|  2> *xyz 1 1
|  3> C          3.48828        1.60092       -1.52204
|  4> C          4.34297        1.31342       -2.75683
|  5> N          2.81029        0.42878       -1.01420
|  6> H          2.71455        2.33145       -1.76030
|  7> H          4.09099        2.06315       -0.73338
|  8> C          3.29098       -0.41802       -0.12908
|  9> N          2.51754       -1.43202        0.23936
| 10> N          4.53549       -0.28441        0.39580
| 11> H          5.04363        0.57189        0.22290
| 12> H          4.72335       -0.73327        1.28180
| 13> H          1.93479        0.10230       -1.40379
| 14> H          1.67464       -1.50562       -0.31610
| 15> H          2.92850       -2.21850        0.72549
| 16> H          3.73575        0.86277       -3.51385
| 17> H          5.13754        0.64699       -2.49333
| 18> H          4.75374        2.22930       -3.12740
| 19> *
| 20> %MaxCore 64000
| 21>
| 22> %pal nprocs 4
| 23> end
| 24>
| 25> %scf
| 26>   MaxIter 150
| 27> end
| 28>
| 29>
| 30>                          ****END OF INPUT****

CARTESIAN COORDINATES (ANGSTROEM)
---------------------------------
  C      3.488280    1.600920   -1.522040
  C      4.342970    1.313420   -2.756830
  N      2.810290    0.428780   -1.014200
  H      2.714550    2.331450   -1.760300
  H      4.090990    2.063150   -0.733380
  C      3.290980   -0.418020   -0.129080
  N      2.517540   -1.432020    0.239360
  N      4.535490   -0.284410    0.395800
  H      5.043630    0.571890    0.222900
  H      4.723350   -0.733270    1.281800
  H      1.934790    0.102300   -1.403790
  H      1.674640   -1.505620   -0.316100
  H      2.928500   -2.218500    0.725490
  H      3.735750    0.862770   -3.513850
  H      5.137540    0.646990   -2.493330
  H      4.753740    2.229300   -3.127400

 Total Charge           Charge          ....    1
 Multiplicity           Mult            ....    1
 Number of Electrons    NEL             ....   48
 Basis Dimension        Dim             ....  200

ORBITAL ENERGIES
----------------

  NO   OCC          E(Eh)            E(eV)
   0   2.0000     -14.251301      -387.7976
   1   2.0000     -14.247383      -387.6910
   2   2.0000     -14.245535      -387.6407
   3   2.0000     -10.247122      -278.8384
   4   2.0000     -10.132994      -275.7328
   5   2.0000     -10.061559      -273.7889
   6   2.0000      -1.119946       -30.4753
   7   2.0000      -1.015506       -27.6333
   8   2.0000      -1.002936       -27.2913
   9   2.0000      -0.854171       -23.2432
  10   2.0000      -0.769757       -20.9461
  11   2.0000      -0.742731       -20.2107
  12   2.0000      -0.722852       -19.6698
  13   2.0000      -0.688614       -18.7381
  14   2.0000      -0.641925       -17.4677
  15   2.0000      -0.632817       -17.2198
  16   2.0000      -0.604211       -16.4414
  17   2.0000      -0.585282       -15.9263
  18   2.0000      -0.553796       -15.0696
  19   2.0000      -0.514697       -14.0056
  20   2.0000      -0.487668       -13.2701
  21   2.0000      -0.469980       -12.7888
  22   2.0000      -0.434671       -11.8280
  23   2.0000      -0.412416       -11.2224
  24   0.0000      -0.202660        -5.5147
  25   0.0000      -0.182325        -4.9613
  26   0.0000      -0.151129        -4.1124
  27   0.0000      -0.135988        -3.7004
  28   0.0000      -0.111178        -3.0253

MULLIKEN ATOMIC CHARGES
-----------------------
   0 C :    0.551147
   1 C :    1.066017
   2 N :   -0.194248
   3 H :   -0.447561
   4 H :   -0.207362
   5 C :    0.949930
   6 N :    0.281870
   7 N :    0.252995
   8 H :   -0.107404
   9 H :   -0.212378
  10 H :   -0.289525
  11 H :   -0.046038
  12 H :   -0.150322
  13 H :   -0.173473
  14 H :   -0.176148
  15 H :   -0.097499
Sum of atomic charges:    1.0000000

LOEWDIN ATOMIC CHARGES
----------------------
   0 C :    0.046108
   1 C :    0.179014
   2 N :    0.060238
   3 H :    0.038160
   4 H :    0.024579
   5 C :   -0.060164
   6 N :    0.283610
   7 N :    0.302874
   8 H :    0.003461
   9 H :    0.029637
  10 H :    0.054555
  11 H :    0.027928
  12 H :    0.040083
  13 H :   -0.009808
  14 H :   -0.019334
  15 H :   -0.000943

  Mayer bond orders larger than 0.100000
B(  0-C ,  1-C ) :   1.2497 B(  0-C ,  2-N ) :   1.0574 B(  0-C ,  3-H ) :   0.7629
B(  0-C ,  4-H ) :   0.7764 B(  0-C ,  5-C ) :  -0.1110 B(  0-C , 10-H ) :  -0.2255
B(  0-C , 13-H ) :   0.3072 B(  0-C , 14-H ) :   0.2480 B(  0-C , 15-H ) :   0.2105
B(  1-C , 13-H ) :   0.6918 B(  1-C , 14-H ) :   0.7350 B(  1-C , 15-H ) :   0.7285
B(  2-N ,  3-H ) :   0.2137 B(  2-N ,  4-H ) :   0.1689 B(  2-N ,  5-C ) :   1.0839
B(  2-N ,  6-N ) :   0.2672 B(  2-N ,  7-N ) :   0.2204 B(  2-N , 10-H ) :   1.2774
B(  5-C ,  6-N ) :   1.0187 B(  5-C ,  7-N ) :   1.0125 B(  5-C ,  8-H ) :  -0.1254
B(  5-C ,  9-H ) :  -0.1437 B(  5-C , 10-H ) :  -0.2875 B(  6-N ,  7-N ) :   0.1572
B(  6-N , 11-H ) :   1.0667 B(  6-N , 12-H ) :   1.1807 B(  7-N ,  8-H ) :   1.0466
B(  7-N ,  9-H ) :   1.2449 B(  8-H ,  9-H ) :  -0.1782 B( 11-H , 12-H ) :  -0.1536

Dispersion correction           -0.024961793
FINAL SINGLE POINT ENERGY      -284.103279689424

DIPOLE MOMENT
-------------
                                X             Y             Z
Electronic contribution:     -1.92082      -2.98819       3.72184
Nuclear contribution   :      1.59382       2.33278      -3.02574
                        -----------------------------------------
Total Dipole Moment    :     -0.32700      -0.65541       0.69610
                        -----------------------------------------
Magnitude (a.u.)       :      1.01047
Magnitude (Debye)      :      2.56842

Rotational constants in cm-1:     0.232230     0.073139     0.063030
Rotational constants in MHz :  6962.079716  2192.649203  1889.578947

                             ****ORCA TERMINATED NORMALLY****
TOTAL RUN TIME: 0 days 0 hours 0 minutes 11 seconds 711 msec
