                         Program Version 5.0.0 -  RELEASE  -
|  1> !BLYP D3BJ RIJCOSX def2-SVPD def2/J TightSCF xyzfile
|  2>
|  3> *xyzfile 0 1 B.xyz
|  4>
|  5> %MaxCore 64000
|  6>
|  7> %pal nprocs 4
|  8> end
|  9>
| 10> %scf
| 11>   MaxIter 150
| 12> end
| 13>
| 14>
| 15>                          ****END OF INPUT****

CARTESIAN COORDINATES (ANGSTROEM)
---------------------------------
  C      3.488276    1.600919   -1.522040
  C      4.342970    1.313419   -2.756826
  N      2.810285    0.428783   -1.014196
  H      5.132033    0.604994   -2.484466
  C      3.535896    0.749253   -3.924604
  H      4.841247    2.242136   -3.054083
  H      2.991617   -0.132199   -3.574137
  H      4.225505    0.392784   -4.695962
  C      2.564776    1.750890   -4.544523
  H      1.918749    2.171679   -3.769419
  C      1.686235    1.161657   -5.650111
  H      3.132494    2.594775   -4.951604
  C      0.839616   -0.037582   -5.220473
  H      2.323886    0.866395   -6.490796
  H      1.029518    1.951850   -6.029329
  C     -0.151019    0.254955   -4.094256
  H      1.499442   -0.857141   -4.922958
  H      0.290097   -0.410143   -6.091131
  H      0.328265    0.833022   -3.299125
  C     -0.721843   -0.999513   -3.439309
  H     -0.957367    0.884951   -4.485450
  H     -1.083403   -1.697555   -4.205656
  H     -1.581056   -0.723848   -2.820490
  C      0.287250   -1.711771   -2.527405
  H      1.131780   -2.067380   -3.159396
  H     -0.204137   -2.637326   -2.170480
  O      0.710505   -0.927506   -1.481767
  H      2.714548    2.331455   -1.760302
  H      4.090991    2.063151   -0.733382
  C      3.290978   -0.418021   -0.129083
  N      2.517536   -1.432017    0.239360
  N      4.535490   -0.284410    0.395800
  H      5.043627    0.571888    0.222899
  H      4.723346   -0.733273    1.281800
  H      1.934787    0.102305   -1.403788
  H      1.674638   -1.505616   -0.316095
  H      2.928503   -2.218502    0.725494

 Total Charge           Charge          ....    0
 Multiplicity           Mult            ....    1
 Number of Electrons    NEL             ....  112
 Basis Dimension        Dim             ....  467

ORBITAL ENERGIES
----------------

  NO   OCC          E(Eh)            E(eV)
   0   2.0000     -18.666851      -507.9508
   1   2.0000     -14.081353      -383.1731
   2   2.0000     -14.041928      -382.1003
   3   2.0000     -14.036784      -381.9603
   4   2.0000     -10.059250      -273.7261
   5   2.0000      -9.974081      -271.4085
   6   2.0000      -9.930744      -270.2293
   7   2.0000      -9.914212      -269.7794
   8   2.0000      -9.908583      -269.6263
   9   2.0000      -9.902599      -269.4634
  10   2.0000      -9.901851      -269.4431
  11   2.0000      -9.890378      -269.1309
  12   2.0000      -9.880383      -268.8589
  13   2.0000      -9.869108      -268.5521
  14   2.0000      -0.932298       -25.3691
  15   2.0000      -0.835564       -22.7369
  16   2.0000      -0.817042       -22.2328
  17   2.0000      -0.785924       -21.3861
  18   2.0000      -0.725060       -19.7299
  19   2.0000      -0.693045       -18.8587
  20   2.0000      -0.657614       -17.8946
  21   2.0000      -0.624373       -16.9900
  22   2.0000      -0.586297       -15.9539
  23   2.0000      -0.580434       -15.7944
  24   2.0000      -0.545297       -14.8383
  25   2.0000      -0.536065       -14.5871
  26   2.0000      -0.528433       -14.3794
  27   2.0000      -0.503217       -13.6932
  28   2.0000      -0.479577       -13.0499
  29   2.0000      -0.464482       -12.6392
  30   2.0000      -0.451686       -12.2910
  31   2.0000      -0.440191       -11.9782
  32   2.0000      -0.429300       -11.6818
  33   2.0000      -0.419735       -11.4216
  34   2.0000      -0.408452       -11.1145
  35   2.0000      -0.398048       -10.8314
  36   2.0000      -0.383620       -10.4388
  37   2.0000      -0.369228       -10.0472
  38   2.0000      -0.363455        -9.8901
  39   2.0000      -0.345476        -9.4009
  40   2.0000      -0.342363        -9.3162
  41   2.0000      -0.331480        -9.0200
  42   2.0000      -0.313719        -8.5367
  43   2.0000      -0.307854        -8.3771
  44   2.0000      -0.299766        -8.1570
  45   2.0000      -0.289337        -7.8733
  46   2.0000      -0.278958        -7.5908
  47   2.0000      -0.270331        -7.3561
  48   2.0000      -0.266477        -7.2512
  49   2.0000      -0.261096        -7.1048
  50   2.0000      -0.248735        -6.7684
  51   2.0000      -0.244582        -6.6554
  52   2.0000      -0.240059        -6.5323
  53   2.0000      -0.225752        -6.1430
  54   2.0000      -0.137650        -3.7456
  55   2.0000      -0.130378        -3.5478
  56   0.0000      -0.032296        -0.8788
  57   0.0000      -0.022805        -0.6206
  58   0.0000      -0.000686        -0.0187
  59   0.0000       0.016811         0.4575
  60   0.0000       0.017261         0.4697

MULLIKEN ATOMIC CHARGES
-----------------------
   0 C :    1.524797
   1 C :    0.614037
   2 N :    0.433643
   3 H :   -0.222785
   4 C :    0.728763
   5 H :   -0.272968
   6 H :   -0.588201
   7 H :   -0.281517
   8 C :    0.187657
   9 H :   -0.071892
  10 C :    0.974650
  11 H :   -0.392048
  12 C :    0.271285
  13 H :   -0.194280
  14 H :   -0.306892
  15 C :    0.514583
  16 H :   -0.180349
  17 H :   -0.390724
  18 H :   -0.492514
  19 C :    0.597260
  20 H :   -0.253807
  21 H :   -0.201890
  22 H :   -0.196388
  23 C :    0.965906
  24 H :   -0.320976
  25 H :   -0.473054
  26 O :   -0.769994
  27 H :   -0.481475
  28 H :   -0.472619
  29 C :    0.771298
  30 N :    0.695824
  31 N :    0.417162
  32 H :   -0.162362
  33 H :   -0.252078
  34 H :   -1.076860
  35 H :   -0.365559
  36 H :   -0.275634
Sum of atomic charges:   -0.0000000

LOEWDIN ATOMIC CHARGES
----------------------
   0 C :    0.077925
   1 C :   -0.007459
   2 N :    0.090041
   3 H :    0.011157
   4 C :   -0.014953
   5 H :    0.019818
   6 H :    0.001359
   7 H :    0.024773
   8 C :   -0.026007
   9 H :   -0.005437
  10 C :   -0.022002
  11 H :    0.018329
  12 C :   -0.025910
  13 H :    0.014504
  14 H :    0.016283
  15 C :   -0.022669
  16 H :   -0.008087
  17 H :    0.017369
  18 H :   -0.008865
  19 C :   -0.021096
  20 H :    0.016260
  21 H :    0.013123
  22 H :    0.015087
  23 C :   -0.066302
  24 H :   -0.009137
  25 H :    0.001066
  26 O :   -0.389406
  27 H :    0.017943
  28 H :    0.004706
  29 C :   -0.064257
  30 N :    0.287820
  31 N :    0.263652
  32 H :   -0.022994
  33 H :    0.001885
  34 H :   -0.095775
  35 H :   -0.110984
  36 H :    0.008241

  Mayer bond orders larger than 0.100000
B(  0-C ,  1-C ) :   1.0090 B(  0-C ,  2-N ) :   0.9934 B(  0-C ,  4-C ) :   0.1831
B(  0-C ,  5-H ) :   0.1216 B(  0-C , 27-H ) :   0.4684 B(  0-C , 28-H ) :   0.6090
B(  0-C , 34-H ) :  -0.6819 B(  1-C ,  3-H ) :   0.5948 B(  1-C ,  4-C ) :   1.1638
B(  1-C ,  5-H ) :   0.7996 B(  1-C ,  6-H ) :   0.1573 B(  1-C ,  7-H ) :   0.1311
B(  1-C , 27-H ) :   0.1297 B(  1-C , 28-H ) :   0.1814 B(  2-N , 27-H ) :   0.2644
B(  2-N , 28-H ) :   0.1197 B(  2-N , 29-C ) :   1.2975 B(  2-N , 31-N ) :   0.2166
B(  2-N , 34-H ) :   0.8195 B(  2-N , 35-H ) :   0.1009 B(  3-H ,  4-C ) :   0.2761
B(  3-H ,  5-H ) :  -0.1205 B(  4-C ,  6-H ) :   0.5149 B(  4-C ,  7-H ) :   0.5898
B(  4-C ,  8-C ) :   1.1553 B(  4-C ,  9-H ) :   0.1096 B(  4-C , 11-H ) :   0.1917
B(  6-H ,  8-C ) :   0.2538 B(  7-H ,  8-C ) :   0.1742 B(  8-C ,  9-H ) :   0.7434
B(  8-C , 10-C ) :   1.1154 B(  8-C , 11-H ) :   0.7478 B(  8-C , 12-C ) :   0.1898
B(  8-C , 13-H ) :   0.1437 B(  8-C , 14-H ) :   0.4148 B(  9-H , 10-C ) :   0.1285
B( 10-C , 11-H ) :   0.1195 B( 10-C , 12-C ) :   1.1417 B( 10-C , 13-H ) :   0.5318
B( 10-C , 14-H ) :   0.4582 B( 10-C , 16-H ) :   0.1016 B( 10-C , 17-H ) :   0.1231
B( 12-C , 13-H ) :   0.3225 B( 12-C , 14-H ) :   0.1429 B( 12-C , 15-C ) :   1.1631
B( 12-C , 16-H ) :   0.7868 B( 12-C , 17-H ) :   0.6743 B( 12-C , 18-H ) :   0.2308
B( 12-C , 20-H ) :   0.2490 B( 13-H , 14-H ) :  -0.1974 B( 15-C , 16-H ) :   0.1551
B( 15-C , 17-H ) :   0.3118 B( 15-C , 18-H ) :   0.6641 B( 15-C , 19-C ) :   1.1778
B( 15-C , 20-H ) :   0.6148 B( 15-C , 21-H ) :   0.1296 B( 15-C , 22-H ) :   0.3044
B( 15-C , 23-C ) :   0.1384 B( 18-H , 19-C ) :   0.2299 B( 19-C , 20-H ) :   0.1069
B( 19-C , 21-H ) :   0.6618 B( 19-C , 22-H ) :   0.5592 B( 19-C , 23-C ) :   1.0778
B( 19-C , 24-H ) :   0.1460 B( 19-C , 25-H ) :   0.1689 B( 19-C , 26-O ) :   0.1270
B( 21-H , 23-C ) :   0.2080 B( 22-H , 23-C ) :   0.1985 B( 23-C , 24-H ) :   0.7680
B( 23-C , 25-H ) :   0.7608 B( 23-C , 26-O ) :   1.0405 B( 26-O , 34-H ) :   0.2049
B( 26-O , 35-H ) :   0.3048 B( 27-H , 28-H ) :  -0.1720 B( 27-H , 34-H ) :   0.1703
B( 29-C , 30-N ) :   0.9902 B( 29-C , 31-N ) :   0.9840 B( 29-C , 32-H ) :  -0.1263
B( 29-C , 34-H ) :  -0.8431 B( 29-C , 35-H ) :  -0.1506 B( 30-N , 31-N ) :   0.1362
B( 30-N , 35-H ) :   0.9615 B( 30-N , 36-H ) :   1.1592 B( 31-N , 32-H ) :   1.0587
B( 31-N , 33-H ) :   1.1644 B( 32-H , 33-H ) :  -0.1632 B( 35-H , 36-H ) :  -0.1710

Dispersion correction           -0.079932517
FINAL SINGLE POINT ENERGY      -633.731156064001

DIPOLE MOMENT
-------------
                                X             Y             Z
Electronic contribution:      3.52549      -2.06148      11.30972
Nuclear contribution   :     -0.74583       2.62534      -9.91488
                        -----------------------------------------
Total Dipole Moment    :      2.77966       0.56386       1.39484
                        -----------------------------------------
Magnitude (a.u.)       :      3.16070
Magnitude (Debye)      :      8.03386

Rotational constants in cm-1:     0.027028     0.016098     0.010898
Rotational constants in MHz :   810.278072   482.590922   326.703462

                             ****ORCA TERMINATED NORMALLY****
TOTAL RUN TIME: 0 days 0 hours 0 minutes 54 seconds 572 msec
