                         Program Version 5.0.0 -  RELEASE  -
|  1> !BLYP D3BJ RIJCOSX def2-SVPD def2/J TightSCF
|  2> *xyz 0 1
|  3> C         -0.72184       -0.99951       -3.43931
|  4> C          0.28725       -1.71177       -2.52740
|  5> H          1.13178       -2.06738       -3.15940
|  6> H         -0.20414       -2.63733       -2.17048
|  7> F          0.71050       -0.92751       -1.48177
|  8> H         -1.01315       -1.65739       -4.23129
|  9> H         -0.27123       -0.12142       -3.85259
| 10> H         -1.58442       -0.72333       -2.86958
| 11> *
| 12> %MaxCore 64000
| 13>
| 14> %pal nprocs 4
| 15> end
| 16>
| 17> %scf
| 18>   MaxIter 150
| 19> end
| 20>
| 21>
| 22>                          ****END OF INPUT****

CARTESIAN COORDINATES (ANGSTROEM)
---------------------------------
  C     -0.721840   -0.999510   -3.439310
  C      0.287250   -1.711770   -2.527400
  H      1.131780   -2.067380   -3.159400
  H     -0.204140   -2.637330   -2.170480
  F      0.710500   -0.927510   -1.481770
  H     -1.013150   -1.657390   -4.231290
  H     -0.271230   -0.121420   -3.852590
  H     -1.584420   -0.723330   -2.869580

 Total Charge           Charge          ....    0
 Multiplicity           Mult            ....    1
 Number of Electrons    NEL             ....   26
 Basis Dimension        Dim             ....  103

ORBITAL ENERGIES
----------------

  NO   OCC          E(Eh)            E(eV)
   0   2.0000     -24.294393      -661.0840
   1   2.0000     -10.002366      -272.1782
   2   2.0000      -9.921431      -269.9759
   3   2.0000      -1.076872       -29.3032
   4   2.0000      -0.682762       -18.5789
   5   2.0000      -0.559820       -15.2335
   6   2.0000      -0.453238       -12.3332
   7   2.0000      -0.437700       -11.9104
   8   2.0000      -0.401198       -10.9171
   9   2.0000      -0.354451        -9.6451
  10   2.0000      -0.352860        -9.6018
  11   2.0000      -0.288695        -7.8558
  12   2.0000      -0.283319        -7.7095
  13   0.0000       0.003432         0.0934
  14   0.0000       0.034916         0.9501
  15   0.0000       0.048785         1.3275
  16   0.0000       0.058606         1.5948
  17   0.0000       0.082118         2.2345

MULLIKEN ATOMIC CHARGES
-----------------------
   0 C :    0.742111
   1 C :    0.611586
   2 H :   -0.195126
   3 H :   -0.203399
   4 F :   -0.394254
   5 H :   -0.171257
   6 H :   -0.197393
   7 H :   -0.192269
Sum of atomic charges:    0.0000000

LOEWDIN ATOMIC CHARGES
----------------------
   0 C :    0.150808
   1 C :    0.054904
   2 H :    0.026511
   3 H :    0.022118
   4 F :   -0.195691
   5 H :   -0.018380
   6 H :   -0.020463
   7 H :   -0.019808

  Mayer bond orders larger than 0.100000
B(  0-C ,  1-C ) :   1.3335 B(  0-C ,  2-H ) :   0.1147 B(  0-C ,  3-H ) :   0.1225
B(  0-C ,  5-H ) :   0.7792 B(  0-C ,  6-H ) :   0.8086 B(  0-C ,  7-H ) :   0.8042
B(  1-C ,  2-H ) :   0.8750 B(  1-C ,  3-H ) :   0.8679 B(  1-C ,  4-F ) :   0.8190
B(  1-C ,  5-H ) :   0.1650 B(  1-C ,  6-H ) :   0.1877 B(  1-C ,  7-H ) :   0.1904

Dispersion correction           -0.007133166
FINAL SINGLE POINT ENERGY      -178.880787237991

DIPOLE MOMENT
-------------
                                X             Y             Z
Electronic contribution:      2.70135       1.05420       4.22706
Nuclear contribution   :     -2.97459      -1.40206      -4.79987
                        -----------------------------------------
Total Dipole Moment    :     -0.27325      -0.34786      -0.57281
                        -----------------------------------------
Magnitude (a.u.)       :      0.72373
Magnitude (Debye)      :      1.83957

Rotational constants in cm-1:     1.257024     0.302702     0.267953
Rotational constants in MHz : 37684.643733  9074.792567  8033.038070

                             ****ORCA TERMINATED NORMALLY****
TOTAL RUN TIME: 0 days 0 hours 0 minutes 6 seconds 736 msec
