                         Program Version 5.0.0 -  RELEASE  -
|  1> !BLYP D3BJ RIJCOSX def2-SVPD def2/J TightSCF
|  2> *xyz 0 1
|  3> C          3.48828        1.60092       -1.52204
|  4> C          4.34297        1.31342       -2.75683
|  5> C          2.81029        0.42878       -1.01420
|  6> H          2.71455        2.33145       -1.76030
|  7> H          4.09099        2.06315       -0.73338
|  8> C          3.29098       -0.41802       -0.12908
|  9> N          2.51754       -1.43202        0.23936
| 10> N          4.53549       -0.28441        0.39580
| 11> H          5.04363        0.57189        0.22290
| 12> H          4.72335       -0.73327        1.28180
| 13> H          1.93479        0.10230       -1.40379
| 14> H          1.67464       -1.50562       -0.31610
| 15> H          2.92850       -2.21850        0.72549
| 16> H          3.73575        0.86277       -3.51385
| 17> H          5.13754        0.64699       -2.49333
| 18> H          4.75374        2.22930       -3.12740
| 19> *
| 20> %MaxCore 64000
| 21>
| 22> %pal nprocs 4
| 23> end
| 24>
| 25> %scf
| 26>   MaxIter 150
| 27> end
| 28>
| 29>
| 30>                          ****END OF INPUT****

CARTESIAN COORDINATES (ANGSTROEM)
---------------------------------
  C      3.488280    1.600920   -1.522040
  C      4.342970    1.313420   -2.756830
  C      2.810290    0.428780   -1.014200
  H      2.714550    2.331450   -1.760300
  H      4.090990    2.063150   -0.733380
  C      3.290980   -0.418020   -0.129080
  N      2.517540   -1.432020    0.239360
  N      4.535490   -0.284410    0.395800
  H      5.043630    0.571890    0.222900
  H      4.723350   -0.733270    1.281800
  H      1.934790    0.102300   -1.403790
  H      1.674640   -1.505620   -0.316100
  H      2.928500   -2.218500    0.725490
  H      3.735750    0.862770   -3.513850
  H      5.137540    0.646990   -2.493330
  H      4.753740    2.229300   -3.127400

 Total Charge           Charge          ....    0
 Multiplicity           Mult            ....    1
 Number of Electrons    NEL             ....   48
 Basis Dimension        Dim             ....  200

ORBITAL ENERGIES
----------------

  NO   OCC          E(Eh)            E(eV)
   0   2.0000     -14.025975      -381.6662
   1   2.0000     -14.021540      -381.5455
   2   2.0000      -9.957717      -270.9633
   3   2.0000      -9.900273      -269.4001
   4   2.0000      -9.889817      -269.1156
   5   2.0000      -9.848311      -267.9862
   6   2.0000      -0.862264       -23.4634
   7   2.0000      -0.780789       -21.2463
   8   2.0000      -0.689972       -18.7751
   9   2.0000      -0.617063       -16.7911
  10   2.0000      -0.544809       -14.8250
  11   2.0000      -0.519000       -14.1227
  12   2.0000      -0.481900       -13.1132
  13   2.0000      -0.452902       -12.3241
  14   2.0000      -0.417367       -11.3571
  15   2.0000      -0.388403       -10.5690
  16   2.0000      -0.367471        -9.9994
  17   2.0000      -0.345416        -9.3993
  18   2.0000      -0.333506        -9.0752
  19   2.0000      -0.307115        -8.3570
  20   2.0000      -0.288834        -7.8596
  21   2.0000      -0.277621        -7.5545
  22   2.0000      -0.220029        -5.9873
  23   2.0000      -0.129910        -3.5350
  24   0.0000      -0.006860        -0.1867
  25   0.0000       0.019825         0.5395
  26   0.0000       0.026193         0.7127
  27   0.0000       0.039625         1.0782
  28   0.0000       0.055792         1.5182

MULLIKEN ATOMIC CHARGES
-----------------------
   0 C :    0.143711
   1 C :    1.006653
   2 C :   -0.208793
   3 H :   -0.198466
   4 H :   -0.199001
   5 C :    0.503556
   6 N :    0.261770
   7 N :    0.234399
   8 H :   -0.085719
   9 H :   -0.324525
  10 H :   -0.392484
  11 H :    0.013081
  12 H :   -0.276094
  13 H :   -0.164538
  14 H :   -0.181871
  15 H :   -0.131678
Sum of atomic charges:   -0.0000000

LOEWDIN ATOMIC CHARGES
----------------------
   0 C :   -0.089356
   1 C :    0.134730
   2 C :   -0.028794
   3 H :    0.008800
   4 H :    0.000080
   5 C :   -0.235017
   6 N :    0.195715
   7 N :    0.224949
   8 H :   -0.027825
   9 H :   -0.022793
  10 H :   -0.052595
  11 H :   -0.005506
  12 H :   -0.014683
  13 H :   -0.024384
  14 H :   -0.030212
  15 H :   -0.033110

  Mayer bond orders larger than 0.100000
B(  0-C ,  1-C ) :   1.2051 B(  0-C ,  2-C ) :   1.2459 B(  0-C ,  3-H ) :   0.7185
B(  0-C ,  4-H ) :   0.7175 B(  0-C , 10-H ) :   0.2984 B(  0-C , 13-H ) :   0.2884
B(  0-C , 14-H ) :   0.2575 B(  0-C , 15-H ) :   0.2082 B(  1-C ,  2-C ) :   0.1036
B(  1-C , 13-H ) :   0.7330 B(  1-C , 14-H ) :   0.7413 B(  1-C , 15-H ) :   0.7431
B(  2-C ,  3-H ) :   0.2957 B(  2-C ,  4-H ) :   0.3452 B(  2-C ,  5-C ) :   1.4689
B(  2-C ,  6-N ) :   0.3592 B(  2-C ,  7-N ) :   0.2157 B(  2-C ,  8-H ) :  -0.1293
B(  2-C , 10-H ) :   0.7822 B(  4-H ,  5-C ) :  -0.1071 B(  5-C ,  6-N ) :   0.9552
B(  5-C ,  7-N ) :   1.0177 B(  5-C , 10-H ) :   0.2875 B(  6-N ,  7-N ) :   0.1201
B(  6-N , 11-H ) :   1.0314 B(  6-N , 12-H ) :   1.1743 B(  7-N ,  8-H ) :   1.0173
B(  7-N ,  9-H ) :   1.2294 B(  8-H ,  9-H ) :  -0.1510 B( 11-H , 12-H ) :  -0.1498

Dispersion correction           -0.026086621
FINAL SINGLE POINT ENERGY      -267.625839735445

DIPOLE MOMENT
-------------
                                X             Y             Z
Electronic contribution:     -1.29178      -2.92519       3.64904
Nuclear contribution   :      1.44676       2.38443      -3.07370
                        -----------------------------------------
Total Dipole Moment    :      0.15498      -0.54077       0.57534
                        -----------------------------------------
Magnitude (a.u.)       :      0.80466
Magnitude (Debye)      :      2.04527

Rotational constants in cm-1:     0.235977     0.073199     0.063283
Rotational constants in MHz :  7074.404583  2194.453291  1897.179599

                             ****ORCA TERMINATED NORMALLY****
TOTAL RUN TIME: 0 days 0 hours 0 minutes 11 seconds 335 msec
