                         Program Version 5.0.0 -  RELEASE  -
|  1> !BLYP D3BJ RIJCOSX def2-SVPD def2/J TightSCF
|  2> *xyz 0 1
|  3> C          3.48828        1.60092       -1.52204
|  4> C          4.34297        1.31342       -2.75683
|  5> N          2.81029        0.42878       -1.01420
|  6> H          2.71455        2.33145       -1.76030
|  7> H          4.09099        2.06315       -0.73338
|  8> C          3.29098       -0.41802       -0.12908
|  9> C          2.51754       -1.43202        0.23936
| 10> N          4.53549       -0.28441        0.39580
| 11> H          5.04363        0.57189        0.22290
| 12> H          4.72335       -0.73327        1.28180
| 13> H          1.93479        0.10230       -1.40379
| 14> H          1.67464       -1.50562       -0.31610
| 15> H          2.92850       -2.21850        0.72549
| 16> H          3.73575        0.86277       -3.51385
| 17> H          5.13754        0.64699       -2.49333
| 18> H          4.75374        2.22930       -3.12740
| 19> *
| 20> %MaxCore 64000
| 21>
| 22> %pal nprocs 4
| 23> end
| 24>
| 25> %scf
| 26>   MaxIter 150
| 27> end
| 28>
| 29>
| 30>                          ****END OF INPUT****

CARTESIAN COORDINATES (ANGSTROEM)
---------------------------------
  C      3.488280    1.600920   -1.522040
  C      4.342970    1.313420   -2.756830
  N      2.810290    0.428780   -1.014200
  H      2.714550    2.331450   -1.760300
  H      4.090990    2.063150   -0.733380
  C      3.290980   -0.418020   -0.129080
  C      2.517540   -1.432020    0.239360
  N      4.535490   -0.284410    0.395800
  H      5.043630    0.571890    0.222900
  H      4.723350   -0.733270    1.281800
  H      1.934790    0.102300   -1.403790
  H      1.674640   -1.505620   -0.316100
  H      2.928500   -2.218500    0.725490
  H      3.735750    0.862770   -3.513850
  H      5.137540    0.646990   -2.493330
  H      4.753740    2.229300   -3.127400

 Total Charge           Charge          ....    0
 Multiplicity           Mult            ....    1
 Number of Electrons    NEL             ....   48
 Basis Dimension        Dim             ....  200

ORBITAL ENERGIES
----------------

  NO   OCC          E(Eh)            E(eV)
   0   2.0000     -14.024858      -381.6358
   1   2.0000     -14.024759      -381.6331
   2   2.0000      -9.964753      -271.1547
   3   2.0000      -9.960265      -271.0326
   4   2.0000      -9.915021      -269.8014
   5   2.0000      -9.833916      -267.5945
   6   2.0000      -0.872214       -23.7342
   7   2.0000      -0.792401       -21.5623
   8   2.0000      -0.693131       -18.8611
   9   2.0000      -0.622679       -16.9440
  10   2.0000      -0.558984       -15.2107
  11   2.0000      -0.536207       -14.5909
  12   2.0000      -0.479615       -13.0510
  13   2.0000      -0.444612       -12.0985
  14   2.0000      -0.428219       -11.6524
  15   2.0000      -0.391083       -10.6419
  16   2.0000      -0.378573       -10.3015
  17   2.0000      -0.354681        -9.6514
  18   2.0000      -0.330295        -8.9878
  19   2.0000      -0.327108        -8.9011
  20   2.0000      -0.316877        -8.6227
  21   2.0000      -0.310892        -8.4598
  22   2.0000      -0.213993        -5.8230
  23   2.0000      -0.127110        -3.4588
  24   0.0000      -0.009123        -0.2483
  25   0.0000       0.017844         0.4856
  26   0.0000       0.022151         0.6028
  27   0.0000       0.033324         0.9068
  28   0.0000       0.048975         1.3327

MULLIKEN ATOMIC CHARGES
-----------------------
   0 C :    0.571667
   1 C :    1.054771
   2 N :   -0.030560
   3 H :   -0.520776
   4 H :   -0.246782
   5 C :    0.445326
   6 C :    0.706896
   7 N :    0.318400
   8 H :   -0.242284
   9 H :   -0.211493
  10 H :   -0.346834
  11 H :   -0.364184
  12 H :   -0.603003
  13 H :   -0.201264
  14 H :   -0.186549
  15 H :   -0.143330
Sum of atomic charges:    0.0000000

LOEWDIN ATOMIC CHARGES
----------------------
   0 C :    0.014954
   1 C :    0.148901
   2 N :    0.000780
   3 H :    0.012232
   4 H :    0.005717
   5 C :   -0.243701
   6 C :    0.149893
   7 N :    0.223303
   8 H :   -0.042322
   9 H :   -0.003381
  10 H :    0.027799
  11 H :   -0.111312
  12 H :   -0.104678
  13 H :   -0.023491
  14 H :   -0.028020
  15 H :   -0.026676

  Mayer bond orders larger than 0.100000
B(  0-C ,  1-C ) :   1.2167 B(  0-C ,  2-N ) :   1.0102 B(  0-C ,  3-H ) :   0.7488
B(  0-C ,  4-H ) :   0.7788 B(  0-C , 10-H ) :  -0.2437 B(  0-C , 13-H ) :   0.3225
B(  0-C , 14-H ) :   0.2567 B(  0-C , 15-H ) :   0.2292 B(  1-C , 13-H ) :   0.6880
B(  1-C , 14-H ) :   0.7359 B(  1-C , 15-H ) :   0.7373 B(  2-N ,  3-H ) :   0.2171
B(  2-N ,  4-H ) :   0.1743 B(  2-N ,  5-C ) :   1.1323 B(  2-N ,  6-C ) :   0.2643
B(  2-N ,  7-N ) :   0.1266 B(  2-N , 10-H ) :   1.2094 B(  5-C ,  6-C ) :   1.4880
B(  5-C ,  7-N ) :   0.9418 B(  5-C ,  9-H ) :  -0.1201 B(  5-C , 10-H ) :  -0.2056
B(  5-C , 11-H ) :   0.3119 B(  5-C , 12-H ) :   0.2523 B(  6-C ,  7-N ) :   0.2554
B(  6-C , 11-H ) :   0.6938 B(  6-C , 12-H ) :   0.5530 B(  7-N ,  8-H ) :   1.0125
B(  7-N ,  9-H ) :   1.2075 B(  8-H ,  9-H ) :  -0.1639

Dispersion correction           -0.025780311
FINAL SINGLE POINT ENERGY      -267.614103868144

DIPOLE MOMENT
-------------
                                X             Y             Z
Electronic contribution:     -0.89158      -1.07700       2.43732
Nuclear contribution   :      1.38466       1.98967      -2.80776
                        -----------------------------------------
Total Dipole Moment    :      0.49307       0.91267      -0.37044
                        -----------------------------------------
Magnitude (a.u.)       :      1.10150
Magnitude (Debye)      :      2.79980

Rotational constants in cm-1:     0.235618     0.075969     0.065309
Rotational constants in MHz :  7063.646698  2277.495424  1957.925383

                             ****ORCA TERMINATED NORMALLY****
TOTAL RUN TIME: 0 days 0 hours 0 minutes 13 seconds 293 msec
