                         Program Version 5.0.0 -  RELEASE  -
|  1> !BLYP D3BJ RIJCOSX def2-SVPD def2/J TightSCF
|  2> *xyz 0 1
|  3> C          3.48828        1.60092       -1.52204
|  4> C          4.34297        1.31342       -2.75683
|  5> N          2.81029        0.42878       -1.01420
|  6> H          2.71455        2.33145       -1.76030
|  7> H          4.09099        2.06315       -0.73338
|  8> C          3.29098       -0.41802       -0.12908
|  9> N          2.51754       -1.43202        0.23936
| 10> C          4.53549       -0.28441        0.39580
| 11> H          5.04363        0.57189        0.22290
| 12> H          4.72335       -0.73327        1.28180
| 13> H          1.93479        0.10230       -1.40379
| 14> H          1.67464       -1.50562       -0.31610
| 15> H          2.92850       -2.21850        0.72549
| 16> H          3.73575        0.86277       -3.51385
| 17> H          5.13754        0.64699       -2.49333
| 18> H          4.75374        2.22930       -3.12740
| 19> *
| 20> %MaxCore 64000
| 21>
| 22> %pal nprocs 4
| 23> end
| 24>
| 25> %scf
| 26>   MaxIter 150
| 27> end
| 28>
| 29>
| 30>                          ****END OF INPUT****

CARTESIAN COORDINATES (ANGSTROEM)
---------------------------------
  C      3.488280    1.600920   -1.522040
  C      4.342970    1.313420   -2.756830
  N      2.810290    0.428780   -1.014200
  H      2.714550    2.331450   -1.760300
  H      4.090990    2.063150   -0.733380
  C      3.290980   -0.418020   -0.129080
  N      2.517540   -1.432020    0.239360
  C      4.535490   -0.284410    0.395800
  H      5.043630    0.571890    0.222900
  H      4.723350   -0.733270    1.281800
  H      1.934790    0.102300   -1.403790
  H      1.674640   -1.505620   -0.316100
  H      2.928500   -2.218500    0.725490
  H      3.735750    0.862770   -3.513850
  H      5.137540    0.646990   -2.493330
  H      4.753740    2.229300   -3.127400

 Total Charge           Charge          ....    0
 Multiplicity           Mult            ....    1
 Number of Electrons    NEL             ....   48
 Basis Dimension        Dim             ....  200

ORBITAL ENERGIES
----------------

  NO   OCC          E(Eh)            E(eV)
   0   2.0000     -14.030589      -381.7917
   1   2.0000     -14.026830      -381.6894
   2   2.0000      -9.962847      -271.1029
   3   2.0000      -9.957245      -270.9504
   4   2.0000      -9.907598      -269.5995
   5   2.0000      -9.835779      -267.6452
   6   2.0000      -0.880862       -23.9695
   7   2.0000      -0.797403       -21.6984
   8   2.0000      -0.674858       -18.3638
   9   2.0000      -0.626595       -17.0505
  10   2.0000      -0.574102       -15.6221
  11   2.0000      -0.501524       -13.6472
  12   2.0000      -0.486723       -13.2444
  13   2.0000      -0.472040       -12.8449
  14   2.0000      -0.418366       -11.3843
  15   2.0000      -0.389835       -10.6080
  16   2.0000      -0.374243       -10.1837
  17   2.0000      -0.346436        -9.4270
  18   2.0000      -0.332663        -9.0522
  19   2.0000      -0.321231        -8.7411
  20   2.0000      -0.312111        -8.4930
  21   2.0000      -0.303826        -8.2675
  22   2.0000      -0.208998        -5.6871
  23   2.0000      -0.130978        -3.5641
  24   0.0000      -0.012422        -0.3380
  25   0.0000       0.016133         0.4390
  26   0.0000       0.026347         0.7169
  27   0.0000       0.034425         0.9368
  28   0.0000       0.054852         1.4926

MULLIKEN ATOMIC CHARGES
-----------------------
   0 C :    0.563506
   1 C :    1.064763
   2 N :   -0.191479
   3 H :   -0.507090
   4 H :   -0.109101
   5 C :    0.461956
   6 N :    0.335029
   7 C :    0.708079
   8 H :   -0.327562
   9 H :   -0.678419
  10 H :   -0.416387
  11 H :   -0.201999
  12 H :   -0.141866
  13 H :   -0.209081
  14 H :   -0.207041
  15 H :   -0.143309
Sum of atomic charges:   -0.0000000

LOEWDIN ATOMIC CHARGES
----------------------
   0 C :    0.022964
   1 C :    0.153103
   2 N :   -0.002183
   3 H :    0.012190
   4 H :    0.014066
   5 C :   -0.251442
   6 N :    0.206888
   7 C :    0.172437
   8 H :   -0.133729
   9 H :   -0.115218
  10 H :    0.013828
  11 H :   -0.021842
  12 H :    0.006991
  13 H :   -0.027224
  14 H :   -0.025687
  15 H :   -0.025143

  Mayer bond orders larger than 0.100000
B(  0-C ,  1-C ) :   1.2072 B(  0-C ,  2-N ) :   1.0361 B(  0-C ,  3-H ) :   0.7830
B(  0-C ,  4-H ) :   0.7743 B(  0-C ,  5-C ) :  -0.1015 B(  0-C , 10-H ) :  -0.2191
B(  0-C , 13-H ) :   0.2859 B(  0-C , 14-H ) :   0.2543 B(  0-C , 15-H ) :   0.2207
B(  1-C , 13-H ) :   0.7032 B(  1-C , 14-H ) :   0.7433 B(  1-C , 15-H ) :   0.7408
B(  2-N ,  3-H ) :   0.1927 B(  2-N ,  4-H ) :   0.1555 B(  2-N ,  5-C ) :   0.9906
B(  2-N ,  6-N ) :   0.1660 B(  2-N ,  7-C ) :   0.4486 B(  2-N , 10-H ) :   1.3085
B(  3-H ,  4-H ) :  -0.1229 B(  5-C ,  6-N ) :   0.9463 B(  5-C ,  7-C ) :   1.6007
B(  5-C ,  8-H ) :   0.3646 B(  5-C ,  9-H ) :   0.2241 B(  5-C , 10-H ) :  -0.2836
B(  6-N ,  7-C ) :   0.3222 B(  6-N , 11-H ) :   1.0504 B(  6-N , 12-H ) :   1.1700
B(  7-C ,  8-H ) :   0.5666 B(  7-C ,  9-H ) :   0.5770 B(  8-H ,  9-H ) :   0.1506
B( 11-H , 12-H ) :  -0.1416

Dispersion correction           -0.025967825
FINAL SINGLE POINT ENERGY      -267.614666857100

DIPOLE MOMENT
-------------
                                X             Y             Z
Electronic contribution:     -2.79046      -2.29144       2.21307
Nuclear contribution   :      1.81275       2.23313      -2.77458
                        -----------------------------------------
Total Dipole Moment    :     -0.97771      -0.05832      -0.56150
                        -----------------------------------------
Magnitude (a.u.)       :      1.12898
Magnitude (Debye)      :      2.86965

Rotational constants in cm-1:     0.245202     0.073668     0.064348
Rotational constants in MHz :  7350.977980  2208.513334  1929.108541

                             ****ORCA TERMINATED NORMALLY****
TOTAL RUN TIME: 0 days 0 hours 0 minutes 13 seconds 317 msec
