                         Program Version 5.0.0 -  RELEASE  -
|  1> !BLYP D3BJ RIJCOSX def2-SVPD def2/J TightSCF xyzfile
|  2>
|  3> *xyzfile 0 1 D3.xyz
|  4>
|  5> %MaxCore 64000
|  6>
|  7> %pal nprocs 4
|  8> end
|  9>
| 10> %scf
| 11>   MaxIter 150
| 12> end
| 13>
| 14>
| 15>                          ****END OF INPUT****

CARTESIAN COORDINATES (ANGSTROEM)
---------------------------------
  C      3.488276    1.600919   -1.522040
  C      4.342970    1.313419   -2.756826
  N      2.810285    0.428783   -1.014196
  H      5.132033    0.604994   -2.484466
  C      3.535896    0.749253   -3.924604
  H      4.841247    2.242136   -3.054083
  H      2.991617   -0.132199   -3.574137
  H      4.225505    0.392784   -4.695962
  C      2.564776    1.750890   -4.544523
  H      1.918749    2.171679   -3.769419
  C      1.686235    1.161657   -5.650111
  H      3.132494    2.594775   -4.951604
  C      0.839616   -0.037582   -5.220473
  H      2.323886    0.866395   -6.490796
  H      1.029518    1.951850   -6.029329
  C     -0.151019    0.254955   -4.094256
  H      1.499442   -0.857141   -4.922958
  H      0.290097   -0.410143   -6.091131
  H      0.328265    0.833022   -3.299125
  C     -0.721843   -0.999513   -3.439309
  H     -0.957367    0.884951   -4.485450
  H     -1.083403   -1.697555   -4.205656
  H     -1.581056   -0.723848   -2.820490
  C      0.287250   -1.711771   -2.527405
  H      1.131780   -2.067380   -3.159396
  H     -0.204137   -2.637326   -2.170480
  F      0.710505   -0.927506   -1.481767
  H      2.714548    2.331455   -1.760302
  H      4.090991    2.063151   -0.733382
  C      3.290978   -0.418021   -0.129083
  N      2.517536   -1.432017    0.239360
  C      4.535490   -0.284410    0.395800
  H      5.043627    0.571888    0.222899
  H      4.723346   -0.733273    1.281800
  H      1.934787    0.102305   -1.403788
  H      1.674638   -1.505616   -0.316095
  H      2.928503   -2.218502    0.725494

 Total Charge           Charge          ....    0
 Multiplicity           Mult            ....    1
 Number of Electrons    NEL             ....  112
 Basis Dimension        Dim             ....  467

ORBITAL ENERGIES
----------------

  NO   OCC          E(Eh)            E(eV)
   0   2.0000     -24.349537      -662.5846
   1   2.0000     -14.000510      -380.9732
   2   2.0000     -13.996736      -380.8706
   3   2.0000     -10.027980      -272.8752
   4   2.0000      -9.947469      -270.6844
   5   2.0000      -9.942622      -270.5525
   6   2.0000      -9.939368      -270.4640
   7   2.0000      -9.932983      -270.2902
   8   2.0000      -9.926852      -270.1234
   9   2.0000      -9.921639      -269.9815
  10   2.0000      -9.916175      -269.8328
  11   2.0000      -9.912399      -269.7301
  12   2.0000      -9.906390      -269.5666
  13   2.0000      -9.817246      -267.1408
  14   2.0000      -1.139314       -31.0023
  15   2.0000      -0.858688       -23.3661
  16   2.0000      -0.776453       -21.1284
  17   2.0000      -0.745605       -20.2890
  18   2.0000      -0.717228       -19.5168
  19   2.0000      -0.685990       -18.6667
  20   2.0000      -0.647755       -17.6263
  21   2.0000      -0.618948       -16.8424
  22   2.0000      -0.608186       -16.5496
  23   2.0000      -0.580877       -15.8065
  24   2.0000      -0.552393       -15.0314
  25   2.0000      -0.527989       -14.3673
  26   2.0000      -0.512041       -13.9333
  27   2.0000      -0.497210       -13.5298
  28   2.0000      -0.492678       -13.4065
  29   2.0000      -0.467146       -12.7117
  30   2.0000      -0.462480       -12.5847
  31   2.0000      -0.452437       -12.3114
  32   2.0000      -0.437236       -11.8978
  33   2.0000      -0.421875       -11.4798
  34   2.0000      -0.409852       -11.1526
  35   2.0000      -0.403115       -10.9693
  36   2.0000      -0.390067       -10.6143
  37   2.0000      -0.385654       -10.4942
  38   2.0000      -0.377568       -10.2742
  39   2.0000      -0.362438        -9.8625
  40   2.0000      -0.351054        -9.5527
  41   2.0000      -0.337833        -9.1929
  42   2.0000      -0.333131        -9.0650
  43   2.0000      -0.325808        -8.8657
  44   2.0000      -0.322298        -8.7702
  45   2.0000      -0.314581        -8.5602
  46   2.0000      -0.306892        -8.3510
  47   2.0000      -0.302232        -8.2241
  48   2.0000      -0.295506        -8.0411
  49   2.0000      -0.292435        -7.9576
  50   2.0000      -0.287691        -7.8285
  51   2.0000      -0.275864        -7.5066
  52   2.0000      -0.274142        -7.4598
  53   2.0000      -0.267752        -7.2859
  54   2.0000      -0.187364        -5.0984
  55   2.0000      -0.112788        -3.0691
  56   0.0000      -0.011351        -0.3089
  57   0.0000      -0.000544        -0.0148
  58   0.0000       0.008991         0.2447
  59   0.0000       0.011701         0.3184
  60   0.0000       0.021513         0.5854

MULLIKEN ATOMIC CHARGES
-----------------------
   0 C :    1.452348
   1 C :    0.651285
   2 N :    0.630584
   3 H :   -0.243341
   4 C :    0.715151
   5 H :   -0.287291
   6 H :   -0.606142
   7 H :   -0.284020
   8 C :    0.202423
   9 H :   -0.082567
  10 C :    0.977524
  11 H :   -0.385252
  12 C :    0.293019
  13 H :   -0.181116
  14 H :   -0.311117
  15 C :    0.542613
  16 H :   -0.178004
  17 H :   -0.406389
  18 H :   -0.510883
  19 C :    0.628794
  20 H :   -0.243635
  21 H :   -0.214755
  22 H :   -0.214578
  23 C :    1.165179
  24 H :   -0.274039
  25 H :   -0.406017
  26 F :   -0.622491
  27 H :   -0.518256
  28 H :   -0.364407
  29 C :    0.401960
  30 N :    0.795539
  31 C :    0.840978
  32 H :   -0.184616
  33 H :   -0.829468
  34 H :   -1.253015
  35 H :   -0.472989
  36 H :   -0.223007
Sum of atomic charges:    0.0000000

LOEWDIN ATOMIC CHARGES
----------------------
   0 C :    0.070906
   1 C :   -0.002170
   2 N :    0.026698
   3 H :    0.016723
   4 C :   -0.022474
   5 H :    0.017438
   6 H :   -0.009382
   7 H :    0.023060
   8 C :   -0.025968
   9 H :   -0.007361
  10 C :   -0.018411
  11 H :    0.022653
  12 C :   -0.024181
  13 H :    0.019230
  14 H :    0.017945
  15 C :   -0.014771
  16 H :   -0.006715
  17 H :    0.020623
  18 H :    0.000204
  19 C :    0.001881
  20 H :    0.027309
  21 H :    0.033330
  22 H :    0.024611
  23 C :    0.157329
  24 H :    0.030828
  25 H :    0.036046
  26 F :   -0.182794
  27 H :    0.003936
  28 H :    0.012007
  29 C :   -0.230472
  30 N :    0.226359
  31 C :    0.165864
  32 H :   -0.138843
  33 H :   -0.120470
  34 H :   -0.063284
  35 H :   -0.090982
  36 H :    0.003297

  Mayer bond orders larger than 0.100000
B(  0-C ,  1-C ) :   1.0036 B(  0-C ,  2-N ) :   1.1439 B(  0-C ,  4-C ) :   0.1819
B(  0-C ,  5-H ) :   0.1249 B(  0-C , 27-H ) :   0.4856 B(  0-C , 28-H ) :   0.6365
B(  0-C , 34-H ) :  -0.7342 B(  1-C ,  3-H ) :   0.6141 B(  1-C ,  4-C ) :   1.1505
B(  1-C ,  5-H ) :   0.7742 B(  1-C ,  6-H ) :   0.1850 B(  1-C ,  7-H ) :   0.1193
B(  1-C , 27-H ) :   0.1159 B(  1-C , 28-H ) :   0.1592 B(  2-N , 27-H ) :   0.2494
B(  2-N , 29-C ) :   1.0375 B(  2-N , 31-C ) :   0.5592 B(  2-N , 33-H ) :   0.1446
B(  2-N , 34-H ) :   0.1757 B(  3-H ,  4-C ) :   0.2916 B(  3-H ,  5-H ) :  -0.1588
B(  4-C ,  6-H ) :   0.5252 B(  4-C ,  7-H ) :   0.5930 B(  4-C ,  8-C ) :   1.1505
B(  4-C ,  9-H ) :   0.1092 B(  4-C , 11-H ) :   0.1935 B(  6-H ,  8-C ) :   0.2455
B(  7-H ,  8-C ) :   0.1846 B(  8-C ,  9-H ) :   0.7526 B(  8-C , 10-C ) :   1.1157
B(  8-C , 11-H ) :   0.7448 B(  8-C , 12-C ) :   0.1946 B(  8-C , 13-H ) :   0.1459
B(  8-C , 14-H ) :   0.4097 B(  9-H , 10-C ) :   0.1192 B(  9-H , 18-H ) :   0.1080
B( 10-C , 11-H ) :   0.1108 B( 10-C , 12-C ) :   1.1542 B( 10-C , 13-H ) :   0.5328
B( 10-C , 14-H ) :   0.4574 B( 10-C , 16-H ) :   0.1095 B( 10-C , 17-H ) :   0.1294
B( 12-C , 13-H ) :   0.3260 B( 12-C , 14-H ) :   0.1428 B( 12-C , 15-C ) :   1.1584
B( 12-C , 16-H ) :   0.7696 B( 12-C , 17-H ) :   0.6858 B( 12-C , 18-H ) :   0.2296
B( 12-C , 20-H ) :   0.2406 B( 13-H , 14-H ) :  -0.2017 B( 15-C , 16-H ) :   0.1575
B( 15-C , 17-H ) :   0.2923 B( 15-C , 18-H ) :   0.6569 B( 15-C , 19-C ) :   1.1623
B( 15-C , 20-H ) :   0.6673 B( 15-C , 21-H ) :   0.1147 B( 15-C , 22-H ) :   0.2973
B( 15-C , 23-C ) :   0.1379 B( 18-H , 19-C ) :   0.1982 B( 19-C , 21-H ) :   0.6473
B( 19-C , 22-H ) :   0.5592 B( 19-C , 23-C ) :   1.1834 B( 19-C , 24-H ) :   0.1465
B( 19-C , 25-H ) :   0.1925 B( 19-C , 26-F ) :   0.1084 B( 21-H , 22-H ) :  -0.1115
B( 21-H , 23-C ) :   0.2169 B( 22-H , 23-C ) :   0.1878 B( 23-C , 24-H ) :   0.7212
B( 23-C , 25-H ) :   0.7260 B( 23-C , 26-F ) :   0.6167 B( 24-H , 26-F ) :   0.1515
B( 26-F , 34-H ) :   0.2299 B( 26-F , 35-H ) :   0.2121 B( 27-H , 28-H ) :  -0.2187
B( 27-H , 34-H ) :   0.1439 B( 29-C , 30-N ) :   0.9095 B( 29-C , 31-C ) :   1.4713
B( 29-C , 32-H ) :   0.4637 B( 29-C , 33-H ) :   0.4418 B( 29-C , 34-H ) :  -0.7101
B( 30-N , 31-C ) :   0.3078 B( 30-N , 35-H ) :   0.8298 B( 30-N , 36-H ) :   1.1565
B( 31-C , 32-H ) :   0.5084 B( 31-C , 33-H ) :   0.2923 B( 31-C , 34-H ) :  -0.1234
B( 35-H , 36-H ) :  -0.1430

Dispersion correction           -0.079330557
FINAL SINGLE POINT ENERGY      -641.632393250505

DIPOLE MOMENT
-------------
                                X             Y             Z
Electronic contribution:     -3.22196      -4.29619       9.10573
Nuclear contribution   :      1.49917       3.80845     -10.61369
                        -----------------------------------------
Total Dipole Moment    :     -1.72279      -0.48774      -1.50795
                        -----------------------------------------
Magnitude (a.u.)       :      2.34090
Magnitude (Debye)      :      5.95010

Rotational constants in cm-1:     0.026547     0.016542     0.011018
Rotational constants in MHz :   795.873737   495.912559   330.323979

                             ****ORCA TERMINATED NORMALLY****
TOTAL RUN TIME: 0 days 0 hours 0 minutes 49 seconds 960 msec
