                         Program Version 5.0.0 -  RELEASE  -
|  1> !TPSS D3BJ RIJCOSX def2-SVP def2/J TightSCF
|  2> *xyz -1 1
|  3> C         -1.10433        0.25137       -2.86006
|  4> C         -0.71189        0.84252       -4.21834
|  5> H          0.15463        1.49980       -4.13091
|  6> H         -1.53813        1.45922       -4.58267
|  7> C         -0.39762       -0.20587       -5.28802
|  8> O          0.61717       -0.00535       -5.99827
|  9> O         -1.13317       -1.22138       -5.34147
| 10> H         -1.95489       -0.38644       -2.98099
| 11> H         -1.34603        1.04362       -2.18269
| 12> H         -0.28606       -0.31581       -2.46809
| 13> *
| 14>
| 15> %MaxCore 64000
| 16>
| 17> %pal nprocs 4
| 18> end
| 19>
| 20> %scf
| 21>   MaxIter 150
| 22> end
| 23>
| 24>
| 25>                          ****END OF INPUT****

CARTESIAN COORDINATES (ANGSTROEM)
---------------------------------
  C     -1.104330    0.251370   -2.860060
  C     -0.711890    0.842520   -4.218340
  H      0.154630    1.499800   -4.130910
  H     -1.538130    1.459220   -4.582670
  C     -0.397620   -0.205870   -5.288020
  O      0.617170   -0.005350   -5.998270
  O     -1.133170   -1.221380   -5.341470
  H     -1.954890   -0.386440   -2.980990
  H     -1.346030    1.043620   -2.182690
  H     -0.286060   -0.315810   -2.468090

 Total Charge           Charge          ....   -1
 Multiplicity           Mult            ....    1
 Number of Electrons    NEL             ....   40
 Basis Dimension        Dim             ....   95

ORBITAL ENERGIES
----------------

  NO   OCC          E(Eh)            E(eV)
   0   2.0000     -18.593857      -505.9646
   1   2.0000     -18.591205      -505.8924
   2   2.0000      -9.839986      -267.7596
   3   2.0000      -9.826961      -267.4052
   4   2.0000      -9.805766      -266.8285
   5   2.0000      -0.702053       -19.1038
   6   2.0000      -0.612127       -16.6568
   7   2.0000      -0.524562       -14.2741
   8   2.0000      -0.400343       -10.8939
   9   2.0000      -0.250199        -6.8083
  10   2.0000      -0.235297        -6.4028
  11   2.0000      -0.190702        -5.1893
  12   2.0000      -0.165110        -4.4929
  13   2.0000      -0.154339        -4.1998
  14   2.0000      -0.132398        -3.6027
  15   2.0000      -0.100853        -2.7443
  16   2.0000      -0.092459        -2.5159
  17   2.0000       0.026741         0.7276
  18   2.0000       0.036485         0.9928
  19   2.0000       0.054817         1.4917
  20   0.0000       0.206762         5.6263
  21   0.0000       0.250874         6.8266
  22   0.0000       0.257990         7.0203
  23   0.0000       0.272344         7.4109
  24   0.0000       0.275044         7.4843

MULLIKEN ATOMIC CHARGES
-----------------------
   0 C :    0.035478
   1 C :   -0.006951
   2 H :   -0.058106
   3 H :   -0.042778
   4 C :    0.021605
   5 O :   -0.426112
   6 O :   -0.426612
   7 H :   -0.016646
   8 H :   -0.060251
   9 H :   -0.019629
Sum of atomic charges:   -1.0000000

LOEWDIN ATOMIC CHARGES
----------------------
   0 C :   -0.054693
   1 C :   -0.089703
   2 H :   -0.009767
   3 H :   -0.000797
   4 C :   -0.073468
   5 O :   -0.380666
   6 O :   -0.382536
   7 H :    0.002404
   8 H :   -0.014818
   9 H :    0.004043

  Mayer bond orders larger than 0.100000
B(  0-C ,  1-C ) :   1.0826 B(  0-C ,  7-H ) :   0.9550 B(  0-C ,  8-H ) :   0.9524
B(  0-C ,  9-H ) :   0.9724 B(  1-C ,  2-H ) :   0.9322 B(  1-C ,  3-H ) :   0.9288
B(  1-C ,  4-C ) :   0.9060 B(  4-C ,  5-O ) :   1.8541 B(  4-C ,  6-O ) :   1.8236
B(  5-O ,  6-O ) :   0.1346

Dispersion correction           -0.008035192
FINAL SINGLE POINT ENERGY      -267.661461900803

DIPOLE MOMENT
-------------
                                X             Y             Z
Electronic contribution:      1.63569      -2.56727      -5.50082
Nuclear contribution   :     -2.09607       3.44215       6.87744
                        -----------------------------------------
Total Dipole Moment    :     -0.46038       0.87488       1.37662
                        -----------------------------------------
Magnitude (a.u.)       :      1.69483
Magnitude (Debye)      :      4.30791

Rotational constants in cm-1:     0.324698     0.133739     0.103466
Rotational constants in MHz :  9734.203431  4009.406827  3101.846422

                             ****ORCA TERMINATED NORMALLY****
TOTAL RUN TIME: 0 days 0 hours 0 minutes 6 seconds 652 msec
