                         Program Version 5.0.0 -  RELEASE  -
|  1> !TPSS D3BJ RIJCOSX def2-SVP def2/J TightSCF
|  2> *xyz 1 1
|  3> C          2.23447       -2.98975       -2.39762
|  4> N          2.75680       -2.94555       -3.76503
|  5> C          1.98721       -2.59045       -4.81898
|  6> N          0.74322       -3.01749       -4.91352
|  7> N          2.49964       -1.84860       -5.80324
|  8> H          3.30978       -1.29282       -5.55895
|  9> H          1.80103       -1.30430       -6.28913
| 10> H          3.71612       -2.62880       -3.82953
| 11> H          0.39583       -3.62775       -4.18502
| 12> H          0.03920       -2.45438       -5.37137
| 13> C          2.19120       -1.61950       -1.71549
| 14> H          2.87278       -3.66637       -1.82801
| 15> H          1.24619       -3.44744       -2.40784
| 16> H          1.56387       -0.96046       -2.27853
| 17> H          3.18033       -1.21449       -1.66568
| 18> H          1.79916       -1.72608       -0.72562
| 19> *
| 20>
| 21> %MaxCore 64000
| 22>
| 23> %pal nprocs 4
| 24> end
| 25>
| 26> %scf
| 27>   MaxIter 150
| 28> end
| 29>
| 30>
| 31>                          ****END OF INPUT****

CARTESIAN COORDINATES (ANGSTROEM)
---------------------------------
  C      2.234470   -2.989750   -2.397620
  N      2.756800   -2.945550   -3.765030
  C      1.987210   -2.590450   -4.818980
  N      0.743220   -3.017490   -4.913520
  N      2.499640   -1.848600   -5.803240
  H      3.309780   -1.292820   -5.558950
  H      1.801030   -1.304300   -6.289130
  H      3.716120   -2.628800   -3.829530
  H      0.395830   -3.627750   -4.185020
  H      0.039200   -2.454380   -5.371370
  C      2.191200   -1.619500   -1.715490
  H      2.872780   -3.666370   -1.828010
  H      1.246190   -3.447440   -2.407840
  H      1.563870   -0.960460   -2.278530
  H      3.180330   -1.214490   -1.665680
  H      1.799160   -1.726080   -0.725620

 Total Charge           Charge          ....    1
 Multiplicity           Mult            ....    1
 Number of Electrons    NEL             ....   48
 Basis Dimension        Dim             ....  134

ORBITAL ENERGIES
----------------

  NO   OCC          E(Eh)            E(eV)
   0   2.0000     -14.344934      -390.3455
   1   2.0000     -14.340859      -390.2346
   2   2.0000     -14.335723      -390.0948
   3   2.0000     -10.324886      -280.9544
   4   2.0000     -10.209702      -277.8201
   5   2.0000     -10.145149      -276.0635
   6   2.0000      -1.143139       -31.1064
   7   2.0000      -1.035551       -28.1788
   8   2.0000      -1.031668       -28.0731
   9   2.0000      -0.867095       -23.5949
  10   2.0000      -0.788273       -21.4500
  11   2.0000      -0.751904       -20.4604
  12   2.0000      -0.736109       -20.0305
  13   2.0000      -0.693181       -18.8624
  14   2.0000      -0.656539       -17.8653
  15   2.0000      -0.641958       -17.4686
  16   2.0000      -0.606497       -16.5036
  17   2.0000      -0.577052       -15.7024
  18   2.0000      -0.562199       -15.2982
  19   2.0000      -0.527908       -14.3651
  20   2.0000      -0.498282       -13.5589
  21   2.0000      -0.481480       -13.1017
  22   2.0000      -0.446480       -12.1493
  23   2.0000      -0.413221       -11.2443
  24   0.0000      -0.214153        -5.8274
  25   0.0000      -0.152496        -4.1496
  26   0.0000      -0.122050        -3.3211
  27   0.0000      -0.108112        -2.9419
  28   0.0000      -0.091967        -2.5025

MULLIKEN ATOMIC CHARGES
-----------------------
   0 C :    0.016643
   1 N :   -0.136706
   2 C :    0.043401
   3 N :   -0.020726
   4 N :   -0.001151
   5 H :    0.161502
   6 H :    0.163358
   7 H :    0.157942
   8 H :    0.169387
   9 H :    0.174344
  10 C :    0.004619
  11 H :    0.077599
  12 H :    0.045967
  13 H :    0.027512
  14 H :    0.045558
  15 H :    0.070750
Sum of atomic charges:    1.0000000

LOEWDIN ATOMIC CHARGES
----------------------
   0 C :    0.049083
   1 N :    0.024103
   2 C :    0.122007
   3 N :    0.075834
   4 N :    0.060761
   5 H :    0.104634
   6 H :    0.107272
   7 H :    0.099266
   8 H :    0.106810
   9 H :    0.111673
  10 C :   -0.036101
  11 H :    0.045969
  12 H :    0.026913
  13 H :    0.022227
  14 H :    0.030988
  15 H :    0.048562

  Mayer bond orders larger than 0.100000
B(  0-C ,  1-N ) :   0.9475 B(  0-C , 10-C ) :   1.0903 B(  0-C , 11-H ) :   0.9462
B(  0-C , 12-H ) :   0.9511 B(  1-N ,  2-C ) :   1.3426 B(  1-N ,  7-H ) :   0.9104
B(  2-C ,  3-N ) :   1.4055 B(  2-C ,  4-N ) :   1.3715 B(  3-N ,  8-H ) :   0.9244
B(  3-N ,  9-H ) :   0.9264 B(  4-N ,  5-H ) :   0.9283 B(  4-N ,  6-H ) :   0.9291
B( 10-C , 13-H ) :   0.9670 B( 10-C , 14-H ) :   0.9687 B( 10-C , 15-H ) :   0.9583

Dispersion correction           -0.015285904
FINAL SINGLE POINT ENERGY      -284.235995164308

DIPOLE MOMENT
-------------
                                X             Y             Z
Electronic contribution:      0.17417      -1.65662      -5.24379
Nuclear contribution   :     -0.59121       2.30298       4.63196
                        -----------------------------------------
Total Dipole Moment    :     -0.41703       0.64636      -0.61183
                        -----------------------------------------
Magnitude (a.u.)       :      0.98287
Magnitude (Debye)      :      2.49827

Rotational constants in cm-1:     0.205874     0.074757     0.066901
Rotational constants in MHz :  6171.937773  2241.151057  2005.629823

                             ****ORCA TERMINATED NORMALLY****
TOTAL RUN TIME: 0 days 0 hours 0 minutes 9 seconds 412 msec
