                         Program Version 5.0.0 -  RELEASE  -
|  1> !TPSS D3BJ RIJCOSX def2-TZVP def2/J TightSCF xyzfile
|  2>
|  3> *xyzfile 0 1 B.xyz
|  4>
|  5> %MaxCore 64000
|  6>
|  7> %pal nprocs 18
|  8> end
|  9>
| 10> %scf
| 11>   MaxIter 150
| 12> end
| 13>
| 14>
| 15>                          ****END OF INPUT****

CARTESIAN COORDINATES (ANGSTROEM)
---------------------------------
  C      2.234473   -2.989754   -2.397622
  N      2.756799   -2.945553   -3.765029
  C     -1.104325    0.251374   -2.860056
  C     -0.711893    0.842517   -4.218344
  H      0.154626    1.499800   -4.130909
  H     -1.538134    1.459222   -4.582671
  C     -0.397624   -0.205875   -5.288018
  C      1.987208   -2.590451   -4.818975
  N      0.743221   -3.017493   -4.913524
  N      2.499636   -1.848598   -5.803241
  H      3.309780   -1.292818   -5.558947
  H      1.801025   -1.304298   -6.289129
  H      3.716116   -2.628797   -3.829533
  H      0.395828   -3.627747   -4.185024
  H      0.039201   -2.454383   -5.371367
  O      0.617165   -0.005348   -5.998273
  O     -1.133173   -1.221380   -5.341465
  C      2.191199   -1.619503   -1.715492
  H      2.872783   -3.666368   -1.828014
  H      1.246188   -3.447444   -2.407842
  C      1.298729   -0.554314   -2.359773
  H      1.872917   -1.787955   -0.681310
  H      3.216809   -1.238432   -1.654428
  C     -0.196255   -0.863365   -2.325763
  H      1.612531   -0.371346   -3.393065
  H      1.480944    0.388638   -1.834444
  H     -0.404105   -1.761825   -2.909448
  H     -0.490439   -1.087880   -1.294131
  H     -1.143842    1.066711   -2.129680
  H     -2.114401   -0.156834   -2.930323

 Total Charge           Charge          ....    0
 Multiplicity           Mult            ....    1
 Number of Electrons    NEL             ....  102
 Basis Dimension        Dim             ....  505

ORBITAL ENERGIES
----------------

  NO   OCC          E(Eh)            E(eV)
   0   2.0000     -18.798208      -511.5252
   1   2.0000     -18.797122      -511.4957
   2   2.0000     -14.166382      -385.4869
   3   2.0000     -14.137477      -384.7003
   4   2.0000     -14.136850      -384.6832
   5   2.0000     -10.136454      -275.8269
   6   2.0000     -10.059201      -273.7248
   7   2.0000     -10.030754      -272.9507
   8   2.0000     -10.009064      -272.3605
   9   2.0000      -9.989185      -271.8196
  10   2.0000      -9.975584      -271.4495
  11   2.0000      -9.965879      -271.1853
  12   2.0000      -9.952277      -270.8152
  13   2.0000      -0.979605       -26.6564
  14   2.0000      -0.933716       -25.4077
  15   2.0000      -0.880840       -23.9689
  16   2.0000      -0.861664       -23.4471
  17   2.0000      -0.841783       -22.9061
  18   2.0000      -0.760586       -20.6966
  19   2.0000      -0.719078       -19.5671
  20   2.0000      -0.670735       -18.2516
  21   2.0000      -0.628212       -17.0945
  22   2.0000      -0.605150       -16.4670
  23   2.0000      -0.572060       -15.5665
  24   2.0000      -0.563091       -15.3225
  25   2.0000      -0.530183       -14.4270
  26   2.0000      -0.510216       -13.8837
  27   2.0000      -0.486542       -13.2395
  28   2.0000      -0.466230       -12.6868
  29   2.0000      -0.457033       -12.4365
  30   2.0000      -0.439497       -11.9593
  31   2.0000      -0.428764       -11.6673
  32   2.0000      -0.418514       -11.3884
  33   2.0000      -0.403234       -10.9726
  34   2.0000      -0.392578       -10.6826
  35   2.0000      -0.385018       -10.4769
  36   2.0000      -0.373555       -10.1649
  37   2.0000      -0.359380        -9.7792
  38   2.0000      -0.345886        -9.4120
  39   2.0000      -0.338057        -9.1990
  40   2.0000      -0.326789        -8.8924
  41   2.0000      -0.318172        -8.6579
  42   2.0000      -0.304348        -8.2817
  43   2.0000      -0.290714        -7.9107
  44   2.0000      -0.277364        -7.5475
  45   2.0000      -0.272295        -7.4095
  46   2.0000      -0.266826        -7.2607
  47   2.0000      -0.256760        -6.9868
  48   2.0000      -0.191497        -5.2109
  49   2.0000      -0.177707        -4.8357
  50   2.0000      -0.166180        -4.5220
  51   0.0000      -0.045051        -1.2259
  52   0.0000      -0.018286        -0.4976
  53   0.0000       0.004723         0.1285
  54   0.0000       0.021546         0.5863
  55   0.0000       0.034967         0.9515

MULLIKEN ATOMIC CHARGES
-----------------------
   0 C :   -0.166346
   1 N :   -0.240276
   2 C :   -0.122237
   3 C :   -0.138157
   4 H :    0.078212
   5 H :    0.089391
   6 C :    0.237834
   7 C :    0.226468
   8 N :   -0.323058
   9 N :   -0.313585
  10 H :    0.228034
  11 H :    0.273940
  12 H :    0.216546
  13 H :    0.235904
  14 H :    0.271633
  15 O :   -0.516077
  16 O :   -0.485223
  17 C :   -0.146281
  18 H :    0.134033
  19 H :    0.123397
  20 C :   -0.171993
  21 H :    0.093464
  22 H :    0.093717
  23 C :   -0.181408
  24 H :    0.120512
  25 H :    0.084365
  26 H :    0.070733
  27 H :    0.071045
  28 H :    0.072242
  29 H :    0.083168
Sum of atomic charges:   -0.0000000

LOEWDIN ATOMIC CHARGES
----------------------
   0 C :   -0.272773
   1 N :    0.133838
   2 C :   -0.258909
   3 C :   -0.244623
   4 H :    0.132809
   5 H :    0.142112
   6 C :   -0.669453
   7 C :   -0.448792
   8 N :    0.096406
   9 N :    0.053538
  10 H :    0.173732
  11 H :    0.169897
  12 H :    0.189712
  13 H :    0.175537
  14 H :    0.163149
  15 O :   -0.052270
  16 O :   -0.040513
  17 C :   -0.263591
  18 H :    0.136151
  19 H :    0.131989
  20 C :   -0.261532
  21 H :    0.142116
  22 H :    0.133325
  23 C :   -0.267616
  24 H :    0.141158
  25 H :    0.139473
  26 H :    0.127913
  27 H :    0.129741
  28 H :    0.128693
  29 H :    0.138784

  Mayer bond orders larger than 0.100000
B(  0-C ,  1-N ) :   0.9215 B(  0-C , 17-C ) :   1.0100 B(  0-C , 18-H ) :   0.9539
B(  0-C , 19-H ) :   0.9688 B(  1-N ,  7-C ) :   1.3054 B(  1-N , 12-H ) :   0.9073
B(  2-C ,  3-C ) :   1.0129 B(  2-C , 23-C ) :   1.0495 B(  2-C , 28-H ) :   0.9390
B(  2-C , 29-H ) :   0.9336 B(  3-C ,  4-H ) :   0.9442 B(  3-C ,  5-H ) :   0.9178
B(  3-C ,  6-C ) :   0.9945 B(  6-C , 15-O ) :   1.6919 B(  6-C , 16-O ) :   1.7063
B(  7-C ,  8-N ) :   1.4229 B(  7-C ,  9-N ) :   1.3895 B(  8-N , 13-H ) :   0.9075
B(  8-N , 14-H ) :   0.7662 B(  9-N , 10-H ) :   0.9108 B(  9-N , 11-H ) :   0.7998
B( 11-H , 15-O ) :   0.1514 B( 14-H , 16-O ) :   0.1918 B( 17-C , 20-C ) :   1.0067
B( 17-C , 21-H ) :   0.9390 B( 17-C , 22-H ) :   0.9499 B( 20-C , 23-C ) :   1.0248
B( 20-C , 24-H ) :   0.9294 B( 20-C , 25-H ) :   0.9414 B( 23-C , 26-H ) :   0.9426
B( 23-C , 27-H ) :   0.9413

Dispersion correction           -0.044019308
FINAL SINGLE POINT ENERGY      -630.191976347928

DIPOLE MOMENT
-------------
                                X             Y             Z
Electronic contribution:      0.56159      -2.84513     -10.34313
Nuclear contribution   :      1.76912       1.50070      12.36652
                        -----------------------------------------
Total Dipole Moment    :      2.33071      -1.34443       2.02339
                        -----------------------------------------
Magnitude (a.u.)       :      3.36657
Magnitude (Debye)      :      8.55715

Rotational constants in cm-1:     0.033272     0.023886     0.017112
Rotational constants in MHz :   997.469575   716.074432   513.001395

                             ****ORCA TERMINATED NORMALLY****
TOTAL RUN TIME: 0 days 0 hours 0 minutes 24 seconds 971 msec
