                         Program Version 5.0.0 -  RELEASE  -
|  1> !TPSS D3BJ RIJCOSX def2-SVP def2/J TightSCF
|  2> *xyz 0 1
|  3> C         -1.10433        0.25137       -2.86006
|  4> C         -0.71189        0.84252       -4.21834
|  5> H          0.15463        1.49980       -4.13091
|  6> H         -1.53813        1.45922       -4.58267
|  7> C         -0.39762       -0.20587       -5.28802
|  8> F          0.61717       -0.00535       -5.99827
|  9> O         -1.13317       -1.22138       -5.34147
| 10> H         -1.95489       -0.38644       -2.98099
| 11> H         -1.34603        1.04362       -2.18269
| 12> H         -0.28606       -0.31581       -2.46809
| 13> *
| 14>
| 15> %MaxCore 64000
| 16>
| 17> %pal nprocs 4
| 18> end
| 19>
| 20> %scf
| 21>   MaxIter 150
| 22> end
| 23>
| 24>
| 25>                          ****END OF INPUT****

CARTESIAN COORDINATES (ANGSTROEM)
---------------------------------
  C     -1.104330    0.251370   -2.860060
  C     -0.711890    0.842520   -4.218340
  H      0.154630    1.499800   -4.130910
  H     -1.538130    1.459220   -4.582670
  C     -0.397620   -0.205870   -5.288020
  F      0.617170   -0.005350   -5.998270
  O     -1.133170   -1.221380   -5.341470
  H     -1.954890   -0.386440   -2.980990
  H     -1.346030    1.043620   -2.182690
  H     -0.286060   -0.315810   -2.468090

 Total Charge           Charge          ....    0
 Multiplicity           Mult            ....    1
 Number of Electrons    NEL             ....   40
 Basis Dimension        Dim             ....   95

ORBITAL ENERGIES
----------------

  NO   OCC          E(Eh)            E(eV)
   0   2.0000     -24.478500      -666.0938
   1   2.0000     -18.890033      -514.0239
   2   2.0000     -10.157106      -276.3889
   3   2.0000     -10.026957      -272.8474
   4   2.0000     -10.003545      -272.2103
   5   2.0000      -1.213089       -33.0098
   6   2.0000      -0.943124       -25.6637
   7   2.0000      -0.730141       -19.8682
   8   2.0000      -0.623863       -16.9762
   9   2.0000      -0.570935       -15.5359
  10   2.0000      -0.485938       -13.2231
  11   2.0000      -0.473113       -12.8741
  12   2.0000      -0.444598       -12.0981
  13   2.0000      -0.417212       -11.3529
  14   2.0000      -0.381595       -10.3837
  15   2.0000      -0.350843        -9.5469
  16   2.0000      -0.334053        -9.0900
  17   2.0000      -0.327236        -8.9045
  18   2.0000      -0.301955        -8.2166
  19   2.0000      -0.237981        -6.4758
  20   0.0000      -0.051094        -1.3903
  21   0.0000       0.049737         1.3534
  22   0.0000       0.091428         2.4879
  23   0.0000       0.098957         2.6928
  24   0.0000       0.113212         3.0807

MULLIKEN ATOMIC CHARGES
-----------------------
   0 C :    0.017409
   1 C :   -0.090235
   2 H :    0.023875
   3 H :    0.056828
   4 C :    0.227410
   5 F :   -0.062821
   6 O :   -0.255645
   7 H :    0.040720
   8 H :    0.018860
   9 H :    0.023600
Sum of atomic charges:   -0.0000000

LOEWDIN ATOMIC CHARGES
----------------------
   0 C :   -0.027035
   1 C :   -0.068129
   2 H :    0.023857
   3 H :    0.046923
   4 C :    0.081906
   5 F :    0.055174
   6 O :   -0.185707
   7 H :    0.027265
   8 H :    0.023169
   9 H :    0.022578

  Mayer bond orders larger than 0.100000
B(  0-C ,  1-C ) :   1.0957 B(  0-C ,  7-H ) :   0.9668 B(  0-C ,  8-H ) :   0.9638
B(  0-C ,  9-H ) :   0.9777 B(  1-C ,  2-H ) :   0.9370 B(  1-C ,  3-H ) :   0.9226
B(  1-C ,  4-C ) :   0.9949 B(  4-C ,  5-F ) :   1.2057 B(  4-C ,  6-O ) :   2.0513

Dispersion correction           -0.007629259
FINAL SINGLE POINT ENERGY      -292.219031816521

DIPOLE MOMENT
-------------
                                X             Y             Z
Electronic contribution:      3.60054      -2.46259      -7.80520
Nuclear contribution   :     -3.36368       3.36392       8.24820
                        -----------------------------------------
Total Dipole Moment    :      0.23686       0.90133       0.44299
                        -----------------------------------------
Magnitude (a.u.)       :      1.03187
Magnitude (Debye)      :      2.62279

Rotational constants in cm-1:     0.315013     0.126712     0.098430
Rotational constants in MHz :  9443.861322  3798.734540  2950.846388

                             ****ORCA TERMINATED NORMALLY****
TOTAL RUN TIME: 0 days 0 hours 0 minutes 6 seconds 382 msec
