                         Program Version 5.0.0 -  RELEASE  -
|  1> !TPSS D3BJ RIJCOSX def2-SVP def2/J TightSCF
|  2> *xyz 0 1
|  3> C          2.23447       -2.98975       -2.39762
|  4> C          2.75680       -2.94555       -3.76503
|  5> C          1.98721       -2.59045       -4.81898
|  6> N          0.74322       -3.01749       -4.91352
|  7> N          2.49964       -1.84860       -5.80324
|  8> H          3.30978       -1.29282       -5.55895
|  9> H          1.80103       -1.30430       -6.28913
| 10> H          3.71612       -2.62880       -3.82953
| 11> H          0.39583       -3.62775       -4.18502
| 12> H          0.03920       -2.45438       -5.37137
| 13> C          2.19120       -1.61950       -1.71549
| 14> H          2.87278       -3.66637       -1.82801
| 15> H          1.24619       -3.44744       -2.40784
| 16> H          1.56387       -0.96046       -2.27853
| 17> H          3.18033       -1.21449       -1.66568
| 18> H          1.79916       -1.72608       -0.72562
| 19> *
| 20>
| 21> %MaxCore 64000
| 22>
| 23> %pal nprocs 4
| 24> end
| 25>
| 26> %scf
| 27>   MaxIter 150
| 28> end
| 29>
| 30>
| 31>                          ****END OF INPUT****

CARTESIAN COORDINATES (ANGSTROEM)
---------------------------------
  C      2.234470   -2.989750   -2.397620
  C      2.756800   -2.945550   -3.765030
  C      1.987210   -2.590450   -4.818980
  N      0.743220   -3.017490   -4.913520
  N      2.499640   -1.848600   -5.803240
  H      3.309780   -1.292820   -5.558950
  H      1.801030   -1.304300   -6.289130
  H      3.716120   -2.628800   -3.829530
  H      0.395830   -3.627750   -4.185020
  H      0.039200   -2.454380   -5.371370
  C      2.191200   -1.619500   -1.715490
  H      2.872780   -3.666370   -1.828010
  H      1.246190   -3.447440   -2.407840
  H      1.563870   -0.960460   -2.278530
  H      3.180330   -1.214490   -1.665680
  H      1.799160   -1.726080   -0.725620

 Total Charge           Charge          ....    0
 Multiplicity           Mult            ....    1
 Number of Electrons    NEL             ....   48
 Basis Dimension        Dim             ....  134

ORBITAL ENERGIES
----------------

  NO   OCC          E(Eh)            E(eV)
   0   2.0000     -14.116319      -384.1246
   1   2.0000     -14.111193      -383.9851
   2   2.0000     -10.032716      -273.0041
   3   2.0000      -9.973163      -271.3836
   4   2.0000      -9.968339      -271.2523
   5   2.0000      -9.915295      -269.8089
   6   2.0000      -0.888839       -24.1865
   7   2.0000      -0.803333       -21.8598
   8   2.0000      -0.702067       -19.1042
   9   2.0000      -0.625188       -17.0122
  10   2.0000      -0.559007       -15.2113
  11   2.0000      -0.522537       -14.2190
  12   2.0000      -0.490378       -13.3439
  13   2.0000      -0.454926       -12.3792
  14   2.0000      -0.421580       -11.4718
  15   2.0000      -0.401168       -10.9163
  16   2.0000      -0.366803        -9.9812
  17   2.0000      -0.345114        -9.3910
  18   2.0000      -0.325688        -8.8624
  19   2.0000      -0.313351        -8.5267
  20   2.0000      -0.284865        -7.7516
  21   2.0000      -0.279962        -7.6181
  22   2.0000      -0.224740        -6.1155
  23   2.0000      -0.120280        -3.2730
  24   0.0000       0.021273         0.5789
  25   0.0000       0.049073         1.3353
  26   0.0000       0.069835         1.9003
  27   0.0000       0.076498         2.0816
  28   0.0000       0.090995         2.4761

MULLIKEN ATOMIC CHARGES
-----------------------
   0 C :    0.010195
   1 C :   -0.121346
   2 C :   -0.110892
   3 N :   -0.057532
   4 N :   -0.048388
   5 H :    0.114998
   6 H :    0.092829
   7 H :   -0.093834
   8 H :    0.118139
   9 H :    0.098234
  10 C :    0.060284
  11 H :   -0.006593
  12 H :   -0.034367
  13 H :   -0.011373
  14 H :   -0.004946
  15 H :   -0.005408
Sum of atomic charges:    0.0000000

LOEWDIN ATOMIC CHARGES
----------------------
   0 C :   -0.032423
   1 C :   -0.219913
   2 C :    0.002204
   3 N :    0.002206
   4 N :   -0.011106
   5 H :    0.075913
   6 H :    0.060401
   7 H :   -0.016579
   8 H :    0.078093
   9 H :    0.060055
  10 C :   -0.044710
  11 H :    0.014407
  12 H :    0.001081
  13 H :    0.008048
  14 H :    0.012936
  15 H :    0.009389

  Mayer bond orders larger than 0.100000
B(  0-C ,  1-C ) :   1.1052 B(  0-C , 10-C ) :   1.0778 B(  0-C , 11-H ) :   0.9273
B(  0-C , 12-H ) :   0.9385 B(  1-C ,  2-C ) :   1.6311 B(  1-C ,  7-H ) :   0.9201
B(  2-C ,  3-N ) :   1.2737 B(  2-C ,  4-N ) :   1.2106 B(  3-N ,  8-H ) :   0.9434
B(  3-N ,  9-H ) :   0.9407 B(  4-N ,  5-H ) :   0.9429 B(  4-N ,  6-H ) :   0.9528
B( 10-C , 13-H ) :   0.9693 B( 10-C , 14-H ) :   0.9665 B( 10-C , 15-H ) :   0.9573

Dispersion correction           -0.015914124
FINAL SINGLE POINT ENERGY      -267.759419608536

DIPOLE MOMENT
-------------
                                X             Y             Z
Electronic contribution:     -0.38366      -1.36895      -5.14825
Nuclear contribution   :     -0.44240       2.20379       4.66256
                        -----------------------------------------
Total Dipole Moment    :     -0.82605       0.83484      -0.48569
                        -----------------------------------------
Magnitude (a.u.)       :      1.27091
Magnitude (Debye)      :      3.23040

Rotational constants in cm-1:     0.209447     0.075194     0.066975
Rotational constants in MHz :  6279.068019  2254.272519  2007.845458

                             ****ORCA TERMINATED NORMALLY****
TOTAL RUN TIME: 0 days 0 hours 0 minutes 8 seconds 924 msec
