                         Program Version 5.0.0 -  RELEASE  -
|  1> !TPSS D3BJ RIJCOSX def2-SVP def2/J TightSCF
|  2> *xyz 0 1
|  3> C         -1.10433        0.25137       -2.86006
|  4> C         -0.71189        0.84252       -4.21834
|  5> H          0.15463        1.49980       -4.13091
|  6> H         -1.53813        1.45922       -4.58267
|  7> C         -0.39762       -0.20587       -5.28802
|  8> O          0.61717       -0.00535       -5.99827
|  9> F         -1.13317       -1.22138       -5.34147
| 10> H         -1.95489       -0.38644       -2.98099
| 11> H         -1.34603        1.04362       -2.18269
| 12> H         -0.28606       -0.31581       -2.46809
| 13> *
| 14>
| 15> %MaxCore 64000
| 16>
| 17> %pal nprocs 4
| 18> end
| 19>
| 20> %scf
| 21>   MaxIter 150
| 22> end
| 23>
| 24>
| 25>                          ****END OF INPUT****

CARTESIAN COORDINATES (ANGSTROEM)
---------------------------------
  C     -1.104330    0.251370   -2.860060
  C     -0.711890    0.842520   -4.218340
  H      0.154630    1.499800   -4.130910
  H     -1.538130    1.459220   -4.582670
  C     -0.397620   -0.205870   -5.288020
  O      0.617170   -0.005350   -5.998270
  F     -1.133170   -1.221380   -5.341470
  H     -1.954890   -0.386440   -2.980990
  H     -1.346030    1.043620   -2.182690
  H     -0.286060   -0.315810   -2.468090

 Total Charge           Charge          ....    0
 Multiplicity           Mult            ....    1
 Number of Electrons    NEL             ....   40
 Basis Dimension        Dim             ....   95

ORBITAL ENERGIES
----------------

  NO   OCC          E(Eh)            E(eV)
   0   2.0000     -24.479829      -666.1300
   1   2.0000     -18.888122      -513.9719
   2   2.0000     -10.156109      -276.3618
   3   2.0000     -10.025945      -272.8198
   4   2.0000     -10.008831      -272.3541
   5   2.0000      -1.213927       -33.0326
   6   2.0000      -0.941443       -25.6180
   7   2.0000      -0.734148       -19.9772
   8   2.0000      -0.619480       -16.8569
   9   2.0000      -0.577755       -15.7215
  10   2.0000      -0.488444       -13.2912
  11   2.0000      -0.478287       -13.0149
  12   2.0000      -0.437314       -11.8999
  13   2.0000      -0.416826       -11.3424
  14   2.0000      -0.385142       -10.4803
  15   2.0000      -0.353709        -9.6249
  16   2.0000      -0.340179        -9.2567
  17   2.0000      -0.331554        -9.0221
  18   2.0000      -0.302094        -8.2204
  19   2.0000      -0.233025        -6.3409
  20   0.0000      -0.048770        -1.3271
  21   0.0000       0.044248         1.2041
  22   0.0000       0.090752         2.4695
  23   0.0000       0.099697         2.7129
  24   0.0000       0.115385         3.1398

MULLIKEN ATOMIC CHARGES
-----------------------
   0 C :   -0.006778
   1 C :   -0.083606
   2 H :    0.050213
   3 H :    0.049288
   4 C :    0.226825
   5 O :   -0.251641
   6 F :   -0.065991
   7 H :    0.026328
   8 H :    0.025345
   9 H :    0.030018
Sum of atomic charges:   -0.0000000

LOEWDIN ATOMIC CHARGES
----------------------
   0 C :   -0.038617
   1 C :   -0.064055
   2 H :    0.040663
   3 H :    0.041244
   4 C :    0.081090
   5 O :   -0.182939
   6 F :    0.053760
   7 H :    0.020130
   8 H :    0.025764
   9 H :    0.022959

  Mayer bond orders larger than 0.100000
B(  0-C ,  1-C ) :   1.0722 B(  0-C ,  7-H ) :   0.9705 B(  0-C ,  8-H ) :   0.9641
B(  0-C ,  9-H ) :   0.9776 B(  1-C ,  2-H ) :   0.9485 B(  1-C ,  3-H ) :   0.9244
B(  1-C ,  4-C ) :   1.0019 B(  4-C ,  5-O ) :   2.0656 B(  4-C ,  6-F ) :   1.1951

Dispersion correction           -0.007569406
FINAL SINGLE POINT ENERGY      -292.217909248667

DIPOLE MOMENT
-------------
                                X             Y             Z
Electronic contribution:      0.74108      -4.43918      -6.71163
Nuclear contribution   :     -1.45527       4.68977       7.53208
                        -----------------------------------------
Total Dipole Moment    :     -0.71419       0.25059       0.82045
                        -----------------------------------------
Magnitude (a.u.)       :      1.11624
Magnitude (Debye)      :      2.83726

Rotational constants in cm-1:     0.298240     0.132464     0.099915
Rotational constants in MHz :  8940.998095  3971.171647  2995.369122

                             ****ORCA TERMINATED NORMALLY****
TOTAL RUN TIME: 0 days 0 hours 0 minutes 6 seconds 214 msec
