                         Program Version 5.0.0 -  RELEASE  -
|  1> !TPSS D3BJ RIJCOSX def2-SVP def2/J TightSCF
|  2> *xyz 0 1
|  3> C          2.23447       -2.98975       -2.39762
|  4> N          2.75680       -2.94555       -3.76503
|  5> C          1.98721       -2.59045       -4.81898
|  6> C          0.74322       -3.01749       -4.91352
|  7> N          2.49964       -1.84860       -5.80324
|  8> H          3.30978       -1.29282       -5.55895
|  9> H          1.80103       -1.30430       -6.28913
| 10> H          3.71612       -2.62880       -3.82953
| 11> H          0.39583       -3.62775       -4.18502
| 12> H          0.03920       -2.45438       -5.37137
| 13> C          2.19120       -1.61950       -1.71549
| 14> H          2.87278       -3.66637       -1.82801
| 15> H          1.24619       -3.44744       -2.40784
| 16> H          1.56387       -0.96046       -2.27853
| 17> H          3.18033       -1.21449       -1.66568
| 18> H          1.79916       -1.72608       -0.72562
| 19> *
| 20>
| 21> %MaxCore 64000
| 22>
| 23> %pal nprocs 4
| 24> end
| 25>
| 26> %scf
| 27>   MaxIter 150
| 28> end
| 29>
| 30>
| 31>                          ****END OF INPUT****

CARTESIAN COORDINATES (ANGSTROEM)
---------------------------------
  C      2.234470   -2.989750   -2.397620
  N      2.756800   -2.945550   -3.765030
  C      1.987210   -2.590450   -4.818980
  C      0.743220   -3.017490   -4.913520
  N      2.499640   -1.848600   -5.803240
  H      3.309780   -1.292820   -5.558950
  H      1.801030   -1.304300   -6.289130
  H      3.716120   -2.628800   -3.829530
  H      0.395830   -3.627750   -4.185020
  H      0.039200   -2.454380   -5.371370
  C      2.191200   -1.619500   -1.715490
  H      2.872780   -3.666370   -1.828010
  H      1.246190   -3.447440   -2.407840
  H      1.563870   -0.960460   -2.278530
  H      3.180330   -1.214490   -1.665680
  H      1.799160   -1.726080   -0.725620

 Total Charge           Charge          ....    0
 Multiplicity           Mult            ....    1
 Number of Electrons    NEL             ....   48
 Basis Dimension        Dim             ....  134

ORBITAL ENERGIES
----------------

  NO   OCC          E(Eh)            E(eV)
   0   2.0000     -14.109923      -383.9505
   1   2.0000     -14.109570      -383.9409
   2   2.0000     -10.030048      -272.9315
   3   2.0000     -10.029923      -272.9281
   4   2.0000      -9.990858      -271.8651
   5   2.0000      -9.912288      -269.7271
   6   2.0000      -0.886356       -24.1190
   7   2.0000      -0.812088       -22.0980
   8   2.0000      -0.689963       -18.7748
   9   2.0000      -0.645452       -17.5636
  10   2.0000      -0.581809       -15.8318
  11   2.0000      -0.506932       -13.7943
  12   2.0000      -0.490009       -13.3338
  13   2.0000      -0.461483       -12.5576
  14   2.0000      -0.414431       -11.2772
  15   2.0000      -0.401903       -10.9363
  16   2.0000      -0.369134       -10.0447
  17   2.0000      -0.350457        -9.5364
  18   2.0000      -0.349839        -9.5196
  19   2.0000      -0.328638        -8.9427
  20   2.0000      -0.313516        -8.5312
  21   2.0000      -0.306024        -8.3273
  22   2.0000      -0.205083        -5.5806
  23   2.0000      -0.135454        -3.6859
  24   0.0000       0.028134         0.7656
  25   0.0000       0.048359         1.3159
  26   0.0000       0.067995         1.8502
  27   0.0000       0.078937         2.1480
  28   0.0000       0.099280         2.7015

MULLIKEN ATOMIC CHARGES
-----------------------
   0 C :    0.077915
   1 N :   -0.180413
   2 C :   -0.034316
   3 C :   -0.096421
   4 N :   -0.057352
   5 H :    0.081837
   6 H :    0.114748
   7 H :    0.091989
   8 H :   -0.040719
   9 H :   -0.043353
  10 C :    0.007321
  11 H :    0.009709
  12 H :    0.033269
  13 H :    0.021296
  14 H :    0.001961
  15 H :    0.012529
Sum of atomic charges:   -0.0000000

LOEWDIN ATOMIC CHARGES
----------------------
   0 C :    0.046724
   1 N :   -0.033207
   2 C :    0.012892
   3 C :   -0.219631
   4 N :   -0.015731
   5 H :    0.051871
   6 H :    0.078513
   7 H :    0.056694
   8 H :   -0.008945
   9 H :   -0.009241
  10 C :   -0.053835
  11 H :    0.014918
  12 H :    0.025751
  13 H :    0.020245
  14 H :    0.011896
  15 H :    0.021085

  Mayer bond orders larger than 0.100000
B(  0-C ,  1-N ) :   1.0120 B(  0-C , 10-C ) :   1.0956 B(  0-C , 11-H ) :   0.9522
B(  0-C , 12-H ) :   0.9474 B(  1-N ,  2-C ) :   1.1560 B(  1-N ,  7-H ) :   0.9343
B(  2-C ,  3-C ) :   1.7350 B(  2-C ,  4-N ) :   1.2159 B(  3-C ,  8-H ) :   0.9410
B(  3-C ,  9-H ) :   0.9465 B(  4-N ,  5-H ) :   0.9435 B(  4-N ,  6-H ) :   0.9441
B( 10-C , 13-H ) :   0.9676 B( 10-C , 14-H ) :   0.9686 B( 10-C , 15-H ) :   0.9594

Dispersion correction           -0.015832287
FINAL SINGLE POINT ENERGY      -267.756496803337

DIPOLE MOMENT
-------------
                                X             Y             Z
Electronic contribution:      1.55977      -1.23145      -3.91133
Nuclear contribution   :     -0.86957       2.18853       4.41892
                        -----------------------------------------
Total Dipole Moment    :      0.69021       0.95708       0.50759
                        -----------------------------------------
Magnitude (a.u.)       :      1.28454
Magnitude (Debye)      :      3.26503

Rotational constants in cm-1:     0.214718     0.075736     0.068547
Rotational constants in MHz :  6437.075121  2270.519635  2054.974198

                             ****ORCA TERMINATED NORMALLY****
TOTAL RUN TIME: 0 days 0 hours 0 minutes 9 seconds 828 msec
