                         Program Version 5.0.0 -  RELEASE  -
|  1> !TPSS D3BJ RIJCOSX def2-SVP def2/J TightSCF
|  2> *xyz 0 1
|  3> C          2.23447       -2.98975       -2.39762
|  4> N          2.75680       -2.94555       -3.76503
|  5> C          1.98721       -2.59045       -4.81898
|  6> N          0.74322       -3.01749       -4.91352
|  7> C          2.49964       -1.84860       -5.80324
|  8> H          3.30978       -1.29282       -5.55895
|  9> H          1.80103       -1.30430       -6.28913
| 10> H          3.71612       -2.62880       -3.82953
| 11> H          0.39583       -3.62775       -4.18502
| 12> H          0.03920       -2.45438       -5.37137
| 13> C          2.19120       -1.61950       -1.71549
| 14> H          2.87278       -3.66637       -1.82801
| 15> H          1.24619       -3.44744       -2.40784
| 16> H          1.56387       -0.96046       -2.27853
| 17> H          3.18033       -1.21449       -1.66568
| 18> H          1.79916       -1.72608       -0.72562
| 19> *
| 20>
| 21> %MaxCore 64000
| 22>
| 23> %pal nprocs 4
| 24> end
| 25>
| 26> %scf
| 27>   MaxIter 150
| 28> end
| 29>
| 30>
| 31>                          ****END OF INPUT****

CARTESIAN COORDINATES (ANGSTROEM)
---------------------------------
  C      2.234470   -2.989750   -2.397620
  N      2.756800   -2.945550   -3.765030
  C      1.987210   -2.590450   -4.818980
  N      0.743220   -3.017490   -4.913520
  C      2.499640   -1.848600   -5.803240
  H      3.309780   -1.292820   -5.558950
  H      1.801030   -1.304300   -6.289130
  H      3.716120   -2.628800   -3.829530
  H      0.395830   -3.627750   -4.185020
  H      0.039200   -2.454380   -5.371370
  C      2.191200   -1.619500   -1.715490
  H      2.872780   -3.666370   -1.828010
  H      1.246190   -3.447440   -2.407840
  H      1.563870   -0.960460   -2.278530
  H      3.180330   -1.214490   -1.665680
  H      1.799160   -1.726080   -0.725620

 Total Charge           Charge          ....    0
 Multiplicity           Mult            ....    1
 Number of Electrons    NEL             ....   48
 Basis Dimension        Dim             ....  134

ORBITAL ENERGIES
----------------

  NO   OCC          E(Eh)            E(eV)
   0   2.0000     -14.113202      -384.0398
   1   2.0000     -14.108355      -383.9079
   2   2.0000     -10.038439      -273.1598
   3   2.0000     -10.032557      -272.9998
   4   2.0000      -9.994613      -271.9672
   5   2.0000      -9.907161      -269.5876
   6   2.0000      -0.887802       -24.1583
   7   2.0000      -0.812027       -22.0964
   8   2.0000      -0.700909       -19.0727
   9   2.0000      -0.639913       -17.4129
  10   2.0000      -0.571606       -15.5542
  11   2.0000      -0.544064       -14.8047
  12   2.0000      -0.485915       -13.2224
  13   2.0000      -0.442587       -12.0434
  14   2.0000      -0.440727       -11.9928
  15   2.0000      -0.395172       -10.7532
  16   2.0000      -0.381580       -10.3833
  17   2.0000      -0.355897        -9.6845
  18   2.0000      -0.332976        -9.0607
  19   2.0000      -0.326555        -8.8860
  20   2.0000      -0.318174        -8.6580
  21   2.0000      -0.310372        -8.4457
  22   2.0000      -0.207220        -5.6387
  23   2.0000      -0.130798        -3.5592
  24   0.0000       0.028094         0.7645
  25   0.0000       0.044970         1.2237
  26   0.0000       0.057273         1.5585
  27   0.0000       0.076881         2.0920
  28   0.0000       0.090852         2.4722

MULLIKEN ATOMIC CHARGES
-----------------------
   0 C :    0.047938
   1 N :   -0.164789
   2 C :   -0.066177
   3 N :   -0.078927
   4 C :   -0.043389
   5 H :   -0.061337
   6 H :   -0.056841
   7 H :    0.115231
   8 H :    0.098838
   9 H :    0.125854
  10 C :    0.019597
  11 H :    0.015552
  12 H :    0.002685
  13 H :    0.021850
  14 H :    0.013334
  15 H :    0.010580
Sum of atomic charges:   -0.0000000

LOEWDIN ATOMIC CHARGES
----------------------
   0 C :    0.034693
   1 N :   -0.034910
   2 C :    0.017563
   3 N :    0.001692
   4 C :   -0.243729
   5 H :   -0.015746
   6 H :   -0.011017
   7 H :    0.076979
   8 H :    0.060272
   9 H :    0.080948
  10 C :   -0.052671
  11 H :    0.017020
  12 H :    0.010414
  13 H :    0.021078
  14 H :    0.017777
  15 H :    0.019636

  Mayer bond orders larger than 0.100000
B(  0-C ,  1-N ) :   1.0302 B(  0-C , 10-C ) :   1.0786 B(  0-C , 11-H ) :   0.9521
B(  0-C , 12-H ) :   0.9490 B(  1-N ,  2-C ) :   1.1786 B(  1-N ,  7-H ) :   0.9276
B(  2-C ,  3-N ) :   1.2205 B(  2-C ,  4-C ) :   1.7289 B(  3-N ,  8-H ) :   0.9522
B(  3-N ,  9-H ) :   0.9455 B(  4-C ,  5-H ) :   0.9379 B(  4-C ,  6-H ) :   0.9423
B( 10-C , 13-H ) :   0.9690 B( 10-C , 14-H ) :   0.9693 B( 10-C , 15-H ) :   0.9587

Dispersion correction           -0.015780591
FINAL SINGLE POINT ENERGY      -267.751966527526

DIPOLE MOMENT
-------------
                                X             Y             Z
Electronic contribution:     -0.15525      -2.44604      -3.00803
Nuclear contribution   :     -0.49695       2.43650       4.23017
                        -----------------------------------------
Total Dipole Moment    :     -0.65220      -0.00954       1.22214
                        -----------------------------------------
Magnitude (a.u.)       :      1.38531
Magnitude (Debye)      :      3.52117

Rotational constants in cm-1:     0.211102     0.077011     0.069221
Rotational constants in MHz :  6328.667765  2308.731604  2075.192956

                             ****ORCA TERMINATED NORMALLY****
TOTAL RUN TIME: 0 days 0 hours 0 minutes 9 seconds 94 msec
