                         Program Version 5.0.0 -  RELEASE  -
|  1> !TPSS D3BJ RIJCOSX def2-TZVP def2/J TightSCF xyzfile
|  2>
|  3> *xyzfile 0 1 D1.xyz
|  4>
|  5> %MaxCore 64000
|  6>
|  7> %pal nprocs 18
|  8> end
|  9>
| 10> %scf
| 11>   MaxIter 150
| 12> end
| 13>
| 14>
| 15>                          ****END OF INPUT****

CARTESIAN COORDINATES (ANGSTROEM)
---------------------------------
  C      2.234473   -2.989754   -2.397622
  C      2.756799   -2.945553   -3.765029
  C     -1.104325    0.251374   -2.860056
  C     -0.711893    0.842517   -4.218344
  H      0.154626    1.499800   -4.130909
  H     -1.538134    1.459222   -4.582671
  C     -0.397624   -0.205875   -5.288018
  C      1.987208   -2.590451   -4.818975
  N      0.743221   -3.017493   -4.913524
  N      2.499636   -1.848598   -5.803241
  H      3.309780   -1.292818   -5.558947
  H      1.801025   -1.304298   -6.289129
  H      3.716116   -2.628797   -3.829533
  H      0.395828   -3.627747   -4.185024
  H      0.039201   -2.454383   -5.371367
  F      0.617165   -0.005348   -5.998273
  O     -1.133173   -1.221380   -5.341465
  C      2.191199   -1.619503   -1.715492
  H      2.872783   -3.666368   -1.828014
  H      1.246188   -3.447444   -2.407842
  C      1.298729   -0.554314   -2.359773
  H      1.872917   -1.787955   -0.681310
  H      3.216809   -1.238432   -1.654428
  C     -0.196255   -0.863365   -2.325763
  H      1.612531   -0.371346   -3.393065
  H      1.480944    0.388638   -1.834444
  H     -0.404105   -1.761825   -2.909448
  H     -0.490439   -1.087880   -1.294131
  H     -1.143842    1.066711   -2.129680
  H     -2.114401   -0.156834   -2.930323

 Total Charge           Charge          ....    0
 Multiplicity           Mult            ....    1
 Number of Electrons    NEL             ....  102
 Basis Dimension        Dim             ....  505

ORBITAL ENERGIES
----------------

  NO   OCC          E(Eh)            E(eV)
   0   2.0000     -24.507493      -666.8828
   1   2.0000     -18.914131      -514.6797
   2   2.0000     -14.090363      -383.4183
   3   2.0000     -14.081123      -383.1668
   4   2.0000     -10.172542      -276.8089
   5   2.0000     -10.026581      -272.8371
   6   2.0000     -10.015237      -272.5285
   7   2.0000     -10.002564      -272.1836
   8   2.0000      -9.983204      -271.6568
   9   2.0000      -9.979840      -271.5653
  10   2.0000      -9.968508      -271.2569
  11   2.0000      -9.958949      -270.9968
  12   2.0000      -9.901622      -269.4368
  13   2.0000      -1.270947       -34.5842
  14   2.0000      -0.995599       -27.0916
  15   2.0000      -0.893225       -24.3059
  16   2.0000      -0.806759       -21.9530
  17   2.0000      -0.769605       -20.9420
  18   2.0000      -0.731986       -19.9184
  19   2.0000      -0.696275       -18.9466
  20   2.0000      -0.653220       -17.7750
  21   2.0000      -0.632300       -17.2058
  22   2.0000      -0.599555       -16.3147
  23   2.0000      -0.563340       -15.3293
  24   2.0000      -0.536632       -14.6025
  25   2.0000      -0.527649       -14.3581
  26   2.0000      -0.513790       -13.9809
  27   2.0000      -0.499175       -13.5832
  28   2.0000      -0.493423       -13.4267
  29   2.0000      -0.469969       -12.7885
  30   2.0000      -0.449768       -12.2388
  31   2.0000      -0.436613       -11.8809
  32   2.0000      -0.430972       -11.7273
  33   2.0000      -0.415331       -11.3017
  34   2.0000      -0.399840       -10.8802
  35   2.0000      -0.395183       -10.7535
  36   2.0000      -0.379106       -10.3160
  37   2.0000      -0.365501        -9.9458
  38   2.0000      -0.353375        -9.6158
  39   2.0000      -0.348783        -9.4909
  40   2.0000      -0.335597        -9.1321
  41   2.0000      -0.325520        -8.8578
  42   2.0000      -0.320742        -8.7278
  43   2.0000      -0.309672        -8.4266
  44   2.0000      -0.300362        -8.1733
  45   2.0000      -0.288701        -7.8559
  46   2.0000      -0.278074        -7.5668
  47   2.0000      -0.272731        -7.4214
  48   2.0000      -0.270296        -7.3551
  49   2.0000      -0.219021        -5.9599
  50   2.0000      -0.123488        -3.3603
  51   0.0000      -0.085485        -2.3262
  52   0.0000       0.010150         0.2762
  53   0.0000       0.031690         0.8623
  54   0.0000       0.035779         0.9736
  55   0.0000       0.039604         1.0777

MULLIKEN ATOMIC CHARGES
-----------------------
   0 C :   -0.196072
   1 C :   -0.272524
   2 C :   -0.127510
   3 C :   -0.182748
   4 H :    0.115482
   5 H :    0.131641
   6 C :    0.314761
   7 C :    0.082031
   8 N :   -0.389327
   9 N :   -0.380868
  10 H :    0.233430
  11 H :    0.208042
  12 H :    0.055862
  13 H :    0.228117
  14 H :    0.228331
  15 F :   -0.099584
  16 O :   -0.326758
  17 C :   -0.070360
  18 H :    0.084748
  19 H :    0.069690
  20 C :   -0.140989
  21 H :    0.064161
  22 H :    0.067081
  23 C :   -0.226919
  24 H :    0.084259
  25 H :    0.071094
  26 H :    0.092625
  27 H :    0.084667
  28 H :    0.096199
  29 H :    0.101440
Sum of atomic charges:   -0.0000000

LOEWDIN ATOMIC CHARGES
----------------------
   0 C :   -0.289193
   1 C :   -0.272547
   2 C :   -0.249341
   3 C :   -0.231934
   4 H :    0.143077
   5 H :    0.157037
   6 C :   -0.520222
   7 C :   -0.490405
   8 N :    0.026589
   9 N :   -0.008582
  10 H :    0.169844
  11 H :    0.148730
  12 H :    0.113888
  13 H :    0.171025
  14 H :    0.142253
  15 F :    0.343194
  16 O :    0.089293
  17 C :   -0.252896
  18 H :    0.136029
  19 H :    0.125454
  20 C :   -0.262813
  21 H :    0.129325
  22 H :    0.132343
  23 C :   -0.263651
  24 H :    0.132058
  25 H :    0.132794
  26 H :    0.131904
  27 H :    0.136433
  28 H :    0.138605
  29 H :    0.141710

  Mayer bond orders larger than 0.100000
B(  0-C ,  1-C ) :   1.0439 B(  0-C , 17-C ) :   0.9768 B(  0-C , 18-H ) :   0.9474
B(  0-C , 19-H ) :   0.9672 B(  1-C ,  7-C ) :   1.6854 B(  1-C , 12-H ) :   0.9979
B(  2-C ,  3-C ) :   1.0147 B(  2-C , 23-C ) :   1.0261 B(  2-C , 28-H ) :   0.9387
B(  2-C , 29-H ) :   0.9409 B(  3-C ,  4-H ) :   0.9347 B(  3-C ,  5-H ) :   0.9101
B(  3-C ,  6-C ) :   1.0467 B(  6-C , 15-F ) :   1.1112 B(  6-C , 16-O ) :   1.9464
B(  7-C ,  8-N ) :   1.2338 B(  7-C ,  9-N ) :   1.1605 B(  8-N , 13-H ) :   0.9175
B(  8-N , 14-H ) :   0.8596 B(  9-N , 10-H ) :   0.9188 B(  9-N , 11-H ) :   0.9164
B( 14-H , 16-O ) :   0.1004 B( 17-C , 20-C ) :   1.0455 B( 17-C , 21-H ) :   0.9311
B( 17-C , 22-H ) :   0.9386 B( 20-C , 23-C ) :   1.0175 B( 20-C , 24-H ) :   0.9305
B( 20-C , 25-H ) :   0.9425 B( 23-C , 26-H ) :   0.9492 B( 23-C , 27-H ) :   0.9455

Dispersion correction           -0.043940773
FINAL SINGLE POINT ENERGY      -638.080968356590

DIPOLE MOMENT
-------------
                                X             Y             Z
Electronic contribution:     -2.98596       2.09295     -14.57543
Nuclear contribution   :      2.31842      -0.27661      14.74721
                        -----------------------------------------
Total Dipole Moment    :     -0.66753       1.81635       0.17178
                        -----------------------------------------
Magnitude (a.u.)       :      1.94274
Magnitude (Debye)      :      4.93804

Rotational constants in cm-1:     0.032691     0.023990     0.017099
Rotational constants in MHz :   980.050971   719.190545   512.606858

                             ****ORCA TERMINATED NORMALLY****
TOTAL RUN TIME: 0 days 0 hours 0 minutes 25 seconds 133 msec
