                         Program Version 5.0.0 -  RELEASE  -
|  1> !TPSS D3BJ RIJCOSX def2-TZVP def2/J TightSCF xyzfile
|  2>
|  3> *xyzfile 0 1 D2.xyz
|  4>
|  5> %MaxCore 64000
|  6>
|  7> %pal nprocs 18
|  8> end
|  9>
| 10> %scf
| 11>   MaxIter 150
| 12> end
| 13>
| 14>
| 15>                          ****END OF INPUT****

CARTESIAN COORDINATES (ANGSTROEM)
---------------------------------
  C      2.234473   -2.989754   -2.397622
  N      2.756799   -2.945553   -3.765029
  C     -1.104325    0.251374   -2.860056
  C     -0.711893    0.842517   -4.218344
  H      0.154626    1.499800   -4.130909
  H     -1.538134    1.459222   -4.582671
  C     -0.397624   -0.205875   -5.288018
  C      1.987208   -2.590451   -4.818975
  C      0.743221   -3.017493   -4.913524
  N      2.499636   -1.848598   -5.803241
  H      3.309780   -1.292818   -5.558947
  H      1.801025   -1.304298   -6.289129
  H      3.716116   -2.628797   -3.829533
  H      0.395828   -3.627747   -4.185024
  H      0.039201   -2.454383   -5.371367
  F      0.617165   -0.005348   -5.998273
  O     -1.133173   -1.221380   -5.341465
  C      2.191199   -1.619503   -1.715492
  H      2.872783   -3.666368   -1.828014
  H      1.246188   -3.447444   -2.407842
  C      1.298729   -0.554314   -2.359773
  H      1.872917   -1.787955   -0.681310
  H      3.216809   -1.238432   -1.654428
  C     -0.196255   -0.863365   -2.325763
  H      1.612531   -0.371346   -3.393065
  H      1.480944    0.388638   -1.834444
  H     -0.404105   -1.761825   -2.909448
  H     -0.490439   -1.087880   -1.294131
  H     -1.143842    1.066711   -2.129680
  H     -2.114401   -0.156834   -2.930323

 Total Charge           Charge          ....    0
 Multiplicity           Mult            ....    1
 Number of Electrons    NEL             ....  102
 Basis Dimension        Dim             ....  505

ORBITAL ENERGIES
----------------

  NO   OCC          E(Eh)            E(eV)
   0   2.0000     -24.493378      -666.4987
   1   2.0000     -18.892647      -514.0951
   2   2.0000     -14.093298      -383.4981
   3   2.0000     -14.086301      -383.3077
   4   2.0000     -10.157232      -276.3923
   5   2.0000     -10.018318      -272.6123
   6   2.0000     -10.012732      -272.4603
   7   2.0000     -10.008374      -272.3417
   8   2.0000      -9.997569      -272.0477
   9   2.0000      -9.986314      -271.7414
  10   2.0000      -9.985897      -271.7301
  11   2.0000      -9.979785      -271.5638
  12   2.0000      -9.879978      -268.8479
  13   2.0000      -1.256896       -34.2019
  14   2.0000      -0.974464       -26.5165
  15   2.0000      -0.892345       -24.2819
  16   2.0000      -0.819431       -22.2979
  17   2.0000      -0.763843       -20.7852
  18   2.0000      -0.727471       -19.7955
  19   2.0000      -0.679063       -18.4783
  20   2.0000      -0.651992       -17.7416
  21   2.0000      -0.635721       -17.2989
  22   2.0000      -0.607425       -16.5289
  23   2.0000      -0.568531       -15.4705
  24   2.0000      -0.535904       -14.5827
  25   2.0000      -0.514280       -13.9943
  26   2.0000      -0.498487       -13.5645
  27   2.0000      -0.489088       -13.3087
  28   2.0000      -0.484794       -13.1919
  29   2.0000      -0.474677       -12.9166
  30   2.0000      -0.449106       -12.2208
  31   2.0000      -0.436878       -11.8880
  32   2.0000      -0.426720       -11.6116
  33   2.0000      -0.406554       -11.0629
  34   2.0000      -0.400931       -10.9099
  35   2.0000      -0.383368       -10.4320
  36   2.0000      -0.372378       -10.1329
  37   2.0000      -0.365270        -9.9395
  38   2.0000      -0.352722        -9.5980
  39   2.0000      -0.344864        -9.3842
  40   2.0000      -0.335730        -9.1357
  41   2.0000      -0.328820        -8.9476
  42   2.0000      -0.319244        -8.6871
  43   2.0000      -0.317231        -8.6323
  44   2.0000      -0.304306        -8.2806
  45   2.0000      -0.296844        -8.0775
  46   2.0000      -0.285075        -7.7573
  47   2.0000      -0.284312        -7.7365
  48   2.0000      -0.242438        -6.5971
  49   2.0000      -0.204382        -5.5615
  50   2.0000      -0.132512        -3.6058
  51   0.0000      -0.069493        -1.8910
  52   0.0000       0.008487         0.2309
  53   0.0000       0.025026         0.6810
  54   0.0000       0.034278         0.9327
  55   0.0000       0.042237         1.1493

MULLIKEN ATOMIC CHARGES
-----------------------
   0 C :   -0.129970
   1 N :   -0.272171
   2 C :   -0.128598
   3 C :   -0.183004
   4 H :    0.107495
   5 H :    0.128290
   6 C :    0.312756
   7 C :    0.153876
   8 C :   -0.468329
   9 N :   -0.398440
  10 H :    0.192223
  11 H :    0.227595
  12 H :    0.179791
  13 H :    0.072417
  14 H :    0.148153
  15 F :   -0.109376
  16 O :   -0.288351
  17 C :   -0.150573
  18 H :    0.107907
  19 H :    0.127274
  20 C :   -0.133298
  21 H :    0.074966
  22 H :    0.080120
  23 C :   -0.217034
  24 H :    0.087491
  25 H :    0.075028
  26 H :    0.134864
  27 H :    0.076653
  28 H :    0.092031
  29 H :    0.100212
Sum of atomic charges:    0.0000000

LOEWDIN ATOMIC CHARGES
----------------------
   0 C :   -0.275681
   1 N :    0.111116
   2 C :   -0.249112
   3 C :   -0.233477
   4 H :    0.139864
   5 H :    0.155664
   6 C :   -0.516668
   7 C :   -0.497655
   8 C :   -0.300139
   9 N :   -0.017159
  10 H :    0.147158
  11 H :    0.162079
  12 H :    0.169518
  13 H :    0.095118
  14 H :    0.094201
  15 F :    0.339904
  16 O :    0.112006
  17 C :   -0.265167
  18 H :    0.128738
  19 H :    0.136486
  20 C :   -0.263255
  21 H :    0.135465
  22 H :    0.129956
  23 C :   -0.262333
  24 H :    0.133416
  25 H :    0.133143
  26 H :    0.143156
  27 H :    0.134179
  28 H :    0.136637
  29 H :    0.142844

  Mayer bond orders larger than 0.100000
B(  0-C ,  1-N ) :   0.9595 B(  0-C , 17-C ) :   1.0209 B(  0-C , 18-H ) :   0.9555
B(  0-C , 19-H ) :   0.9636 B(  1-N ,  7-C ) :   1.1325 B(  1-N , 12-H ) :   0.9201
B(  2-C ,  3-C ) :   1.0196 B(  2-C , 23-C ) :   1.0314 B(  2-C , 28-H ) :   0.9401
B(  2-C , 29-H ) :   0.9380 B(  3-C ,  4-H ) :   0.9353 B(  3-C ,  5-H ) :   0.9128
B(  3-C ,  6-C ) :   1.0396 B(  6-C , 15-F ) :   1.0965 B(  6-C , 16-O ) :   2.0102
B(  7-C ,  8-C ) :   1.6374 B(  7-C ,  9-N ) :   1.1697 B(  8-C , 13-H ) :   1.0048
B(  8-C , 14-H ) :   0.9643 B(  9-N , 10-H ) :   0.9200 B(  9-N , 11-H ) :   0.9064
B( 17-C , 20-C ) :   1.0196 B( 17-C , 21-H ) :   0.9360 B( 17-C , 22-H ) :   0.9494
B( 20-C , 23-C ) :   1.0135 B( 20-C , 24-H ) :   0.9364 B( 20-C , 25-H ) :   0.9442
B( 23-C , 26-H ) :   0.9455 B( 23-C , 27-H ) :   0.9436

Dispersion correction           -0.044017237
FINAL SINGLE POINT ENERGY      -638.062669668403

DIPOLE MOMENT
-------------
                                X             Y             Z
Electronic contribution:     -1.46089       2.09962     -13.60656
Nuclear contribution   :      2.00823      -0.28769      14.57028
                        -----------------------------------------
Total Dipole Moment    :      0.54733       1.81193       0.96372
                        -----------------------------------------
Magnitude (a.u.)       :      2.12401
Magnitude (Debye)      :      5.39881

Rotational constants in cm-1:     0.033070     0.023715     0.016943
Rotational constants in MHz :   991.423248   710.957140   507.940500

                             ****ORCA TERMINATED NORMALLY****
TOTAL RUN TIME: 0 days 0 hours 0 minutes 28 seconds 951 msec
