                         Program Version 5.0.0 -  RELEASE  -
|  1> !TPSS D3BJ RIJCOSX def2-TZVP def2/J TightSCF xyzfile
|  2>
|  3> *xyzfile 0 1 D3.xyz
|  4>
|  5> %MaxCore 64000
|  6>
|  7> %pal nprocs 18
|  8> end
|  9>
| 10> %scf
| 11>   MaxIter 150
| 12> end
| 13>
| 14>
| 15>                          ****END OF INPUT****

CARTESIAN COORDINATES (ANGSTROEM)
---------------------------------
  C      2.234473   -2.989754   -2.397622
  N      2.756799   -2.945553   -3.765029
  C     -1.104325    0.251374   -2.860056
  C     -0.711893    0.842517   -4.218344
  H      0.154626    1.499800   -4.130909
  H     -1.538134    1.459222   -4.582671
  C     -0.397624   -0.205875   -5.288018
  C      1.987208   -2.590451   -4.818975
  N      0.743221   -3.017493   -4.913524
  C      2.499636   -1.848598   -5.803241
  H      3.309780   -1.292818   -5.558947
  H      1.801025   -1.304298   -6.289129
  H      3.716116   -2.628797   -3.829533
  H      0.395828   -3.627747   -4.185024
  H      0.039201   -2.454383   -5.371367
  F      0.617165   -0.005348   -5.998273
  O     -1.133173   -1.221380   -5.341465
  C      2.191199   -1.619503   -1.715492
  H      2.872783   -3.666368   -1.828014
  H      1.246188   -3.447444   -2.407842
  C      1.298729   -0.554314   -2.359773
  H      1.872917   -1.787955   -0.681310
  H      3.216809   -1.238432   -1.654428
  C     -0.196255   -0.863365   -2.325763
  H      1.612531   -0.371346   -3.393065
  H      1.480944    0.388638   -1.834444
  H     -0.404105   -1.761825   -2.909448
  H     -0.490439   -1.087880   -1.294131
  H     -1.143842    1.066711   -2.129680
  H     -2.114401   -0.156834   -2.930323

 Total Charge           Charge          ....    0
 Multiplicity           Mult            ....    1
 Number of Electrons    NEL             ....  102
 Basis Dimension        Dim             ....  505

ORBITAL ENERGIES
----------------

  NO   OCC          E(Eh)            E(eV)
   0   2.0000     -24.487617      -666.3419
   1   2.0000     -18.906656      -514.4763
   2   2.0000     -14.092841      -383.4857
   3   2.0000     -14.077113      -383.0577
   4   2.0000     -10.167945      -276.6838
   5   2.0000     -10.023683      -272.7583
   6   2.0000     -10.019472      -272.6437
   7   2.0000     -10.012648      -272.4580
   8   2.0000     -10.004338      -272.2319
   9   2.0000      -9.989137      -271.8182
  10   2.0000      -9.989027      -271.8152
  11   2.0000      -9.988486      -271.8005
  12   2.0000      -9.883132      -268.9337
  13   2.0000      -1.252065       -34.0704
  14   2.0000      -0.988719       -26.9044
  15   2.0000      -0.891458       -24.2578
  16   2.0000      -0.814747       -22.1704
  17   2.0000      -0.770421       -20.9642
  18   2.0000      -0.732987       -19.9456
  19   2.0000      -0.688847       -18.7445
  20   2.0000      -0.654529       -17.8106
  21   2.0000      -0.632304       -17.2059
  22   2.0000      -0.599165       -16.3041
  23   2.0000      -0.568080       -15.4583
  24   2.0000      -0.544403       -14.8140
  25   2.0000      -0.532119       -14.4797
  26   2.0000      -0.504052       -13.7160
  27   2.0000      -0.486607       -13.2412
  28   2.0000      -0.481903       -13.1133
  29   2.0000      -0.478641       -13.0245
  30   2.0000      -0.448130       -12.1942
  31   2.0000      -0.436663       -11.8822
  32   2.0000      -0.431332       -11.7371
  33   2.0000      -0.419686       -11.4202
  34   2.0000      -0.404662       -11.0114
  35   2.0000      -0.394299       -10.7294
  36   2.0000      -0.371624       -10.1124
  37   2.0000      -0.367418        -9.9980
  38   2.0000      -0.351741        -9.5714
  39   2.0000      -0.341664        -9.2972
  40   2.0000      -0.339035        -9.2256
  41   2.0000      -0.332229        -9.0404
  42   2.0000      -0.322822        -8.7844
  43   2.0000      -0.316997        -8.6259
  44   2.0000      -0.307816        -8.3761
  45   2.0000      -0.301152        -8.1948
  46   2.0000      -0.293645        -7.9905
  47   2.0000      -0.290664        -7.9094
  48   2.0000      -0.266705        -7.2574
  49   2.0000      -0.202112        -5.4998
  50   2.0000      -0.129982        -3.5370
  51   0.0000      -0.078721        -2.1421
  52   0.0000       0.011122         0.3026
  53   0.0000       0.026427         0.7191
  54   0.0000       0.029065         0.7909
  55   0.0000       0.041839         1.1385

MULLIKEN ATOMIC CHARGES
-----------------------
   0 C :   -0.168528
   1 N :   -0.258697
   2 C :   -0.131889
   3 C :   -0.183194
   4 H :    0.118067
   5 H :    0.130660
   6 C :    0.327186
   7 C :    0.127360
   8 N :   -0.408056
   9 C :   -0.383893
  10 H :    0.061938
  11 H :    0.062922
  12 H :    0.207974
  13 H :    0.206973
  14 H :    0.245939
  15 F :   -0.062213
  16 O :   -0.337366
  17 C :   -0.127100
  18 H :    0.115596
  19 H :    0.102731
  20 C :   -0.160420
  21 H :    0.071548
  22 H :    0.086855
  23 C :   -0.215006
  24 H :    0.122271
  25 H :    0.078071
  26 H :    0.089713
  27 H :    0.082094
  28 H :    0.096505
  29 H :    0.101960
Sum of atomic charges:    0.0000000

LOEWDIN ATOMIC CHARGES
----------------------
   0 C :   -0.290699
   1 N :    0.113392
   2 C :   -0.248858
   3 C :   -0.229448
   4 H :    0.144244
   5 H :    0.157144
   6 C :   -0.506530
   7 C :   -0.492952
   8 N :    0.026546
   9 C :   -0.353002
  10 H :    0.090484
  11 H :    0.091970
  12 H :    0.186760
  13 H :    0.155274
  14 H :    0.154045
  15 F :    0.364182
  16 O :    0.085373
  17 C :   -0.264486
  18 H :    0.130059
  19 H :    0.124939
  20 C :   -0.262222
  21 H :    0.134405
  22 H :    0.133607
  23 C :   -0.265504
  24 H :    0.139985
  25 H :    0.134693
  26 H :    0.131029
  27 H :    0.134891
  28 H :    0.138362
  29 H :    0.142319

  Mayer bond orders larger than 0.100000
B(  0-C ,  1-N ) :   0.9865 B(  0-C , 17-C ) :   1.0050 B(  0-C , 18-H ) :   0.9580
B(  0-C , 19-H ) :   0.9736 B(  1-N ,  7-C ) :   1.1926 B(  1-N , 12-H ) :   0.9157
B(  2-C ,  3-C ) :   1.0157 B(  2-C , 23-C ) :   1.0336 B(  2-C , 28-H ) :   0.9399
B(  2-C , 29-H ) :   0.9403 B(  3-C ,  4-H ) :   0.9369 B(  3-C ,  5-H ) :   0.9101
B(  3-C ,  6-C ) :   1.0432 B(  6-C , 15-F ) :   1.1722 B(  6-C , 16-O ) :   1.9377
B(  7-C ,  8-N ) :   1.1682 B(  7-C ,  9-C ) :   1.6904 B(  8-N , 13-H ) :   0.9243
B(  8-N , 14-H ) :   0.8558 B(  9-C , 10-H ) :   0.9883 B(  9-C , 11-H ) :   0.9940
B( 14-H , 16-O ) :   0.1025 B( 17-C , 20-C ) :   1.0135 B( 17-C , 21-H ) :   0.9339
B( 17-C , 22-H ) :   0.9458 B( 20-C , 23-C ) :   1.0139 B( 20-C , 24-H ) :   0.9367
B( 20-C , 25-H ) :   0.9406 B( 23-C , 26-H ) :   0.9477 B( 23-C , 27-H ) :   0.9425

Dispersion correction           -0.043861623
FINAL SINGLE POINT ENERGY      -638.067944864227

DIPOLE MOMENT
-------------
                                X             Y             Z
Electronic contribution:     -2.85320       1.27563     -12.81356
Nuclear contribution   :      2.27881      -0.10762      14.43322
                        -----------------------------------------
Total Dipole Moment    :     -0.57439       1.16801       1.61965
                        -----------------------------------------
Magnitude (a.u.)       :      2.07785
Magnitude (Debye)      :      5.28147

Rotational constants in cm-1:     0.033336     0.023673     0.017062
Rotational constants in MHz :   999.388459   709.685364   511.514310

                             ****ORCA TERMINATED NORMALLY****
TOTAL RUN TIME: 0 days 0 hours 0 minutes 27 seconds 568 msec
