                         Program Version 5.0.0 -  RELEASE  -
|  1> !LC-BLYP RIJCOSX def2-TZVPD def2/J TightSCF
|  2> *xyz -1 1
|  3> C         -0.87096        0.24804       -2.66280
|  4> C         -0.47749        0.60819       -4.10105
|  5> H          0.20677        1.45830       -4.11875
|  6> H         -1.36844        0.92942       -4.64785
|  7> C          0.18467       -0.50664       -4.91676
|  8> O         -0.15869       -1.70109       -4.65798
|  9> O          1.05594       -0.17441       -5.74037
| 10> H         -1.54056       -0.58646       -2.67455
| 11> H         -1.35339        1.08600       -2.20455
| 12> H          0.00660       -0.00662       -2.10609
| 13> *
| 14>
| 15> %MaxCore 64000
| 16>
| 17> %pal nprocs 4
| 18> end
| 19>
| 20> %scf
| 21>   MaxIter 150
| 22> end
| 23>
| 24>
| 25>                          ****END OF INPUT****

CARTESIAN COORDINATES (ANGSTROEM)
---------------------------------
  C     -0.870960    0.248040   -2.662800
  C     -0.477490    0.608190   -4.101050
  H      0.206770    1.458300   -4.118750
  H     -1.368440    0.929420   -4.647850
  C      0.184670   -0.506640   -4.916760
  O     -0.158690   -1.701090   -4.657980
  O      1.055940   -0.174410   -5.740370
  H     -1.540560   -0.586460   -2.674550
  H     -1.353390    1.086000   -2.204550
  H      0.006600   -0.006620   -2.106090

 Total Charge           Charge          ....   -1
 Multiplicity           Mult            ....    1
 Number of Electrons    NEL             ....   40
 Basis Dimension        Dim             ....  236

ORBITAL ENERGIES
----------------

  NO   OCC          E(Eh)            E(eV)
   0   2.0000     -18.677473      -508.2399
   1   2.0000     -18.673734      -508.1381
   2   2.0000      -9.956224      -270.9226
   3   2.0000      -9.903514      -269.4883
   4   2.0000      -9.896978      -269.3105
   5   2.0000      -0.915762       -24.9192
   6   2.0000      -0.820416       -22.3247
   7   2.0000      -0.714801       -19.4507
   8   2.0000      -0.585092       -15.9212
   9   2.0000      -0.425307       -11.5732
  10   2.0000      -0.401663       -10.9298
  11   2.0000      -0.364769        -9.9259
  12   2.0000      -0.334994        -9.1156
  13   2.0000      -0.319928        -8.7057
  14   2.0000      -0.309845        -8.4313
  15   2.0000      -0.280228        -7.6254
  16   2.0000      -0.263521        -7.1708
  17   2.0000      -0.149336        -4.0636
  18   2.0000      -0.142989        -3.8909
  19   2.0000      -0.129154        -3.5144
  20   0.0000       0.175879         4.7859
  21   0.0000       0.196777         5.3546
  22   0.0000       0.206038         5.6066
  23   0.0000       0.224427         6.1070
  24   0.0000       0.239428         6.5152

MULLIKEN ATOMIC CHARGES
-----------------------
   0 C :   -1.196784
   1 C :   -0.422180
   2 H :    0.319264
   3 H :    0.273146
   4 C :    0.293689
   5 O :   -0.674986
   6 O :   -0.654822
   7 H :    0.323939
   8 H :    0.402761
   9 H :    0.335974
Sum of atomic charges:   -1.0000000

LOEWDIN ATOMIC CHARGES
----------------------
   0 C :   -0.147205
   1 C :   -0.224144
   2 H :    0.093300
   3 H :    0.100878
   4 C :   -0.799095
   5 O :   -0.104224
   6 O :   -0.086588
   7 H :    0.056746
   8 H :    0.046793
   9 H :    0.063538

  Mayer bond orders larger than 0.100000
B(  0-C ,  1-C ) :   0.4429 B(  0-C ,  7-H ) :   0.9883 B(  0-C ,  8-H ) :   0.8804
B(  0-C ,  9-H ) :   0.9472 B(  1-C ,  2-H ) :   0.9733 B(  1-C ,  3-H ) :   0.9555
B(  1-C ,  4-C ) :   0.9228 B(  4-C ,  5-O ) :   1.5069 B(  4-C ,  6-O ) :   1.5277

FINAL SINGLE POINT ENERGY      -267.354727552255

DIPOLE MOMENT
-------------
                                X             Y             Z
Electronic contribution:      2.60190      -2.87044      -4.52278
Nuclear contribution   :     -3.54611       4.15440       5.90446
                        -----------------------------------------
Total Dipole Moment    :     -0.94422       1.28396       1.38169
                        -----------------------------------------
Magnitude (a.u.)       :      2.10930
Magnitude (Debye)      :      5.36142

Rotational constants in cm-1:     0.332789     0.132085     0.101080
Rotational constants in MHz :  9976.755824  3959.803182  3030.288811

                             ****ORCA TERMINATED NORMALLY****
TOTAL RUN TIME: 0 days 0 hours 0 minutes 28 seconds 994 msec
