                         Program Version 5.0.0 -  RELEASE  -
|  1> !LC-BLYP RIJCOSX def2-TZVPD def2/J TightSCF
|  2> *xyz 1 1
|  3> C          2.48645       -2.67712       -2.56345
|  4> C          3.03764       -2.36672       -3.92351
|  5> N          2.28036       -2.45441       -4.96769
|  6> N          4.32174       -2.01793       -4.01664
|  7> H          4.87994       -1.91167       -3.17382
|  8> H          4.71015       -1.67088       -4.88356
|  9> H          1.27042       -2.41265       -4.86614
| 10> H          2.58183       -2.05528       -5.84688
| 11> C          2.49799       -1.46946       -1.61030
| 12> H          1.47259       -3.05153       -2.69437
| 13> H          3.08320       -3.49064       -2.14147
| 14> H          1.91240       -0.67831       -2.02991
| 15> H          3.50450       -1.13364       -1.47227
| 16> H          2.08509       -1.75655       -0.66585
| 17> *
| 18>
| 19> %MaxCore 64000
| 20>
| 21> %pal nprocs 4
| 22> end
| 23>
| 24> %scf
| 25>   MaxIter 150
| 26> end
| 27>
| 28>
| 29>                          ****END OF INPUT****

CARTESIAN COORDINATES (ANGSTROEM)
---------------------------------
  C      2.486450   -2.677120   -2.563450
  C      3.037640   -2.366720   -3.923510
  N      2.280360   -2.454410   -4.967690
  N      4.321740   -2.017930   -4.016640
  H      4.879940   -1.911670   -3.173820
  H      4.710150   -1.670880   -4.883560
  H      1.270420   -2.412650   -4.866140
  H      2.581830   -2.055280   -5.846880
  C      2.497990   -1.469460   -1.610300
  H      1.472590   -3.051530   -2.694370
  H      3.083200   -3.490640   -2.141470
  H      1.912400   -0.678310   -2.029910
  H      3.504500   -1.133640   -1.472270
  H      2.085090   -1.756550   -0.665850

 Total Charge           Charge          ....    1
 Multiplicity           Mult            ....    1
 Number of Electrons    NEL             ....   40
 Basis Dimension        Dim             ....  266

ORBITAL ENERGIES
----------------

  NO   OCC          E(Eh)            E(eV)
   0   2.0000     -14.419177      -392.3657
   1   2.0000     -14.413575      -392.2133
   2   2.0000     -10.396394      -282.9003
   3   2.0000     -10.267478      -279.3923
   4   2.0000     -10.224532      -278.2237
   5   2.0000      -1.309789       -35.6412
   6   2.0000      -1.212255       -32.9871
   7   2.0000      -1.079327       -29.3700
   8   2.0000      -0.972956       -26.4755
   9   2.0000      -0.923247       -25.1228
  10   2.0000      -0.879766       -23.9397
  11   2.0000      -0.855631       -23.2829
  12   2.0000      -0.802552       -21.8385
  13   2.0000      -0.762031       -20.7359
  14   2.0000      -0.727169       -19.7873
  15   2.0000      -0.714038       -19.4300
  16   2.0000      -0.649036       -17.6612
  17   2.0000      -0.638085       -17.3632
  18   2.0000      -0.627130       -17.0651
  19   2.0000      -0.595431       -16.2025
  20   0.0000      -0.136295        -3.7088
  21   0.0000      -0.113124        -3.0783
  22   0.0000      -0.074126        -2.0171
  23   0.0000      -0.069232        -1.8839
  24   0.0000      -0.048131        -1.3097

MULLIKEN ATOMIC CHARGES
-----------------------
   0 C :   -0.803283
   1 C :    0.634200
   2 N :   -0.299800
   3 N :   -0.314767
   4 H :    0.246597
   5 H :    0.221537
   6 H :    0.268773
   7 H :    0.251373
   8 C :   -1.217226
   9 H :    0.407028
  10 H :    0.393020
  11 H :    0.392157
  12 H :    0.406539
  13 H :    0.413851
Sum of atomic charges:    1.0000000

LOEWDIN ATOMIC CHARGES
----------------------
   0 C :   -0.157967
   1 C :   -0.373262
   2 N :    0.237924
   3 N :    0.232352
   4 H :    0.145993
   5 H :    0.145390
   6 H :    0.156608
   7 H :    0.150711
   8 C :   -0.065527
   9 H :    0.129006
  10 H :    0.144060
  11 H :    0.088720
  12 H :    0.074383
  13 H :    0.091610

  Mayer bond orders larger than 0.100000
B(  0-C ,  1-C ) :   0.6444 B(  0-C ,  8-C ) :   0.4890 B(  0-C ,  9-H ) :   0.8954
B(  0-C , 10-H ) :   0.9436 B(  1-C ,  2-N ) :   1.2508 B(  1-C ,  3-N ) :   1.1184
B(  2-N ,  6-H ) :   0.9194 B(  2-N ,  7-H ) :   0.9592 B(  3-N ,  4-H ) :   0.9433
B(  3-N ,  5-H ) :   0.9991 B(  8-C , 11-H ) :   0.9390 B(  8-C , 12-H ) :   0.8564
B(  8-C , 13-H ) :   0.9285

FINAL SINGLE POINT ENERGY      -228.505750898194

DIPOLE MOMENT
-------------
                                X             Y             Z
Electronic contribution:      1.05253      -1.07517      -3.91307
Nuclear contribution   :     -0.84604       1.34287       2.92710
                        -----------------------------------------
Total Dipole Moment    :      0.20649       0.26770      -0.98597
                        -----------------------------------------
Magnitude (a.u.)       :      1.04233
Magnitude (Debye)      :      2.64938

Rotational constants in cm-1:     0.265816     0.126189     0.097583
Rotational constants in MHz :  7968.948902  3783.040103  2925.457702

                             ****ORCA TERMINATED NORMALLY****
TOTAL RUN TIME: 0 days 0 hours 0 minutes 45 seconds 396 msec
