                         Program Version 5.0.0 -  RELEASE  -
|  1> !LC-BLYP RIJCOSX def2-TZVPD def2/J TightSCF xyzfile
|  2>
|  3> *xyzfile 0 1 B.xyz
|  4>
|  5> %MaxCore 64000
|  6>
|  7> %pal nprocs 4
|  8> end
|  9>
| 10> %scf
| 11>   MaxIter 150
| 12> end
| 13>
| 14>
| 15>                          ****END OF INPUT****

CARTESIAN COORDINATES (ANGSTROEM)
---------------------------------
  C      2.486452   -2.677121   -2.563447
  C     -0.870963    0.248043   -2.662804
  C     -0.477492    0.608191   -4.101052
  H      0.206773    1.458299   -4.118748
  H     -1.368442    0.929419   -4.647855
  C      0.184673   -0.506640   -4.916760
  C      3.037640   -2.366715   -3.923509
  N      2.280360   -2.454408   -4.967692
  N      4.321736   -2.017932   -4.016641
  H      4.879940   -1.911668   -3.173823
  H      4.710148   -1.670882   -4.883561
  H      1.270423   -2.412650   -4.866143
  H      2.581829   -2.055282   -5.846878
  O     -0.158685   -1.701088   -4.657981
  O      1.055938   -0.174410   -5.740373
  C      2.497991   -1.469464   -1.610303
  C      1.582841   -0.321986   -2.042619
  H      2.193083   -1.833912   -0.625420
  H      3.523356   -1.103982   -1.490392
  C      0.100160   -0.673551   -1.915815
  H      1.822311   -0.040361   -3.072834
  H      1.813180    0.557019   -1.433266
  H     -0.063284   -1.679120   -2.301112
  H     -0.168820   -0.691680   -0.853831
  H     -1.001048    1.181040   -2.104071
  H     -1.844645   -0.246592   -2.663281
  H      1.472592   -3.051527   -2.694366
  H      3.083201   -3.490638   -2.141472

 Total Charge           Charge          ....    0
 Multiplicity           Mult            ....    1
 Number of Electrons    NEL             ....   94
 Basis Dimension        Dim             ....  594

ORBITAL ENERGIES
----------------

  NO   OCC          E(Eh)            E(eV)
   0   2.0000     -18.851258      -512.9688
   1   2.0000     -18.845043      -512.7997
   2   2.0000     -14.253223      -387.8499
   3   2.0000     -14.216396      -386.8478
   4   2.0000     -10.221913      -278.1524
   5   2.0000     -10.122787      -275.4550
   6   2.0000     -10.113963      -275.2149
   7   2.0000     -10.095824      -274.7213
   8   2.0000     -10.065320      -273.8913
   9   2.0000     -10.047044      -273.3940
  10   2.0000     -10.042796      -273.2784
  11   2.0000     -10.031554      -272.9725
  12   2.0000      -1.135213       -30.8907
  13   2.0000      -1.094381       -29.7796
  14   2.0000      -1.035187       -28.1689
  15   2.0000      -0.997786       -27.1511
  16   2.0000      -0.942768       -25.6540
  17   2.0000      -0.888772       -24.1847
  18   2.0000      -0.843971       -22.9656
  19   2.0000      -0.787533       -21.4299
  20   2.0000      -0.768647       -20.9159
  21   2.0000      -0.725795       -19.7499
  22   2.0000      -0.713628       -19.4188
  23   2.0000      -0.686018       -18.6675
  24   2.0000      -0.664323       -18.0772
  25   2.0000      -0.629809       -17.1380
  26   2.0000      -0.609871       -16.5954
  27   2.0000      -0.585893       -15.9429
  28   2.0000      -0.565086       -15.3768
  29   2.0000      -0.559645       -15.2287
  30   2.0000      -0.551237       -14.9999
  31   2.0000      -0.528508       -14.3814
  32   2.0000      -0.516191       -14.0463
  33   2.0000      -0.512204       -13.9378
  34   2.0000      -0.495519       -13.4837
  35   2.0000      -0.482622       -13.1328
  36   2.0000      -0.471911       -12.8414
  37   2.0000      -0.458110       -12.4658
  38   2.0000      -0.451634       -12.2896
  39   2.0000      -0.435980       -11.8636
  40   2.0000      -0.422538       -11.4978
  41   2.0000      -0.412072       -11.2131
  42   2.0000      -0.404042       -10.9945
  43   2.0000      -0.393699       -10.7131
  44   2.0000      -0.326587        -8.8869
  45   2.0000      -0.312643        -8.5074
  46   2.0000      -0.301973        -8.2171
  47   0.0000       0.017990         0.4895
  48   0.0000       0.029888         0.8133
  49   0.0000       0.051456         1.4002
  50   0.0000       0.062447         1.6993
  51   0.0000       0.067794         1.8448

MULLIKEN ATOMIC CHARGES
-----------------------
   0 C :   -0.926687
   1 C :   -0.830533
   2 C :   -0.747288
   3 H :    0.372765
   4 H :    0.407479
   5 C :    0.494940
   6 C :    0.480726
   7 N :   -0.294526
   8 N :   -0.363622
   9 H :    0.210682
  10 H :    0.207702
  11 H :    0.301138
  12 H :    0.228067
  13 O :   -0.760320
  14 O :   -0.685178
  15 C :   -0.749696
  16 C :   -0.652194
  17 H :    0.417241
  18 H :    0.414871
  19 C :   -0.723933
  20 H :    0.368537
  21 H :    0.382082
  22 H :    0.355142
  23 H :    0.453676
  24 H :    0.406731
  25 H :    0.403084
  26 H :    0.420445
  27 H :    0.408668
Sum of atomic charges:   -0.0000000

LOEWDIN ATOMIC CHARGES
----------------------
   0 C :   -0.114557
   1 C :   -0.208484
   2 C :   -0.141527
   3 H :    0.112996
   4 H :    0.122259
   5 C :   -0.718087
   6 C :   -0.377644
   7 N :    0.238258
   8 N :    0.198635
   9 H :    0.125970
  10 H :    0.131990
  11 H :    0.044913
  12 H :    0.134471
  13 O :   -0.056803
  14 O :   -0.027670
  15 C :   -0.199216
  16 C :   -0.203328
  17 H :    0.123250
  18 H :    0.107239
  19 C :   -0.224925
  20 H :    0.111167
  21 H :    0.124667
  22 H :    0.093359
  23 H :    0.118903
  24 H :    0.111425
  25 H :    0.114508
  26 H :    0.124220
  27 H :    0.134011

  Mayer bond orders larger than 0.100000
B(  0-C ,  6-C ) :   0.6600 B(  0-C ,  8-N ) :   0.1081 B(  0-C , 15-C ) :   0.5876
B(  0-C , 16-C ) :  -0.1127 B(  0-C , 26-H ) :   0.8809 B(  0-C , 27-H ) :   0.9864
B(  1-C ,  2-C ) :   0.5242 B(  1-C , 19-C ) :   0.7526 B(  1-C , 24-H ) :   0.9395
B(  1-C , 25-H ) :   0.9320 B(  2-C ,  3-H ) :   1.0355 B(  2-C ,  4-H ) :   0.8843
B(  2-C ,  5-C ) :   0.7873 B(  5-C , 13-O ) :   1.2218 B(  5-C , 14-O ) :   1.3977
B(  6-C ,  7-N ) :   1.4157 B(  6-C ,  8-N ) :   0.9347 B(  7-N ,  8-N ) :   0.1032
B(  7-N , 11-H ) :   0.6651 B(  7-N , 12-H ) :   0.9558 B(  7-N , 13-O ) :  -0.1115
B(  8-N ,  9-H ) :   0.9858 B(  8-N , 10-H ) :   0.9849 B( 11-H , 13-O ) :   0.2613
B( 15-C , 16-C ) :   0.7344 B( 15-C , 17-H ) :   0.9140 B( 15-C , 18-H ) :   0.8519
B( 16-C , 19-C ) :   0.2636 B( 16-C , 20-H ) :   0.8789 B( 16-C , 21-H ) :   0.9682
B( 16-C , 22-H ) :  -0.1318 B( 19-C , 22-H ) :   1.0023 B( 19-C , 23-H ) :   0.8384

FINAL SINGLE POINT ENERGY      -573.277757136687

DIPOLE MOMENT
-------------
                                X             Y             Z
Electronic contribution:      1.71147      -2.90718      -8.77729
Nuclear contribution   :      1.39386       1.90489      10.36520
                        -----------------------------------------
Total Dipole Moment    :      3.10533      -1.00228       1.58791
                        -----------------------------------------
Magnitude (a.u.)       :      3.62892
Magnitude (Debye)      :      9.22399

Rotational constants in cm-1:     0.041165     0.025922     0.019001
Rotational constants in MHz :  1234.086888   777.109255   569.639629

                             ****ORCA TERMINATED NORMALLY****
TOTAL RUN TIME: 0 days 0 hours 5 minutes 55 seconds 631 msec
