                         Program Version 5.0.0 -  RELEASE  -
|  1> !LC-BLYP RIJCOSX def2-TZVPD def2/J TightSCF
|  2> *xyz 0 1
|  3> C         -0.87096        0.24804       -2.66280
|  4> C         -0.47749        0.60819       -4.10105
|  5> H          0.20677        1.45830       -4.11875
|  6> H         -1.36844        0.92942       -4.64785
|  7> C          0.18467       -0.50664       -4.91676
|  8> F         -0.15869       -1.70109       -4.65798
|  9> O          1.05594       -0.17441       -5.74037
| 10> H         -1.54056       -0.58646       -2.67455
| 11> H         -1.35339        1.08600       -2.20455
| 12> H          0.00660       -0.00662       -2.10609
| 13> *
| 14>
| 15> %MaxCore 64000
| 16>
| 17> %pal nprocs 4
| 18> end
| 19>
| 20> %scf
| 21>   MaxIter 150
| 22> end
| 23>
| 24>
| 25>                          ****END OF INPUT****

CARTESIAN COORDINATES (ANGSTROEM)
---------------------------------
  C     -0.870960    0.248040   -2.662800
  C     -0.477490    0.608190   -4.101050
  H      0.206770    1.458300   -4.118750
  H     -1.368440    0.929420   -4.647850
  C      0.184670   -0.506640   -4.916760
  F     -0.158690   -1.701090   -4.657980
  O      1.055940   -0.174410   -5.740370
  H     -1.540560   -0.586460   -2.674550
  H     -1.353390    1.086000   -2.204550
  H      0.006600   -0.006620   -2.106090

 Total Charge           Charge          ....    0
 Multiplicity           Mult            ....    1
 Number of Electrons    NEL             ....   40
 Basis Dimension        Dim             ....  236

ORBITAL ENERGIES
----------------

  NO   OCC          E(Eh)            E(eV)
   0   2.0000     -24.522119      -667.2808
   1   2.0000     -18.948659      -515.6192
   2   2.0000     -10.251077      -278.9460
   3   2.0000     -10.102877      -274.9133
   4   2.0000     -10.076161      -274.1863
   5   2.0000      -1.391382       -37.8614
   6   2.0000      -1.134641       -30.8751
   7   2.0000      -0.914004       -24.8713
   8   2.0000      -0.792989       -21.5783
   9   2.0000      -0.748261       -20.3612
  10   2.0000      -0.655382       -17.8338
  11   2.0000      -0.646678       -17.5970
  12   2.0000      -0.600913       -16.3517
  13   2.0000      -0.573135       -15.5958
  14   2.0000      -0.537067       -14.6143
  15   2.0000      -0.506647       -13.7866
  16   2.0000      -0.490816       -13.3558
  17   2.0000      -0.479556       -13.0494
  18   2.0000      -0.452358       -12.3093
  19   2.0000      -0.395152       -10.7526
  20   0.0000       0.041783         1.1370
  21   0.0000       0.053687         1.4609
  22   0.0000       0.069921         1.9027
  23   0.0000       0.075928         2.0661
  24   0.0000       0.091083         2.4785

MULLIKEN ATOMIC CHARGES
-----------------------
   0 C :   -1.283456
   1 C :   -0.426985
   2 H :    0.344959
   3 H :    0.351138
   4 C :    0.450881
   5 F :   -0.178973
   6 O :   -0.433292
   7 H :    0.380758
   8 H :    0.399543
   9 H :    0.395427
Sum of atomic charges:   -0.0000000

LOEWDIN ATOMIC CHARGES
----------------------
   0 C :   -0.105882
   1 C :   -0.165663
   2 H :    0.122978
   3 H :    0.127085
   4 C :   -0.512379
   5 F :    0.209831
   6 O :    0.100796
   7 H :    0.071823
   8 H :    0.073502
   9 H :    0.077909

  Mayer bond orders larger than 0.100000
B(  0-C ,  1-C ) :   0.4509 B(  0-C ,  7-H ) :   0.9215 B(  0-C ,  8-H ) :   0.9090
B(  0-C ,  9-H ) :   0.9096 B(  1-C ,  2-H ) :   0.9362 B(  1-C ,  3-H ) :   0.9104
B(  1-C ,  4-C ) :   0.9024 B(  4-C ,  5-F ) :   1.0510 B(  4-C ,  6-O ) :   1.7966

FINAL SINGLE POINT ENERGY      -291.908231902459

DIPOLE MOMENT
-------------
                                X             Y             Z
Electronic contribution:      2.59414      -5.33900      -5.27813
Nuclear contribution   :     -3.42837       5.66737       6.17046
                        -----------------------------------------
Total Dipole Moment    :     -0.83422       0.32838       0.89233
                        -----------------------------------------
Magnitude (a.u.)       :      1.26491
Magnitude (Debye)      :      3.21515

Rotational constants in cm-1:     0.304660     0.130969     0.097716
Rotational constants in MHz :  9133.464515  3926.366384  2929.457090

                             ****ORCA TERMINATED NORMALLY****
TOTAL RUN TIME: 0 days 0 hours 0 minutes 34 seconds 614 msec
