                         Program Version 5.0.0 -  RELEASE  -
|  1> !LC-BLYP RIJCOSX def2-TZVPD def2/J TightSCF
|  2> *xyz 0 1
|  3> C          2.48645       -2.67712       -2.56345
|  4> C          3.03764       -2.36672       -3.92351
|  5> C          2.28036       -2.45441       -4.96769
|  6> N          4.32174       -2.01793       -4.01664
|  7> H          4.87994       -1.91167       -3.17382
|  8> H          4.71015       -1.67088       -4.88356
|  9> H          1.27042       -2.41265       -4.86614
| 10> H          2.58183       -2.05528       -5.84688
| 11> C          2.49799       -1.46946       -1.61030
| 12> H          1.47259       -3.05153       -2.69437
| 13> H          3.08320       -3.49064       -2.14147
| 14> H          1.91240       -0.67831       -2.02991
| 15> H          3.50450       -1.13364       -1.47227
| 16> H          2.08509       -1.75655       -0.66585
| 17> *
| 18>
| 19> %MaxCore 64000
| 20>
| 21> %pal nprocs 4
| 22> end
| 23>
| 24> %scf
| 25>   MaxIter 150
| 26> end
| 27>
| 28>
| 29>                          ****END OF INPUT****

CARTESIAN COORDINATES (ANGSTROEM)
---------------------------------
  C      2.486450   -2.677120   -2.563450
  C      3.037640   -2.366720   -3.923510
  C      2.280360   -2.454410   -4.967690
  N      4.321740   -2.017930   -4.016640
  H      4.879940   -1.911670   -3.173820
  H      4.710150   -1.670880   -4.883560
  H      1.270420   -2.412650   -4.866140
  H      2.581830   -2.055280   -5.846880
  C      2.497990   -1.469460   -1.610300
  H      1.472590   -3.051530   -2.694370
  H      3.083200   -3.490640   -2.141470
  H      1.912400   -0.678310   -2.029910
  H      3.504500   -1.133640   -1.472270
  H      2.085090   -1.756550   -0.665850

 Total Charge           Charge          ....    0
 Multiplicity           Mult            ....    1
 Number of Electrons    NEL             ....   40
 Basis Dimension        Dim             ....  266

ORBITAL ENERGIES
----------------

  NO   OCC          E(Eh)            E(eV)
   0   2.0000     -14.170419      -385.5967
   1   2.0000     -10.091453      -274.6024
   2   2.0000     -10.067830      -273.9596
   3   2.0000     -10.056255      -273.6446
   4   2.0000      -9.998713      -272.0788
   5   2.0000      -1.027850       -27.9692
   6   2.0000      -0.888561       -24.1790
   7   2.0000      -0.833441       -22.6791
   8   2.0000      -0.744672       -20.2636
   9   2.0000      -0.673176       -18.3180
  10   2.0000      -0.629759       -17.1366
  11   2.0000      -0.584320       -15.9002
  12   2.0000      -0.541211       -14.7271
  13   2.0000      -0.536618       -14.6021
  14   2.0000      -0.490212       -13.3393
  15   2.0000      -0.485712       -13.2169
  16   2.0000      -0.453408       -12.3379
  17   2.0000      -0.433993       -11.8096
  18   2.0000      -0.425891       -11.5891
  19   2.0000      -0.293618        -7.9898
  20   0.0000       0.050346         1.3700
  21   0.0000       0.075417         2.0522
  22   0.0000       0.080003         2.1770
  23   0.0000       0.085861         2.3364
  24   0.0000       0.111758         3.0411

MULLIKEN ATOMIC CHARGES
-----------------------
   0 C :   -0.864109
   1 C :    0.531414
   2 C :   -0.970302
   3 N :   -0.367688
   4 H :    0.178842
   5 H :    0.168078
   6 H :    0.284651
   7 H :    0.351118
   8 C :   -1.172974
   9 H :    0.369593
  10 H :    0.375562
  11 H :    0.352787
  12 H :    0.365723
  13 H :    0.397305
Sum of atomic charges:    0.0000000

LOEWDIN ATOMIC CHARGES
----------------------
   0 C :   -0.211089
   1 C :   -0.508258
   2 C :    0.003094
   3 N :    0.109528
   4 H :    0.102294
   5 H :    0.109193
   6 H :    0.032004
   7 H :    0.028907
   8 C :   -0.102870
   9 H :    0.112891
  10 H :    0.119449
  11 H :    0.077169
  12 H :    0.059463
  13 H :    0.068224

  Mayer bond orders larger than 0.100000
B(  0-C ,  1-C ) :   0.6453 B(  0-C ,  2-C ) :   0.1177 B(  0-C ,  3-N ) :   0.1013
B(  0-C ,  8-C ) :   0.4952 B(  0-C ,  9-H ) :   0.9241 B(  0-C , 10-H ) :   0.9477
B(  1-C ,  2-C ) :   1.3398 B(  1-C ,  3-N ) :   0.8422 B(  1-C ,  7-H ) :  -0.1343
B(  1-C ,  8-C ) :  -0.1278 B(  2-C ,  3-N ) :   0.1189 B(  2-C ,  6-H ) :   0.9840
B(  2-C ,  7-H ) :   1.0367 B(  3-N ,  4-H ) :   1.0144 B(  3-N ,  5-H ) :   1.0209
B(  8-C , 11-H ) :   0.9870 B(  8-C , 12-H ) :   0.8957 B(  8-C , 13-H ) :   0.9361

FINAL SINGLE POINT ENERGY      -212.039170061403

DIPOLE MOMENT
-------------
                                X             Y             Z
Electronic contribution:      1.51218      -0.88242      -2.12585
Nuclear contribution   :     -0.99743       1.27863       2.57190
                        -----------------------------------------
Total Dipole Moment    :      0.51475       0.39620       0.44605
                        -----------------------------------------
Magnitude (a.u.)       :      0.78797
Magnitude (Debye)      :      2.00287

Rotational constants in cm-1:     0.274050     0.130114     0.100964
Rotational constants in MHz :  8215.815505  3900.722919  3026.834930

                             ****ORCA TERMINATED NORMALLY****
TOTAL RUN TIME: 0 days 0 hours 0 minutes 46 seconds 638 msec
