                         Program Version 5.0.0 -  RELEASE  -
|  1> !LC-BLYP RIJCOSX def2-TZVPD def2/J TightSCF
|  2> *xyz 0 1
|  3> C         -0.87096        0.24804       -2.66280
|  4> C         -0.47749        0.60819       -4.10105
|  5> H          0.20677        1.45830       -4.11875
|  6> H         -1.36844        0.92942       -4.64785
|  7> C          0.18467       -0.50664       -4.91676
|  8> O         -0.15869       -1.70109       -4.65798
|  9> F          1.05594       -0.17441       -5.74037
| 10> H         -1.54056       -0.58646       -2.67455
| 11> H         -1.35339        1.08600       -2.20455
| 12> H          0.00660       -0.00662       -2.10609
| 13> *
| 14>
| 15> %MaxCore 64000
| 16>
| 17> %pal nprocs 4
| 18> end
| 19>
| 20> %scf
| 21>   MaxIter 150
| 22> end
| 23>
| 24>
| 25>                          ****END OF INPUT****

CARTESIAN COORDINATES (ANGSTROEM)
---------------------------------
  C     -0.870960    0.248040   -2.662800
  C     -0.477490    0.608190   -4.101050
  H      0.206770    1.458300   -4.118750
  H     -1.368440    0.929420   -4.647850
  C      0.184670   -0.506640   -4.916760
  O     -0.158690   -1.701090   -4.657980
  F      1.055940   -0.174410   -5.740370
  H     -1.540560   -0.586460   -2.674550
  H     -1.353390    1.086000   -2.204550
  H      0.006600   -0.006620   -2.106090

 Total Charge           Charge          ....    0
 Multiplicity           Mult            ....    1
 Number of Electrons    NEL             ....   40
 Basis Dimension        Dim             ....  236

ORBITAL ENERGIES
----------------

  NO   OCC          E(Eh)            E(eV)
   0   2.0000     -24.531352      -667.5320
   1   2.0000     -18.945320      -515.5284
   2   2.0000     -10.253521      -279.0125
   3   2.0000     -10.104156      -274.9481
   4   2.0000     -10.070132      -274.0222
   5   2.0000      -1.409732       -38.3608
   6   2.0000      -1.120129       -30.4803
   7   2.0000      -0.910043       -24.7635
   8   2.0000      -0.802332       -21.8326
   9   2.0000      -0.747055       -20.3284
  10   2.0000      -0.663481       -18.0542
  11   2.0000      -0.645541       -17.5661
  12   2.0000      -0.613500       -16.6942
  13   2.0000      -0.572790       -15.5864
  14   2.0000      -0.536489       -14.5986
  15   2.0000      -0.497568       -13.5395
  16   2.0000      -0.476276       -12.9601
  17   2.0000      -0.475116       -12.9286
  18   2.0000      -0.448774       -12.2118
  19   2.0000      -0.393260       -10.7012
  20   0.0000       0.042432         1.1546
  21   0.0000       0.051491         1.4011
  22   0.0000       0.069826         1.9001
  23   0.0000       0.077405         2.1063
  24   0.0000       0.091210         2.4820

MULLIKEN ATOMIC CHARGES
-----------------------
   0 C :   -1.254327
   1 C :   -0.494650
   2 H :    0.376683
   3 H :    0.349683
   4 C :    0.489275
   5 O :   -0.453984
   6 F :   -0.167590
   7 H :    0.366454
   8 H :    0.413374
   9 H :    0.375081
Sum of atomic charges:   -0.0000000

LOEWDIN ATOMIC CHARGES
----------------------
   0 C :   -0.100808
   1 C :   -0.171776
   2 H :    0.115456
   3 H :    0.127110
   4 C :   -0.513591
   5 O :    0.080657
   6 F :    0.236084
   7 H :    0.074737
   8 H :    0.073088
   9 H :    0.079043

  Mayer bond orders larger than 0.100000
B(  0-C ,  1-C ) :   0.5245 B(  0-C ,  7-H ) :   0.9476 B(  0-C ,  8-H ) :   0.8797
B(  0-C ,  9-H ) :   0.9119 B(  1-C ,  2-H ) :   0.9067 B(  1-C ,  3-H ) :   0.9099
B(  1-C ,  4-C ) :   0.9143 B(  4-C ,  5-O ) :   1.7666 B(  4-C ,  6-F ) :   1.0574

FINAL SINGLE POINT ENERGY      -291.901496963709

DIPOLE MOMENT
-------------
                                X             Y             Z
Electronic contribution:      4.63648      -2.80956      -7.10925
Nuclear contribution   :     -4.75269       4.00281       7.35060
                        -----------------------------------------
Total Dipole Moment    :     -0.11621       1.19325       0.24135
                        -----------------------------------------
Magnitude (a.u.)       :      1.22295
Magnitude (Debye)      :      3.10850

Rotational constants in cm-1:     0.323805     0.124913     0.096140
Rotational constants in MHz :  9707.430323  3744.789513  2882.191141

                             ****ORCA TERMINATED NORMALLY****
TOTAL RUN TIME: 0 days 0 hours 0 minutes 34 seconds 563 msec
