                         Program Version 5.0.0 -  RELEASE  -
|  1> !LC-BLYP RIJCOSX def2-TZVPD def2/J TightSCF
|  2> *xyz 0 1
|  3> C          2.48645       -2.67712       -2.56345
|  4> C          3.03764       -2.36672       -3.92351
|  5> N          2.28036       -2.45441       -4.96769
|  6> C          4.32174       -2.01793       -4.01664
|  7> H          4.87994       -1.91167       -3.17382
|  8> H          4.71015       -1.67088       -4.88356
|  9> H          1.27042       -2.41265       -4.86614
| 10> H          2.58183       -2.05528       -5.84688
| 11> C          2.49799       -1.46946       -1.61030
| 12> H          1.47259       -3.05153       -2.69437
| 13> H          3.08320       -3.49064       -2.14147
| 14> H          1.91240       -0.67831       -2.02991
| 15> H          3.50450       -1.13364       -1.47227
| 16> H          2.08509       -1.75655       -0.66585
| 17> *
| 18>
| 19> %MaxCore 64000
| 20>
| 21> %pal nprocs 4
| 22> end
| 23>
| 24> %scf
| 25>   MaxIter 150
| 26> end
| 27>
| 28>
| 29>                          ****END OF INPUT****

CARTESIAN COORDINATES (ANGSTROEM)
---------------------------------
  C      2.486450   -2.677120   -2.563450
  C      3.037640   -2.366720   -3.923510
  N      2.280360   -2.454410   -4.967690
  C      4.321740   -2.017930   -4.016640
  H      4.879940   -1.911670   -3.173820
  H      4.710150   -1.670880   -4.883560
  H      1.270420   -2.412650   -4.866140
  H      2.581830   -2.055280   -5.846880
  C      2.497990   -1.469460   -1.610300
  H      1.472590   -3.051530   -2.694370
  H      3.083200   -3.490640   -2.141470
  H      1.912400   -0.678310   -2.029910
  H      3.504500   -1.133640   -1.472270
  H      2.085090   -1.756550   -0.665850

 Total Charge           Charge          ....    0
 Multiplicity           Mult            ....    1
 Number of Electrons    NEL             ....   40
 Basis Dimension        Dim             ....  266

ORBITAL ENERGIES
----------------

  NO   OCC          E(Eh)            E(eV)
   0   2.0000     -14.174397      -385.7050
   1   2.0000     -10.091816      -274.6123
   2   2.0000     -10.068460      -273.9767
   3   2.0000     -10.052339      -273.5381
   4   2.0000      -9.999242      -272.0932
   5   2.0000      -1.042582       -28.3701
   6   2.0000      -0.890520       -24.2323
   7   2.0000      -0.817272       -22.2391
   8   2.0000      -0.750331       -20.4175
   9   2.0000      -0.676228       -18.4011
  10   2.0000      -0.626699       -17.0533
  11   2.0000      -0.588538       -16.0149
  12   2.0000      -0.551884       -15.0175
  13   2.0000      -0.511835       -13.9277
  14   2.0000      -0.498652       -13.5690
  15   2.0000      -0.479669       -13.0525
  16   2.0000      -0.451759       -12.2930
  17   2.0000      -0.436468       -11.8769
  18   2.0000      -0.434722       -11.8294
  19   2.0000      -0.283907        -7.7255
  20   0.0000       0.051023         1.3884
  21   0.0000       0.073887         2.0106
  22   0.0000       0.079431         2.1614
  23   0.0000       0.085545         2.3278
  24   0.0000       0.111320         3.0292

MULLIKEN ATOMIC CHARGES
-----------------------
   0 C :   -0.881187
   1 C :    0.652057
   2 N :   -0.364527
   3 C :   -1.151043
   4 H :    0.312672
   5 H :    0.321805
   6 H :    0.213672
   7 H :    0.202747
   8 C :   -1.154565
   9 H :    0.396898
  10 H :    0.344999
  11 H :    0.350228
  12 H :    0.371323
  13 H :    0.384922
Sum of atomic charges:   -0.0000000

LOEWDIN ATOMIC CHARGES
----------------------
   0 C :   -0.210889
   1 C :   -0.514838
   2 N :    0.108092
   3 C :    0.013536
   4 H :    0.024540
   5 H :    0.021276
   6 H :    0.109791
   7 H :    0.114408
   8 C :   -0.102341
   9 H :    0.106956
  10 H :    0.121797
  11 H :    0.075250
  12 H :    0.065196
  13 H :    0.067226

  Mayer bond orders larger than 0.100000
B(  0-C ,  1-C ) :   0.5000 B(  0-C ,  3-C ) :   0.1072 B(  0-C ,  8-C ) :   0.4836
B(  0-C ,  9-H ) :   0.9685 B(  0-C , 10-H ) :   0.9855 B(  1-C ,  2-N ) :   0.9834
B(  1-C ,  3-C ) :   1.1420 B(  1-C ,  5-H ) :  -0.1591 B(  1-C ,  9-H ) :  -0.1152
B(  2-N ,  3-C ) :   0.1195 B(  2-N ,  6-H ) :   0.9786 B(  2-N ,  7-H ) :   0.9722
B(  3-C ,  4-H ) :   0.9368 B(  3-C ,  5-H ) :   1.0733 B(  8-C , 11-H ) :   0.9494
B(  8-C , 12-H ) :   0.9307 B(  8-C , 13-H ) :   0.9221

FINAL SINGLE POINT ENERGY      -212.039138990183

DIPOLE MOMENT
-------------
                                X             Y             Z
Electronic contribution:     -0.25240      -1.19235      -2.95687
Nuclear contribution   :     -0.52463       1.37972       2.79217
                        -----------------------------------------
Total Dipole Moment    :     -0.77703       0.18737      -0.16470
                        -----------------------------------------
Magnitude (a.u.)       :      0.81609
Magnitude (Debye)      :      2.07435

Rotational constants in cm-1:     0.281086     0.127387     0.100311
Rotational constants in MHz :  8426.743103  3818.969834  3007.238026

                             ****ORCA TERMINATED NORMALLY****
TOTAL RUN TIME: 0 days 0 hours 0 minutes 47 seconds 163 msec
