                         Program Version 5.0.0 -  RELEASE  -
|  1> !LC-BLYP RIJCOSX def2-TZVPD def2/J TightSCF xyzfile
|  2>
|  3> *xyzfile 0 1 D1.xyz
|  4>
|  5> %MaxCore 64000
|  6>
|  7> %pal nprocs 4
|  8> end
|  9>
| 10> %scf
| 11>   MaxIter 150
| 12> end
| 13>
| 14>
| 15>                          ****END OF INPUT****

CARTESIAN COORDINATES (ANGSTROEM)
---------------------------------
  C      2.486452   -2.677121   -2.563447
  C     -0.870963    0.248043   -2.662804
  C     -0.477492    0.608191   -4.101052
  H      0.206773    1.458299   -4.118748
  H     -1.368442    0.929419   -4.647855
  C      0.184673   -0.506640   -4.916760
  C      3.037640   -2.366715   -3.923509
  C      2.280360   -2.454408   -4.967692
  N      4.321736   -2.017932   -4.016641
  H      4.879940   -1.911668   -3.173823
  H      4.710148   -1.670882   -4.883561
  H      1.270423   -2.412650   -4.866143
  H      2.581829   -2.055282   -5.846878
  F     -0.158685   -1.701088   -4.657981
  O      1.055938   -0.174410   -5.740373
  C      2.497991   -1.469464   -1.610303
  C      1.582841   -0.321986   -2.042619
  H      2.193083   -1.833912   -0.625420
  H      3.523356   -1.103982   -1.490392
  C      0.100160   -0.673551   -1.915815
  H      1.822311   -0.040361   -3.072834
  H      1.813180    0.557019   -1.433266
  H     -0.063284   -1.679120   -2.301112
  H     -0.168820   -0.691680   -0.853831
  H     -1.001048    1.181040   -2.104071
  H     -1.844645   -0.246592   -2.663281
  H      1.472592   -3.051527   -2.694366
  H      3.083201   -3.490638   -2.141472

 Total Charge           Charge          ....    0
 Multiplicity           Mult            ....    1
 Number of Electrons    NEL             ....   94
 Basis Dimension        Dim             ....  594

ORBITAL ENERGIES
----------------

  NO   OCC          E(Eh)            E(eV)
   0   2.0000     -24.522413      -667.2888
   1   2.0000     -18.944922      -515.5175
   2   2.0000     -14.158286      -385.2666
   3   2.0000     -10.249323      -278.8983
   4   2.0000     -10.098234      -274.7869
   5   2.0000     -10.082587      -274.3612
   6   2.0000     -10.075983      -274.1814
   7   2.0000     -10.070463      -274.0312
   8   2.0000     -10.067833      -273.9597
   9   2.0000     -10.066271      -273.9172
  10   2.0000     -10.061782      -273.7950
  11   2.0000      -9.977368      -271.4980
  12   2.0000      -1.398482       -38.0546
  13   2.0000      -1.133533       -30.8450
  14   2.0000      -1.016271       -27.6541
  15   2.0000      -0.938671       -25.5425
  16   2.0000      -0.902733       -24.5646
  17   2.0000      -0.852315       -23.1927
  18   2.0000      -0.830170       -22.5901
  19   2.0000      -0.785061       -21.3626
  20   2.0000      -0.763059       -20.7639
  21   2.0000      -0.726449       -19.7677
  22   2.0000      -0.689232       -18.7550
  23   2.0000      -0.680779       -18.5249
  24   2.0000      -0.656599       -17.8670
  25   2.0000      -0.642087       -17.4721
  26   2.0000      -0.614595       -16.7240
  27   2.0000      -0.598451       -16.2847
  28   2.0000      -0.588550       -16.0153
  29   2.0000      -0.577308       -15.7093
  30   2.0000      -0.563164       -15.3245
  31   2.0000      -0.545951       -14.8561
  32   2.0000      -0.535699       -14.5771
  33   2.0000      -0.513907       -13.9841
  34   2.0000      -0.507031       -13.7970
  35   2.0000      -0.490391       -13.3442
  36   2.0000      -0.478449       -13.0193
  37   2.0000      -0.475039       -12.9265
  38   2.0000      -0.456314       -12.4169
  39   2.0000      -0.451520       -12.2865
  40   2.0000      -0.439807       -11.9678
  41   2.0000      -0.433369       -11.7926
  42   2.0000      -0.416533       -11.3344
  43   2.0000      -0.412096       -11.2137
  44   2.0000      -0.406948       -11.0736
  45   2.0000      -0.388012       -10.5584
  46   2.0000      -0.278192        -7.5700
  47   0.0000       0.044650         1.2150
  48   0.0000       0.050453         1.3729
  49   0.0000       0.057870         1.5747
  50   0.0000       0.062130         1.6906
  51   0.0000       0.066735         1.8159

MULLIKEN ATOMIC CHARGES
-----------------------
   0 C :   -1.038571
   1 C :   -0.808544
   2 C :   -0.672503
   3 H :    0.397476
   4 H :    0.431197
   5 C :    0.447835
   6 C :    0.512414
   7 C :   -1.275138
   8 N :   -0.398206
   9 H :    0.162530
  10 H :    0.164528
  11 H :    0.613189
  12 H :    0.376828
  13 F :   -0.246058
  14 O :   -0.481083
  15 C :   -0.784343
  16 C :   -0.615277
  17 H :    0.406716
  18 H :    0.454631
  19 C :   -0.782057
  20 H :    0.406527
  21 H :    0.367670
  22 H :    0.336184
  23 H :    0.463664
  24 H :    0.402880
  25 H :    0.408972
  26 H :    0.312667
  27 H :    0.435871
Sum of atomic charges:    0.0000000

LOEWDIN ATOMIC CHARGES
----------------------
   0 C :   -0.152335
   1 C :   -0.204231
   2 C :   -0.108535
   3 H :    0.129419
   4 H :    0.131634
   5 C :   -0.502531
   6 C :   -0.480048
   7 C :    0.004698
   8 N :    0.115672
   9 H :    0.099416
  10 H :    0.110077
  11 H :    0.000527
  12 H :    0.043997
  13 F :    0.178731
  14 O :    0.109222
  15 C :   -0.205356
  16 C :   -0.204530
  17 H :    0.116559
  18 H :    0.107587
  19 C :   -0.219312
  20 H :    0.111083
  21 H :    0.123552
  22 H :    0.098702
  23 H :    0.124530
  24 H :    0.119267
  25 H :    0.116045
  26 H :    0.111176
  27 H :    0.124983

  Mayer bond orders larger than 0.100000
B(  0-C ,  6-C ) :   0.5773 B(  0-C ,  8-N ) :   0.1947 B(  0-C , 15-C ) :   0.6239
B(  0-C , 16-C ) :  -0.1099 B(  0-C , 26-H ) :   0.9674 B(  0-C , 27-H ) :   0.9460
B(  1-C ,  2-C ) :   0.5289 B(  1-C , 19-C ) :   0.6438 B(  1-C , 24-H ) :   0.9382
B(  1-C , 25-H ) :   0.9672 B(  2-C ,  3-H ) :   0.9885 B(  2-C ,  4-H ) :   0.8718
B(  2-C ,  5-C ) :   0.7388 B(  5-C , 13-F ) :   0.9794 B(  5-C , 14-O ) :   1.7303
B(  6-C ,  7-C ) :   1.2020 B(  6-C ,  8-N ) :   0.6860 B(  6-C , 11-H ) :  -0.1747
B(  6-C , 12-H ) :  -0.1999 B(  6-C , 15-C ) :  -0.1264 B(  7-C , 11-H ) :   0.7150
B(  7-C , 12-H ) :   1.1464 B(  8-N ,  9-H ) :   1.0392 B(  8-N , 10-H ) :   1.0103
B( 11-H , 13-F ) :  -0.1090 B( 15-C , 16-C ) :   0.7405 B( 15-C , 17-H ) :   0.9267
B( 15-C , 18-H ) :   0.8371 B( 16-C , 19-C ) :   0.2419 B( 16-C , 20-H ) :   0.8852
B( 16-C , 21-H ) :   0.9905 B( 16-C , 22-H ) :  -0.1529 B( 19-C , 22-H ) :   1.0696
B( 19-C , 23-H ) :   0.8163

FINAL SINGLE POINT ENERGY      -581.162794664562

DIPOLE MOMENT
-------------
                                X             Y             Z
Electronic contribution:     -3.72153      -1.62503     -10.22437
Nuclear contribution   :      3.32973       2.37270      11.37738
                        -----------------------------------------
Total Dipole Moment    :     -0.39180       0.74767       1.15301
                        -----------------------------------------
Magnitude (a.u.)       :      1.42897
Magnitude (Debye)      :      3.63215

Rotational constants in cm-1:     0.040902     0.025807     0.019036
Rotational constants in MHz :  1226.202138   773.670450   570.681201

                             ****ORCA TERMINATED NORMALLY****
TOTAL RUN TIME: 0 days 0 hours 5 minutes 10 seconds 21 msec
