                         Program Version 5.0.0 -  RELEASE  -
|  1> !LC-BLYP RIJCOSX def2-TZVPD def2/J TightSCF xyzfile
|  2>
|  3> *xyzfile 0 1 D2.xyz
|  4>
|  5> %MaxCore 64000
|  6>
|  7> %pal nprocs 4
|  8> end
|  9>
| 10> %scf
| 11>   MaxIter 150
| 12> end
| 13>
| 14>
| 15>                          ****END OF INPUT****

CARTESIAN COORDINATES (ANGSTROEM)
---------------------------------
  C      2.486452   -2.677121   -2.563447
  C     -0.870963    0.248043   -2.662804
  C     -0.477492    0.608191   -4.101052
  H      0.206773    1.458299   -4.118748
  H     -1.368442    0.929419   -4.647855
  C      0.184673   -0.506640   -4.916760
  C      3.037640   -2.366715   -3.923509
  N      2.280360   -2.454408   -4.967692
  C      4.321736   -2.017932   -4.016641
  H      4.879940   -1.911668   -3.173823
  H      4.710148   -1.670882   -4.883561
  H      1.270423   -2.412650   -4.866143
  H      2.581829   -2.055282   -5.846878
  F     -0.158685   -1.701088   -4.657981
  O      1.055938   -0.174410   -5.740373
  C      2.497991   -1.469464   -1.610303
  C      1.582841   -0.321986   -2.042619
  H      2.193083   -1.833912   -0.625420
  H      3.523356   -1.103982   -1.490392
  C      0.100160   -0.673551   -1.915815
  H      1.822311   -0.040361   -3.072834
  H      1.813180    0.557019   -1.433266
  H     -0.063284   -1.679120   -2.301112
  H     -0.168820   -0.691680   -0.853831
  H     -1.001048    1.181040   -2.104071
  H     -1.844645   -0.246592   -2.663281
  H      1.472592   -3.051527   -2.694366
  H      3.083201   -3.490638   -2.141472

 Total Charge           Charge          ....    0
 Multiplicity           Mult            ....    1
 Number of Electrons    NEL             ....   94
 Basis Dimension        Dim             ....  594

ORBITAL ENERGIES
----------------

  NO   OCC          E(Eh)            E(eV)
   0   2.0000     -24.550699      -668.0585
   1   2.0000     -18.965075      -516.0659
   2   2.0000     -14.147149      -384.9635
   3   2.0000     -10.268395      -279.4172
   4   2.0000     -10.109820      -275.1022
   5   2.0000     -10.090121      -274.5662
   6   2.0000     -10.079903      -274.2881
   7   2.0000     -10.075670      -274.1729
   8   2.0000     -10.068575      -273.9799
   9   2.0000     -10.065316      -273.8912
  10   2.0000     -10.062709      -273.8202
  11   2.0000      -9.986233      -271.7392
  12   2.0000      -1.425324       -38.7850
  13   2.0000      -1.153473       -31.3876
  14   2.0000      -1.025869       -27.9153
  15   2.0000      -0.946624       -25.7589
  16   2.0000      -0.905380       -24.6366
  17   2.0000      -0.863392       -23.4941
  18   2.0000      -0.816583       -22.2203
  19   2.0000      -0.797636       -21.7048
  20   2.0000      -0.775027       -21.0895
  21   2.0000      -0.736369       -20.0376
  22   2.0000      -0.702354       -19.1120
  23   2.0000      -0.693419       -18.8689
  24   2.0000      -0.674970       -18.3669
  25   2.0000      -0.644808       -17.5461
  26   2.0000      -0.617260       -16.7965
  27   2.0000      -0.604593       -16.4518
  28   2.0000      -0.590251       -16.0615
  29   2.0000      -0.583941       -15.8899
  30   2.0000      -0.575335       -15.6557
  31   2.0000      -0.550154       -14.9704
  32   2.0000      -0.532597       -14.4927
  33   2.0000      -0.523801       -14.2533
  34   2.0000      -0.512650       -13.9499
  35   2.0000      -0.497414       -13.5353
  36   2.0000      -0.489487       -13.3196
  37   2.0000      -0.477949       -13.0057
  38   2.0000      -0.466228       -12.6867
  39   2.0000      -0.456389       -12.4190
  40   2.0000      -0.445744       -12.1293
  41   2.0000      -0.438145       -11.9225
  42   2.0000      -0.424591       -11.5537
  43   2.0000      -0.420649       -11.4464
  44   2.0000      -0.411642       -11.2013
  45   2.0000      -0.402321       -10.9477
  46   2.0000      -0.268209        -7.2983
  47   0.0000       0.032870         0.8944
  48   0.0000       0.040830         1.1110
  49   0.0000       0.057939         1.5766
  50   0.0000       0.060279         1.6403
  51   0.0000       0.064627         1.7586

MULLIKEN ATOMIC CHARGES
-----------------------
   0 C :   -0.976206
   1 C :   -0.833077
   2 C :   -0.658005
   3 H :    0.395825
   4 H :    0.439279
   5 C :    0.467064
   6 C :    0.521181
   7 N :   -0.504837
   8 C :   -1.192300
   9 H :    0.324170
  10 H :    0.346219
  11 H :    0.431745
  12 H :    0.193024
  13 F :   -0.297977
  14 O :   -0.484287
  15 C :   -0.767843
  16 C :   -0.730605
  17 H :    0.416591
  18 H :    0.458029
  19 C :   -0.713267
  20 H :    0.405364
  21 H :    0.367808
  22 H :    0.325500
  23 H :    0.469123
  24 H :    0.407478
  25 H :    0.414248
  26 H :    0.393703
  27 H :    0.382052
Sum of atomic charges:    0.0000000

LOEWDIN ATOMIC CHARGES
----------------------
   0 C :   -0.151700
   1 C :   -0.203743
   2 C :   -0.107555
   3 H :    0.131680
   4 H :    0.133218
   5 C :   -0.497112
   6 C :   -0.493599
   7 N :    0.122872
   8 C :    0.018270
   9 H :    0.022125
  10 H :    0.022616
  11 H :    0.055057
  12 H :    0.115167
  13 F :    0.189233
  14 O :    0.114012
  15 C :   -0.201741
  16 C :   -0.204240
  17 H :    0.116899
  18 H :    0.113267
  19 C :   -0.221612
  20 H :    0.109582
  21 H :    0.125086
  22 H :    0.095847
  23 H :    0.125545
  24 H :    0.120885
  25 H :    0.116346
  26 H :    0.105693
  27 H :    0.127904

  Mayer bond orders larger than 0.100000
B(  0-C ,  6-C ) :   0.4572 B(  0-C , 15-C ) :   0.6491 B(  0-C , 26-H ) :   0.9695
B(  0-C , 27-H ) :   0.9602 B(  1-C ,  2-C ) :   0.5303 B(  1-C , 19-C ) :   0.6225
B(  1-C , 24-H ) :   0.9305 B(  1-C , 25-H ) :   0.9662 B(  2-C ,  3-H ) :   0.9841
B(  2-C ,  4-H ) :   0.8654 B(  2-C ,  5-C ) :   0.7422 B(  5-C , 13-F ) :   0.8588
B(  5-C , 14-O ) :   1.7639 B(  6-C ,  7-N ) :   0.8978 B(  6-C ,  8-C ) :   1.2415
B(  6-C , 10-H ) :  -0.1301 B(  7-N ,  8-C ) :   0.1990 B(  7-N , 11-H ) :   0.6589
B(  7-N , 12-H ) :   0.9466 B(  8-C ,  9-H ) :   0.9923 B(  8-C , 10-H ) :   1.0157
B(  8-C , 15-C ) :  -0.1083 B( 15-C , 16-C ) :   0.7635 B( 15-C , 17-H ) :   0.8896
B( 15-C , 18-H ) :   0.8651 B( 16-C , 19-C ) :   0.1968 B( 16-C , 20-H ) :   0.9327
B( 16-C , 21-H ) :   0.9629 B( 16-C , 22-H ) :  -0.1592 B( 19-C , 20-H ) :  -0.1054
B( 19-C , 22-H ) :   1.0956 B( 19-C , 23-H ) :   0.8015

FINAL SINGLE POINT ENERGY      -581.173912829901

DIPOLE MOMENT
-------------
                                X             Y             Z
Electronic contribution:     -5.35270      -1.77125     -10.84964
Nuclear contribution   :      3.65024       2.44123      11.52670
                        -----------------------------------------
Total Dipole Moment    :     -1.70246       0.66999       0.67706
                        -----------------------------------------
Magnitude (a.u.)       :      1.95081
Magnitude (Debye)      :      4.95856

Rotational constants in cm-1:     0.040600     0.026409     0.019262
Rotational constants in MHz :  1217.142957   791.712481   577.449390

                             ****ORCA TERMINATED NORMALLY****
TOTAL RUN TIME: 0 days 0 hours 5 minutes 10 seconds 741 msec
