                         Program Version 5.0.0 -  RELEASE  -
|  1> !LC-BLYP RIJCOSX def2-TZVPD def2/J TightSCF xyzfile
|  2>
|  3> *xyzfile 0 1 D3.xyz
|  4>
|  5> %MaxCore 64000
|  6>
|  7> %pal nprocs 4
|  8> end
|  9>
| 10> %scf
| 11>   MaxIter 150
| 12> end
| 13>
| 14>
| 15>                          ****END OF INPUT****

CARTESIAN COORDINATES (ANGSTROEM)
---------------------------------
  C      2.486452   -2.677121   -2.563447
  C     -0.870963    0.248043   -2.662804
  C     -0.477492    0.608191   -4.101052
  H      0.206773    1.458299   -4.118748
  H     -1.368442    0.929419   -4.647855
  C      0.184673   -0.506640   -4.916760
  C      3.037640   -2.366715   -3.923509
  C      2.280360   -2.454408   -4.967692
  N      4.321736   -2.017932   -4.016641
  H      4.879940   -1.911668   -3.173823
  H      4.710148   -1.670882   -4.883561
  H      1.270423   -2.412650   -4.866143
  H      2.581829   -2.055282   -5.846878
  O     -0.158685   -1.701088   -4.657981
  F      1.055938   -0.174410   -5.740373
  C      2.497991   -1.469464   -1.610303
  C      1.582841   -0.321986   -2.042619
  H      2.193083   -1.833912   -0.625420
  H      3.523356   -1.103982   -1.490392
  C      0.100160   -0.673551   -1.915815
  H      1.822311   -0.040361   -3.072834
  H      1.813180    0.557019   -1.433266
  H     -0.063284   -1.679120   -2.301112
  H     -0.168820   -0.691680   -0.853831
  H     -1.001048    1.181040   -2.104071
  H     -1.844645   -0.246592   -2.663281
  H      1.472592   -3.051527   -2.694366
  H      3.083201   -3.490638   -2.141472

 Total Charge           Charge          ....    0
 Multiplicity           Mult            ....    1
 Number of Electrons    NEL             ....   94
 Basis Dimension        Dim             ....  594

ORBITAL ENERGIES
----------------

  NO   OCC          E(Eh)            E(eV)
   0   2.0000     -24.530054      -667.4967
   1   2.0000     -18.943355      -515.4749
   2   2.0000     -14.157173      -385.2363
   3   2.0000     -10.254715      -279.0450
   4   2.0000     -10.100891      -274.8592
   5   2.0000     -10.079597      -274.2798
   6   2.0000     -10.073450      -274.1125
   7   2.0000     -10.064716      -273.8748
   8   2.0000     -10.064392      -273.8660
   9   2.0000     -10.061475      -273.7867
  10   2.0000     -10.056570      -273.6532
  11   2.0000      -9.969714      -271.2897
  12   2.0000      -1.409525       -38.3551
  13   2.0000      -1.128790       -30.7159
  14   2.0000      -1.014809       -27.6144
  15   2.0000      -0.933166       -25.3927
  16   2.0000      -0.900132       -24.4938
  17   2.0000      -0.850571       -23.1452
  18   2.0000      -0.827687       -22.5225
  19   2.0000      -0.787316       -21.4240
  20   2.0000      -0.760335       -20.6898
  21   2.0000      -0.722052       -19.6480
  22   2.0000      -0.685142       -18.6437
  23   2.0000      -0.672738       -18.3061
  24   2.0000      -0.657308       -17.8863
  25   2.0000      -0.633961       -17.2510
  26   2.0000      -0.625465       -17.0198
  27   2.0000      -0.612287       -16.6612
  28   2.0000      -0.586563       -15.9612
  29   2.0000      -0.576233       -15.6801
  30   2.0000      -0.558725       -15.2037
  31   2.0000      -0.543970       -14.8022
  32   2.0000      -0.538085       -14.6420
  33   2.0000      -0.505866       -13.7653
  34   2.0000      -0.499986       -13.6053
  35   2.0000      -0.496200       -13.5023
  36   2.0000      -0.478768       -13.0279
  37   2.0000      -0.466957       -12.7065
  38   2.0000      -0.457005       -12.4357
  39   2.0000      -0.455207       -12.3868
  40   2.0000      -0.434549       -11.8247
  41   2.0000      -0.428803       -11.6683
  42   2.0000      -0.413583       -11.2542
  43   2.0000      -0.409404       -11.1405
  44   2.0000      -0.406607       -11.0643
  45   2.0000      -0.364909        -9.9297
  46   2.0000      -0.276998        -7.5375
  47   0.0000       0.043165         1.1746
  48   0.0000       0.047416         1.2902
  49   0.0000       0.058531         1.5927
  50   0.0000       0.062858         1.7105
  51   0.0000       0.068188         1.8555

MULLIKEN ATOMIC CHARGES
-----------------------
   0 C :   -1.026205
   1 C :   -0.822949
   2 C :   -0.725571
   3 H :    0.438405
   4 H :    0.419897
   5 C :    0.474812
   6 C :    0.541812
   7 C :   -1.475127
   8 N :   -0.400319
   9 H :    0.161385
  10 H :    0.159932
  11 H :    0.774457
  12 H :    0.361109
  13 O :   -0.490070
  14 F :   -0.218372
  15 C :   -0.788356
  16 C :   -0.574882
  17 H :    0.404518
  18 H :    0.448534
  19 C :   -0.796133
  20 H :    0.343680
  21 H :    0.369785
  22 H :    0.358104
  23 H :    0.466032
  24 H :    0.414865
  25 H :    0.416526
  26 H :    0.323937
  27 H :    0.440194
Sum of atomic charges:   -0.0000000

LOEWDIN ATOMIC CHARGES
----------------------
   0 C :   -0.149043
   1 C :   -0.196658
   2 C :   -0.112514
   3 H :    0.122626
   4 H :    0.132121
   5 C :   -0.488723
   6 C :   -0.482035
   7 C :    0.001911
   8 N :    0.110333
   9 H :    0.098435
  10 H :    0.107005
  11 H :   -0.021576
  12 H :    0.043086
  13 O :    0.065076
  14 F :    0.246067
  15 C :   -0.204834
  16 C :   -0.206402
  17 H :    0.117096
  18 H :    0.106402
  19 C :   -0.218844
  20 H :    0.107941
  21 H :    0.122050
  22 H :    0.098464
  23 H :    0.124145
  24 H :    0.119237
  25 H :    0.119143
  26 H :    0.114739
  27 H :    0.124753

  Mayer bond orders larger than 0.100000
B(  0-C ,  6-C ) :   0.5723 B(  0-C ,  8-N ) :   0.1913 B(  0-C , 15-C ) :   0.6159
B(  0-C , 16-C ) :  -0.1040 B(  0-C , 26-H ) :   0.9531 B(  0-C , 27-H ) :   0.9449
B(  1-C ,  2-C ) :   0.6158 B(  1-C , 19-C ) :   0.7133 B(  1-C , 24-H ) :   0.9342
B(  1-C , 25-H ) :   0.9185 B(  2-C ,  3-H ) :   0.9215 B(  2-C ,  4-H ) :   0.8799
B(  2-C ,  5-C ) :   0.7857 B(  5-C , 13-O ) :   1.7952 B(  5-C , 14-F ) :   0.9400
B(  6-C ,  7-C ) :   1.1350 B(  6-C ,  8-N ) :   0.6882 B(  6-C , 11-H ) :  -0.1598
B(  6-C , 12-H ) :  -0.2455 B(  6-C , 15-C ) :  -0.1188 B(  7-C , 11-H ) :   0.6376
B(  7-C , 12-H ) :   1.2454 B(  8-N ,  9-H ) :   1.0435 B(  8-N , 10-H ) :   1.0160
B( 11-H , 13-O ) :  -0.2746 B( 15-C , 16-C ) :   0.7569 B( 15-C , 17-H ) :   0.9218
B( 15-C , 18-H ) :   0.8416 B( 16-C , 19-C ) :   0.2508 B( 16-C , 20-H ) :   0.9208
B( 16-C , 21-H ) :   0.9906 B( 16-C , 22-H ) :  -0.1384 B( 19-C , 22-H ) :   1.0479
B( 19-C , 23-H ) :   0.8109

FINAL SINGLE POINT ENERGY      -581.156972095535

DIPOLE MOMENT
-------------
                                X             Y             Z
Electronic contribution:     -1.77554       0.91819     -12.09329
Nuclear contribution   :      1.88979       0.56282      12.66056
                        -----------------------------------------
Total Dipole Moment    :      0.11424       1.48101       0.56727
                        -----------------------------------------
Magnitude (a.u.)       :      1.59004
Magnitude (Debye)      :      4.04156

Rotational constants in cm-1:     0.040271     0.025954     0.018866
Rotational constants in MHz :  1207.302496   778.083475   565.600538

                             ****ORCA TERMINATED NORMALLY****
TOTAL RUN TIME: 0 days 0 hours 6 minutes 38 seconds 212 msec
