                         Program Version 5.0.0 -  RELEASE  -
|  1> !LC-BLYP RIJCOSX def2-TZVPD def2/J TightSCF xyzfile
|  2>
|  3> *xyzfile 0 1 D4.xyz
|  4>
|  5> %MaxCore 64000
|  6>
|  7> %pal nprocs 4
|  8> end
|  9>
| 10> %scf
| 11>   MaxIter 150
| 12> end
| 13>
| 14>
| 15>                          ****END OF INPUT****

CARTESIAN COORDINATES (ANGSTROEM)
---------------------------------
  C      2.486452   -2.677121   -2.563447
  C     -0.870963    0.248043   -2.662804
  C     -0.477492    0.608191   -4.101052
  H      0.206773    1.458299   -4.118748
  H     -1.368442    0.929419   -4.647855
  C      0.184673   -0.506640   -4.916760
  C      3.037640   -2.366715   -3.923509
  N      2.280360   -2.454408   -4.967692
  C      4.321736   -2.017932   -4.016641
  H      4.879940   -1.911668   -3.173823
  H      4.710148   -1.670882   -4.883561
  H      1.270423   -2.412650   -4.866143
  H      2.581829   -2.055282   -5.846878
  O     -0.158685   -1.701088   -4.657981
  F      1.055938   -0.174410   -5.740373
  C      2.497991   -1.469464   -1.610303
  C      1.582841   -0.321986   -2.042619
  H      2.193083   -1.833912   -0.625420
  H      3.523356   -1.103982   -1.490392
  C      0.100160   -0.673551   -1.915815
  H      1.822311   -0.040361   -3.072834
  H      1.813180    0.557019   -1.433266
  H     -0.063284   -1.679120   -2.301112
  H     -0.168820   -0.691680   -0.853831
  H     -1.001048    1.181040   -2.104071
  H     -1.844645   -0.246592   -2.663281
  H      1.472592   -3.051527   -2.694366
  H      3.083201   -3.490638   -2.141472

 Total Charge           Charge          ....    0
 Multiplicity           Mult            ....    1
 Number of Electrons    NEL             ....   94
 Basis Dimension        Dim             ....  594

ORBITAL ENERGIES
----------------

  NO   OCC          E(Eh)            E(eV)
   0   2.0000     -24.551965      -668.0929
   1   2.0000     -18.970045      -516.2012
   2   2.0000     -14.138198      -384.7199
   3   2.0000     -10.278068      -279.6805
   4   2.0000     -10.113966      -275.2150
   5   2.0000     -10.088054      -274.5099
   6   2.0000     -10.076886      -274.2060
   7   2.0000     -10.067135      -273.9407
   8   2.0000     -10.067009      -273.9372
   9   2.0000     -10.061893      -273.7980
  10   2.0000     -10.056766      -273.6585
  11   2.0000      -9.983850      -271.6744
  12   2.0000      -1.431327       -38.9484
  13   2.0000      -1.154716       -31.4214
  14   2.0000      -1.019995       -27.7555
  15   2.0000      -0.942366       -25.6431
  16   2.0000      -0.903111       -24.5749
  17   2.0000      -0.861513       -23.4429
  18   2.0000      -0.818753       -22.2794
  19   2.0000      -0.791824       -21.5466
  20   2.0000      -0.772347       -21.0166
  21   2.0000      -0.731540       -19.9062
  22   2.0000      -0.695212       -18.9177
  23   2.0000      -0.686974       -18.6935
  24   2.0000      -0.664732       -18.0883
  25   2.0000      -0.653484       -17.7822
  26   2.0000      -0.633440       -17.2368
  27   2.0000      -0.604340       -16.4449
  28   2.0000      -0.590655       -16.0725
  29   2.0000      -0.583877       -15.8881
  30   2.0000      -0.576578       -15.6895
  31   2.0000      -0.550362       -14.9761
  32   2.0000      -0.529458       -14.4073
  33   2.0000      -0.514832       -14.0093
  34   2.0000      -0.509675       -13.8690
  35   2.0000      -0.496644       -13.5144
  36   2.0000      -0.482382       -13.1263
  37   2.0000      -0.474547       -12.9131
  38   2.0000      -0.461630       -12.5616
  39   2.0000      -0.459242       -12.4966
  40   2.0000      -0.440123       -11.9764
  41   2.0000      -0.435023       -11.8376
  42   2.0000      -0.420566       -11.4442
  43   2.0000      -0.419263       -11.4087
  44   2.0000      -0.412268       -11.2184
  45   2.0000      -0.396392       -10.7864
  46   2.0000      -0.265645        -7.2286
  47   0.0000       0.025526         0.6946
  48   0.0000       0.039999         1.0884
  49   0.0000       0.057311         1.5595
  50   0.0000       0.062269         1.6944
  51   0.0000       0.065481         1.7818

MULLIKEN ATOMIC CHARGES
-----------------------
   0 C :   -0.950889
   1 C :   -0.850399
   2 C :   -0.715208
   3 H :    0.443187
   4 H :    0.424952
   5 C :    0.532446
   6 C :    0.481238
   7 N :   -0.508686
   8 C :   -1.185904
   9 H :    0.324211
  10 H :    0.345933
  11 H :    0.433046
  12 H :    0.177752
  13 O :   -0.557621
  14 F :   -0.231798
  15 C :   -0.788777
  16 C :   -0.688672
  17 H :    0.414545
  18 H :    0.458338
  19 C :   -0.717108
  20 H :    0.340950
  21 H :    0.368542
  22 H :    0.350004
  23 H :    0.471678
  24 H :    0.419097
  25 H :    0.420328
  26 H :    0.400707
  27 H :    0.388109
Sum of atomic charges:    0.0000000

LOEWDIN ATOMIC CHARGES
----------------------
   0 C :   -0.149088
   1 C :   -0.195646
   2 C :   -0.109928
   3 H :    0.125562
   4 H :    0.134377
   5 C :   -0.478068
   6 C :   -0.495671
   7 N :    0.118336
   8 C :    0.011194
   9 H :    0.020564
  10 H :    0.018855
  11 H :    0.029661
  12 H :    0.114406
  13 O :    0.073604
  14 F :    0.251397
  15 C :   -0.201369
  16 C :   -0.205842
  17 H :    0.117370
  18 H :    0.112079
  19 C :   -0.220625
  20 H :    0.106373
  21 H :    0.123627
  22 H :    0.096081
  23 H :    0.125295
  24 H :    0.121051
  25 H :    0.119675
  26 H :    0.109070
  27 H :    0.127662

  Mayer bond orders larger than 0.100000
B(  0-C ,  6-C ) :   0.4690 B(  0-C , 15-C ) :   0.6438 B(  0-C , 26-H ) :   0.9642
B(  0-C , 27-H ) :   0.9557 B(  1-C ,  2-C ) :   0.6153 B(  1-C , 19-C ) :   0.6976
B(  1-C , 24-H ) :   0.9241 B(  1-C , 25-H ) :   0.9215 B(  2-C ,  3-H ) :   0.9113
B(  2-C ,  4-H ) :   0.8762 B(  2-C ,  5-C ) :   0.7987 B(  5-C , 13-O ) :   1.6143
B(  5-C , 14-F ) :   0.9607 B(  6-C ,  7-N ) :   0.8971 B(  6-C ,  8-C ) :   1.2721
B(  6-C , 10-H ) :  -0.1224 B(  7-N ,  8-C ) :   0.1952 B(  7-N , 11-H ) :   0.6396
B(  7-N , 12-H ) :   0.9644 B(  8-C ,  9-H ) :   0.9984 B(  8-C , 10-H ) :   1.0164
B(  8-C , 15-C ) :  -0.1082 B( 15-C , 16-C ) :   0.7831 B( 15-C , 17-H ) :   0.8866
B( 15-C , 18-H ) :   0.8636 B( 16-C , 19-C ) :   0.2126 B( 16-C , 20-H ) :   0.9631
B( 16-C , 21-H ) :   0.9605 B( 16-C , 22-H ) :  -0.1393 B( 19-C , 20-H ) :  -0.1102
B( 19-C , 22-H ) :   1.0654 B( 19-C , 23-H ) :   0.7954

FINAL SINGLE POINT ENERGY      -581.175205022801

DIPOLE MOMENT
-------------
                                X             Y             Z
Electronic contribution:     -3.45134       0.81557     -12.71897
Nuclear contribution   :      2.21030       0.63135      12.80988
                        -----------------------------------------
Total Dipole Moment    :     -1.24104       1.44692       0.09091
                        -----------------------------------------
Magnitude (a.u.)       :      1.90840
Magnitude (Debye)      :      4.85077

Rotational constants in cm-1:     0.039980     0.026547     0.019089
Rotational constants in MHz :  1198.568620   795.867393   572.288555

                             ****ORCA TERMINATED NORMALLY****
TOTAL RUN TIME: 0 days 0 hours 5 minutes 5 seconds 736 msec
