                         Program Version 5.0.0 -  RELEASE  -
|  1> !PBE D3BJ RIJCOSX def2-SVPD def2/J TightSCF
|  2> *xyz -1 1
|  3> C          3.76678       -2.26611       -6.51175
|  4> C          2.49670       -1.84416       -5.73570
|  5> H          1.62642       -2.21743       -6.30895
|  6> H          2.48182       -2.45607       -4.79341
|  7> O          2.45973       -0.50920       -5.50576
|  8> H          3.82914       -1.70941       -7.42340
|  9> H          3.71764       -3.31144       -6.73483
| 10> H          4.63199       -2.06931       -5.91377
| 11> *
| 12>
| 13> %MaxCore 64000
| 14>
| 15> %pal nprocs 4
| 16> end
| 17>
| 18> %scf
| 19>   MaxIter 150
| 20> end
| 21>
| 22>
| 23>                          ****END OF INPUT****

CARTESIAN COORDINATES (ANGSTROEM)
---------------------------------
  C      3.766780   -2.266110   -6.511750
  C      2.496700   -1.844160   -5.735700
  H      1.626420   -2.217430   -6.308950
  H      2.481820   -2.456070   -4.793410
  O      2.459730   -0.509200   -5.505760
  H      3.829140   -1.709410   -7.423400
  H      3.717640   -3.311440   -6.734830
  H      4.631990   -2.069310   -5.913770

 Total Charge           Charge          ....   -1
 Multiplicity           Mult            ....    1
 Number of Electrons    NEL             ....   26
 Basis Dimension        Dim             ....  103

ORBITAL ENERGIES
----------------

  NO   OCC          E(Eh)            E(eV)
   0   2.0000     -18.444491      -501.9001
   1   2.0000      -9.711820      -264.2721
   2   2.0000      -9.687225      -263.6028
   3   2.0000      -0.599903       -16.3242
   4   2.0000      -0.449715       -12.2374
   5   2.0000      -0.308498        -8.3947
   6   2.0000      -0.201395        -5.4802
   7   2.0000      -0.179981        -4.8975
   8   2.0000      -0.131930        -3.5900
   9   2.0000      -0.113661        -3.0929
  10   2.0000      -0.075949        -2.0667
  11   2.0000       0.064834         1.7642
  12   2.0000       0.067995         1.8502
  13   0.0000       0.163904         4.4600
  14   0.0000       0.193034         5.2527
  15   0.0000       0.224125         6.0987
  16   0.0000       0.237073         6.4511
  17   0.0000       0.255223         6.9450

MULLIKEN ATOMIC CHARGES
-----------------------
   0 C :    0.198624
   1 C :    0.092146
   2 H :   -0.164873
   3 H :   -0.117344
   4 O :   -0.837625
   5 H :   -0.071397
   6 H :   -0.031670
   7 H :   -0.067861
Sum of atomic charges:   -1.0000000

LOEWDIN ATOMIC CHARGES
----------------------
   0 C :    0.057764
   1 C :   -0.277369
   2 H :   -0.042594
   3 H :   -0.035301
   4 O :   -0.538343
   5 H :   -0.046945
   6 H :   -0.069153
   7 H :   -0.048059

  Mayer bond orders larger than 0.100000
B(  0-C ,  1-C ) :   1.2038 B(  0-C ,  2-H ) :   0.1574 B(  0-C ,  3-H ) :   0.1539
B(  0-C ,  4-O ) :   0.3071 B(  0-C ,  5-H ) :   0.9264 B(  0-C ,  6-H ) :   0.9390
B(  0-C ,  7-H ) :   0.9175 B(  1-C ,  2-H ) :   0.9777 B(  1-C ,  3-H ) :   0.9796
B(  1-C ,  4-O ) :   1.1129 B(  1-C ,  5-H ) :   0.1829 B(  1-C ,  6-H ) :   0.1340
B(  1-C ,  7-H ) :   0.1760 B(  2-H ,  3-H ) :   0.1091

Dispersion correction           -0.003763250
FINAL SINGLE POINT ENERGY      -154.134904598490

DIPOLE MOMENT
-------------
                                X             Y             Z
Electronic contribution:     -1.12645       2.64565       1.00352
Nuclear contribution   :      1.63615      -3.79938      -1.48621
                        -----------------------------------------
Total Dipole Moment    :      0.50970      -1.15373      -0.48269
                        -----------------------------------------
Magnitude (a.u.)       :      1.35051
Magnitude (Debye)      :      3.43273

Rotational constants in cm-1:     1.265582     0.329289     0.289024
Rotational constants in MHz : 37941.194363  9871.829581  8664.719106

                             ****ORCA TERMINATED NORMALLY****
TOTAL RUN TIME: 0 days 0 hours 0 minutes 7 seconds 446 msec
