                         Program Version 5.0.0 -  RELEASE  -
|  1> !PBE D3BJ RIJCOSX def2-SVPD def2/J TightSCF
|  2> *xyz 1 1
|  3> C          4.99986       -1.59613       -5.92488
|  4> N          5.28156       -1.97413       -4.53576
|  5> C          3.76678       -2.26611       -6.51175
|  6> C          4.79250       -1.36132       -3.45730
|  7> N          3.93990       -0.37492       -3.55736
|  8> N          5.25986       -1.75422       -2.23913
|  9> H          5.92282       -2.52145       -2.18672
| 10> H          4.65468       -1.64040       -1.44202
| 11> H          5.70914       -2.87560       -4.38702
| 12> H          3.33010       -0.31764       -4.36125
| 13> H          3.69849        0.11447       -2.70833
| 14> H          4.84333       -0.51793       -5.94302
| 15> H          5.90170       -1.82250       -6.49647
| 16> H          3.63046       -1.94025       -7.52177
| 17> H          2.90710       -2.00116       -5.93240
| 18> H          3.89538       -3.32820       -6.49392
| 19> *
| 20>
| 21> %MaxCore 64000
| 22>
| 23> %pal nprocs 4
| 24> end
| 25>
| 26> %scf
| 27>   MaxIter 150
| 28> end
| 29>
| 30>
| 31>                          ****END OF INPUT****

CARTESIAN COORDINATES (ANGSTROEM)
---------------------------------
  C      4.999860   -1.596130   -5.924880
  N      5.281560   -1.974130   -4.535760
  C      3.766780   -2.266110   -6.511750
  C      4.792500   -1.361320   -3.457300
  N      3.939900   -0.374920   -3.557360
  N      5.259860   -1.754220   -2.239130
  H      5.922820   -2.521450   -2.186720
  H      4.654680   -1.640400   -1.442020
  H      5.709140   -2.875600   -4.387020
  H      3.330100   -0.317640   -4.361250
  H      3.698490    0.114470   -2.708330
  H      4.843330   -0.517930   -5.943020
  H      5.901700   -1.822500   -6.496470
  H      3.630460   -1.940250   -7.521770
  H      2.907100   -2.001160   -5.932400
  H      3.895380   -3.328200   -6.493920

 Total Charge           Charge          ....    1
 Multiplicity           Mult            ....    1
 Number of Electrons    NEL             ....   48
 Basis Dimension        Dim             ....  200

ORBITAL ENERGIES
----------------

  NO   OCC          E(Eh)            E(eV)
   0   2.0000     -14.227429      -387.1480
   1   2.0000     -14.225298      -387.0900
   2   2.0000     -14.218735      -386.9114
   3   2.0000     -10.219300      -278.0813
   4   2.0000     -10.102352      -274.8990
   5   2.0000     -10.037740      -273.1408
   6   2.0000      -1.123767       -30.5792
   7   2.0000      -1.021622       -27.7997
   8   2.0000      -1.006769       -27.3956
   9   2.0000      -0.858684       -23.3660
  10   2.0000      -0.779169       -21.2023
  11   2.0000      -0.743125       -20.2215
  12   2.0000      -0.735784       -20.0217
  13   2.0000      -0.686521       -18.6812
  14   2.0000      -0.648137       -17.6367
  15   2.0000      -0.644897       -17.5485
  16   2.0000      -0.597601       -16.2615
  17   2.0000      -0.581776       -15.8309
  18   2.0000      -0.560759       -15.2590
  19   2.0000      -0.519584       -14.1386
  20   2.0000      -0.491510       -13.3747
  21   2.0000      -0.473119       -12.8742
  22   2.0000      -0.440415       -11.9843
  23   2.0000      -0.415362       -11.3026
  24   0.0000      -0.210756        -5.7350
  25   0.0000      -0.174279        -4.7424
  26   0.0000      -0.144182        -3.9234
  27   0.0000      -0.132563        -3.6072
  28   0.0000      -0.116805        -3.1784

MULLIKEN ATOMIC CHARGES
-----------------------
   0 C :    0.358977
   1 N :   -0.387992
   2 C :    0.731943
   3 C :    1.273114
   4 N :    0.097882
   5 N :   -0.046493
   6 H :   -0.042321
   7 H :   -0.032955
   8 H :   -0.286713
   9 H :   -0.065370
  10 H :   -0.099389
  11 H :   -0.060308
  12 H :   -0.300234
  13 H :    0.040167
  14 H :   -0.136645
  15 H :   -0.043664
Sum of atomic charges:    1.0000000

LOEWDIN ATOMIC CHARGES
----------------------
   0 C :    0.037342
   1 N :    0.056913
   2 C :    0.159812
   3 C :   -0.058327
   4 N :    0.295966
   5 N :    0.274281
   6 H :    0.031373
   7 H :    0.025461
   8 H :    0.053385
   9 H :    0.025790
  10 H :    0.043394
  11 H :    0.027598
  12 H :    0.043156
  13 H :    0.007337
  14 H :   -0.020267
  15 H :   -0.003214

  Mayer bond orders larger than 0.100000
B(  0-C ,  1-N ) :   0.9230 B(  0-C ,  2-C ) :   1.2843 B(  0-C ,  8-H ) :  -0.2177
B(  0-C , 11-H ) :   0.8348 B(  0-C , 12-H ) :   0.8926 B(  0-C , 13-H ) :   0.1772
B(  0-C , 14-H ) :   0.2108 B(  0-C , 15-H ) :   0.2338 B(  1-N ,  3-C ) :   0.9979
B(  1-N ,  4-N ) :   0.2638 B(  1-N ,  5-N ) :   0.2320 B(  1-N ,  8-H ) :   1.3252
B(  1-N , 11-H ) :   0.1598 B(  1-N , 12-H ) :   0.1641 B(  2-C , 13-H ) :   0.7735
B(  2-C , 14-H ) :   0.8089 B(  2-C , 15-H ) :   0.7890 B(  3-C ,  4-N ) :   1.0544
B(  3-C ,  5-N ) :   0.8002 B(  3-C ,  6-H ) :  -0.1125 B(  3-C ,  8-H ) :  -0.2300
B(  3-C ,  9-H ) :  -0.1290 B(  3-C , 10-H ) :  -0.1152 B(  4-N ,  5-N ) :   0.1889
B(  4-N ,  9-H ) :   1.1295 B(  4-N , 10-H ) :   1.1920 B(  5-N ,  6-H ) :   1.0772
B(  5-N ,  7-H ) :   1.1491 B(  6-H ,  7-H ) :  -0.1336 B(  9-H , 10-H ) :  -0.1765

Dispersion correction           -0.012363524
FINAL SINGLE POINT ENERGY      -283.864439610095

DIPOLE MOMENT
-------------
                                X             Y             Z
Electronic contribution:      1.76262       1.09653       4.71217
Nuclear contribution   :     -1.95709      -1.20097      -3.70214
                        -----------------------------------------
Total Dipole Moment    :     -0.19447      -0.10444       1.01004
                        -----------------------------------------
Magnitude (a.u.)       :      1.03388
Magnitude (Debye)      :      2.62791

Rotational constants in cm-1:     0.241661     0.071598     0.061743
Rotational constants in MHz :  7244.800091  2146.442409  1851.001864

                             ****ORCA TERMINATED NORMALLY****
TOTAL RUN TIME: 0 days 0 hours 0 minutes 12 seconds 847 msec
