                         Program Version 5.0.0 -  RELEASE  -
|  1> !PBE D3BJ RIJCOSX def2-SVPD def2/J TightSCF xyzfile
|  2>
|  3> *xyzfile 0 1 B.xyz
|  4>
|  5> %MaxCore 64000
|  6>
|  7> %pal nprocs 4
|  8> end
|  9>
| 10> %scf
| 11>   MaxIter 150
| 12> end
| 13>
| 14>
| 15>                          ****END OF INPUT****

CARTESIAN COORDINATES (ANGSTROEM)
---------------------------------
  C      4.999862   -1.596133   -5.924876
  N      5.281560   -1.974132   -4.535764
  C      3.766779   -2.266110   -6.511752
  C      2.496702   -1.844161   -5.735704
  H      1.626416   -2.217434   -6.308950
  H      2.481824   -2.456069   -4.793414
  O      2.459729   -0.509204   -5.505757
  C      4.792500   -1.361316   -3.457295
  N      3.939898   -0.374925   -3.557359
  N      5.259860   -1.754224   -2.239133
  H      5.922824   -2.521451   -2.186720
  H      4.654678   -1.640404   -1.442016
  H      5.709139   -2.875599   -4.387021
  H      3.330101   -0.317639   -4.361247
  H      3.698494    0.114468   -2.708333
  H      4.843333   -0.517930   -5.943019
  H      5.901695   -1.822503   -6.496467
  H      3.886191   -3.357076   -6.533604
  H      3.685602   -1.922168   -7.547128

 Total Charge           Charge          ....    0
 Multiplicity           Mult            ....    1
 Number of Electrons    NEL             ....   64
 Basis Dimension        Dim             ....  251

ORBITAL ENERGIES
----------------

  NO   OCC          E(Eh)            E(eV)
   0   2.0000     -18.631178      -506.9801
   1   2.0000     -14.062257      -382.6535
   2   2.0000     -14.056572      -382.4988
   3   2.0000     -14.012959      -381.3120
   4   2.0000     -10.041202      -273.2350
   5   2.0000      -9.929096      -270.1844
   6   2.0000      -9.881236      -268.8821
   7   2.0000      -9.867676      -268.5131
   8   2.0000      -0.948877       -25.8203
   9   2.0000      -0.849914       -23.1273
  10   2.0000      -0.833013       -22.6674
  11   2.0000      -0.795146       -21.6370
  12   2.0000      -0.683849       -18.6085
  13   2.0000      -0.611129       -16.6297
  14   2.0000      -0.571985       -15.5645
  15   2.0000      -0.557829       -15.1793
  16   2.0000      -0.530627       -14.4391
  17   2.0000      -0.485879       -13.2214
  18   2.0000      -0.473142       -12.8748
  19   2.0000      -0.452084       -12.3018
  20   2.0000      -0.422904       -11.5078
  21   2.0000      -0.410239       -11.1632
  22   2.0000      -0.388579       -10.5738
  23   2.0000      -0.361285        -9.8311
  24   2.0000      -0.319629        -8.6975
  25   2.0000      -0.300533        -8.1779
  26   2.0000      -0.289526        -7.8784
  27   2.0000      -0.268282        -7.3003
  28   2.0000      -0.259445        -7.0599
  29   2.0000      -0.241032        -6.5588
  30   2.0000      -0.130655        -3.5553
  31   2.0000      -0.124047        -3.3755
  32   0.0000      -0.043103        -1.1729
  33   0.0000      -0.031688        -0.8623
  34   0.0000      -0.002858        -0.0778
  35   0.0000       0.013473         0.3666
  36   0.0000       0.036468         0.9924

MULLIKEN ATOMIC CHARGES
-----------------------
   0 C :    0.763278
   1 N :   -0.462536
   2 C :    0.032049
   3 C :    0.533065
   4 H :   -0.443298
   5 H :    0.140092
   6 O :   -0.643503
   7 C :    1.171995
   8 N :    0.337085
   9 N :   -0.062959
  10 H :   -0.092975
  11 H :   -0.063317
  12 H :   -0.282372
  13 H :   -0.399051
  14 H :   -0.164695
  15 H :    0.181500
  16 H :   -0.434828
  17 H :   -0.127311
  18 H :    0.017781
Sum of atomic charges:   -0.0000000

LOEWDIN ATOMIC CHARGES
----------------------
   0 C :    0.057189
   1 N :    0.049236
   2 C :   -0.025521
   3 C :   -0.109758
   4 H :    0.003235
   5 H :   -0.003144
   6 O :   -0.382002
   7 C :   -0.077376
   8 N :    0.307437
   9 N :    0.234562
  10 H :    0.001604
  11 H :    0.002878
  12 H :    0.032925
  13 H :   -0.191575
  14 H :    0.022826
  15 H :    0.025609
  16 H :    0.018179
  17 H :    0.009652
  18 H :    0.024043

  Mayer bond orders larger than 0.100000
B(  0-C ,  1-N ) :   0.9644 B(  0-C ,  2-C ) :   1.1647 B(  0-C , 12-H ) :  -0.2028
B(  0-C , 15-H ) :   0.6669 B(  0-C , 16-H ) :   0.8685 B(  0-C , 17-H ) :   0.1656
B(  0-C , 18-H ) :   0.1205 B(  1-N ,  7-C ) :   0.9742 B(  1-N ,  8-N ) :   0.2100
B(  1-N ,  9-N ) :   0.2235 B(  1-N , 12-H ) :   1.3164 B(  1-N , 15-H ) :   0.1867
B(  1-N , 16-H ) :   0.1558 B(  2-C ,  3-C ) :   1.0947 B(  2-C ,  4-H ) :   0.1689
B(  2-C ,  5-H ) :   0.1259 B(  2-C , 15-H ) :   0.1226 B(  2-C , 17-H ) :   0.8894
B(  2-C , 18-H ) :   0.8476 B(  3-C ,  4-H ) :   1.0162 B(  3-C ,  5-H ) :   0.7980
B(  3-C ,  6-O ) :   1.0966 B(  3-C , 17-H ) :   0.1198 B(  3-C , 18-H ) :   0.1140
B(  6-O , 13-H ) :   0.3721 B(  7-C ,  8-N ) :   1.1425 B(  7-C ,  9-N ) :   0.7616
B(  7-C , 10-H ) :  -0.1246 B(  7-C , 12-H ) :  -0.2202 B(  7-C , 13-H ) :  -0.1753
B(  7-C , 14-H ) :  -0.1174 B(  8-N ,  9-N ) :   0.2002 B(  8-N , 13-H ) :   1.1313
B(  8-N , 14-H ) :   1.1805 B(  9-N , 10-H ) :   1.1253 B(  9-N , 11-H ) :   1.1495
B( 10-H , 11-H ) :  -0.1406 B( 13-H , 14-H ) :  -0.2273 B( 15-H , 16-H ) :  -0.1625

Dispersion correction           -0.017606166
FINAL SINGLE POINT ENERGY      -397.775741307795

DIPOLE MOMENT
-------------
                                X             Y             Z
Electronic contribution:      1.81076       2.02512       3.60141
Nuclear contribution   :      0.51577      -3.31768      -1.36804
                        -----------------------------------------
Total Dipole Moment    :      2.32653      -1.29256       2.23338
                        -----------------------------------------
Magnitude (a.u.)       :      3.47440
Magnitude (Debye)      :      8.83121

Rotational constants in cm-1:     0.111492     0.050787     0.040163
Rotational constants in MHz :  3342.457536  1522.560798  1204.057148

                             ****ORCA TERMINATED NORMALLY****
TOTAL RUN TIME: 0 days 0 hours 0 minutes 16 seconds 55 msec
