                         Program Version 5.0.0 -  RELEASE  -
|  1> !PBE D3BJ RIJCOSX def2-SVPD def2/J TightSCF
|  2> *xyz 0 1
|  3> C          3.76678       -2.26611       -6.51175
|  4> C          2.49670       -1.84416       -5.73570
|  5> H          1.62642       -2.21743       -6.30895
|  6> H          2.48182       -2.45607       -4.79341
|  7> F          2.45973       -0.50920       -5.50576
|  8> H          3.82914       -1.70941       -7.42340
|  9> H          3.71764       -3.31144       -6.73483
| 10> H          4.63199       -2.06931       -5.91377
| 11> *
| 12>
| 13> %MaxCore 64000
| 14>
| 15> %pal nprocs 4
| 16> end
| 17>
| 18> %scf
| 19>   MaxIter 150
| 20> end
| 21>
| 22>
| 23>                          ****END OF INPUT****

CARTESIAN COORDINATES (ANGSTROEM)
---------------------------------
  C      3.766780   -2.266110   -6.511750
  C      2.496700   -1.844160   -5.735700
  H      1.626420   -2.217430   -6.308950
  H      2.481820   -2.456070   -4.793410
  F      2.459730   -0.509200   -5.505760
  H      3.829140   -1.709410   -7.423400
  H      3.717640   -3.311440   -6.734830
  H      4.631990   -2.069310   -5.913770

 Total Charge           Charge          ....    0
 Multiplicity           Mult            ....    1
 Number of Electrons    NEL             ....   26
 Basis Dimension        Dim             ....  103

ORBITAL ENERGIES
----------------

  NO   OCC          E(Eh)            E(eV)
   0   2.0000     -24.267824      -660.3611
   1   2.0000      -9.975081      -271.4358
   2   2.0000      -9.892300      -269.1832
   3   2.0000      -1.093593       -29.7582
   4   2.0000      -0.686171       -18.6717
   5   2.0000      -0.565359       -15.3842
   6   2.0000      -0.462411       -12.5828
   7   2.0000      -0.442413       -12.0387
   8   2.0000      -0.408417       -11.1136
   9   2.0000      -0.356682        -9.7058
  10   2.0000      -0.355777        -9.6812
  11   2.0000      -0.289021        -7.8647
  12   2.0000      -0.283658        -7.7187
  13   0.0000       0.005349         0.1455
  14   0.0000       0.037280         1.0145
  15   0.0000       0.051692         1.4066
  16   0.0000       0.061007         1.6601
  17   0.0000       0.085928         2.3382

MULLIKEN ATOMIC CHARGES
-----------------------
   0 C :    0.338925
   1 C :    0.379763
   2 H :   -0.083063
   3 H :   -0.040723
   4 F :   -0.407037
   5 H :   -0.073081
   6 H :   -0.048883
   7 H :   -0.065901
Sum of atomic charges:   -0.0000000

LOEWDIN ATOMIC CHARGES
----------------------
   0 C :    0.136189
   1 C :    0.042173
   2 H :    0.025882
   3 H :    0.035444
   4 F :   -0.191095
   5 H :   -0.016285
   6 H :   -0.015284
   7 H :   -0.017025

  Mayer bond orders larger than 0.100000
B(  0-C ,  1-C ) :   1.3647 B(  0-C ,  5-H ) :   0.8916 B(  0-C ,  6-H ) :   0.8600
B(  0-C ,  7-H ) :   0.8871 B(  1-C ,  2-H ) :   0.9342 B(  1-C ,  3-H ) :   0.9327
B(  1-C ,  4-F ) :   0.7877 B(  1-C ,  5-H ) :   0.1467 B(  1-C ,  6-H ) :   0.1229
B(  1-C ,  7-H ) :   0.1408

Dispersion correction           -0.003481210
FINAL SINGLE POINT ENERGY      -178.726180852466

DIPOLE MOMENT
-------------
                                X             Y             Z
Electronic contribution:     -2.07771       4.36304       1.81504
Nuclear contribution   :      2.16248      -5.01128      -1.96962
                        -----------------------------------------
Total Dipole Moment    :      0.08476      -0.64824      -0.15458
                        -----------------------------------------
Magnitude (a.u.)       :      0.67179
Magnitude (Debye)      :      1.70755

Rotational constants in cm-1:     1.244010     0.306580     0.270375
Rotational constants in MHz : 37294.476802  9191.037795  8105.639967

                             ****ORCA TERMINATED NORMALLY****
TOTAL RUN TIME: 0 days 0 hours 0 minutes 6 seconds 639 msec
