                         Program Version 5.0.0 -  RELEASE  -
|  1> !PBE D3BJ RIJCOSX def2-SVPD def2/J TightSCF
|  2> *xyz 0 1
|  3> C          4.99986       -1.59613       -5.92488
|  4> C          5.28156       -1.97413       -4.53576
|  5> C          3.76678       -2.26611       -6.51175
|  6> C          4.79250       -1.36132       -3.45730
|  7> N          3.93990       -0.37492       -3.55736
|  8> N          5.25986       -1.75422       -2.23913
|  9> H          5.92282       -2.52145       -2.18672
| 10> H          4.65468       -1.64040       -1.44202
| 11> H          5.70914       -2.87560       -4.38702
| 12> H          3.33010       -0.31764       -4.36125
| 13> H          3.69849        0.11447       -2.70833
| 14> H          4.84333       -0.51793       -5.94302
| 15> H          5.90170       -1.82250       -6.49647
| 16> H          3.63046       -1.94025       -7.52177
| 17> H          2.90710       -2.00116       -5.93240
| 18> H          3.89538       -3.32820       -6.49392
| 19> *
| 20>
| 21> %MaxCore 64000
| 22>
| 23> %pal nprocs 4
| 24> end
| 25>
| 26> %scf
| 27>   MaxIter 150
| 28> end
| 29>
| 30>
| 31>                          ****END OF INPUT****

CARTESIAN COORDINATES (ANGSTROEM)
---------------------------------
  C      4.999860   -1.596130   -5.924880
  C      5.281560   -1.974130   -4.535760
  C      3.766780   -2.266110   -6.511750
  C      4.792500   -1.361320   -3.457300
  N      3.939900   -0.374920   -3.557360
  N      5.259860   -1.754220   -2.239130
  H      5.922820   -2.521450   -2.186720
  H      4.654680   -1.640400   -1.442020
  H      5.709140   -2.875600   -4.387020
  H      3.330100   -0.317640   -4.361250
  H      3.698490    0.114470   -2.708330
  H      4.843330   -0.517930   -5.943020
  H      5.901700   -1.822500   -6.496470
  H      3.630460   -1.940250   -7.521770
  H      2.907100   -2.001160   -5.932400
  H      3.895380   -3.328200   -6.493920

 Total Charge           Charge          ....    0
 Multiplicity           Mult            ....    1
 Number of Electrons    NEL             ....   48
 Basis Dimension        Dim             ....  200

ORBITAL ENERGIES
----------------

  NO   OCC          E(Eh)            E(eV)
   0   2.0000     -14.006122      -381.1260
   1   2.0000     -13.997859      -380.9011
   2   2.0000      -9.932376      -270.2737
   3   2.0000      -9.870698      -268.5953
   4   2.0000      -9.865723      -268.4600
   5   2.0000      -9.822745      -267.2905
   6   2.0000      -0.873802       -23.7774
   7   2.0000      -0.787890       -21.4396
   8   2.0000      -0.695275       -18.9194
   9   2.0000      -0.622370       -16.9355
  10   2.0000      -0.552110       -15.0237
  11   2.0000      -0.520724       -14.1696
  12   2.0000      -0.494918       -13.4674
  13   2.0000      -0.451697       -12.2913
  14   2.0000      -0.431930       -11.7534
  15   2.0000      -0.395919       -10.7735
  16   2.0000      -0.369174       -10.0457
  17   2.0000      -0.348691        -9.4884
  18   2.0000      -0.338185        -9.2025
  19   2.0000      -0.310379        -8.4458
  20   2.0000      -0.285257        -7.7622
  21   2.0000      -0.277487        -7.5508
  22   2.0000      -0.224555        -6.1104
  23   2.0000      -0.134119        -3.6496
  24   0.0000      -0.008580        -0.2335
  25   0.0000       0.018333         0.4989
  26   0.0000       0.032384         0.8812
  27   0.0000       0.039209         1.0669
  28   0.0000       0.055589         1.5127

MULLIKEN ATOMIC CHARGES
-----------------------
   0 C :   -0.173000
   1 C :   -0.373635
   2 C :    0.692741
   3 C :    0.862021
   4 N :    0.181780
   5 N :   -0.056845
   6 H :   -0.029787
   7 H :   -0.127728
   8 H :   -0.291846
   9 H :   -0.105034
  10 H :   -0.230631
  11 H :   -0.025317
  12 H :   -0.126706
  13 H :    0.000782
  14 H :   -0.144591
  15 H :   -0.052204
Sum of atomic charges:    0.0000000

LOEWDIN ATOMIC CHARGES
----------------------
   0 C :   -0.104245
   1 C :   -0.026529
   2 C :    0.115000
   3 C :   -0.238998
   4 N :    0.212419
   5 N :    0.192828
   6 H :   -0.002908
   7 H :   -0.027905
   8 H :   -0.053278
   9 H :   -0.005186
  10 H :   -0.006488
  11 H :    0.004646
  12 H :    0.014088
  13 H :   -0.024557
  14 H :   -0.030584
  15 H :   -0.018303

  Mayer bond orders larger than 0.100000
B(  0-C ,  1-C ) :   1.1841 B(  0-C ,  2-C ) :   1.2416 B(  0-C ,  8-H ) :   0.2590
B(  0-C , 11-H ) :   0.8295 B(  0-C , 12-H ) :   0.8635 B(  0-C , 13-H ) :   0.1735
B(  0-C , 14-H ) :   0.2185 B(  0-C , 15-H ) :   0.2437 B(  1-C ,  3-C ) :   1.4637
B(  1-C ,  4-N ) :   0.3401 B(  1-C ,  5-N ) :   0.3679 B(  1-C ,  8-H ) :   0.8883
B(  1-C , 11-H ) :   0.2930 B(  1-C , 12-H ) :   0.1784 B(  2-C , 13-H ) :   0.7955
B(  2-C , 14-H ) :   0.8264 B(  2-C , 15-H ) :   0.7968 B(  3-C ,  4-N ) :   1.0748
B(  3-C ,  5-N ) :   0.7167 B(  3-C ,  8-H ) :   0.1289 B(  3-C , 10-H ) :  -0.1143
B(  3-C , 11-H ) :  -0.1212 B(  4-N ,  5-N ) :   0.1191 B(  4-N ,  9-H ) :   1.0985
B(  4-N , 10-H ) :   1.2478 B(  5-N ,  6-H ) :   1.0657 B(  5-N ,  7-H ) :   1.1536
B(  6-H ,  7-H ) :  -0.1187 B(  9-H , 10-H ) :  -0.1642

Dispersion correction           -0.012825878
FINAL SINGLE POINT ENERGY      -267.400842481918

DIPOLE MOMENT
-------------
                                X             Y             Z
Electronic contribution:      1.24958       1.39627       4.51631
Nuclear contribution   :     -1.82485      -1.28952      -3.74132
                        -----------------------------------------
Total Dipole Moment    :     -0.57527       0.10675       0.77499
                        -----------------------------------------
Magnitude (a.u.)       :      0.97106
Magnitude (Debye)      :      2.46823

Rotational constants in cm-1:     0.245790     0.071632     0.062004
Rotational constants in MHz :  7368.599517  2147.482078  1858.844841

                             ****ORCA TERMINATED NORMALLY****
TOTAL RUN TIME: 0 days 0 hours 0 minutes 13 seconds 479 msec
