                         Program Version 5.0.0 -  RELEASE  -
|  1> !PBE D3BJ RIJCOSX def2-SVPD def2/J TightSCF
|  2> *xyz 0 1
|  3> C          4.99986       -1.59613       -5.92488
|  4> N          5.28156       -1.97413       -4.53576
|  5> C          3.76678       -2.26611       -6.51175
|  6> C          4.79250       -1.36132       -3.45730
|  7> C          3.93990       -0.37492       -3.55736
|  8> N          5.25986       -1.75422       -2.23913
|  9> H          5.92282       -2.52145       -2.18672
| 10> H          4.65468       -1.64040       -1.44202
| 11> H          5.70914       -2.87560       -4.38702
| 12> H          3.33010       -0.31764       -4.36125
| 13> H          3.69849        0.11447       -2.70833
| 14> H          4.84333       -0.51793       -5.94302
| 15> H          5.90170       -1.82250       -6.49647
| 16> H          3.63046       -1.94025       -7.52177
| 17> H          2.90710       -2.00116       -5.93240
| 18> H          3.89538       -3.32820       -6.49392
| 19> *
| 20>
| 21> %MaxCore 64000
| 22>
| 23> %pal nprocs 4
| 24> end
| 25>
| 26> %scf
| 27>   MaxIter 150
| 28> end
| 29>
| 30>
| 31>                          ****END OF INPUT****

CARTESIAN COORDINATES (ANGSTROEM)
---------------------------------
  C      4.999860   -1.596130   -5.924880
  N      5.281560   -1.974130   -4.535760
  C      3.766780   -2.266110   -6.511750
  C      4.792500   -1.361320   -3.457300
  C      3.939900   -0.374920   -3.557360
  N      5.259860   -1.754220   -2.239130
  H      5.922820   -2.521450   -2.186720
  H      4.654680   -1.640400   -1.442020
  H      5.709140   -2.875600   -4.387020
  H      3.330100   -0.317640   -4.361250
  H      3.698490    0.114470   -2.708330
  H      4.843330   -0.517930   -5.943020
  H      5.901700   -1.822500   -6.496470
  H      3.630460   -1.940250   -7.521770
  H      2.907100   -2.001160   -5.932400
  H      3.895380   -3.328200   -6.493920

 Total Charge           Charge          ....    0
 Multiplicity           Mult            ....    1
 Number of Electrons    NEL             ....   48
 Basis Dimension        Dim             ....  200

ORBITAL ENERGIES
----------------

  NO   OCC          E(Eh)            E(eV)
   0   2.0000     -14.004241      -381.0748
   1   2.0000     -13.998583      -380.9208
   2   2.0000      -9.933611      -270.3073
   3   2.0000      -9.926240      -270.1067
   4   2.0000      -9.881753      -268.8962
   5   2.0000      -9.811844      -266.9938
   6   2.0000      -0.873334       -23.7646
   7   2.0000      -0.795440       -21.6450
   8   2.0000      -0.681069       -18.5328
   9   2.0000      -0.642352       -17.4793
  10   2.0000      -0.573031       -15.5930
  11   2.0000      -0.507366       -13.8061
  12   2.0000      -0.492158       -13.3923
  13   2.0000      -0.460635       -12.5345
  14   2.0000      -0.412028       -11.2118
  15   2.0000      -0.398367       -10.8401
  16   2.0000      -0.378054       -10.2874
  17   2.0000      -0.353087        -9.6080
  18   2.0000      -0.339066        -9.2264
  19   2.0000      -0.329184        -8.9576
  20   2.0000      -0.310232        -8.4418
  21   2.0000      -0.303480        -8.2581
  22   2.0000      -0.210499        -5.7280
  23   2.0000      -0.143599        -3.9075
  24   0.0000      -0.006213        -0.1691
  25   0.0000       0.019345         0.5264
  26   0.0000       0.027837         0.7575
  27   0.0000       0.036957         1.0056
  28   0.0000       0.052388         1.4255

MULLIKEN ATOMIC CHARGES
-----------------------
   0 C :    0.300845
   1 N :   -0.356548
   2 C :    0.743879
   3 C :    0.767033
   4 C :    0.286740
   5 N :    0.025899
   6 H :   -0.164704
   7 H :   -0.051881
   8 H :   -0.395519
   9 H :   -0.245751
  10 H :   -0.353205
  11 H :    0.023833
  12 H :   -0.348092
  13 H :    0.002859
  14 H :   -0.171932
  15 H :   -0.063456
Sum of atomic charges:    0.0000000

LOEWDIN ATOMIC CHARGES
----------------------
   0 C :    0.010686
   1 N :   -0.009639
   2 C :    0.133298
   3 C :   -0.247764
   4 C :    0.155956
   5 N :    0.198074
   6 H :   -0.019681
   7 H :   -0.008648
   8 H :    0.011868
   9 H :   -0.103260
  10 H :   -0.092952
  11 H :    0.016946
  12 H :    0.017261
  13 H :   -0.016764
  14 H :   -0.024190
  15 H :   -0.021190

  Mayer bond orders larger than 0.100000
B(  0-C ,  1-N ) :   0.8999 B(  0-C ,  2-C ) :   1.2468 B(  0-C ,  4-C ) :   0.1214
B(  0-C ,  8-H ) :  -0.2050 B(  0-C , 11-H ) :   0.8191 B(  0-C , 12-H ) :   0.9297
B(  0-C , 13-H ) :   0.1937 B(  0-C , 14-H ) :   0.2112 B(  0-C , 15-H ) :   0.2247
B(  1-N ,  3-C ) :   0.9223 B(  1-N ,  4-C ) :   0.4113 B(  1-N ,  5-N ) :   0.1596
B(  1-N ,  8-H ) :   1.3686 B(  1-N , 11-H ) :   0.1409 B(  1-N , 12-H ) :   0.1597
B(  2-C , 13-H ) :   0.7696 B(  2-C , 14-H ) :   0.8489 B(  2-C , 15-H ) :   0.7905
B(  3-C ,  4-C ) :   1.6100 B(  3-C ,  5-N ) :   0.8130 B(  3-C ,  8-H ) :  -0.2573
B(  3-C ,  9-H ) :   0.1934 B(  3-C , 10-H ) :   0.3046 B(  4-C ,  5-N ) :   0.3222
B(  4-C ,  9-H ) :   0.6599 B(  4-C , 10-H ) :   0.7326 B(  5-N ,  6-H ) :   1.0867
B(  5-N ,  7-H ) :   1.1159 B(  6-H ,  7-H ) :  -0.1241 B(  9-H , 11-H ) :   0.1203
B( 11-H , 12-H ) :  -0.1032

Dispersion correction           -0.012782707
FINAL SINGLE POINT ENERGY      -267.392251691780

DIPOLE MOMENT
-------------
                                X             Y             Z
Electronic contribution:      2.41364      -0.06829       3.51154
Nuclear contribution   :     -2.10948      -0.95026      -3.53375
                        -----------------------------------------
Total Dipole Moment    :      0.30416      -1.01854      -0.02222
                        -----------------------------------------
Magnitude (a.u.)       :      1.06322
Magnitude (Debye)      :      2.70249

Rotational constants in cm-1:     0.255209     0.072067     0.062929
Rotational constants in MHz :  7650.964615  2160.525743  1886.569524

                             ****ORCA TERMINATED NORMALLY****
TOTAL RUN TIME: 0 days 0 hours 0 minutes 12 seconds 422 msec
