                         Program Version 5.0.0 -  RELEASE  -
|  1> !PBE D3BJ RIJCOSX def2-SVPD def2/J TightSCF
|  2> *xyz 0 1
|  3> C          4.99986       -1.59613       -5.92488
|  4> N          5.28156       -1.97413       -4.53576
|  5> C          3.76678       -2.26611       -6.51175
|  6> C          4.79250       -1.36132       -3.45730
|  7> N          3.93990       -0.37492       -3.55736
|  8> C          5.25986       -1.75422       -2.23913
|  9> H          5.92282       -2.52145       -2.18672
| 10> H          4.65468       -1.64040       -1.44202
| 11> H          5.70914       -2.87560       -4.38702
| 12> H          3.33010       -0.31764       -4.36125
| 13> H          3.69849        0.11447       -2.70833
| 14> H          4.84333       -0.51793       -5.94302
| 15> H          5.90170       -1.82250       -6.49647
| 16> H          3.63046       -1.94025       -7.52177
| 17> H          2.90710       -2.00116       -5.93240
| 18> H          3.89538       -3.32820       -6.49392
| 19> *
| 20>
| 21> %MaxCore 64000
| 22>
| 23> %pal nprocs 4
| 24> end
| 25>
| 26> %scf
| 27>   MaxIter 150
| 28> end
| 29>
| 30>
| 31>                          ****END OF INPUT****

CARTESIAN COORDINATES (ANGSTROEM)
---------------------------------
  C      4.999860   -1.596130   -5.924880
  N      5.281560   -1.974130   -4.535760
  C      3.766780   -2.266110   -6.511750
  C      4.792500   -1.361320   -3.457300
  N      3.939900   -0.374920   -3.557360
  C      5.259860   -1.754220   -2.239130
  H      5.922820   -2.521450   -2.186720
  H      4.654680   -1.640400   -1.442020
  H      5.709140   -2.875600   -4.387020
  H      3.330100   -0.317640   -4.361250
  H      3.698490    0.114470   -2.708330
  H      4.843330   -0.517930   -5.943020
  H      5.901700   -1.822500   -6.496470
  H      3.630460   -1.940250   -7.521770
  H      2.907100   -2.001160   -5.932400
  H      3.895380   -3.328200   -6.493920

 Total Charge           Charge          ....    0
 Multiplicity           Mult            ....    1
 Number of Electrons    NEL             ....   48
 Basis Dimension        Dim             ....  200

ORBITAL ENERGIES
----------------

  NO   OCC          E(Eh)            E(eV)
   0   2.0000     -14.005256      -381.1024
   1   2.0000     -14.004013      -381.0686
   2   2.0000      -9.936896      -270.3967
   3   2.0000      -9.934846      -270.3409
   4   2.0000      -9.892249      -269.1818
   5   2.0000      -9.807794      -266.8836
   6   2.0000      -0.882793       -24.0220
   7   2.0000      -0.805636       -21.9225
   8   2.0000      -0.697444       -18.9784
   9   2.0000      -0.624401       -16.9908
  10   2.0000      -0.563679       -15.3385
  11   2.0000      -0.546651       -14.8751
  12   2.0000      -0.493119       -13.4184
  13   2.0000      -0.451033       -12.2732
  14   2.0000      -0.435322       -11.8457
  15   2.0000      -0.399648       -10.8750
  16   2.0000      -0.384161       -10.4535
  17   2.0000      -0.359156        -9.7731
  18   2.0000      -0.341681        -9.2976
  19   2.0000      -0.325149        -8.8478
  20   2.0000      -0.321061        -8.7365
  21   2.0000      -0.304185        -8.2773
  22   2.0000      -0.217328        -5.9138
  23   2.0000      -0.130776        -3.5586
  24   0.0000      -0.010727        -0.2919
  25   0.0000       0.021023         0.5721
  26   0.0000       0.024588         0.6691
  27   0.0000       0.032225         0.8769
  28   0.0000       0.045264         1.2317

MULLIKEN ATOMIC CHARGES
-----------------------
   0 C :    0.351530
   1 N :   -0.253496
   2 C :    0.714211
   3 C :    0.462295
   4 N :    0.188362
   5 C :    0.472410
   6 H :   -0.232171
   7 H :   -0.428534
   8 H :   -0.341931
   9 H :   -0.159933
  10 H :   -0.114232
  11 H :   -0.086170
  12 H :   -0.361303
  13 H :    0.006026
  14 H :   -0.146365
  15 H :   -0.070700
Sum of atomic charges:   -0.0000000

LOEWDIN ATOMIC CHARGES
----------------------
   0 C :    0.003915
   1 N :    0.002676
   2 C :    0.129127
   3 C :   -0.252570
   4 N :    0.210993
   5 C :    0.146196
   6 H :   -0.109144
   7 H :   -0.116202
   8 H :    0.027665
   9 H :   -0.019264
  10 H :    0.010800
  11 H :    0.010976
  12 H :    0.017819
  13 H :   -0.017271
  14 H :   -0.028116
  15 H :   -0.017599

  Mayer bond orders larger than 0.100000
B(  0-C ,  1-N ) :   0.9215 B(  0-C ,  2-C ) :   1.2544 B(  0-C ,  8-H ) :  -0.2373
B(  0-C , 11-H ) :   0.8531 B(  0-C , 12-H ) :   0.8936 B(  0-C , 13-H ) :   0.1881
B(  0-C , 14-H ) :   0.2254 B(  0-C , 15-H ) :   0.2445 B(  1-N ,  3-C ) :   1.0425
B(  1-N ,  4-N ) :   0.2099 B(  1-N ,  5-C ) :   0.2610 B(  1-N ,  8-H ) :   1.2679
B(  1-N , 11-H ) :   0.1571 B(  1-N , 12-H ) :   0.1701 B(  2-C , 13-H ) :   0.7861
B(  2-C , 14-H ) :   0.8123 B(  2-C , 15-H ) :   0.7914 B(  3-C ,  4-N ) :   1.1055
B(  3-C ,  5-C ) :   1.5823 B(  3-C ,  6-H ) :   0.1966 B(  3-C ,  7-H ) :   0.2303
B(  3-C ,  8-H ) :  -0.1891 B(  4-N ,  5-C ) :   0.2342 B(  4-N ,  9-H ) :   1.1109
B(  4-N , 10-H ) :   1.1772 B(  5-C ,  6-H ) :   0.7629 B(  5-C ,  7-H ) :   0.7396
B(  6-H ,  7-H ) :   0.1765 B(  9-H , 10-H ) :  -0.1660

Dispersion correction           -0.012709443
FINAL SINGLE POINT ENERGY      -267.387646743284

DIPOLE MOMENT
-------------
                                X             Y             Z
Electronic contribution:      1.18151       1.25178       2.17767
Nuclear contribution   :     -1.82946      -1.24287      -3.25410
                        -----------------------------------------
Total Dipole Moment    :     -0.64795       0.00892      -1.07643
                        -----------------------------------------
Magnitude (a.u.)       :      1.25643
Magnitude (Debye)      :      3.19359

Rotational constants in cm-1:     0.244672     0.074506     0.064043
Rotational constants in MHz :  7335.067153  2233.624025  1919.970379

                             ****ORCA TERMINATED NORMALLY****
TOTAL RUN TIME: 0 days 0 hours 0 minutes 12 seconds 997 msec
