                         Program Version 5.0.0 -  RELEASE  -
|  1> !CAM-B3LYP RIJCOSX def2-SVPD def2/J TightSCF
|  2> *xyz -1 1
|  3> C         -0.77894        0.17197        1.80496
|  4> C         -0.60249       -0.63071        0.49224
|  5> H          0.31389       -1.24035        0.60350
|  6> H         -0.36383        0.11332       -0.30117
|  7> O         -1.71206       -1.37684        0.20253
|  8> H         -1.65864        0.77733        1.73736
|  9> H          0.07466        0.79896        1.95712
| 10> H         -0.87474       -0.50584        2.62734
| 11> *
| 12> %MaxCore 64000
| 13>
| 14> %pal nprocs 4
| 15> end
| 16>
| 17> %scf
| 18>   MaxIter 150
| 19> end
| 20>
| 21>
| 22>                          ****END OF INPUT****

CARTESIAN COORDINATES (ANGSTROEM)
---------------------------------
  C     -0.778940    0.171970    1.804960
  C     -0.602490   -0.630710    0.492240
  H      0.313890   -1.240350    0.603500
  H     -0.363830    0.113320   -0.301170
  O     -1.712060   -1.376840    0.202530
  H     -1.658640    0.777330    1.737360
  H      0.074660    0.798960    1.957120
  H     -0.874740   -0.505840    2.627340

 Total Charge           Charge          ....   -1
 Multiplicity           Mult            ....    1
 Number of Electrons    NEL             ....   26
 Basis Dimension        Dim             ....  103

ORBITAL ENERGIES
----------------

  NO   OCC          E(Eh)            E(eV)
   0   2.0000     -18.878955      -513.7225
   1   2.0000     -10.074206      -274.1331
   2   2.0000     -10.050042      -273.4755
   3   2.0000      -0.750063       -20.4103
   4   2.0000      -0.598034       -16.2733
   5   2.0000      -0.443618       -12.0715
   6   2.0000      -0.320702        -8.7267
   7   2.0000      -0.295355        -8.0370
   8   2.0000      -0.239686        -6.5222
   9   2.0000      -0.224592        -6.1115
  10   2.0000      -0.178048        -4.8449
  11   2.0000      -0.031772        -0.8646
  12   2.0000      -0.030974        -0.8428
  13   0.0000       0.207699         5.6518
  14   0.0000       0.238648         6.4940
  15   0.0000       0.275530         7.4976
  16   0.0000       0.288408         7.8480
  17   0.0000       0.305492         8.3129

MULLIKEN ATOMIC CHARGES
-----------------------
   0 C :    0.485968
   1 C :    0.263096
   2 H :   -0.225690
   3 H :   -0.200179
   4 O :   -0.884090
   5 H :   -0.156675
   6 H :   -0.127849
   7 H :   -0.154582
Sum of atomic charges:   -1.0000000

LOEWDIN ATOMIC CHARGES
----------------------
   0 C :    0.064953
   1 C :   -0.257019
   2 H :   -0.034466
   3 H :   -0.032518
   4 O :   -0.589357
   5 H :   -0.043692
   6 H :   -0.062467
   7 H :   -0.045434

  Mayer bond orders larger than 0.100000
B(  0-C ,  1-C ) :   1.1517 B(  0-C ,  2-H ) :   0.1278 B(  0-C ,  3-H ) :   0.1313
B(  0-C ,  4-O ) :   0.1325 B(  0-C ,  5-H ) :   0.8783 B(  0-C ,  6-H ) :   0.8757
B(  0-C ,  7-H ) :   0.8804 B(  1-C ,  2-H ) :   0.9601 B(  1-C ,  3-H ) :   0.9519
B(  1-C ,  4-O ) :   1.1762 B(  1-C ,  5-H ) :   0.1904 B(  1-C ,  6-H ) :   0.1352
B(  1-C ,  7-H ) :   0.1778

FINAL SINGLE POINT ENERGY      -154.246569578406

DIPOLE MOMENT
-------------
                                X             Y             Z
Electronic contribution:     -1.52874      -1.76760      -1.45296
Nuclear contribution   :      2.47835       2.80827       2.30058
                        -----------------------------------------
Total Dipole Moment    :      0.94961       1.04067       0.84762
                        -----------------------------------------
Magnitude (a.u.)       :      1.64415
Magnitude (Debye)      :      4.17909

Rotational constants in cm-1:     1.255775     0.327783     0.287473
Rotational constants in MHz : 37647.186859  9826.677683  8618.224821

                             ****ORCA TERMINATED NORMALLY****
TOTAL RUN TIME: 0 days 0 hours 0 minutes 13 seconds 166 msec
