                         Program Version 5.0.0 -  RELEASE  -
|  1> !CAM-B3LYP RIJCOSX def2-SVPD def2/J TightSCF
|  2> *xyz 1 1
|  3> C         -2.12050        0.88520        1.78951
|  4> C         -0.77894        0.17197        1.80496
|  5> H         -2.32419        1.47265        2.68608
|  6> H         -2.18770        1.54127        0.91948
|  7> N         -3.17690       -0.15948        1.61070
|  8> H         -4.06474        0.23127        1.28675
|  9> H         -3.34407       -0.67151        2.48493
| 10> H         -2.71686       -0.78189        0.93588
| 11> H         -0.65708       -0.37837        0.89547
| 12> H         -0.74207       -0.50050        2.63642
| 13> H          0.00707        0.89251        1.89389
| 14> *
| 15> %MaxCore 64000
| 16>
| 17> %pal nprocs 4
| 18> end
| 19>
| 20> %scf
| 21>   MaxIter 150
| 22> end
| 23>
| 24>
| 25>                          ****END OF INPUT****

CARTESIAN COORDINATES (ANGSTROEM)
---------------------------------
  C     -2.120500    0.885200    1.789510
  C     -0.778940    0.171970    1.804960
  H     -2.324190    1.472650    2.686080
  H     -2.187700    1.541270    0.919480
  N     -3.176900   -0.159480    1.610700
  H     -4.064740    0.231270    1.286750
  H     -3.344070   -0.671510    2.484930
  H     -2.716860   -0.781890    0.935880
  H     -0.657080   -0.378370    0.895470
  H     -0.742070   -0.500500    2.636420
  H      0.007070    0.892510    1.893890

 Total Charge           Charge          ....    1
 Multiplicity           Mult            ....    1
 Number of Electrons    NEL             ....   26
 Basis Dimension        Dim             ....  124

ORBITAL ENERGIES
----------------

  NO   OCC          E(Eh)            E(eV)
   0   2.0000     -14.739192      -401.0738
   1   2.0000     -10.515866      -286.1513
   2   2.0000     -10.440293      -284.0948
   3   2.0000      -1.292222       -35.1631
   4   2.0000      -1.044434       -28.4205
   5   2.0000      -0.920273       -25.0419
   6   2.0000      -0.878009       -23.8919
   7   2.0000      -0.866789       -23.5865
   8   2.0000      -0.762457       -20.7475
   9   2.0000      -0.715085       -19.4584
  10   2.0000      -0.653225       -17.7752
  11   2.0000      -0.645686       -17.5700
  12   2.0000      -0.623569       -16.9682
  13   0.0000      -0.156791        -4.2665
  14   0.0000      -0.097069        -2.6414
  15   0.0000      -0.094571        -2.5734
  16   0.0000      -0.089267        -2.4291
  17   0.0000      -0.057391        -1.5617

MULLIKEN ATOMIC CHARGES
-----------------------
   0 C :    0.366112
   1 C :    0.759272
   2 H :   -0.188831
   3 H :   -0.099802
   4 N :   -0.647979
   5 H :    0.292695
   6 H :    0.338870
   7 H :    0.417407
   8 H :   -0.079564
   9 H :   -0.023852
  10 H :   -0.134328
Sum of atomic charges:    1.0000000

LOEWDIN ATOMIC CHARGES
----------------------
   0 C :    0.057670
   1 C :    0.169395
   2 H :    0.054379
   3 H :    0.055009
   4 N :    0.333754
   5 H :    0.107363
   6 H :    0.110608
   7 H :    0.089017
   8 H :    0.000687
   9 H :    0.005179
  10 H :    0.016939

  Mayer bond orders larger than 0.100000
B(  0-C ,  1-C ) :   1.2695 B(  0-C ,  2-H ) :   0.9388 B(  0-C ,  3-H ) :   0.8842
B(  0-C ,  4-N ) :   0.8370 B(  0-C ,  8-H ) :   0.1513 B(  0-C ,  9-H ) :   0.1340
B(  0-C , 10-H ) :   0.1903 B(  1-C ,  8-H ) :   0.8234 B(  1-C ,  9-H ) :   0.8019
B(  1-C , 10-H ) :   0.8366 B(  2-H ,  4-N ) :   0.1004 B(  4-N ,  5-H ) :   0.8451
B(  4-N ,  6-H ) :   0.8365 B(  4-N ,  7-H ) :   0.6874

FINAL SINGLE POINT ENERGY      -135.358715468683

DIPOLE MOMENT
-------------
                                X             Y             Z
Electronic contribution:     -1.82952      -0.15517      -0.05866
Nuclear contribution   :      0.50278      -0.30871      -0.06979
                        -----------------------------------------
Total Dipole Moment    :     -1.32674      -0.46389      -0.12845
                        -----------------------------------------
Magnitude (a.u.)       :      1.41136
Magnitude (Debye)      :      3.58739

Rotational constants in cm-1:     0.963746     0.295157     0.256910
Rotational constants in MHz : 28892.375247  8848.576767  7701.963879

                             ****ORCA TERMINATED NORMALLY****
TOTAL RUN TIME: 0 days 0 hours 0 minutes 16 seconds 21 msec
