                         Program Version 5.0.0 -  RELEASE  -
|  1> !CAM-B3LYP RIJCOSX def2-SVPD def2/J TightSCF xyzfile
|  2>
|  3> *xyzfile 0 1 B.xyz
|  4>
|  5> %MaxCore 64000
|  6>
|  7> %pal nprocs 4
|  8> end
|  9>
| 10> %scf
| 11>   MaxIter 150
| 12> end
| 13>
| 14>
| 15>                          ****END OF INPUT****

CARTESIAN COORDINATES (ANGSTROEM)
---------------------------------
  C     -2.120502    0.885196    1.789506
  C     -0.778939    0.171966    1.804965
  H     -2.324193    1.472649    2.686078
  H     -2.187698    1.541272    0.919482
  N     -3.176900   -0.159484    1.610700
  H      0.015695    0.910767    1.939153
  H     -0.743553   -0.506827    2.665420
  C     -0.602493   -0.630712    0.492240
  H      0.313894   -1.240346    0.603498
  H     -0.363829    0.113322   -0.301169
  O     -1.712061   -1.376836    0.202535
  H     -4.064736    0.231272    1.286754
  H     -3.344073   -0.671511    2.484928
  H     -2.716861   -0.781886    0.935880

 Total Charge           Charge          ....    0
 Multiplicity           Mult            ....    1
 Number of Electrons    NEL             ....   42
 Basis Dimension        Dim             ....  175

ORBITAL ENERGIES
----------------

  NO   OCC          E(Eh)            E(eV)
   0   2.0000     -19.085066      -519.3311
   1   2.0000     -14.486046      -394.1853
   2   2.0000     -10.324576      -280.9460
   3   2.0000     -10.257993      -279.1342
   4   2.0000     -10.253759      -279.0190
   5   2.0000      -1.068607       -29.0783
   6   2.0000      -0.966353       -26.2958
   7   2.0000      -0.848353       -23.0849
   8   2.0000      -0.729769       -19.8580
   9   2.0000      -0.668162       -18.1816
  10   2.0000      -0.647056       -17.6073
  11   2.0000      -0.616703       -16.7813
  12   2.0000      -0.558533       -15.1985
  13   2.0000      -0.508569       -13.8389
  14   2.0000      -0.474481       -12.9113
  15   2.0000      -0.471595       -12.8328
  16   2.0000      -0.428851       -11.6696
  17   2.0000      -0.408496       -11.1157
  18   2.0000      -0.384526       -10.4635
  19   2.0000      -0.249821        -6.7980
  20   2.0000      -0.242003        -6.5852
  21   0.0000       0.019416         0.5283
  22   0.0000       0.058573         1.5939
  23   0.0000       0.062081         1.6893
  24   0.0000       0.084796         2.3074
  25   0.0000       0.109763         2.9868

MULLIKEN ATOMIC CHARGES
-----------------------
   0 C :    0.726231
   1 C :    0.163536
   2 H :   -0.335261
   3 H :   -0.082445
   4 N :   -0.303120
   5 H :   -0.190599
   6 H :   -0.058242
   7 C :    0.689692
   8 H :   -0.229451
   9 H :   -0.085660
  10 O :   -0.749452
  11 H :    0.211149
  12 H :    0.337973
  13 H :   -0.094351
Sum of atomic charges:    0.0000000

LOEWDIN ATOMIC CHARGES
----------------------
   0 C :    0.074532
   1 C :   -0.020743
   2 H :    0.022859
   3 H :    0.042220
   4 N :    0.307208
   5 H :    0.022469
   6 H :    0.023980
   7 C :   -0.073448
   8 H :    0.009568
   9 H :    0.010221
  10 O :   -0.397758
  11 H :    0.079414
  12 H :    0.086461
  13 H :   -0.186982

  Mayer bond orders larger than 0.100000
B(  0-C ,  1-C ) :   1.1507 B(  0-C ,  2-H ) :   0.8729 B(  0-C ,  3-H ) :   0.8261
B(  0-C ,  4-N ) :   0.8557 B(  0-C ,  5-H ) :   0.1109 B(  1-C ,  5-H ) :   0.9000
B(  1-C ,  6-H ) :   0.8628 B(  1-C ,  7-C ) :   1.1239 B(  1-C ,  8-H ) :   0.1426
B(  1-C ,  9-H ) :   0.1190 B(  2-H ,  4-N ) :   0.1443 B(  4-N , 11-H ) :   0.9055
B(  4-N , 12-H ) :   0.8202 B(  4-N , 13-H ) :   1.0117 B(  5-H ,  7-C ) :   0.1209
B(  7-C ,  8-H ) :   0.8892 B(  7-C ,  9-H ) :   0.8899 B(  7-C , 10-O ) :   1.0573
B( 10-O , 13-H ) :   0.5516

FINAL SINGLE POINT ENERGY      -249.369210516136

DIPOLE MOMENT
-------------
                                X             Y             Z
Electronic contribution:     -1.49316      -1.39497      -0.75568
Nuclear contribution   :      0.08650       3.01678       2.47433
                        -----------------------------------------
Total Dipole Moment    :     -1.40666       1.62181       1.71865
                        -----------------------------------------
Magnitude (a.u.)       :      2.75004
Magnitude (Debye)      :      6.99004

Rotational constants in cm-1:     0.238796     0.156489     0.106146
Rotational constants in MHz :  7158.916762  4691.413084  3182.185740

                             ****ORCA TERMINATED NORMALLY****
TOTAL RUN TIME: 0 days 0 hours 0 minutes 34 seconds 305 msec
