                         Program Version 5.0.0 -  RELEASE  -
|  1> !CAM-B3LYP RIJCOSX def2-SVPD def2/J TightSCF
|  2> *xyz 0 1
|  3> C         -0.77894        0.17197        1.80496
|  4> C         -0.60249       -0.63071        0.49224
|  5> H          0.31389       -1.24035        0.60350
|  6> H         -0.36383        0.11332       -0.30117
|  7> F         -1.71206       -1.37684        0.20253
|  8> H         -1.65864        0.77733        1.73736
|  9> H          0.07466        0.79896        1.95712
| 10> H         -0.87474       -0.50584        2.62734
| 11> *
| 12> %MaxCore 64000
| 13>
| 14> %pal nprocs 4
| 15> end
| 16>
| 17> %scf
| 18>   MaxIter 150
| 19> end
| 20>
| 21>
| 22>                          ****END OF INPUT****

CARTESIAN COORDINATES (ANGSTROEM)
---------------------------------
  C     -0.778940    0.171970    1.804960
  C     -0.602490   -0.630710    0.492240
  H      0.313890   -1.240350    0.603500
  H     -0.363830    0.113320   -0.301170
  F     -1.712060   -1.376840    0.202530
  H     -1.658640    0.777330    1.737360
  H      0.074660    0.798960    1.957120
  H     -0.874740   -0.505840    2.627340

 Total Charge           Charge          ....    0
 Multiplicity           Mult            ....    1
 Number of Electrons    NEL             ....   26
 Basis Dimension        Dim             ....  103

ORBITAL ENERGIES
----------------

  NO   OCC          E(Eh)            E(eV)
   0   2.0000     -24.763658      -673.8534
   1   2.0000     -10.342607      -281.4366
   2   2.0000     -10.256753      -279.1004
   3   2.0000      -1.267959       -34.5029
   4   2.0000      -0.840071       -22.8595
   5   2.0000      -0.706710       -19.2306
   6   2.0000      -0.585347       -15.9281
   7   2.0000      -0.573098       -15.5948
   8   2.0000      -0.534439       -14.5428
   9   2.0000      -0.477358       -12.9896
  10   2.0000      -0.470554       -12.8044
  11   2.0000      -0.405644       -11.0381
  12   2.0000      -0.402038       -10.9400
  13   0.0000       0.051636         1.4051
  14   0.0000       0.082277         2.2389
  15   0.0000       0.109268         2.9733
  16   0.0000       0.114558         3.1173
  17   0.0000       0.143027         3.8920

MULLIKEN ATOMIC CHARGES
-----------------------
   0 C :    0.525295
   1 C :    0.529446
   2 H :   -0.135424
   3 H :   -0.110489
   4 F :   -0.434466
   5 H :   -0.134049
   6 H :   -0.110333
   7 H :   -0.129980
Sum of atomic charges:   -0.0000000

LOEWDIN ATOMIC CHARGES
----------------------
   0 C :    0.138741
   1 C :    0.064935
   2 H :    0.029087
   3 H :    0.032127
   4 F :   -0.216678
   5 H :   -0.015619
   6 H :   -0.015641
   7 H :   -0.016951

  Mayer bond orders larger than 0.100000
B(  0-C ,  1-C ) :   1.3059 B(  0-C ,  5-H ) :   0.8639 B(  0-C ,  6-H ) :   0.8372
B(  0-C ,  7-H ) :   0.8677 B(  1-C ,  2-H ) :   0.9263 B(  1-C ,  3-H ) :   0.9211
B(  1-C ,  4-F ) :   0.7705 B(  1-C ,  5-H ) :   0.1516 B(  1-C ,  6-H ) :   0.1254
B(  1-C ,  7-H ) :   0.1412

FINAL SINGLE POINT ENERGY      -178.861741759604

DIPOLE MOMENT
-------------
                                X             Y             Z
Electronic contribution:     -2.70134      -3.26709      -2.81506
Nuclear contribution   :      3.27800       3.70743       3.04146
                        -----------------------------------------
Total Dipole Moment    :      0.57666       0.44034       0.22640
                        -----------------------------------------
Magnitude (a.u.)       :      0.76006
Magnitude (Debye)      :      1.93193

Rotational constants in cm-1:     1.234437     0.305084     0.268865
Rotational constants in MHz : 37007.496448  9146.194083  8060.380630

                             ****ORCA TERMINATED NORMALLY****
TOTAL RUN TIME: 0 days 0 hours 0 minutes 12 seconds 149 msec
