                         Program Version 5.0.0 -  RELEASE  -
|  1> !CAM-B3LYP RIJCOSX def2-SVPD def2/J TightSCF
|  2> *xyz 0 1
|  3> C         -2.12050        0.88520        1.78951
|  4> C         -0.77894        0.17197        1.80496
|  5> H         -2.32419        1.47265        2.68608
|  6> H         -2.18770        1.54127        0.91948
|  7> C         -3.17690       -0.15948        1.61070
|  8> H         -4.06474        0.23127        1.28675
|  9> H         -3.34407       -0.67151        2.48493
| 10> H         -2.71686       -0.78189        0.93588
| 11> H         -0.65708       -0.37837        0.89547
| 12> H         -0.74207       -0.50050        2.63642
| 13> H          0.00707        0.89251        1.89389
| 14> *
| 15> %MaxCore 64000
| 16>
| 17> %pal nprocs 4
| 18> end
| 19>
| 20> %scf
| 21>   MaxIter 150
| 22> end
| 23>
| 24>
| 25>                          ****END OF INPUT****

CARTESIAN COORDINATES (ANGSTROEM)
---------------------------------
  C     -2.120500    0.885200    1.789510
  C     -0.778940    0.171970    1.804960
  H     -2.324190    1.472650    2.686080
  H     -2.187700    1.541270    0.919480
  C     -3.176900   -0.159480    1.610700
  H     -4.064740    0.231270    1.286750
  H     -3.344070   -0.671510    2.484930
  H     -2.716860   -0.781890    0.935880
  H     -0.657080   -0.378370    0.895470
  H     -0.742070   -0.500500    2.636420
  H      0.007070    0.892510    1.893890

 Total Charge           Charge          ....    0
 Multiplicity           Mult            ....    1
 Number of Electrons    NEL             ....   26
 Basis Dimension        Dim             ....  124

ORBITAL ENERGIES
----------------

  NO   OCC          E(Eh)            E(eV)
   0   2.0000     -10.245306      -278.7890
   1   2.0000     -10.238093      -278.5927
   2   2.0000     -10.219433      -278.0849
   3   2.0000      -0.873693       -23.7744
   4   2.0000      -0.760454       -20.6930
   5   2.0000      -0.657967       -17.9042
   6   2.0000      -0.543971       -14.8022
   7   2.0000      -0.524299       -14.2669
   8   2.0000      -0.468294       -12.7429
   9   2.0000      -0.452521       -12.3137
  10   2.0000      -0.406424       -11.0594
  11   2.0000      -0.397515       -10.8169
  12   2.0000      -0.393160       -10.6984
  13   0.0000       0.057228         1.5573
  14   0.0000       0.083431         2.2703
  15   0.0000       0.089707         2.4411
  16   0.0000       0.117776         3.2049
  17   0.0000       0.136359         3.7105

MULLIKEN ATOMIC CHARGES
-----------------------
   0 C :   -0.361362
   1 C :    0.757184
   2 H :   -0.231638
   3 H :   -0.112751
   4 C :    1.176908
   5 H :   -0.352649
   6 H :   -0.235239
   7 H :   -0.251618
   8 H :   -0.079863
   9 H :   -0.091491
  10 H :   -0.217482
Sum of atomic charges:   -0.0000000

LOEWDIN ATOMIC CHARGES
----------------------
   0 C :   -0.114758
   1 C :    0.109634
   2 H :    0.019716
   3 H :    0.022007
   4 C :    0.118722
   5 H :   -0.034294
   6 H :   -0.027834
   7 H :   -0.042277
   8 H :   -0.016927
   9 H :   -0.011708
  10 H :   -0.022280

  Mayer bond orders larger than 0.100000
B(  0-C ,  1-C ) :   1.2302 B(  0-C ,  2-H ) :   0.9686 B(  0-C ,  3-H ) :   0.8867
B(  0-C ,  4-C ) :   1.2061 B(  0-C ,  5-H ) :   0.1971 B(  0-C ,  6-H ) :   0.2231
B(  0-C ,  7-H ) :   0.2741 B(  0-C ,  8-H ) :   0.1556 B(  0-C ,  9-H ) :   0.1673
B(  0-C , 10-H ) :   0.1897 B(  1-C ,  8-H ) :   0.8268 B(  1-C ,  9-H ) :   0.8004
B(  1-C , 10-H ) :   0.8206 B(  4-C ,  5-H ) :   0.6882 B(  4-C ,  6-H ) :   0.6479
B(  4-C ,  7-H ) :   0.6803 B(  6-H ,  7-H ) :   0.1012

FINAL SINGLE POINT ENERGY      -118.959228579802

DIPOLE MOMENT
-------------
                                X             Y             Z
Electronic contribution:     -0.14288       0.47273       0.11284
Nuclear contribution   :      0.13334      -0.45108      -0.10852
                        -----------------------------------------
Total Dipole Moment    :     -0.00954       0.02165       0.00432
                        -----------------------------------------
Magnitude (a.u.)       :      0.02405
Magnitude (Debye)      :      0.06112

Rotational constants in cm-1:     0.972269     0.310387     0.269029
Rotational constants in MHz : 29147.878530  9305.178981  8065.286472

                             ****ORCA TERMINATED NORMALLY****
TOTAL RUN TIME: 0 days 0 hours 0 minutes 14 seconds 785 msec
