                         Program Version 5.0.0 -  RELEASE  -
|  1> !B3LYP D3BJ RIJCOSX def2-TZVP def2/J TightSCF
|  2> *xyz -1 1
|  3> C          4.93020       -7.37532       -2.64962
|  4> C          3.84189       -6.95161       -3.63283
|  5> H          3.45814       -5.95442       -3.40712
|  6> H          2.98848       -7.64361       -3.56708
|  7> S          4.31812       -6.91593       -5.36869
|  8> O          5.40615       -5.89948       -5.51297
|  9> O          3.11191       -6.44508       -6.04379
| 10> O          4.76340       -8.23942       -5.69863
| 11> H          5.27901       -8.35440       -2.90385
| 12> H          4.53000       -7.38577       -1.65734
| 13> H          5.74437       -6.68276       -2.69856
| 14> *
| 15>
| 16> %MaxCore 64000
| 17>
| 18> %pal nprocs 4
| 19> end
| 20>
| 21> %scf
| 22>   MaxIter 150
| 23> end
| 24>
| 25>
| 26>                          ****END OF INPUT****

CARTESIAN COORDINATES (ANGSTROEM)
---------------------------------
  C      4.930200   -7.375320   -2.649620
  C      3.841890   -6.951610   -3.632830
  H      3.458140   -5.954420   -3.407120
  H      2.988480   -7.643610   -3.567080
  S      4.318120   -6.915930   -5.368690
  O      5.406150   -5.899480   -5.512970
  O      3.111910   -6.445080   -6.043790
  O      4.763400   -8.239420   -5.698630
  H      5.279010   -8.354400   -2.903850
  H      4.530000   -7.385770   -1.657340
  H      5.744370   -6.682760   -2.698560

 Total Charge           Charge          ....   -1
 Multiplicity           Mult            ....    1
 Number of Electrons    NEL             ....   58
 Basis Dimension        Dim             ....  222

ORBITAL ENERGIES
----------------

  NO   OCC          E(Eh)            E(eV)
   0   2.0000     -88.831944     -2417.2401
   1   2.0000     -18.900408      -514.3062
   2   2.0000     -18.890798      -514.0447
   3   2.0000     -18.882977      -513.8319
   4   2.0000     -10.028997      -272.9029
   5   2.0000     -10.022424      -272.7240
   6   2.0000      -7.874831      -214.2850
   7   2.0000      -5.838372      -158.8702
   8   2.0000      -5.837393      -158.8435
   9   2.0000      -5.837086      -158.8352
  10   2.0000      -0.913403       -24.8550
  11   2.0000      -0.786796       -21.4098
  12   2.0000      -0.757204       -20.6046
  13   2.0000      -0.629629       -17.1331
  14   2.0000      -0.503566       -13.7027
  15   2.0000      -0.377393       -10.2694
  16   2.0000      -0.315076        -8.5737
  17   2.0000      -0.307364        -8.3638
  18   2.0000      -0.269265        -7.3271
  19   2.0000      -0.254087        -6.9140
  20   2.0000      -0.248440        -6.7604
  21   2.0000      -0.226767        -6.1706
  22   2.0000      -0.210978        -5.7410
  23   2.0000      -0.143084        -3.8935
  24   2.0000      -0.141749        -3.8572
  25   2.0000      -0.110088        -2.9956
  26   2.0000      -0.101681        -2.7669
  27   2.0000      -0.091625        -2.4933
  28   2.0000      -0.055285        -1.5044
  29   0.0000       0.170751         4.6464
  30   0.0000       0.214422         5.8347
  31   0.0000       0.230434         6.2704
  32   0.0000       0.234864         6.3910
  33   0.0000       0.261586         7.1181

MULLIKEN ATOMIC CHARGES
-----------------------
   0 C :   -0.304646
   1 C :   -0.200265
   2 H :    0.070631
   3 H :    0.060475
   4 S :    0.843447
   5 O :   -0.609907
   6 O :   -0.570862
   7 O :   -0.545604
   8 H :    0.100223
   9 H :    0.057400
  10 H :    0.099108
Sum of atomic charges:   -1.0000000

LOEWDIN ATOMIC CHARGES
----------------------
   0 C :   -0.338506
   1 C :   -0.427988
   2 H :    0.116467
   3 H :    0.116639
   4 S :    0.431169
   5 O :   -0.446342
   6 O :   -0.401883
   7 O :   -0.370088
   8 H :    0.111545
   9 H :    0.097446
  10 H :    0.111540

  Mayer bond orders larger than 0.100000
B(  0-C ,  1-C ) :   0.9422 B(  0-C ,  8-H ) :   0.9754 B(  0-C ,  9-H ) :   0.9647
B(  0-C , 10-H ) :   0.9745 B(  1-C ,  2-H ) :   0.9619 B(  1-C ,  3-H ) :   0.9568
B(  1-C ,  4-S ) :   0.8622 B(  4-S ,  5-O ) :   1.7209 B(  4-S ,  6-O ) :   1.7967
B(  4-S ,  7-O ) :   1.7860

Dispersion correction           -0.016598040
FINAL SINGLE POINT ENERGY      -703.116951079090

DIPOLE MOMENT
-------------
                                X             Y             Z
Electronic contribution:     -0.35836       0.81687      -7.87916
Nuclear contribution   :      0.07504      -1.14369       9.75001
                        -----------------------------------------
Total Dipole Moment    :     -0.28332      -0.32682       1.87084
                        -----------------------------------------
Magnitude (a.u.)       :      1.92019
Magnitude (Debye)      :      4.88074

Rotational constants in cm-1:     0.160553     0.082191     0.080550
Rotational constants in MHz :  4813.250478  2464.013016  2414.833054

                             ****ORCA TERMINATED NORMALLY****
TOTAL RUN TIME: 0 days 0 hours 0 minutes 24 seconds 757 msec
