                         Program Version 5.0.0 -  RELEASE  -
|  1> !B3LYP D3BJ RIJCOSX def2-TZVP def2/J TightSCF
|  2> *xyz 1 1
|  3> C          5.55821       -1.99291       -6.21505
|  4> C          4.18188       -2.58967       -6.29891
|  5> N          3.14587       -1.76843       -6.48675
|  6> N          4.01910       -3.86431       -6.22743
|  7> H          4.76849       -4.59115       -5.99077
|  8> H          3.12241       -4.33339       -6.31462
|  9> H          3.28164       -0.77779       -6.56655
| 10> H          2.21255       -2.13419       -6.56225
| 11> C          6.41926       -2.54294       -5.07763
| 12> H          6.03683       -2.19819       -7.17685
| 13> H          5.46761       -0.90737       -6.12797
| 14> H          6.50056       -3.60553       -5.17358
| 15> H          5.96544       -2.30329       -4.13874
| 16> H          7.39438       -2.10494       -5.12457
| 17> *
| 18>
| 19> %MaxCore 64000
| 20>
| 21> %pal nprocs 4
| 22> end
| 23>
| 24> %scf
| 25>   MaxIter 150
| 26> end
| 27>
| 28>
| 29>                          ****END OF INPUT****

CARTESIAN COORDINATES (ANGSTROEM)
---------------------------------
  C      5.558210   -1.992910   -6.215050
  C      4.181880   -2.589670   -6.298910
  N      3.145870   -1.768430   -6.486750
  N      4.019100   -3.864310   -6.227430
  H      4.768490   -4.591150   -5.990770
  H      3.122410   -4.333390   -6.314620
  H      3.281640   -0.777790   -6.566550
  H      2.212550   -2.134190   -6.562250
  C      6.419260   -2.542940   -5.077630
  H      6.036830   -2.198190   -7.176850
  H      5.467610   -0.907370   -6.127970
  H      6.500560   -3.605530   -5.173580
  H      5.965440   -2.303290   -4.138740
  H      7.394380   -2.104940   -5.124570

 Total Charge           Charge          ....    1
 Multiplicity           Mult            ....    1
 Number of Electrons    NEL             ....   40
 Basis Dimension        Dim             ....  209

ORBITAL ENERGIES
----------------

  NO   OCC          E(Eh)            E(eV)
   0   2.0000     -14.565798      -396.3555
   1   2.0000     -14.554762      -396.0552
   2   2.0000     -10.491307      -285.4830
   3   2.0000     -10.366483      -282.0864
   4   2.0000     -10.322280      -280.8835
   5   2.0000      -1.202678       -32.7265
   6   2.0000      -1.106142       -30.0997
   7   2.0000      -0.967648       -26.3310
   8   2.0000      -0.866679       -23.5835
   9   2.0000      -0.815091       -22.1798
  10   2.0000      -0.773809       -21.0564
  11   2.0000      -0.746355       -20.3094
  12   2.0000      -0.698097       -18.9962
  13   2.0000      -0.652153       -17.7460
  14   2.0000      -0.623388       -16.9633
  15   2.0000      -0.602236       -16.3877
  16   2.0000      -0.549389       -14.9496
  17   2.0000      -0.540402       -14.7051
  18   2.0000      -0.525205       -14.2915
  19   2.0000      -0.492191       -13.3932
  20   0.0000      -0.206199        -5.6110
  21   0.0000      -0.161161        -4.3854
  22   0.0000      -0.124953        -3.4001
  23   0.0000      -0.113131        -3.0784
  24   0.0000      -0.090327        -2.4579

MULLIKEN ATOMIC CHARGES
-----------------------
   0 C :   -0.197522
   1 C :    0.346574
   2 N :   -0.341370
   3 N :   -0.343437
   4 H :    0.314327
   5 H :    0.279709
   6 H :    0.288853
   7 H :    0.268591
   8 C :   -0.321655
   9 H :    0.169041
  10 H :    0.130352
  11 H :    0.096696
  12 H :    0.144418
  13 H :    0.165424
Sum of atomic charges:    1.0000000

LOEWDIN ATOMIC CHARGES
----------------------
   0 C :   -0.213448
   1 C :   -0.289779
   2 N :    0.106537
   3 N :    0.116809
   4 H :    0.234317
   5 H :    0.199627
   6 H :    0.199298
   7 H :    0.191194
   8 C :   -0.259106
   9 H :    0.172347
  10 H :    0.157213
  11 H :    0.116410
  12 H :    0.130191
  13 H :    0.138391

  Mayer bond orders larger than 0.100000
B(  0-C ,  1-C ) :   0.9661 B(  0-C ,  8-C ) :   0.9709 B(  0-C ,  9-H ) :   0.9242
B(  0-C , 10-H ) :   0.9667 B(  1-C ,  2-N ) :   1.4308 B(  1-C ,  3-N ) :   1.4712
B(  2-N ,  6-H ) :   0.8918 B(  2-N ,  7-H ) :   0.8981 B(  3-N ,  4-H ) :   0.8712
B(  3-N ,  5-H ) :   0.8906 B(  8-C , 11-H ) :   0.9675 B(  8-C , 12-H ) :   0.9648
B(  8-C , 13-H ) :   0.9655

Dispersion correction           -0.016577058
FINAL SINGLE POINT ENERGY      -228.988757382876

DIPOLE MOMENT
-------------
                                X             Y             Z
Electronic contribution:     -3.78266      -0.47323      -1.56851
Nuclear contribution   :      2.76041       0.12669       1.26265
                        -----------------------------------------
Total Dipole Moment    :     -1.02225      -0.34654      -0.30586
                        -----------------------------------------
Magnitude (a.u.)       :      1.12189
Magnitude (Debye)      :      2.85161

Rotational constants in cm-1:     0.280918     0.124524     0.094121
Rotational constants in MHz :  8421.697738  3733.133254  2821.684112

                             ****ORCA TERMINATED NORMALLY****
TOTAL RUN TIME: 0 days 0 hours 0 minutes 23 seconds 926 msec
