                         Program Version 5.0.0 -  RELEASE  -
|  1> !B3LYP D3BJ RIJCOSX def2-TZVP def2/J TightSCF
|  2> *xyz 0 1
|  3> C          4.93020       -7.37532       -2.64962
|  4> C          3.84189       -6.95161       -3.63283
|  5> H          3.45814       -5.95442       -3.40712
|  6> H          2.98848       -7.64361       -3.56708
|  7> S          4.31812       -6.91593       -5.36869
|  8> F          5.40615       -5.89948       -5.51297
|  9> O          3.11191       -6.44508       -6.04379
| 10> O          4.76340       -8.23942       -5.69863
| 11> H          5.27901       -8.35440       -2.90385
| 12> H          4.53000       -7.38577       -1.65734
| 13> H          5.74437       -6.68276       -2.69856
| 14> *
| 15>
| 16> %MaxCore 64000
| 17>
| 18> %pal nprocs 4
| 19> end
| 20>
| 21> %scf
| 22>   MaxIter 150
| 23> end
| 24>
| 25>
| 26>                          ****END OF INPUT****

CARTESIAN COORDINATES (ANGSTROEM)
---------------------------------
  C      4.930200   -7.375320   -2.649620
  C      3.841890   -6.951610   -3.632830
  H      3.458140   -5.954420   -3.407120
  H      2.988480   -7.643610   -3.567080
  S      4.318120   -6.915930   -5.368690
  F      5.406150   -5.899480   -5.512970
  O      3.111910   -6.445080   -6.043790
  O      4.763400   -8.239420   -5.698630
  H      5.279010   -8.354400   -2.903850
  H      4.530000   -7.385770   -1.657340
  H      5.744370   -6.682760   -2.698560

 Total Charge           Charge          ....    0
 Multiplicity           Mult            ....    1
 Number of Electrons    NEL             ....   58
 Basis Dimension        Dim             ....  222

ORBITAL ENERGIES
----------------

  NO   OCC          E(Eh)            E(eV)
   0   2.0000     -89.096000     -2424.4254
   1   2.0000     -24.777908      -674.2411
   2   2.0000     -19.140673      -520.8442
   3   2.0000     -19.130740      -520.5739
   4   2.0000     -10.232772      -278.4479
   5   2.0000     -10.189732      -277.2767
   6   2.0000      -8.139581      -221.4893
   7   2.0000      -6.106426      -166.1643
   8   2.0000      -6.100149      -165.9935
   9   2.0000      -6.099614      -165.9789
  10   2.0000      -1.342148       -36.5217
  11   2.0000      -1.111989       -30.2588
  12   2.0000      -1.019945       -27.7541
  13   2.0000      -0.822946       -22.3935
  14   2.0000      -0.719748       -19.5853
  15   2.0000      -0.671044       -18.2600
  16   2.0000      -0.575452       -15.6588
  17   2.0000      -0.557160       -15.1611
  18   2.0000      -0.545180       -14.8351
  19   2.0000      -0.493899       -13.4397
  20   2.0000      -0.478793       -13.0286
  21   2.0000      -0.455508       -12.3950
  22   2.0000      -0.435373       -11.8471
  23   2.0000      -0.409729       -11.1493
  24   2.0000      -0.404491       -11.0068
  25   2.0000      -0.380495       -10.3538
  26   2.0000      -0.341155        -9.2833
  27   2.0000      -0.330004        -8.9799
  28   2.0000      -0.318463        -8.6658
  29   0.0000       0.003711         0.1010
  30   0.0000       0.041307         1.1240
  31   0.0000       0.059012         1.6058
  32   0.0000       0.068489         1.8637
  33   0.0000       0.074894         2.0380

MULLIKEN ATOMIC CHARGES
-----------------------
   0 C :   -0.327931
   1 C :   -0.223516
   2 H :    0.135292
   3 H :    0.148870
   4 S :    0.877527
   5 F :   -0.144403
   6 O :   -0.433758
   7 O :   -0.410351
   8 H :    0.139291
   9 H :    0.122567
  10 H :    0.116414
Sum of atomic charges:   -0.0000000

LOEWDIN ATOMIC CHARGES
----------------------
   0 C :   -0.310388
   1 C :   -0.388742
   2 H :    0.137086
   3 H :    0.151712
   4 S :    0.560074
   5 F :    0.031444
   6 O :   -0.288879
   7 O :   -0.258105
   8 H :    0.124169
   9 H :    0.123421
  10 H :    0.118209

  Mayer bond orders larger than 0.100000
B(  0-C ,  1-C ) :   0.9510 B(  0-C ,  8-H ) :   0.9678 B(  0-C ,  9-H ) :   0.9624
B(  0-C , 10-H ) :   0.9713 B(  1-C ,  2-H ) :   0.9455 B(  1-C ,  3-H ) :   0.9421
B(  1-C ,  4-S ) :   0.8990 B(  4-S ,  5-F ) :   1.0747 B(  4-S ,  6-O ) :   1.9200
B(  4-S ,  7-O ) :   1.9248

Dispersion correction           -0.015794977
FINAL SINGLE POINT ENERGY      -727.655935397300

DIPOLE MOMENT
-------------
                                X             Y             Z
Electronic contribution:      1.30195       2.63228      -8.77832
Nuclear contribution   :     -0.98922      -2.24849      10.35711
                        -----------------------------------------
Total Dipole Moment    :      0.31273       0.38379       1.57879
                        -----------------------------------------
Magnitude (a.u.)       :      1.65459
Magnitude (Debye)      :      4.20563

Rotational constants in cm-1:     0.151436     0.080885     0.078670
Rotational constants in MHz :  4539.936009  2424.868817  2358.476812

                             ****ORCA TERMINATED NORMALLY****
TOTAL RUN TIME: 0 days 0 hours 0 minutes 25 seconds 715 msec
