                         Program Version 5.0.0 -  RELEASE  -
|  1> !B3LYP D3BJ RIJCOSX def2-TZVP def2/J TightSCF
|  2> *xyz 0 1
|  3> C          5.55821       -1.99291       -6.21505
|  4> C          4.18188       -2.58967       -6.29891
|  5> C          3.14587       -1.76843       -6.48675
|  6> N          4.01910       -3.86431       -6.22743
|  7> H          4.76849       -4.59115       -5.99077
|  8> H          3.12241       -4.33339       -6.31462
|  9> H          3.28164       -0.77779       -6.56655
| 10> H          2.21255       -2.13419       -6.56225
| 11> C          6.41926       -2.54294       -5.07763
| 12> H          6.03683       -2.19819       -7.17685
| 13> H          5.46761       -0.90737       -6.12797
| 14> H          6.50056       -3.60553       -5.17358
| 15> H          5.96544       -2.30329       -4.13874
| 16> H          7.39438       -2.10494       -5.12457
| 17> *
| 18>
| 19> %MaxCore 64000
| 20>
| 21> %pal nprocs 4
| 22> end
| 23>
| 24> %scf
| 25>   MaxIter 150
| 26> end
| 27>
| 28>
| 29>                          ****END OF INPUT****

CARTESIAN COORDINATES (ANGSTROEM)
---------------------------------
  C      5.558210   -1.992910   -6.215050
  C      4.181880   -2.589670   -6.298910
  C      3.145870   -1.768430   -6.486750
  N      4.019100   -3.864310   -6.227430
  H      4.768490   -4.591150   -5.990770
  H      3.122410   -4.333390   -6.314620
  H      3.281640   -0.777790   -6.566550
  H      2.212550   -2.134190   -6.562250
  C      6.419260   -2.542940   -5.077630
  H      6.036830   -2.198190   -7.176850
  H      5.467610   -0.907370   -6.127970
  H      6.500560   -3.605530   -5.173580
  H      5.965440   -2.303290   -4.138740
  H      7.394380   -2.104940   -5.124570

 Total Charge           Charge          ....    0
 Multiplicity           Mult            ....    1
 Number of Electrons    NEL             ....   40
 Basis Dimension        Dim             ....  209

ORBITAL ENERGIES
----------------

  NO   OCC          E(Eh)            E(eV)
   0   2.0000     -14.321183      -389.6992
   1   2.0000     -10.188340      -277.2388
   2   2.0000     -10.166046      -276.6322
   3   2.0000     -10.155082      -276.3338
   4   2.0000     -10.093960      -274.6706
   5   2.0000      -0.932719       -25.3806
   6   2.0000      -0.776116       -21.1192
   7   2.0000      -0.715787       -19.4775
   8   2.0000      -0.629712       -17.1353
   9   2.0000      -0.581923       -15.8349
  10   2.0000      -0.515675       -14.0322
  11   2.0000      -0.471354       -12.8262
  12   2.0000      -0.442495       -12.0409
  13   2.0000      -0.421560       -11.4712
  14   2.0000      -0.391937       -10.6651
  15   2.0000      -0.380806       -10.3622
  16   2.0000      -0.358288        -9.7495
  17   2.0000      -0.333474        -9.0743
  18   2.0000      -0.328368        -8.9353
  19   2.0000      -0.183146        -4.9837
  20   0.0000       0.019064         0.5188
  21   0.0000       0.047072         1.2809
  22   0.0000       0.064843         1.7645
  23   0.0000       0.070937         1.9303
  24   0.0000       0.092430         2.5151

MULLIKEN ATOMIC CHARGES
-----------------------
   0 C :   -0.167235
   1 C :    0.241026
   2 C :   -0.426617
   3 N :   -0.447336
   4 H :    0.231168
   5 H :    0.226284
   6 H :    0.088564
   7 H :    0.077596
   8 C :   -0.307093
   9 H :    0.092333
  10 H :    0.095722
  11 H :    0.073514
  12 H :    0.111525
  13 H :    0.110549
Sum of atomic charges:    0.0000000

LOEWDIN ATOMIC CHARGES
----------------------
   0 C :   -0.231769
   1 C :   -0.373504
   2 C :   -0.280874
   3 N :    0.009165
   4 H :    0.185875
   5 H :    0.171609
   6 H :    0.097539
   7 H :    0.091442
   8 C :   -0.293355
   9 H :    0.140089
  10 H :    0.145047
  11 H :    0.105724
  12 H :    0.117722
  13 H :    0.115290

  Mayer bond orders larger than 0.100000
B(  0-C ,  1-C ) :   0.9781 B(  0-C ,  8-C ) :   0.9635 B(  0-C ,  9-H ) :   0.9609
B(  0-C , 10-H ) :   0.9737 B(  1-C ,  2-C ) :   1.7054 B(  1-C ,  3-N ) :   1.1833
B(  2-C ,  6-H ) :   0.9947 B(  2-C ,  7-H ) :   0.9962 B(  3-N ,  4-H ) :   0.9150
B(  3-N ,  5-H ) :   0.9186 B(  8-C , 11-H ) :   0.9761 B(  8-C , 12-H ) :   0.9734
B(  8-C , 13-H ) :   0.9792

Dispersion correction           -0.017277841
FINAL SINGLE POINT ENERGY      -212.513453845380

DIPOLE MOMENT
-------------
                                X             Y             Z
Electronic contribution:     -2.03449      -1.09754      -1.02785
Nuclear contribution   :      2.41345       0.31141       1.16343
                        -----------------------------------------
Total Dipole Moment    :      0.37896      -0.78613       0.13559
                        -----------------------------------------
Magnitude (a.u.)       :      0.88317
Magnitude (Debye)      :      2.24485

Rotational constants in cm-1:     0.287957     0.129204     0.097498
Rotational constants in MHz :  8632.737925  3873.424745  2922.919500

                             ****ORCA TERMINATED NORMALLY****
TOTAL RUN TIME: 0 days 0 hours 0 minutes 24 seconds 595 msec
