                         Program Version 5.0.0 -  RELEASE  -
|  1> !B3LYP D3BJ RIJCOSX def2-TZVP def2/J TightSCF
|  2> *xyz 0 1
|  3> C          4.93020       -7.37532       -2.64962
|  4> C          3.84189       -6.95161       -3.63283
|  5> H          3.45814       -5.95442       -3.40712
|  6> H          2.98848       -7.64361       -3.56708
|  7> S          4.31812       -6.91593       -5.36869
|  8> O          5.40615       -5.89948       -5.51297
|  9> F          3.11191       -6.44508       -6.04379
| 10> O          4.76340       -8.23942       -5.69863
| 11> H          5.27901       -8.35440       -2.90385
| 12> H          4.53000       -7.38577       -1.65734
| 13> H          5.74437       -6.68276       -2.69856
| 14> *
| 15>
| 16> %MaxCore 64000
| 17>
| 18> %pal nprocs 4
| 19> end
| 20>
| 21> %scf
| 22>   MaxIter 150
| 23> end
| 24>
| 25>
| 26>                          ****END OF INPUT****

CARTESIAN COORDINATES (ANGSTROEM)
---------------------------------
  C      4.930200   -7.375320   -2.649620
  C      3.841890   -6.951610   -3.632830
  H      3.458140   -5.954420   -3.407120
  H      2.988480   -7.643610   -3.567080
  S      4.318120   -6.915930   -5.368690
  O      5.406150   -5.899480   -5.512970
  F      3.111910   -6.445080   -6.043790
  O      4.763400   -8.239420   -5.698630
  H      5.279010   -8.354400   -2.903850
  H      4.530000   -7.385770   -1.657340
  H      5.744370   -6.682760   -2.698560

 Total Charge           Charge          ....    0
 Multiplicity           Mult            ....    1
 Number of Electrons    NEL             ....   58
 Basis Dimension        Dim             ....  222

ORBITAL ENERGIES
----------------

  NO   OCC          E(Eh)            E(eV)
   0   2.0000     -89.097763     -2424.4734
   1   2.0000     -24.792705      -674.6438
   2   2.0000     -19.139827      -520.8212
   3   2.0000     -19.122772      -520.3571
   4   2.0000     -10.233687      -278.4728
   5   2.0000     -10.188292      -277.2375
   6   2.0000      -8.141283      -221.5356
   7   2.0000      -6.108052      -166.2086
   8   2.0000      -6.101714      -166.0361
   9   2.0000      -6.101452      -166.0289
  10   2.0000      -1.369005       -37.2525
  11   2.0000      -1.105211       -30.0743
  12   2.0000      -1.001283       -27.2463
  13   2.0000      -0.822717       -22.3873
  14   2.0000      -0.733480       -19.9590
  15   2.0000      -0.671654       -18.2766
  16   2.0000      -0.579574       -15.7710
  17   2.0000      -0.576432       -15.6855
  18   2.0000      -0.554539       -15.0898
  19   2.0000      -0.495033       -13.4705
  20   2.0000      -0.481427       -13.1003
  21   2.0000      -0.442825       -12.0499
  22   2.0000      -0.431828       -11.7506
  23   2.0000      -0.412082       -11.2133
  24   2.0000      -0.391683       -10.6582
  25   2.0000      -0.384684       -10.4678
  26   2.0000      -0.337515        -9.1843
  27   2.0000      -0.322031        -8.7629
  28   2.0000      -0.304946        -8.2980
  29   0.0000       0.020628         0.5613
  30   0.0000       0.027443         0.7468
  31   0.0000       0.062417         1.6984
  32   0.0000       0.064984         1.7683
  33   0.0000       0.073397         1.9972

MULLIKEN ATOMIC CHARGES
-----------------------
   0 C :   -0.330098
   1 C :   -0.209546
   2 H :    0.130334
   3 H :    0.125974
   4 S :    0.873247
   5 O :   -0.465087
   6 F :   -0.117184
   7 O :   -0.403629
   8 H :    0.136252
   9 H :    0.122110
  10 H :    0.137626
Sum of atomic charges:   -0.0000000

LOEWDIN ATOMIC CHARGES
----------------------
   0 C :   -0.296634
   1 C :   -0.394095
   2 H :    0.135438
   3 H :    0.137671
   4 S :    0.553849
   5 O :   -0.328755
   6 F :    0.073586
   7 O :   -0.256551
   8 H :    0.125427
   9 H :    0.124115
  10 H :    0.125950

  Mayer bond orders larger than 0.100000
B(  0-C ,  1-C ) :   0.9670 B(  0-C ,  8-H ) :   0.9693 B(  0-C ,  9-H ) :   0.9594
B(  0-C , 10-H ) :   0.9693 B(  1-C ,  2-H ) :   0.9380 B(  1-C ,  3-H ) :   0.9349
B(  1-C ,  4-S ) :   0.9032 B(  4-S ,  5-O ) :   1.8632 B(  4-S ,  6-F ) :   1.1150
B(  4-S ,  7-O ) :   1.9294

Dispersion correction           -0.015854765
FINAL SINGLE POINT ENERGY      -727.644803955239

DIPOLE MOMENT
-------------
                                X             Y             Z
Electronic contribution:     -2.58470       1.70277      -9.68892
Nuclear contribution   :      1.40145      -1.67996      10.91024
                        -----------------------------------------
Total Dipole Moment    :     -1.18325       0.02281       1.22132
                        -----------------------------------------
Magnitude (a.u.)       :      1.70066
Magnitude (Debye)      :      4.32272

Rotational constants in cm-1:     0.155875     0.079864     0.077188
Rotational constants in MHz :  4673.017506  2394.277415  2314.027118

                             ****ORCA TERMINATED NORMALLY****
TOTAL RUN TIME: 0 days 0 hours 0 minutes 27 seconds 919 msec
