                         Program Version 5.0.0 -  RELEASE  -
|  1> !B3LYP D3BJ RIJCOSX def2-TZVP def2/J TightSCF
|  2> *xyz 0 1
|  3> C          5.55821       -1.99291       -6.21505
|  4> C          4.18188       -2.58967       -6.29891
|  5> N          3.14587       -1.76843       -6.48675
|  6> C          4.01910       -3.86431       -6.22743
|  7> H          4.76849       -4.59115       -5.99077
|  8> H          3.12241       -4.33339       -6.31462
|  9> H          3.28164       -0.77779       -6.56655
| 10> H          2.21255       -2.13419       -6.56225
| 11> C          6.41926       -2.54294       -5.07763
| 12> H          6.03683       -2.19819       -7.17685
| 13> H          5.46761       -0.90737       -6.12797
| 14> H          6.50056       -3.60553       -5.17358
| 15> H          5.96544       -2.30329       -4.13874
| 16> H          7.39438       -2.10494       -5.12457
| 17> *
| 18>
| 19> %MaxCore 64000
| 20>
| 21> %pal nprocs 4
| 22> end
| 23>
| 24> %scf
| 25>   MaxIter 150
| 26> end
| 27>
| 28>
| 29>                          ****END OF INPUT****

CARTESIAN COORDINATES (ANGSTROEM)
---------------------------------
  C      5.558210   -1.992910   -6.215050
  C      4.181880   -2.589670   -6.298910
  N      3.145870   -1.768430   -6.486750
  C      4.019100   -3.864310   -6.227430
  H      4.768490   -4.591150   -5.990770
  H      3.122410   -4.333390   -6.314620
  H      3.281640   -0.777790   -6.566550
  H      2.212550   -2.134190   -6.562250
  C      6.419260   -2.542940   -5.077630
  H      6.036830   -2.198190   -7.176850
  H      5.467610   -0.907370   -6.127970
  H      6.500560   -3.605530   -5.173580
  H      5.965440   -2.303290   -4.138740
  H      7.394380   -2.104940   -5.124570

 Total Charge           Charge          ....    0
 Multiplicity           Mult            ....    1
 Number of Electrons    NEL             ....   40
 Basis Dimension        Dim             ....  209

ORBITAL ENERGIES
----------------

  NO   OCC          E(Eh)            E(eV)
   0   2.0000     -14.310148      -389.3989
   1   2.0000     -10.185803      -277.1698
   2   2.0000     -10.167138      -276.6619
   3   2.0000     -10.148940      -276.1667
   4   2.0000     -10.100683      -274.8536
   5   2.0000      -0.922226       -25.0950
   6   2.0000      -0.779511       -21.2116
   7   2.0000      -0.712218       -19.3804
   8   2.0000      -0.639482       -17.4012
   9   2.0000      -0.556860       -15.1529
  10   2.0000      -0.521635       -14.1944
  11   2.0000      -0.484722       -13.1900
  12   2.0000      -0.446055       -12.1378
  13   2.0000      -0.418325       -11.3832
  14   2.0000      -0.382800       -10.4165
  15   2.0000      -0.371706       -10.1146
  16   2.0000      -0.350736        -9.5440
  17   2.0000      -0.335987        -9.1427
  18   2.0000      -0.324342        -8.8258
  19   2.0000      -0.190854        -5.1934
  20   0.0000       0.030493         0.8298
  21   0.0000       0.045171         1.2292
  22   0.0000       0.068112         1.8534
  23   0.0000       0.075266         2.0481
  24   0.0000       0.097826         2.6620

MULLIKEN ATOMIC CHARGES
-----------------------
   0 C :   -0.162303
   1 C :    0.248560
   2 N :   -0.446455
   3 C :   -0.415721
   4 H :    0.087464
   5 H :    0.080375
   6 H :    0.214805
   7 H :    0.216153
   8 C :   -0.306589
   9 H :    0.103217
  10 H :    0.068745
  11 H :    0.104938
  12 H :    0.104008
  13 H :    0.102802
Sum of atomic charges:   -0.0000000

LOEWDIN ATOMIC CHARGES
----------------------
   0 C :   -0.231629
   1 C :   -0.359671
   2 N :   -0.004806
   3 C :   -0.279249
   4 H :    0.117316
   5 H :    0.097803
   6 H :    0.158872
   7 H :    0.165506
   8 C :   -0.284657
   9 H :    0.145983
  10 H :    0.129640
  11 H :    0.116029
  12 H :    0.116815
  13 H :    0.112048

  Mayer bond orders larger than 0.100000
B(  0-C ,  1-C ) :   0.9395 B(  0-C ,  8-C ) :   0.9807 B(  0-C ,  9-H ) :   0.9637
B(  0-C , 10-H ) :   0.9748 B(  1-C ,  2-N ) :   1.1469 B(  1-C ,  3-C ) :   1.7600
B(  2-N ,  6-H ) :   0.9285 B(  2-N ,  7-H ) :   0.9238 B(  3-C ,  4-H ) :   0.9928
B(  3-C ,  5-H ) :   0.9866 B(  8-C , 11-H ) :   0.9770 B(  8-C , 12-H ) :   0.9757
B(  8-C , 13-H ) :   0.9754

Dispersion correction           -0.017353458
FINAL SINGLE POINT ENERGY      -212.522958173254

DIPOLE MOMENT
-------------
                                X             Y             Z
Electronic contribution:     -2.82685       0.83572      -1.29240
Nuclear contribution   :      2.61570      -0.17401       1.22349
                        -----------------------------------------
Total Dipole Moment    :     -0.21115       0.66171      -0.06891
                        -----------------------------------------
Magnitude (a.u.)       :      0.69799
Magnitude (Debye)      :      1.77415

Rotational constants in cm-1:     0.298189     0.125314     0.096441
Rotational constants in MHz :  8939.495008  3756.825352  2891.223400

                             ****ORCA TERMINATED NORMALLY****
TOTAL RUN TIME: 0 days 0 hours 0 minutes 24 seconds 395 msec
