                         Program Version 5.0.0 -  RELEASE  -
|  1> !B3LYP D3BJ RIJCOSX def2-TZVP def2/J TightSCF
|  2> *xyz 0 1
|  3> C          4.93020       -7.37532       -2.64962
|  4> C          3.84189       -6.95161       -3.63283
|  5> H          3.45814       -5.95442       -3.40712
|  6> H          2.98848       -7.64361       -3.56708
|  7> S          4.31812       -6.91593       -5.36869
|  8> O          5.40615       -5.89948       -5.51297
|  9> O          3.11191       -6.44508       -6.04379
| 10> F          4.76340       -8.23942       -5.69863
| 11> H          5.27901       -8.35440       -2.90385
| 12> H          4.53000       -7.38577       -1.65734
| 13> H          5.74437       -6.68276       -2.69856
| 14> *
| 15>
| 16> %MaxCore 64000
| 17>
| 18> %pal nprocs 4
| 19> end
| 20>
| 21> %scf
| 22>   MaxIter 150
| 23> end
| 24>
| 25>
| 26>                          ****END OF INPUT****

CARTESIAN COORDINATES (ANGSTROEM)
---------------------------------
  C      4.930200   -7.375320   -2.649620
  C      3.841890   -6.951610   -3.632830
  H      3.458140   -5.954420   -3.407120
  H      2.988480   -7.643610   -3.567080
  S      4.318120   -6.915930   -5.368690
  O      5.406150   -5.899480   -5.512970
  O      3.111910   -6.445080   -6.043790
  F      4.763400   -8.239420   -5.698630
  H      5.279010   -8.354400   -2.903850
  H      4.530000   -7.385770   -1.657340
  H      5.744370   -6.682760   -2.698560

 Total Charge           Charge          ....    0
 Multiplicity           Mult            ....    1
 Number of Electrons    NEL             ....   58
 Basis Dimension        Dim             ....  222

ORBITAL ENERGIES
----------------

  NO   OCC          E(Eh)            E(eV)
   0   2.0000     -89.099240     -2424.5136
   1   2.0000     -24.806452      -675.0179
   2   2.0000     -19.130946      -520.5795
   3   2.0000     -19.123811      -520.3854
   4   2.0000     -10.233799      -278.4758
   5   2.0000     -10.190717      -277.3035
   6   2.0000      -8.142716      -221.5746
   7   2.0000      -6.109638      -166.2517
   8   2.0000      -6.102933      -166.0692
   9   2.0000      -6.102875      -166.0677
  10   2.0000      -1.391274       -37.8585
  11   2.0000      -1.093536       -29.7566
  12   2.0000      -0.994006       -27.0483
  13   2.0000      -0.825326       -22.4583
  14   2.0000      -0.738040       -20.0831
  15   2.0000      -0.681279       -18.5385
  16   2.0000      -0.600530       -16.3413
  17   2.0000      -0.591211       -16.0877
  18   2.0000      -0.549241       -14.9456
  19   2.0000      -0.494270       -13.4498
  20   2.0000      -0.477689       -12.9986
  21   2.0000      -0.450050       -12.2465
  22   2.0000      -0.431433       -11.7399
  23   2.0000      -0.410092       -11.1592
  24   2.0000      -0.399114       -10.8605
  25   2.0000      -0.373930       -10.1751
  26   2.0000      -0.328535        -8.9399
  27   2.0000      -0.321268        -8.7422
  28   2.0000      -0.299286        -8.1440
  29   0.0000       0.007108         0.1934
  30   0.0000       0.038936         1.0595
  31   0.0000       0.057279         1.5586
  32   0.0000       0.067352         1.8328
  33   0.0000       0.068701         1.8695

MULLIKEN ATOMIC CHARGES
-----------------------
   0 C :   -0.327024
   1 C :   -0.221410
   2 H :    0.153726
   3 H :    0.130680
   4 S :    0.870724
   5 O :   -0.460284
   6 O :   -0.422440
   7 F :   -0.100726
   8 H :    0.112780
   9 H :    0.122939
  10 H :    0.141037
Sum of atomic charges:   -0.0000000

LOEWDIN ATOMIC CHARGES
----------------------
   0 C :   -0.310628
   1 C :   -0.389514
   2 H :    0.149489
   3 H :    0.139084
   4 S :    0.550476
   5 O :   -0.325271
   6 O :   -0.283827
   7 F :    0.104538
   8 H :    0.117180
   9 H :    0.123622
  10 H :    0.124852

  Mayer bond orders larger than 0.100000
B(  0-C ,  1-C ) :   0.9497 B(  0-C ,  8-H ) :   0.9711 B(  0-C ,  9-H ) :   0.9622
B(  0-C , 10-H ) :   0.9675 B(  1-C ,  2-H ) :   0.9441 B(  1-C ,  3-H ) :   0.9422
B(  1-C ,  4-S ) :   0.8976 B(  4-S ,  5-O ) :   1.8606 B(  4-S ,  6-O ) :   1.9236
B(  4-S ,  7-F ) :   1.1273

Dispersion correction           -0.015779339
FINAL SINGLE POINT ENERGY      -727.633297877024

DIPOLE MOMENT
-------------
                                X             Y             Z
Electronic contribution:      0.20533      -1.31572      -9.09908
Nuclear contribution   :     -0.31946       0.18980      10.55057
                        -----------------------------------------
Total Dipole Moment    :     -0.11412      -1.12592       1.45150
                        -----------------------------------------
Magnitude (a.u.)       :      1.84053
Magnitude (Debye)      :      4.67826

Rotational constants in cm-1:     0.151421     0.081183     0.078684
Rotational constants in MHz :  4539.489207  2433.790160  2358.892966

                             ****ORCA TERMINATED NORMALLY****
TOTAL RUN TIME: 0 days 0 hours 0 minutes 28 seconds 174 msec
