                         Program Version 5.0.0 -  RELEASE  -
|  1> !B3LYP D3BJ RIJCOSX def2-TZVP def2/J TightSCF xyzfile
|  2>
|  3> *xyzfile 0 1 D3.xyz
|  4>
|  5> %MaxCore 64000
|  6>
|  7> %pal nprocs 18
|  8> end
|  9>
| 10> %scf
| 11>   MaxIter 150
| 12> end
| 13>
| 14>
| 15>                          ****END OF INPUT****

CARTESIAN COORDINATES (ANGSTROEM)
---------------------------------
  C      5.558206   -1.992914   -6.215054
  C      4.930199   -7.375319   -2.649623
  C      3.841892   -6.951611   -3.632829
  H      3.458144   -5.954425   -3.407121
  H      2.988484   -7.643606   -3.567078
  S      4.318115   -6.915930   -5.368692
  C      4.181880   -2.589671   -6.298911
  C      3.145873   -1.768431   -6.486753
  N      4.019102   -3.864307   -6.227427
  H      4.768490   -4.591153   -5.990773
  H      3.122405   -4.333392   -6.314620
  H      3.281635   -0.777786   -6.566549
  H      2.212549   -2.134193   -6.562246
  O      5.406154   -5.899480   -5.512972
  F      3.111910   -6.445079   -6.043792
  C      6.419260   -2.542944   -5.077630
  C      5.872267   -5.002756   -2.427819
  C      6.173994   -6.485522   -2.606315
  H      6.734852   -6.613767   -3.534015
  H      6.821463   -6.831018   -1.793617
  H      4.469612   -7.406168   -1.655876
  H      5.230134   -8.398678   -2.885906
  C      5.896512   -2.169314   -3.694552
  H      7.428880   -2.143665   -5.208078
  H      6.505894   -3.627541   -5.175502
  C      6.807804   -2.623428   -2.551019
  H      4.894708   -2.589732   -3.557501
  H      5.778823   -1.081255   -3.635790
  C      7.111544   -4.122463   -2.520363
  H      7.751615   -2.071393   -2.614406
  H      6.345837   -2.326401   -1.604086
  H      5.362882   -4.828697   -1.471335
  H      5.174429   -4.702577   -3.211298
  H      7.778329   -4.329347   -1.677651
  H      7.673189   -4.402845   -3.417586
  O      4.763396   -8.239424   -5.698629
  H      6.036826   -2.198189   -7.176852
  H      5.467610   -0.907371   -6.127968

 Total Charge           Charge          ....    0
 Multiplicity           Mult            ....    1
 Number of Electrons    NEL             ....  136
 Basis Dimension        Dim             ....  634

ORBITAL ENERGIES
----------------

  NO   OCC          E(Eh)            E(eV)
   0   2.0000     -89.124515     -2425.2013
   1   2.0000     -24.818168      -675.3367
   2   2.0000     -19.163880      -521.4757
   3   2.0000     -19.156455      -521.2736
   4   2.0000     -14.284370      -388.6975
   5   2.0000     -10.245823      -278.8030
   6   2.0000     -10.206105      -277.7222
   7   2.0000     -10.175891      -276.9001
   8   2.0000     -10.170304      -276.7480
   9   2.0000     -10.166334      -276.6400
  10   2.0000     -10.160423      -276.4792
  11   2.0000     -10.156880      -276.3828
  12   2.0000     -10.151323      -276.2315
  13   2.0000     -10.151048      -276.2241
  14   2.0000     -10.150912      -276.2204
  15   2.0000     -10.078292      -274.2443
  16   2.0000      -8.168458      -222.2750
  17   2.0000      -6.135216      -166.9477
  18   2.0000      -6.128971      -166.7778
  19   2.0000      -6.128427      -166.7630
  20   2.0000      -1.395904       -37.9845
  21   2.0000      -1.133722       -30.8501
  22   2.0000      -1.039838       -28.2954
  23   2.0000      -0.910035       -24.7633
  24   2.0000      -0.849590       -23.1185
  25   2.0000      -0.810865       -22.0648
  26   2.0000      -0.786409       -21.3993
  27   2.0000      -0.758716       -20.6457
  28   2.0000      -0.736899       -20.0520
  29   2.0000      -0.708648       -19.2833
  30   2.0000      -0.688050       -18.7228
  31   2.0000      -0.653194       -17.7743
  32   2.0000      -0.620640       -16.8885
  33   2.0000      -0.610360       -16.6087
  34   2.0000      -0.600600       -16.3432
  35   2.0000      -0.591246       -16.0886
  36   2.0000      -0.577831       -15.7236
  37   2.0000      -0.559311       -15.2196
  38   2.0000      -0.550346       -14.9757
  39   2.0000      -0.519222       -14.1287
  40   2.0000      -0.505396       -13.7525
  41   2.0000      -0.495727       -13.4894
  42   2.0000      -0.480808       -13.0834
  43   2.0000      -0.466110       -12.6835
  44   2.0000      -0.459030       -12.4909
  45   2.0000      -0.455101       -12.3839
  46   2.0000      -0.445309       -12.1175
  47   2.0000      -0.431054       -11.7296
  48   2.0000      -0.421909       -11.4807
  49   2.0000      -0.416871       -11.3436
  50   2.0000      -0.411704       -11.2030
  51   2.0000      -0.402805       -10.9609
  52   2.0000      -0.390936       -10.6379
  53   2.0000      -0.383206       -10.4276
  54   2.0000      -0.372671       -10.1409
  55   2.0000      -0.363332        -9.8868
  56   2.0000      -0.359998        -9.7960
  57   2.0000      -0.357390        -9.7251
  58   2.0000      -0.350131        -9.5275
  59   2.0000      -0.338703        -9.2166
  60   2.0000      -0.332872        -9.0579
  61   2.0000      -0.329378        -8.9628
  62   2.0000      -0.325606        -8.8602
  63   2.0000      -0.316783        -8.6201
  64   2.0000      -0.309680        -8.4268
  65   2.0000      -0.302699        -8.2368
  66   2.0000      -0.298970        -8.1354
  67   2.0000      -0.166234        -4.5235
  68   0.0000      -0.002240        -0.0610
  69   0.0000       0.010848         0.2952
  70   0.0000       0.034883         0.9492
  71   0.0000       0.041186         1.1207
  72   0.0000       0.044450         1.2095

MULLIKEN ATOMIC CHARGES
-----------------------
   0 C :   -0.128470
   1 C :   -0.167158
   2 C :   -0.270576
   3 H :    0.157317
   4 H :    0.151164
   5 S :    0.909947
   6 C :    0.187417
   7 C :   -0.442295
   8 N :   -0.466356
   9 H :    0.290460
  10 H :    0.190158
  11 H :    0.079791
  12 H :    0.068854
  13 O :   -0.471150
  14 F :   -0.121429
  15 C :   -0.235786
  16 C :   -0.220294
  17 C :   -0.178915
  18 H :    0.127839
  19 H :    0.094896
  20 H :    0.110990
  21 H :    0.128387
  22 C :   -0.189164
  23 H :    0.080872
  24 H :    0.122307
  25 C :   -0.124310
  26 H :    0.107961
  27 H :    0.082945
  28 C :   -0.178176
  29 H :    0.086172
  30 H :    0.080517
  31 H :    0.080341
  32 H :    0.084887
  33 H :    0.084810
  34 H :    0.103490
  35 O :   -0.393739
  36 H :    0.091749
  37 H :    0.084547
Sum of atomic charges:   -0.0000000

LOEWDIN ATOMIC CHARGES
----------------------
   0 C :   -0.205684
   1 C :   -0.268897
   2 C :   -0.366116
   3 H :    0.140636
   4 H :    0.144351
   5 S :    0.586894
   6 C :   -0.376874
   7 C :   -0.298963
   8 N :   -0.017513
   9 H :    0.147815
  10 H :    0.152374
  11 H :    0.094250
  12 H :    0.087708
  13 O :   -0.279602
  14 F :    0.084826
  15 C :   -0.261434
  16 C :   -0.266664
  17 C :   -0.265359
  18 H :    0.140348
  19 H :    0.137341
  20 H :    0.147937
  21 H :    0.145289
  22 C :   -0.261435
  23 H :    0.133626
  24 H :    0.133673
  25 C :   -0.262907
  26 H :    0.134783
  27 H :    0.135241
  28 C :   -0.262455
  29 H :    0.133595
  30 H :    0.131880
  31 H :    0.131519
  32 H :    0.130721
  33 H :    0.132202
  34 H :    0.136613
  35 O :   -0.237610
  36 H :    0.142401
  37 H :    0.145489

  Mayer bond orders larger than 0.100000
B(  0-C ,  6-C ) :   0.9808 B(  0-C , 15-C ) :   0.9558 B(  0-C , 36-H ) :   0.9568
B(  0-C , 37-H ) :   0.9765 B(  1-C ,  2-C ) :   0.9557 B(  1-C , 17-C ) :   0.9837
B(  1-C , 20-H ) :   0.9496 B(  1-C , 21-H ) :   0.9645 B(  2-C ,  3-H ) :   0.9339
B(  2-C ,  4-H ) :   0.9371 B(  2-C ,  5-S ) :   0.9125 B(  5-S , 13-O ) :   1.7016
B(  5-S , 14-F ) :   1.0967 B(  5-S , 35-O ) :   1.9700 B(  6-C ,  7-C ) :   1.6947
B(  6-C ,  8-N ) :   1.2381 B(  7-C , 11-H ) :   0.9967 B(  7-C , 12-H ) :   0.9936
B(  8-N ,  9-H ) :   0.8087 B(  8-N , 10-H ) :   0.9205 B(  9-H , 13-O ) :   0.1091
B( 15-C , 22-C ) :   0.9499 B( 15-C , 23-H ) :   0.9605 B( 15-C , 24-H ) :   0.9802
B( 16-C , 17-C ) :   0.9387 B( 16-C , 28-C ) :   0.9803 B( 16-C , 31-H ) :   0.9591
B( 16-C , 32-H ) :   0.9696 B( 17-C , 18-H ) :   0.9703 B( 17-C , 19-H ) :   0.9710
B( 22-C , 25-C ) :   0.9624 B( 22-C , 26-H ) :   0.9828 B( 22-C , 27-H ) :   0.9655
B( 25-C , 28-C ) :   0.9619 B( 25-C , 29-H ) :   0.9702 B( 25-C , 30-H ) :   0.9739
B( 28-C , 33-H ) :   0.9671 B( 28-C , 34-H ) :   0.9771

Dispersion correction           -0.075534218
FINAL SINGLE POINT ENERGY     -1135.474945841962

DIPOLE MOMENT
-------------
                                X             Y             Z
Electronic contribution:    -10.97548     -20.07554     -14.24557
Nuclear contribution   :     10.48431      18.81367      15.71750
                        -----------------------------------------
Total Dipole Moment    :     -0.49116      -1.26186       1.47193
                        -----------------------------------------
Magnitude (a.u.)       :      2.00003
Magnitude (Debye)      :      5.08367

Rotational constants in cm-1:     0.017977     0.012528     0.008321
Rotational constants in MHz :   538.924099   375.570730   249.458530

                             ****ORCA TERMINATED NORMALLY****
TOTAL RUN TIME: 0 days 0 hours 1 minutes 36 seconds 728 msec
