                         Program Version 5.0.0 -  RELEASE  -
|  1> !TPSS D3BJ RIJCOSX def2-TZVPD def2/J TightSCF
|  2> *xyz -1 1
|  3> C          0.13297        2.38587       -4.02462
|  4> C         -1.36646        2.47911       -4.31393
|  5> C         -2.35773        2.30686       -3.13675
|  6> H         -1.63680        1.72709       -5.06399
|  7> H         -1.58235        3.44561       -4.76869
|  8> O         -3.44376        2.84652       -3.25274
|  9> O         -1.97092        1.58304       -2.15123
| 10> H          0.68084        2.52514       -4.93310
| 11> H          0.35823        1.42282       -3.61633
| 12> H          0.40851        3.14443       -3.32208
| 13> *
| 14> %MaxCore 64000
| 15>
| 16> %pal nprocs 4
| 17> end
| 18>
| 19> %scf
| 20>   MaxIter 150
| 21> end
| 22>
| 23>
| 24>                          ****END OF INPUT****

CARTESIAN COORDINATES (ANGSTROEM)
---------------------------------
  C      0.132970    2.385870   -4.024620
  C     -1.366460    2.479110   -4.313930
  C     -2.357730    2.306860   -3.136750
  H     -1.636800    1.727090   -5.063990
  H     -1.582350    3.445610   -4.768690
  O     -3.443760    2.846520   -3.252740
  O     -1.970920    1.583040   -2.151230
  H      0.680840    2.525140   -4.933100
  H      0.358230    1.422820   -3.616330
  H      0.408510    3.144430   -3.322080

 Total Charge           Charge          ....   -1
 Multiplicity           Mult            ....    1
 Number of Electrons    NEL             ....   40
 Basis Dimension        Dim             ....  236

ORBITAL ENERGIES
----------------

  NO   OCC          E(Eh)            E(eV)
   0   2.0000     -18.624837      -506.8076
   1   2.0000     -18.616156      -506.5714
   2   2.0000      -9.858202      -268.2553
   3   2.0000      -9.818195      -267.1667
   4   2.0000      -9.809101      -266.9192
   5   2.0000      -0.757088       -20.6014
   6   2.0000      -0.661675       -18.0051
   7   2.0000      -0.545351       -14.8398
   8   2.0000      -0.421589       -11.4720
   9   2.0000      -0.268698        -7.3116
  10   2.0000      -0.251032        -6.8309
  11   2.0000      -0.216480        -5.8907
  12   2.0000      -0.183400        -4.9906
  13   2.0000      -0.174488        -4.7481
  14   2.0000      -0.163870        -4.4591
  15   2.0000      -0.135135        -3.6772
  16   2.0000      -0.122151        -3.3239
  17   2.0000      -0.012887        -0.3507
  18   2.0000      -0.000233        -0.0063
  19   2.0000       0.014382         0.3914
  20   0.0000       0.125072         3.4034
  21   0.0000       0.150090         4.0842
  22   0.0000       0.163223         4.4415
  23   0.0000       0.173715         4.7270
  24   0.0000       0.192699         5.2436

MULLIKEN ATOMIC CHARGES
-----------------------
   0 C :   -0.808686
   1 C :   -0.157141
   2 C :    0.545437
   3 H :    0.129119
   4 H :    0.199997
   5 O :   -0.762603
   6 O :   -0.824919
   7 H :    0.242239
   8 H :    0.228705
   9 H :    0.207853
Sum of atomic charges:   -1.0000000

LOEWDIN ATOMIC CHARGES
----------------------
   0 C :   -0.137230
   1 C :   -0.204683
   2 C :   -0.776594
   3 H :    0.089027
   4 H :    0.078621
   5 O :   -0.064553
   6 O :   -0.122113
   7 H :    0.035889
   8 H :    0.048699
   9 H :    0.052939

  Mayer bond orders larger than 0.100000
B(  0-C ,  1-C ) :   0.8434 B(  0-C ,  7-H ) :   0.9520 B(  0-C ,  8-H ) :   0.9747
B(  0-C ,  9-H ) :   0.9753 B(  1-C ,  2-C ) :   1.0552 B(  1-C ,  3-H ) :   0.9135
B(  1-C ,  4-H ) :   0.9501 B(  2-C ,  5-O ) :   1.2679 B(  2-C ,  6-O ) :   1.2133

Dispersion correction           -0.007963612
FINAL SINGLE POINT ENERGY      -267.988788622799

DIPOLE MOMENT
-------------
                                X             Y             Z
Electronic contribution:     -5.33780      -0.38495       3.27853
Nuclear contribution   :      6.75610       0.63068      -4.53972
                        -----------------------------------------
Total Dipole Moment    :      1.41830       0.24573      -1.26119
                        -----------------------------------------
Magnitude (a.u.)       :      1.91378
Magnitude (Debye)      :      4.86445

Rotational constants in cm-1:     0.335096     0.130241     0.099025
Rotational constants in MHz : 10045.924902  3904.536250  2968.708333

                             ****ORCA TERMINATED NORMALLY****
TOTAL RUN TIME: 0 days 0 hours 0 minutes 19 seconds 655 msec
