                         Program Version 5.0.0 -  RELEASE  -
|  1> !TPSS D3BJ RIJCOSX def2-TZVPD def2/J TightSCF
|  2> *xyz 1 1
|  3> C          0.64866        1.00359       -3.64560
|  4> N          0.28128        0.67645       -2.24018
|  5> C          0.13297        2.38587       -4.02462
|  6> H          0.39079       -0.31925       -2.02649
|  7> H         -0.69269        0.99010       -2.13812
|  8> H          0.85421        1.21221       -1.57528
|  9> H          0.19099        0.23965       -4.27575
| 10> H          1.73157        0.93173       -3.75075
| 11> H          0.40589        2.60338       -5.03610
| 12> H          0.56342        3.11797       -3.37374
| 13> H         -0.93265        2.40724       -3.93025
| 14> *
| 15> %MaxCore 64000
| 16>
| 17> %pal nprocs 4
| 18> end
| 19>
| 20> %scf
| 21>   MaxIter 150
| 22> end
| 23>
| 24>
| 25>                          ****END OF INPUT****

CARTESIAN COORDINATES (ANGSTROEM)
---------------------------------
  C      0.648660    1.003590   -3.645600
  N      0.281280    0.676450   -2.240180
  C      0.132970    2.385870   -4.024620
  H      0.390790   -0.319250   -2.026490
  H     -0.692690    0.990100   -2.138120
  H      0.854210    1.212210   -1.575280
  H      0.190990    0.239650   -4.275750
  H      1.731570    0.931730   -3.750750
  H      0.405890    2.603380   -5.036100
  H      0.563420    3.117970   -3.373740
  H     -0.932650    2.407240   -3.930250

 Total Charge           Charge          ....    1
 Multiplicity           Mult            ....    1
 Number of Electrons    NEL             ....   26
 Basis Dimension        Dim             ....  183

ORBITAL ENERGIES
----------------

  NO   OCC          E(Eh)            E(eV)
   0   2.0000     -14.434939      -392.7947
   1   2.0000     -10.239306      -278.6257
   2   2.0000     -10.164134      -276.5802
   3   2.0000      -1.156243       -31.4630
   4   2.0000      -0.912325       -24.8256
   5   2.0000      -0.797106       -21.6904
   6   2.0000      -0.755426       -20.5562
   7   2.0000      -0.748595       -20.3703
   8   2.0000      -0.653422       -17.7805
   9   2.0000      -0.603817       -16.4307
  10   2.0000      -0.547807       -14.9066
  11   2.0000      -0.534719       -14.5504
  12   2.0000      -0.519621       -14.1396
  13   0.0000      -0.212835        -5.7915
  14   0.0000      -0.154248        -4.1973
  15   0.0000      -0.151490        -4.1222
  16   0.0000      -0.144206        -3.9241
  17   0.0000      -0.112057        -3.0492

MULLIKEN ATOMIC CHARGES
-----------------------
   0 C :   -0.147445
   1 N :   -0.237837
   2 C :   -0.895139
   3 H :    0.313793
   4 H :    0.318656
   5 H :    0.320026
   6 H :    0.222932
   7 H :    0.223911
   8 H :    0.211071
   9 H :    0.312288
  10 H :    0.357745
Sum of atomic charges:    1.0000000

LOEWDIN ATOMIC CHARGES
----------------------
   0 C :   -0.193328
   1 N :    0.186149
   2 C :   -0.046842
   3 H :    0.178755
   4 H :    0.173907
   5 H :    0.180476
   6 H :    0.133095
   7 H :    0.133467
   8 H :    0.091709
   9 H :    0.081714
  10 H :    0.080899

  Mayer bond orders larger than 0.100000
B(  0-C ,  1-N ) :   0.9637 B(  0-C ,  2-C ) :   0.9002 B(  0-C ,  6-H ) :   0.9298
B(  0-C ,  7-H ) :   0.9359 B(  1-N ,  3-H ) :   0.8793 B(  1-N ,  4-H ) :   0.8658
B(  1-N ,  5-H ) :   0.8782 B(  2-C ,  8-H ) :   1.0009 B(  2-C ,  9-H ) :   0.9182
B(  2-C , 10-H ) :   0.8696

Dispersion correction           -0.007483701
FINAL SINGLE POINT ENERGY      -135.614138058028

DIPOLE MOMENT
-------------
                                X             Y             Z
Electronic contribution:      0.17173      -1.28512       1.29605
Nuclear contribution   :     -0.22655       0.48066      -0.09136
                        -----------------------------------------
Total Dipole Moment    :     -0.05482      -0.80446       1.20470
                        -----------------------------------------
Magnitude (a.u.)       :      1.44964
Magnitude (Debye)      :      3.68470

Rotational constants in cm-1:     0.998155     0.284845     0.251232
Rotational constants in MHz : 29923.943568  8539.431565  7531.732866

                             ****ORCA TERMINATED NORMALLY****
TOTAL RUN TIME: 0 days 0 hours 0 minutes 12 seconds 710 msec
