                         Program Version 5.0.0 -  RELEASE  -
|  1> !TPSS D3BJ RIJCOSX def2-TZVPD def2/J TightSCF xyzfile
|  2>
|  3> *xyzfile 0 1 B.xyz
|  4>
|  5> %MaxCore 64000
|  6>
|  7> %pal nprocs 4
|  8> end
|  9>
| 10> %scf
| 11>   MaxIter 150
| 12> end
| 13>
| 14>
| 15>                          ****END OF INPUT****

CARTESIAN COORDINATES (ANGSTROEM)
---------------------------------
  C      0.648656    1.003595   -3.645601
  N      0.281280    0.676454   -2.240179
  C      0.132968    2.385869   -4.024618
  C     -1.366462    2.479106   -4.313932
  C     -2.357732    2.306858   -3.136753
  H     -1.636802    1.727095   -5.063993
  H     -1.582347    3.445605   -4.768687
  H      0.390790   -0.319253   -2.026495
  H     -0.692686    0.990104   -2.138123
  H      0.854206    1.212214   -1.575279
  O     -3.443763    2.846518   -3.252744
  O     -1.970922    1.583042   -2.151229
  H      0.190993    0.239655   -4.275752
  H      1.731572    0.931729   -3.750751
  H      0.414839    3.102847   -3.245165
  H      0.683167    2.687560   -4.919721

 Total Charge           Charge          ....    0
 Multiplicity           Mult            ....    1
 Number of Electrons    NEL             ....   56
 Basis Dimension        Dim             ....  346

ORBITAL ENERGIES
----------------

  NO   OCC          E(Eh)            E(eV)
   0   2.0000     -18.811355      -511.8830
   1   2.0000     -18.790004      -511.3020
   2   2.0000     -14.210332      -386.6828
   3   2.0000     -10.072780      -274.0943
   4   2.0000     -10.036118      -273.0967
   5   2.0000     -10.013482      -272.4807
   6   2.0000      -9.975459      -271.4461
   7   2.0000      -0.958009       -26.0688
   8   2.0000      -0.931952       -25.3597
   9   2.0000      -0.852859       -23.2075
  10   2.0000      -0.755403       -20.5556
  11   2.0000      -0.664040       -18.0695
  12   2.0000      -0.588648       -16.0179
  13   2.0000      -0.556267       -15.1368
  14   2.0000      -0.549195       -14.9444
  15   2.0000      -0.480323       -13.0702
  16   2.0000      -0.438143       -11.9225
  17   2.0000      -0.435705       -11.8561
  18   2.0000      -0.397292       -10.8109
  19   2.0000      -0.381276       -10.3750
  20   2.0000      -0.348260        -9.4766
  21   2.0000      -0.344200        -9.3662
  22   2.0000      -0.336427        -9.1546
  23   2.0000      -0.314133        -8.5480
  24   2.0000      -0.296459        -8.0671
  25   2.0000      -0.196764        -5.3542
  26   2.0000      -0.191148        -5.2014
  27   2.0000      -0.160283        -4.3615
  28   0.0000      -0.052457        -1.4274
  29   0.0000      -0.013523        -0.3680
  30   0.0000      -0.010692        -0.2909
  31   0.0000       0.012576         0.3422
  32   0.0000       0.026018         0.7080

MULLIKEN ATOMIC CHARGES
-----------------------
   0 C :   -0.245402
   1 N :   -0.141701
   2 C :   -0.146709
   3 C :   -0.391765
   4 C :    0.655739
   5 H :    0.180225
   6 H :    0.160848
   7 H :    0.293544
   8 H :    0.260244
   9 H :    0.321471
  10 O :   -0.704483
  11 O :   -0.858828
  12 H :    0.225740
  13 H :    0.162404
  14 H :    0.132149
  15 H :    0.096524
Sum of atomic charges:   -0.0000000

LOEWDIN ATOMIC CHARGES
----------------------
   0 C :   -0.163396
   1 N :    0.147372
   2 C :   -0.185210
   3 C :   -0.114221
   4 C :   -0.671544
   5 H :    0.113986
   6 H :    0.107290
   7 H :    0.158040
   8 H :   -0.005101
   9 H :    0.162737
  10 O :    0.031043
  11 O :   -0.051053
  12 H :    0.127563
  13 H :    0.114596
  14 H :    0.118791
  15 H :    0.109109

  Mayer bond orders larger than 0.100000
B(  0-C ,  1-N ) :   0.9952 B(  0-C ,  2-C ) :   0.9503 B(  0-C , 12-H ) :   0.8974
B(  0-C , 13-H ) :   0.9645 B(  1-N ,  7-H ) :   0.8839 B(  1-N ,  8-H ) :   0.8267
B(  1-N ,  9-H ) :   0.8576 B(  2-C ,  3-C ) :   1.0119 B(  2-C , 14-H ) :   0.9779
B(  2-C , 15-H ) :   0.9673 B(  3-C ,  4-C ) :   1.0844 B(  3-C ,  5-H ) :   0.8860
B(  3-C ,  6-H ) :   0.9720 B(  4-C , 10-O ) :   1.3376 B(  4-C , 11-O ) :   1.0746
B(  8-H , 11-O ) :   0.1250

Dispersion correction           -0.016934180
FINAL SINGLE POINT ENERGY      -363.247659212501

DIPOLE MOMENT
-------------
                                X             Y             Z
Electronic contribution:     -5.93207       0.96941       2.56573
Nuclear contribution   :      9.92875      -2.62114      -2.63866
                        -----------------------------------------
Total Dipole Moment    :      3.99668      -1.65173      -0.07293
                        -----------------------------------------
Magnitude (a.u.)       :      4.32516
Magnitude (Debye)      :     10.99368

Rotational constants in cm-1:     0.159108     0.062474     0.047603
Rotational constants in MHz :  4769.938632  1872.932224  1427.103830

                             ****ORCA TERMINATED NORMALLY****
TOTAL RUN TIME: 0 days 0 hours 0 minutes 37 seconds 995 msec
