                         Program Version 5.0.0 -  RELEASE  -
|  1> !TPSS D3BJ RIJCOSX def2-TZVPD def2/J TightSCF
|  2> *xyz 0 1
|  3> C          0.13297        2.38587       -4.02462
|  4> C         -1.36646        2.47911       -4.31393
|  5> C         -2.35773        2.30686       -3.13675
|  6> H         -1.63680        1.72709       -5.06399
|  7> H         -1.58235        3.44561       -4.76869
|  8> F         -3.44376        2.84652       -3.25274
|  9> O         -1.97092        1.58304       -2.15123
| 10> H          0.68084        2.52514       -4.93310
| 11> H          0.35823        1.42282       -3.61633
| 12> H          0.40851        3.14443       -3.32208
| 13> *
| 14> %MaxCore 64000
| 15>
| 16> %pal nprocs 4
| 17> end
| 18>
| 19> %scf
| 20>   MaxIter 150
| 21> end
| 22>
| 23>
| 24>                          ****END OF INPUT****

CARTESIAN COORDINATES (ANGSTROEM)
---------------------------------
  C      0.132970    2.385870   -4.024620
  C     -1.366460    2.479110   -4.313930
  C     -2.357730    2.306860   -3.136750
  H     -1.636800    1.727090   -5.063990
  H     -1.582350    3.445610   -4.768690
  F     -3.443760    2.846520   -3.252740
  O     -1.970920    1.583040   -2.151230
  H      0.680840    2.525140   -4.933100
  H      0.358230    1.422820   -3.616330
  H      0.408510    3.144430   -3.322080

 Total Charge           Charge          ....    0
 Multiplicity           Mult            ....    1
 Number of Electrons    NEL             ....   40
 Basis Dimension        Dim             ....  236

ORBITAL ENERGIES
----------------

  NO   OCC          E(Eh)            E(eV)
   0   2.0000     -24.492026      -666.4619
   1   2.0000     -18.883650      -513.8503
   2   2.0000     -10.155201      -276.3371
   3   2.0000     -10.017674      -272.5948
   4   2.0000      -9.986321      -271.7416
   5   2.0000      -1.267026       -34.4775
   6   2.0000      -0.946995       -25.7690
   7   2.0000      -0.739401       -20.1201
   8   2.0000      -0.642779       -17.4909
   9   2.0000      -0.591597       -16.0982
  10   2.0000      -0.508034       -13.8243
  11   2.0000      -0.491664       -13.3789
  12   2.0000      -0.457170       -12.4402
  13   2.0000      -0.425207       -11.5705
  14   2.0000      -0.386836       -10.5264
  15   2.0000      -0.351910        -9.5759
  16   2.0000      -0.337249        -9.1770
  17   2.0000      -0.330397        -8.9906
  18   2.0000      -0.304208        -8.2779
  19   2.0000      -0.241303        -6.5662
  20   0.0000      -0.060936        -1.6582
  21   0.0000      -0.008594        -0.2339
  22   0.0000       0.017492         0.4760
  23   0.0000       0.030434         0.8281
  24   0.0000       0.039177         1.0660

MULLIKEN ATOMIC CHARGES
-----------------------
   0 C :   -0.799278
   1 C :   -0.108008
   2 C :    0.553874
   3 H :    0.172149
   4 H :    0.222951
   5 F :   -0.189754
   6 O :   -0.550179
   7 H :    0.219707
   8 H :    0.246921
   9 H :    0.231618
Sum of atomic charges:   -0.0000000

LOEWDIN ATOMIC CHARGES
----------------------
   0 C :   -0.085940
   1 C :   -0.152773
   2 C :   -0.504227
   3 H :    0.117178
   4 H :    0.102308
   5 F :    0.257381
   6 O :    0.063406
   7 H :    0.064980
   8 H :    0.067508
   9 H :    0.070180

  Mayer bond orders larger than 0.100000
B(  0-C ,  1-C ) :   0.9667 B(  0-C ,  7-H ) :   0.9626 B(  0-C ,  8-H ) :   0.9513
B(  0-C ,  9-H ) :   0.9473 B(  1-C ,  2-C ) :   1.0103 B(  1-C ,  3-H ) :   0.8891
B(  1-C ,  4-H ) :   0.9124 B(  2-C ,  5-F ) :   1.0085 B(  2-C ,  6-O ) :   1.5961

Dispersion correction           -0.007564272
FINAL SINGLE POINT ENERGY      -292.547451891090

DIPOLE MOMENT
-------------
                                X             Y             Z
Electronic contribution:     -8.38567       0.45823       3.61573
Nuclear contribution   :      8.54799       0.05434      -4.66633
                        -----------------------------------------
Total Dipole Moment    :      0.16232       0.51257      -1.05060
                        -----------------------------------------
Magnitude (a.u.)       :      1.18018
Magnitude (Debye)      :      2.99979

Rotational constants in cm-1:     0.325803     0.123345     0.094275
Rotational constants in MHz :  9767.324172  3697.779805  2826.305733

                             ****ORCA TERMINATED NORMALLY****
TOTAL RUN TIME: 0 days 0 hours 0 minutes 16 seconds 308 msec
