                         Program Version 5.0.0 -  RELEASE  -
|  1> !TPSS D3BJ RIJCOSX def2-TZVPD def2/J TightSCF
|  2> *xyz 0 1
|  3> C          0.64866        1.00359       -3.64560
|  4> C          0.28128        0.67645       -2.24018
|  5> C          0.13297        2.38587       -4.02462
|  6> H          0.39079       -0.31925       -2.02649
|  7> H         -0.69269        0.99010       -2.13812
|  8> H          0.85421        1.21221       -1.57528
|  9> H          0.19099        0.23965       -4.27575
| 10> H          1.73157        0.93173       -3.75075
| 11> H          0.40589        2.60338       -5.03610
| 12> H          0.56342        3.11797       -3.37374
| 13> H         -0.93265        2.40724       -3.93025
| 14> *
| 15> %MaxCore 64000
| 16>
| 17> %pal nprocs 4
| 18> end
| 19>
| 20> %scf
| 21>   MaxIter 150
| 22> end
| 23>
| 24>
| 25>                          ****END OF INPUT****

CARTESIAN COORDINATES (ANGSTROEM)
---------------------------------
  C      0.648660    1.003590   -3.645600
  C      0.281280    0.676450   -2.240180
  C      0.132970    2.385870   -4.024620
  H      0.390790   -0.319250   -2.026490
  H     -0.692690    0.990100   -2.138120
  H      0.854210    1.212210   -1.575280
  H      0.190990    0.239650   -4.275750
  H      1.731570    0.931730   -3.750750
  H      0.405890    2.603380   -5.036100
  H      0.563420    3.117970   -3.373740
  H     -0.932650    2.407240   -3.930250

 Total Charge           Charge          ....    0
 Multiplicity           Mult            ....    1
 Number of Electrons    NEL             ....   26
 Basis Dimension        Dim             ....  183

ORBITAL ENERGIES
----------------

  NO   OCC          E(Eh)            E(eV)
   0   2.0000      -9.970438      -271.3094
   1   2.0000      -9.963718      -271.1265
   2   2.0000      -9.944543      -270.6048
   3   2.0000      -0.735343       -20.0097
   4   2.0000      -0.637066       -17.3354
   5   2.0000      -0.538694       -14.6586
   6   2.0000      -0.426295       -11.6001
   7   2.0000      -0.408275       -11.1097
   8   2.0000      -0.363392        -9.8884
   9   2.0000      -0.349247        -9.5035
  10   2.0000      -0.300688        -8.1821
  11   2.0000      -0.297321        -8.0905
  12   2.0000      -0.293023        -7.9736
  13   0.0000       0.004747         0.1292
  14   0.0000       0.029642         0.8066
  15   0.0000       0.032479         0.8838
  16   0.0000       0.050185         1.3656
  17   0.0000       0.071719         1.9516

MULLIKEN ATOMIC CHARGES
-----------------------
   0 C :    0.138727
   1 C :   -1.030633
   2 C :   -0.924358
   3 H :    0.224860
   4 H :    0.274537
   5 H :    0.290180
   6 H :    0.138751
   7 H :    0.146937
   8 H :    0.199073
   9 H :    0.260071
  10 H :    0.281854
Sum of atomic charges:   -0.0000000

LOEWDIN ATOMIC CHARGES
----------------------
   0 C :   -0.309231
   1 C :   -0.119300
   2 C :   -0.110129
   3 H :    0.048871
   4 H :    0.050553
   5 H :    0.053797
   6 H :    0.099615
   7 H :    0.099333
   8 H :    0.057986
   9 H :    0.065148
  10 H :    0.063356

  Mayer bond orders larger than 0.100000
B(  0-C ,  1-C ) :   0.8133 B(  0-C ,  2-C ) :   0.7989 B(  0-C ,  6-H ) :   0.9583
B(  0-C ,  7-H ) :   0.9428 B(  1-C ,  2-C ) :   0.1961 B(  1-C ,  3-H ) :   0.9820
B(  1-C ,  4-H ) :   0.9626 B(  1-C ,  5-H ) :   0.9443 B(  2-C ,  8-H ) :   1.0034
B(  2-C ,  9-H ) :   0.9609 B(  2-C , 10-H ) :   0.9465

Dispersion correction           -0.007507658
FINAL SINGLE POINT ENERGY      -119.197626282018

DIPOLE MOMENT
-------------
                                X             Y             Z
Electronic contribution:      0.26017      -0.28170      -0.24400
Nuclear contribution   :     -0.24754       0.26111       0.24628
                        -----------------------------------------
Total Dipole Moment    :      0.01263      -0.02059       0.00228
                        -----------------------------------------
Magnitude (a.u.)       :      0.02426
Magnitude (Debye)      :      0.06167

Rotational constants in cm-1:     1.006509     0.299509     0.263145
Rotational constants in MHz : 30174.379724  8979.049324  7888.875355

                             ****ORCA TERMINATED NORMALLY****
TOTAL RUN TIME: 0 days 0 hours 0 minutes 12 seconds 928 msec
