                         Program Version 5.0.0 -  RELEASE  -
|  1> !TPSS D3BJ RIJCOSX def2-TZVPD def2/J TightSCF
|  2> *xyz 0 1
|  3> C          0.13297        2.38587       -4.02462
|  4> C         -1.36646        2.47911       -4.31393
|  5> C         -2.35773        2.30686       -3.13675
|  6> H         -1.63680        1.72709       -5.06399
|  7> H         -1.58235        3.44561       -4.76869
|  8> O         -3.44376        2.84652       -3.25274
|  9> F         -1.97092        1.58304       -2.15123
| 10> H          0.68084        2.52514       -4.93310
| 11> H          0.35823        1.42282       -3.61633
| 12> H          0.40851        3.14443       -3.32208
| 13> *
| 14> %MaxCore 64000
| 15>
| 16> %pal nprocs 4
| 17> end
| 18>
| 19> %scf
| 20>   MaxIter 150
| 21> end
| 22>
| 23>
| 24>                          ****END OF INPUT****

CARTESIAN COORDINATES (ANGSTROEM)
---------------------------------
  C      0.132970    2.385870   -4.024620
  C     -1.366460    2.479110   -4.313930
  C     -2.357730    2.306860   -3.136750
  H     -1.636800    1.727090   -5.063990
  H     -1.582350    3.445610   -4.768690
  O     -3.443760    2.846520   -3.252740
  F     -1.970920    1.583040   -2.151230
  H      0.680840    2.525140   -4.933100
  H      0.358230    1.422820   -3.616330
  H      0.408510    3.144430   -3.322080

 Total Charge           Charge          ....    0
 Multiplicity           Mult            ....    1
 Number of Electrons    NEL             ....   40
 Basis Dimension        Dim             ....  236

ORBITAL ENERGIES
----------------

  NO   OCC          E(Eh)            E(eV)
   0   2.0000     -24.468974      -665.8346
   1   2.0000     -18.892143      -514.0813
   2   2.0000     -10.149826      -276.1908
   3   2.0000     -10.016422      -272.5607
   4   2.0000      -9.990687      -271.8604
   5   2.0000      -1.220344       -33.2072
   6   2.0000      -0.985660       -26.8212
   7   2.0000      -0.741759       -20.1843
   8   2.0000      -0.627761       -17.0822
   9   2.0000      -0.582316       -15.8456
  10   2.0000      -0.485697       -13.2165
  11   2.0000      -0.480026       -13.0622
  12   2.0000      -0.445328       -12.1180
  13   2.0000      -0.423919       -11.5354
  14   2.0000      -0.390196       -10.6178
  15   2.0000      -0.360635        -9.8134
  16   2.0000      -0.349618        -9.5136
  17   2.0000      -0.336154        -9.1472
  18   2.0000      -0.317817        -8.6482
  19   2.0000      -0.253148        -6.8885
  20   0.0000      -0.056100        -1.5266
  21   0.0000      -0.011005        -0.2995
  22   0.0000       0.020735         0.5642
  23   0.0000       0.027908         0.7594
  24   0.0000       0.039600         1.0776

MULLIKEN ATOMIC CHARGES
-----------------------
   0 C :   -0.828062
   1 C :   -0.034701
   2 C :    0.467813
   3 H :    0.182712
   4 H :    0.204069
   5 O :   -0.487781
   6 F :   -0.215997
   7 H :    0.214022
   8 H :    0.252875
   9 H :    0.245051
Sum of atomic charges:    0.0000000

LOEWDIN ATOMIC CHARGES
----------------------
   0 C :   -0.093625
   1 C :   -0.144711
   2 C :   -0.495067
   3 H :    0.118219
   4 H :    0.111220
   5 O :    0.119422
   6 F :    0.188234
   7 H :    0.064686
   8 H :    0.063650
   9 H :    0.067971

  Mayer bond orders larger than 0.100000
B(  0-C ,  1-C ) :   0.9145 B(  0-C ,  7-H ) :   0.9802 B(  0-C ,  8-H ) :   0.9452
B(  0-C ,  9-H ) :   0.9562 B(  1-C ,  2-C ) :   0.9936 B(  1-C ,  3-H ) :   0.8783
B(  1-C ,  4-H ) :   0.9275 B(  2-C ,  5-O ) :   1.6725 B(  2-C ,  6-F ) :   0.9766

Dispersion correction           -0.007502915
FINAL SINGLE POINT ENERGY      -292.564310405986

DIPOLE MOMENT
-------------
                                X             Y             Z
Electronic contribution:     -5.93240      -1.62432       5.41385
Nuclear contribution   :      6.94213       1.43193      -5.86732
                        -----------------------------------------
Total Dipole Moment    :      1.00973      -0.19239      -0.45347
                        -----------------------------------------
Magnitude (a.u.)       :      1.12348
Magnitude (Debye)      :      2.85566

Rotational constants in cm-1:     0.306336     0.129048     0.095707
Rotational constants in MHz :  9183.725605  3868.769583  2869.236577

                             ****ORCA TERMINATED NORMALLY****
TOTAL RUN TIME: 0 days 0 hours 0 minutes 16 seconds 674 msec
