                         Program Version 5.0.0 -  RELEASE  -
|  1> !TPSS D3BJ RIJCOSX def2-TZVPD def2/J TightSCF xyzfile
|  2>
|  3> *xyzfile 0 1 D1.xyz
|  4>
|  5> %MaxCore 64000
|  6>
|  7> %pal nprocs 4
|  8> end
|  9>
| 10> %scf
| 11>   MaxIter 150
| 12> end
| 13>
| 14>
| 15>                          ****END OF INPUT****

CARTESIAN COORDINATES (ANGSTROEM)
---------------------------------
  C      0.648656    1.003595   -3.645601
  C      0.281280    0.676454   -2.240179
  C      0.132968    2.385869   -4.024618
  C     -1.366462    2.479106   -4.313932
  C     -2.357732    2.306858   -3.136753
  H     -1.636802    1.727095   -5.063993
  H     -1.582347    3.445605   -4.768687
  H      0.390790   -0.319253   -2.026495
  H     -0.692686    0.990104   -2.138123
  H      0.854206    1.212214   -1.575279
  F     -3.443763    2.846518   -3.252744
  O     -1.970922    1.583042   -2.151229
  H      0.190993    0.239655   -4.275752
  H      1.731572    0.931729   -3.750751
  H      0.414839    3.102847   -3.245165
  H      0.683167    2.687560   -4.919721

 Total Charge           Charge          ....    0
 Multiplicity           Mult            ....    1
 Number of Electrons    NEL             ....   56
 Basis Dimension        Dim             ....  346

ORBITAL ENERGIES
----------------

  NO   OCC          E(Eh)            E(eV)
   0   2.0000     -24.502115      -666.7364
   1   2.0000     -18.891925      -514.0754
   2   2.0000     -10.169369      -276.7226
   3   2.0000     -10.022842      -272.7354
   4   2.0000      -9.993319      -271.9320
   5   2.0000      -9.965146      -271.1654
   6   2.0000      -9.895941      -269.2823
   7   2.0000      -1.276984       -34.7485
   8   2.0000      -0.970071       -26.3970
   9   2.0000      -0.757424       -20.6105
  10   2.0000      -0.700951       -19.0738
  11   2.0000      -0.633134       -17.2284
  12   2.0000      -0.604452       -16.4480
  13   2.0000      -0.533704       -14.5228
  14   2.0000      -0.516505       -14.0548
  15   2.0000      -0.501748       -13.6532
  16   2.0000      -0.477560       -12.9951
  17   2.0000      -0.436835       -11.8869
  18   2.0000      -0.407615       -11.0918
  19   2.0000      -0.394777       -10.7424
  20   2.0000      -0.366147        -9.9634
  21   2.0000      -0.344112        -9.3638
  22   2.0000      -0.338040        -9.1985
  23   2.0000      -0.318094        -8.6558
  24   2.0000      -0.301416        -8.2019
  25   2.0000      -0.286080        -7.7846
  26   2.0000      -0.274114        -7.4590
  27   2.0000      -0.208022        -5.6606
  28   0.0000      -0.074780        -2.0349
  29   0.0000      -0.009700        -0.2639
  30   0.0000       0.012991         0.3535
  31   0.0000       0.019738         0.5371
  32   0.0000       0.026872         0.7312

MULLIKEN ATOMIC CHARGES
-----------------------
   0 C :   -0.007182
   1 C :   -1.018949
   2 C :   -0.197798
   3 C :   -0.298541
   4 C :    0.643674
   5 H :    0.212917
   6 H :    0.197831
   7 H :    0.224759
   8 H :    0.304554
   9 H :    0.301094
  10 F :   -0.253269
  11 O :   -0.542330
  12 H :    0.198056
  13 H :    0.039241
  14 H :    0.141538
  15 H :    0.054405
Sum of atomic charges:   -0.0000000

LOEWDIN ATOMIC CHARGES
----------------------
   0 C :   -0.243972
   1 C :   -0.113956
   2 C :   -0.194236
   3 C :   -0.084165
   4 C :   -0.438285
   5 H :    0.126713
   6 H :    0.108553
   7 H :    0.053701
   8 H :   -0.054149
   9 H :    0.059708
  10 F :    0.272694
  11 O :    0.073500
  12 H :    0.107343
  13 H :    0.100899
  14 H :    0.119957
  15 H :    0.105696

  Mayer bond orders larger than 0.100000
B(  0-C ,  1-C ) :   0.8401 B(  0-C ,  2-C ) :   0.9209 B(  0-C ,  3-C ) :   0.1067
B(  0-C , 12-H ) :   0.9027 B(  0-C , 13-H ) :   0.9936 B(  1-C ,  2-C ) :   0.1846
B(  1-C ,  7-H ) :   0.9522 B(  1-C ,  8-H ) :   1.2368 B(  1-C ,  9-H ) :   0.9389
B(  1-C , 13-H ) :   0.1011 B(  2-C ,  3-C ) :   1.0516 B(  2-C , 14-H ) :   0.9561
B(  2-C , 15-H ) :   0.9887 B(  3-C ,  4-C ) :   0.9793 B(  3-C ,  5-H ) :   0.8886
B(  3-C ,  6-H ) :   0.9332 B(  4-C , 10-F ) :   0.9623 B(  4-C , 11-O ) :   1.5949
B(  7-H ,  8-H ) :   0.1116 B(  8-H , 11-O ) :  -0.3096

Dispersion correction           -0.016533197
FINAL SINGLE POINT ENERGY      -371.163982678458

DIPOLE MOMENT
-------------
                                X             Y             Z
Electronic contribution:    -13.00679       4.56098       1.46480
Nuclear contribution   :     12.79331      -3.91961      -2.45895
                        -----------------------------------------
Total Dipole Moment    :     -0.21348       0.64137      -0.99415
                        -----------------------------------------
Magnitude (a.u.)       :      1.20219
Magnitude (Debye)      :      3.05573

Rotational constants in cm-1:     0.162888     0.059977     0.046450
Rotational constants in MHz :  4883.250030  1798.063289  1392.548669

                             ****ORCA TERMINATED NORMALLY****
TOTAL RUN TIME: 0 days 0 hours 0 minutes 34 seconds 653 msec
