                         Program Version 5.0.0 -  RELEASE  -
|  1> !TPSS D3BJ RIJCOSX def2-TZVPD def2/J TightSCF xyzfile
|  2>
|  3> *xyzfile 0 1 D2.xyz
|  4>
|  5> %MaxCore 64000
|  6>
|  7> %pal nprocs 4
|  8> end
|  9>
| 10> %scf
| 11>   MaxIter 150
| 12> end
| 13>
| 14>
| 15>                          ****END OF INPUT****

CARTESIAN COORDINATES (ANGSTROEM)
---------------------------------
  C      0.648656    1.003595   -3.645601
  C      0.281280    0.676454   -2.240179
  C      0.132968    2.385869   -4.024618
  C     -1.366462    2.479106   -4.313932
  C     -2.357732    2.306858   -3.136753
  H     -1.636802    1.727095   -5.063993
  H     -1.582347    3.445605   -4.768687
  H      0.390790   -0.319253   -2.026495
  H     -0.692686    0.990104   -2.138123
  H      0.854206    1.212214   -1.575279
  O     -3.443763    2.846518   -3.252744
  F     -1.970922    1.583042   -2.151229
  H      0.190993    0.239655   -4.275752
  H      1.731572    0.931729   -3.750751
  H      0.414839    3.102847   -3.245165
  H      0.683167    2.687560   -4.919721

 Total Charge           Charge          ....    0
 Multiplicity           Mult            ....    1
 Number of Electrons    NEL             ....   56
 Basis Dimension        Dim             ....  346

ORBITAL ENERGIES
----------------

  NO   OCC          E(Eh)            E(eV)
   0   2.0000     -24.479757      -666.1281
   1   2.0000     -18.899070      -514.2698
   2   2.0000     -10.157203      -276.3915
   3   2.0000     -10.019346      -272.6403
   4   2.0000      -9.996489      -272.0183
   5   2.0000      -9.978067      -271.5170
   6   2.0000      -9.926612      -270.1168
   7   2.0000      -1.241616       -33.7861
   8   2.0000      -0.993084       -27.0232
   9   2.0000      -0.765030       -20.8175
  10   2.0000      -0.707696       -19.2574
  11   2.0000      -0.624229       -16.9861
  12   2.0000      -0.620960       -16.8972
  13   2.0000      -0.537308       -14.6209
  14   2.0000      -0.507183       -13.8011
  15   2.0000      -0.494450       -13.4547
  16   2.0000      -0.458349       -12.4723
  17   2.0000      -0.426623       -11.6090
  18   2.0000      -0.409198       -11.1348
  19   2.0000      -0.407107       -11.0779
  20   2.0000      -0.379789       -10.3346
  21   2.0000      -0.351569        -9.5667
  22   2.0000      -0.342784        -9.3276
  23   2.0000      -0.327910        -8.9229
  24   2.0000      -0.301200        -8.1961
  25   2.0000      -0.295720        -8.0469
  26   2.0000      -0.285119        -7.7585
  27   2.0000      -0.250874        -6.8266
  28   0.0000      -0.063764        -1.7351
  29   0.0000      -0.008628        -0.2348
  30   0.0000       0.014344         0.3903
  31   0.0000       0.016911         0.4602
  32   0.0000       0.020604         0.5607

MULLIKEN ATOMIC CHARGES
-----------------------
   0 C :    0.025062
   1 C :   -1.252149
   2 C :   -0.232767
   3 C :   -0.262393
   4 C :    0.553425
   5 H :    0.225353
   6 H :    0.183787
   7 H :    0.233836
   8 H :    0.475875
   9 H :    0.314771
  10 O :   -0.534111
  11 F :   -0.213958
  12 H :    0.209390
  13 H :    0.054389
  14 H :    0.164352
  15 H :    0.055136
Sum of atomic charges:    0.0000000

LOEWDIN ATOMIC CHARGES
----------------------
   0 C :   -0.244471
   1 C :   -0.097418
   2 C :   -0.202020
   3 C :   -0.082580
   4 C :   -0.458113
   5 H :    0.126859
   6 H :    0.116943
   7 H :    0.057040
   8 H :   -0.016193
   9 H :    0.062609
  10 O :    0.133834
  11 F :    0.167729
  12 H :    0.108480
  13 H :    0.103423
  14 H :    0.118018
  15 H :    0.105860

  Mayer bond orders larger than 0.100000
B(  0-C ,  1-C ) :   0.8132 B(  0-C ,  2-C ) :   0.8694 B(  0-C , 12-H ) :   0.9141
B(  0-C , 13-H ) :   0.9918 B(  1-C ,  2-C ) :   0.2621 B(  1-C ,  7-H ) :   0.9103
B(  1-C ,  8-H ) :   1.1340 B(  1-C ,  9-H ) :   0.9011 B(  1-C , 11-F ) :   0.1291
B(  2-C ,  3-C ) :   1.0245 B(  2-C , 14-H ) :   0.9645 B(  2-C , 15-H ) :   1.0005
B(  3-C ,  4-C ) :   0.9704 B(  3-C ,  5-H ) :   0.8670 B(  3-C ,  6-H ) :   0.9598
B(  4-C , 10-O ) :   1.6193 B(  4-C , 11-F ) :   0.9451 B(  7-H ,  8-H ) :   0.1109
B(  8-H , 11-F ) :  -0.3064

Dispersion correction           -0.016298124
FINAL SINGLE POINT ENERGY      -371.181786117435

DIPOLE MOMENT
-------------
                                X             Y             Z
Electronic contribution:    -10.30926       2.33785       3.32375
Nuclear contribution   :     11.08738      -2.45618      -3.73478
                        -----------------------------------------
Total Dipole Moment    :      0.77812      -0.11833      -0.41103
                        -----------------------------------------
Magnitude (a.u.)       :      0.88793
Magnitude (Debye)      :      2.25694

Rotational constants in cm-1:     0.156244     0.063730     0.048063
Rotational constants in MHz :  4684.071402  1910.571278  1440.877811

                             ****ORCA TERMINATED NORMALLY****
TOTAL RUN TIME: 0 days 0 hours 0 minutes 31 seconds 978 msec
