                         Program Version 5.0.0 -  RELEASE  -
|  1> !BLYP D3BJ RIJCOSX def2-SVPD def2/J TightSCF
|  2> *xyz -1 1
|  3> C          4.12921        0.89839       -3.41895
|  4> C          5.01734        1.31521       -2.22130
|  5> O          4.73706        0.85411       -1.12283
|  6> O          5.92815        2.16811       -2.49136
|  7> H          4.48610        1.37210       -4.30953
|  8> H          3.11885        1.19903       -3.23540
|  9> H          4.16886       -0.16404       -3.53966
| 10> *
| 11> %MaxCore 64000
| 12>
| 13> %pal nprocs 4
| 14> end
| 15>
| 16> %scf
| 17>   MaxIter 150
| 18> end
| 19>
| 20>
| 21>                          ****END OF INPUT****

CARTESIAN COORDINATES (ANGSTROEM)
---------------------------------
  C      4.129210    0.898390   -3.418950
  C      5.017340    1.315210   -2.221300
  O      4.737060    0.854110   -1.122830
  O      5.928150    2.168110   -2.491360
  H      4.486100    1.372100   -4.309530
  H      3.118850    1.199030   -3.235400
  H      4.168860   -0.164040   -3.539660

 Total Charge           Charge          ....   -1
 Multiplicity           Mult            ....    1
 Number of Electrons    NEL             ....   32
 Basis Dimension        Dim             ....  110

ORBITAL ENERGIES
----------------

  NO   OCC          E(Eh)            E(eV)
   0   2.0000     -18.534620      -504.3526
   1   2.0000     -18.525561      -504.1061
   2   2.0000      -9.802613      -266.7427
   3   2.0000      -9.732824      -264.8436
   4   2.0000      -0.720637       -19.6095
   5   2.0000      -0.629730       -17.1358
   6   2.0000      -0.457845       -12.4586
   7   2.0000      -0.237957        -6.4751
   8   2.0000      -0.206464        -5.6182
   9   2.0000      -0.189980        -5.1696
  10   2.0000      -0.167871        -4.5680
  11   2.0000      -0.133765        -3.6399
  12   2.0000      -0.120985        -3.2922
  13   2.0000      -0.009359        -0.2547
  14   2.0000       0.005081         0.1382
  15   2.0000       0.021630         0.5886
  16   0.0000       0.156037         4.2460
  17   0.0000       0.199871         5.4388
  18   0.0000       0.201181         5.4744
  19   0.0000       0.224500         6.1090
  20   0.0000       0.243461         6.6249

MULLIKEN ATOMIC CHARGES
-----------------------
   0 C :    0.839679
   1 C :   -0.161464
   2 O :   -0.497274
   3 O :   -0.588699
   4 H :   -0.217938
   5 H :   -0.188000
   6 H :   -0.186302
Sum of atomic charges:   -1.0000000

LOEWDIN ATOMIC CHARGES
----------------------
   0 C :    0.158033
   1 C :   -0.359989
   2 O :   -0.297236
   3 O :   -0.338733
   4 H :   -0.057961
   5 H :   -0.050881
   6 H :   -0.053232

  Mayer bond orders larger than 0.100000
B(  0-C ,  1-C ) :   1.2132 B(  0-C ,  4-H ) :   0.8102 B(  0-C ,  5-H ) :   0.7633
B(  0-C ,  6-H ) :   0.7542 B(  1-C ,  2-O ) :   1.6432 B(  1-C ,  3-O ) :   1.5049
B(  1-C ,  4-H ) :   0.3012 B(  1-C ,  5-H ) :   0.2049 B(  1-C ,  6-H ) :   0.2127

Dispersion correction           -0.007713484
FINAL SINGLE POINT ENERGY      -228.324820531260

DIPOLE MOMENT
-------------
                                X             Y             Z
Electronic contribution:      2.08563       0.97030       2.95371
Nuclear contribution   :     -2.87913      -1.42371      -3.86600
                        -----------------------------------------
Total Dipole Moment    :     -0.79350      -0.45342      -0.91229
                        -----------------------------------------
Magnitude (a.u.)       :      1.29132
Magnitude (Debye)      :      3.28227

Rotational constants in cm-1:     0.390018     0.334370     0.186171
Rotational constants in MHz : 11692.450907 10024.149143  5581.251544

                             ****ORCA TERMINATED NORMALLY****
TOTAL RUN TIME: 0 days 0 hours 0 minutes 3 seconds 575 msec
