                         Program Version 5.0.0 -  RELEASE  -
|  1> !BLYP D3BJ RIJCOSX def2-SVPD def2/J TightSCF
|  2> *xyz 1 1
|  3> C          3.34350        3.35457       -3.59200
|  4> C          4.25587        3.70385       -4.72605
|  5> N          3.73403        4.29378       -5.80077
|  6> N          5.51504        3.40725       -4.63718
|  7> H          6.14919        3.60120       -5.39905
|  8> H          5.81358        2.89950       -3.80879
|  9> H          2.74138        4.51311       -5.82470
| 10> H          4.28755        4.52126       -6.61434
| 11> H          2.34726        3.66659       -3.82664
| 12> H          3.67283        3.85124       -2.70331
| 13> H          3.35820        2.29620       -3.43538
| 14> *
| 15> %MaxCore 64000
| 16>
| 17> %pal nprocs 4
| 18> end
| 19>
| 20> %scf
| 21>   MaxIter 150
| 22> end
| 23>
| 24>
| 25>                          ****END OF INPUT****

CARTESIAN COORDINATES (ANGSTROEM)
---------------------------------
  C      3.343500    3.354570   -3.592000
  C      4.255870    3.703850   -4.726050
  N      3.734030    4.293780   -5.800770
  N      5.515040    3.407250   -4.637180
  H      6.149190    3.601200   -5.399050
  H      5.813580    2.899500   -3.808790
  H      2.741380    4.513110   -5.824700
  H      4.287550    4.521260   -6.614340
  H      2.347260    3.666590   -3.826640
  H      3.672830    3.851240   -2.703310
  H      3.358200    2.296200   -3.435380

 Total Charge           Charge          ....    1
 Multiplicity           Mult            ....    1
 Number of Electrons    NEL             ....   32
 Basis Dimension        Dim             ....  136

ORBITAL ENERGIES
----------------

  NO   OCC          E(Eh)            E(eV)
   0   2.0000     -14.278336      -388.5333
   1   2.0000     -14.275139      -388.4463
   2   2.0000     -10.246690      -278.8266
   3   2.0000     -10.122165      -275.4381
   4   2.0000      -1.113209       -30.2920
   5   2.0000      -1.025370       -27.9017
   6   2.0000      -0.875231       -23.8163
   7   2.0000      -0.778885       -21.1945
   8   2.0000      -0.728931       -19.8352
   9   2.0000      -0.713912       -19.4265
  10   2.0000      -0.658480       -17.9182
  11   2.0000      -0.610194       -16.6042
  12   2.0000      -0.570946       -15.5362
  13   2.0000      -0.554185       -15.0801
  14   2.0000      -0.531257       -14.4563
  15   2.0000      -0.459346       -12.4994
  16   0.0000      -0.247077        -6.7233
  17   0.0000      -0.189894        -5.1673
  18   0.0000      -0.144361        -3.9283
  19   0.0000      -0.143050        -3.8926
  20   0.0000      -0.119204        -3.2437

MULLIKEN ATOMIC CHARGES
-----------------------
   0 C :    0.996886
   1 C :    0.164373
   2 N :    0.225225
   3 N :    0.455543
   4 H :   -0.243163
   5 H :   -0.010939
   6 H :   -0.011763
   7 H :   -0.214836
   8 H :   -0.130325
   9 H :   -0.111211
  10 H :   -0.119791
Sum of atomic charges:    1.0000000

LOEWDIN ATOMIC CHARGES
----------------------
   0 C :    0.246545
   1 C :   -0.084799
   2 N :    0.301536
   3 N :    0.299945
   4 H :    0.049266
   5 H :    0.060638
   6 H :    0.047609
   7 H :    0.040626
   8 H :    0.001214
   9 H :    0.018720
  10 H :    0.018700

  Mayer bond orders larger than 0.100000
B(  0-C ,  1-C ) :   1.2699 B(  0-C ,  8-H ) :   0.6895 B(  0-C ,  9-H ) :   0.6578
B(  0-C , 10-H ) :   0.6858 B(  1-C ,  2-N ) :   1.0747 B(  1-C ,  3-N ) :   1.3344
B(  1-C ,  4-H ) :  -0.1577 B(  1-C ,  7-H ) :  -0.2707 B(  1-C ,  8-H ) :   0.3386
B(  1-C ,  9-H ) :   0.2277 B(  1-C , 10-H ) :   0.2002 B(  2-N ,  3-N ) :   0.1717
B(  2-N ,  6-H ) :   1.0850 B(  2-N ,  7-H ) :   1.3612 B(  3-N ,  4-H ) :   1.2350
B(  3-N ,  5-H ) :   1.0862 B(  4-H ,  5-H ) :  -0.1600 B(  6-H ,  7-H ) :  -0.1956
B(  9-H , 10-H ) :   0.1161

Dispersion correction           -0.014131820
FINAL SINGLE POINT ENERGY      -189.521039820462

DIPOLE MOMENT
-------------
                                X             Y             Z
Electronic contribution:      1.42500       0.51063      -1.61584
Nuclear contribution   :     -1.09951      -0.46604       1.22975
                        -----------------------------------------
Total Dipole Moment    :      0.32550       0.04459      -0.38609
                        -----------------------------------------
Magnitude (a.u.)       :      0.50695
Magnitude (Debye)      :      1.28857

Rotational constants in cm-1:     0.329035     0.303839     0.162676
Rotational constants in MHz :  9864.215808  9108.853745  4876.907929

                             ****ORCA TERMINATED NORMALLY****
TOTAL RUN TIME: 0 days 0 hours 0 minutes 4 seconds 600 msec
