                         Program Version 5.0.0 -  RELEASE  -
|  1> !BLYP D3BJ RIJCOSX def2-SVPD def2/J TightSCF
|  2> *xyz 0 1
|  3> C          4.12921        0.89839       -3.41895
|  4> C          5.01734        1.31521       -2.22130
|  5> F          4.73706        0.85411       -1.12283
|  6> O          5.92815        2.16811       -2.49136
|  7> H          4.48610        1.37210       -4.30953
|  8> H          3.11885        1.19903       -3.23540
|  9> H          4.16886       -0.16404       -3.53966
| 10> *
| 11> %MaxCore 64000
| 12>
| 13> %pal nprocs 4
| 14> end
| 15>
| 16> %scf
| 17>   MaxIter 150
| 18> end
| 19>
| 20>
| 21>                          ****END OF INPUT****

CARTESIAN COORDINATES (ANGSTROEM)
---------------------------------
  C      4.129210    0.898390   -3.418950
  C      5.017340    1.315210   -2.221300
  F      4.737060    0.854110   -1.122830
  O      5.928150    2.168110   -2.491360
  H      4.486100    1.372100   -4.309530
  H      3.118850    1.199030   -3.235400
  H      4.168860   -0.164040   -3.539660

 Total Charge           Charge          ....    0
 Multiplicity           Mult            ....    1
 Number of Electrons    NEL             ....   32
 Basis Dimension        Dim             ....  110

ORBITAL ENERGIES
----------------

  NO   OCC          E(Eh)            E(eV)
   0   2.0000     -24.391143      -663.7167
   1   2.0000     -18.797930      -511.5177
   2   2.0000     -10.105147      -274.9750
   3   2.0000      -9.949185      -270.7311
   4   2.0000      -1.225086       -33.3363
   5   2.0000      -0.922129       -25.0924
   6   2.0000      -0.687353       -18.7038
   7   2.0000      -0.604062       -16.4374
   8   2.0000      -0.504491       -13.7279
   9   2.0000      -0.493373       -13.4254
  10   2.0000      -0.441207       -12.0058
  11   2.0000      -0.395201       -10.7540
  12   2.0000      -0.383230       -10.4282
  13   2.0000      -0.346544        -9.4299
  14   2.0000      -0.309545        -8.4232
  15   2.0000      -0.239270        -6.5109
  16   0.0000      -0.068683        -1.8690
  17   0.0000      -0.007355        -0.2001
  18   0.0000       0.039963         1.0874
  19   0.0000       0.063612         1.7310
  20   0.0000       0.073071         1.9884

MULLIKEN ATOMIC CHARGES
-----------------------
   0 C :    0.812095
   1 C :    0.270348
   2 F :   -0.262543
   3 O :   -0.386285
   4 H :   -0.199213
   5 H :   -0.115386
   6 H :   -0.119017
Sum of atomic charges:    0.0000000

LOEWDIN ATOMIC CHARGES
----------------------
   0 C :    0.229587
   1 C :   -0.069010
   2 F :    0.007919
   3 O :   -0.132550
   4 H :   -0.010461
   5 H :   -0.011452
   6 H :   -0.014033

  Mayer bond orders larger than 0.100000
B(  0-C ,  1-C ) :   1.2077 B(  0-C ,  4-H ) :   0.8158 B(  0-C ,  5-H ) :   0.7542
B(  0-C ,  6-H ) :   0.7474 B(  1-C ,  2-F ) :   0.8929 B(  1-C ,  3-O ) :   1.8715
B(  1-C ,  4-H ) :   0.2659 B(  1-C ,  5-H ) :   0.1583 B(  1-C ,  6-H ) :   0.1642
B(  2-F ,  3-O ) :   0.1210

Dispersion correction           -0.007099752
FINAL SINGLE POINT ENERGY      -252.851940299313

DIPOLE MOMENT
-------------
                                X             Y             Z
Electronic contribution:      1.74461       0.23936       4.86406
Nuclear contribution   :     -2.65749      -0.95231      -5.09883
                        -----------------------------------------
Total Dipole Moment    :     -0.91287      -0.71296      -0.23477
                        -----------------------------------------
Magnitude (a.u.)       :      1.18185
Magnitude (Debye)      :      3.00402

Rotational constants in cm-1:     0.365278     0.322469     0.176821
Rotational constants in MHz : 10950.755781  9667.377070  5300.957073

                             ****ORCA TERMINATED NORMALLY****
TOTAL RUN TIME: 0 days 0 hours 0 minutes 3 seconds 436 msec
