                         Program Version 5.0.0 -  RELEASE  -
|  1> !BLYP D3BJ RIJCOSX def2-SVPD def2/J TightSCF
|  2> *xyz 0 1
|  3> C          3.34350        3.35457       -3.59200
|  4> C          4.25587        3.70385       -4.72605
|  5> C          3.73403        4.29378       -5.80077
|  6> N          5.51504        3.40725       -4.63718
|  7> H          6.14919        3.60120       -5.39905
|  8> H          5.81358        2.89950       -3.80879
|  9> H          2.74138        4.51311       -5.82470
| 10> H          4.28755        4.52126       -6.61434
| 11> H          2.34726        3.66659       -3.82664
| 12> H          3.67283        3.85124       -2.70331
| 13> H          3.35820        2.29620       -3.43538
| 14> *
| 15> %MaxCore 64000
| 16>
| 17> %pal nprocs 4
| 18> end
| 19>
| 20> %scf
| 21>   MaxIter 150
| 22> end
| 23>
| 24>
| 25>                          ****END OF INPUT****

CARTESIAN COORDINATES (ANGSTROEM)
---------------------------------
  C      3.343500    3.354570   -3.592000
  C      4.255870    3.703850   -4.726050
  C      3.734030    4.293780   -5.800770
  N      5.515040    3.407250   -4.637180
  H      6.149190    3.601200   -5.399050
  H      5.813580    2.899500   -3.808790
  H      2.741380    4.513110   -5.824700
  H      4.287550    4.521260   -6.614340
  H      2.347260    3.666590   -3.826640
  H      3.672830    3.851240   -2.703310
  H      3.358200    2.296200   -3.435380

 Total Charge           Charge          ....    0
 Multiplicity           Mult            ....    1
 Number of Electrons    NEL             ....   32
 Basis Dimension        Dim             ....  136

ORBITAL ENERGIES
----------------

  NO   OCC          E(Eh)            E(eV)
   0   2.0000     -14.029527      -381.7628
   1   2.0000      -9.939730      -270.4738
   2   2.0000      -9.912727      -269.7390
   3   2.0000      -9.855388      -268.1787
   4   2.0000      -0.842178       -22.9168
   5   2.0000      -0.672188       -18.2912
   6   2.0000      -0.607753       -16.5378
   7   2.0000      -0.513656       -13.9773
   8   2.0000      -0.477242       -12.9864
   9   2.0000      -0.417675       -11.3655
  10   2.0000      -0.381923       -10.3926
  11   2.0000      -0.348683        -9.4881
  12   2.0000      -0.342124        -9.3097
  13   2.0000      -0.305036        -8.3005
  14   2.0000      -0.291471        -7.9313
  15   2.0000      -0.153684        -4.1820
  16   0.0000      -0.003064        -0.0834
  17   0.0000       0.021948         0.5972
  18   0.0000       0.034450         0.9374
  19   0.0000       0.044005         1.1974
  20   0.0000       0.067359         1.8329

MULLIKEN ATOMIC CHARGES
-----------------------
   0 C :    1.278993
   1 C :   -0.641069
   2 C :    0.679218
   3 N :    0.616868
   4 H :   -0.287478
   5 H :   -0.221203
   6 H :   -0.260433
   7 H :   -0.670305
   8 H :   -0.120504
   9 H :   -0.186406
  10 H :   -0.187682
Sum of atomic charges:    0.0000000

LOEWDIN ATOMIC CHARGES
----------------------
   0 C :    0.175629
   1 C :   -0.304741
   2 C :    0.185465
   3 N :    0.185679
   4 H :    0.006651
   5 H :    0.001956
   6 H :   -0.093639
   7 H :   -0.099331
   8 H :   -0.020339
   9 H :   -0.018926
  10 H :   -0.018404

  Mayer bond orders larger than 0.100000
B(  0-C ,  1-C ) :   1.2183 B(  0-C ,  2-C ) :   0.1274 B(  0-C ,  3-N ) :   0.1067
B(  0-C ,  8-H ) :   0.7108 B(  0-C ,  9-H ) :   0.5123 B(  0-C , 10-H ) :   0.5356
B(  1-C ,  2-C ) :   1.4953 B(  1-C ,  3-N ) :   1.3586 B(  1-C ,  7-H ) :   0.1535
B(  1-C ,  8-H ) :   0.3136 B(  1-C ,  9-H ) :   0.3661 B(  1-C , 10-H ) :   0.3466
B(  2-C ,  3-N ) :   0.3003 B(  2-C ,  4-H ) :  -0.1086 B(  2-C ,  6-H ) :   0.8922
B(  2-C ,  7-H ) :   0.6120 B(  3-N ,  4-H ) :   1.1733 B(  3-N ,  5-H ) :   1.0818
B(  4-H ,  5-H ) :  -0.1213

Dispersion correction           -0.014909857
FINAL SINGLE POINT ENERGY      -173.056000290855

DIPOLE MOMENT
-------------
                                X             Y             Z
Electronic contribution:      1.78596      -0.03753      -0.57227
Nuclear contribution   :     -1.20871      -0.33119       0.98382
                        -----------------------------------------
Total Dipole Moment    :      0.57725      -0.36873       0.41154
                        -----------------------------------------
Magnitude (a.u.)       :      0.79909
Magnitude (Debye)      :      2.03114

Rotational constants in cm-1:     0.348453     0.308655     0.168735
Rotational constants in MHz : 10446.369928  9253.232733  5058.539653

                             ****ORCA TERMINATED NORMALLY****
TOTAL RUN TIME: 0 days 0 hours 0 minutes 4 seconds 883 msec
