                         Program Version 5.0.0 -  RELEASE  -
|  1> !BLYP D3BJ RIJCOSX def2-SVPD def2/J TightSCF
|  2> *xyz 0 1
|  3> C          3.34350        3.35457       -3.59200
|  4> C          4.25587        3.70385       -4.72605
|  5> N          3.73403        4.29378       -5.80077
|  6> C          5.51504        3.40725       -4.63718
|  7> H          6.14919        3.60120       -5.39905
|  8> H          5.81358        2.89950       -3.80879
|  9> H          2.74138        4.51311       -5.82470
| 10> H          4.28755        4.52126       -6.61434
| 11> H          2.34726        3.66659       -3.82664
| 12> H          3.67283        3.85124       -2.70331
| 13> H          3.35820        2.29620       -3.43538
| 14> *
| 15> %MaxCore 64000
| 16>
| 17> %pal nprocs 4
| 18> end
| 19>
| 20> %scf
| 21>   MaxIter 150
| 22> end
| 23>
| 24>
| 25>                          ****END OF INPUT****

CARTESIAN COORDINATES (ANGSTROEM)
---------------------------------
  C      3.343500    3.354570   -3.592000
  C      4.255870    3.703850   -4.726050
  N      3.734030    4.293780   -5.800770
  C      5.515040    3.407250   -4.637180
  H      6.149190    3.601200   -5.399050
  H      5.813580    2.899500   -3.808790
  H      2.741380    4.513110   -5.824700
  H      4.287550    4.521260   -6.614340
  H      2.347260    3.666590   -3.826640
  H      3.672830    3.851240   -2.703310
  H      3.358200    2.296200   -3.435380

 Total Charge           Charge          ....    0
 Multiplicity           Mult            ....    1
 Number of Electrons    NEL             ....   32
 Basis Dimension        Dim             ....  136

ORBITAL ENERGIES
----------------

  NO   OCC          E(Eh)            E(eV)
   0   2.0000     -14.026334      -381.6759
   1   2.0000      -9.937108      -270.4025
   2   2.0000      -9.912862      -269.7427
   3   2.0000      -9.852054      -268.0880
   4   2.0000      -0.828602       -22.5474
   5   2.0000      -0.676649       -18.4126
   6   2.0000      -0.610943       -16.6246
   7   2.0000      -0.508799       -13.8451
   8   2.0000      -0.467664       -12.7258
   9   2.0000      -0.418969       -11.4007
  10   2.0000      -0.378998       -10.3131
  11   2.0000      -0.348834        -9.4923
  12   2.0000      -0.343645        -9.3511
  13   2.0000      -0.308718        -8.4006
  14   2.0000      -0.286366        -7.7924
  15   2.0000      -0.155577        -4.2335
  16   0.0000      -0.002008        -0.0546
  17   0.0000       0.020689         0.5630
  18   0.0000       0.034922         0.9503
  19   0.0000       0.043453         1.1824
  20   0.0000       0.067428         1.8348

MULLIKEN ATOMIC CHARGES
-----------------------
   0 C :    1.215314
   1 C :   -0.365377
   2 N :    0.381232
   3 C :    0.601404
   4 H :   -0.568392
   5 H :   -0.280786
   6 H :   -0.180078
   7 H :   -0.269074
   8 H :   -0.300097
   9 H :   -0.113488
  10 H :   -0.120658
Sum of atomic charges:   -0.0000000

LOEWDIN ATOMIC CHARGES
----------------------
   0 C :    0.177479
   1 C :   -0.292526
   2 N :    0.188897
   3 C :    0.167660
   4 H :   -0.089846
   5 H :   -0.077548
   6 H :   -0.012605
   7 H :   -0.003590
   8 H :   -0.034948
   9 H :   -0.011448
  10 H :   -0.011525

  Mayer bond orders larger than 0.100000
B(  0-C ,  1-C ) :   1.0470 B(  0-C ,  2-N ) :   0.1433 B(  0-C ,  3-C ) :   0.1484
B(  0-C ,  8-H ) :   0.5704 B(  0-C ,  9-H ) :   0.6303 B(  0-C , 10-H ) :   0.6453
B(  1-C ,  2-N ) :   1.1219 B(  1-C ,  3-C ) :   1.6809 B(  1-C ,  4-H ) :   0.2889
B(  1-C ,  5-H ) :   0.1658 B(  1-C ,  7-H ) :  -0.1647 B(  1-C ,  8-H ) :   0.3609
B(  1-C ,  9-H ) :   0.2423 B(  1-C , 10-H ) :   0.2230 B(  2-N ,  3-C ) :   0.2884
B(  2-N ,  6-H ) :   1.1006 B(  2-N ,  7-H ) :   1.3064 B(  3-C ,  4-H ) :   0.5832
B(  3-C ,  5-H ) :   0.6754 B(  6-H ,  7-H ) :  -0.1747

Dispersion correction           -0.014909667
FINAL SINGLE POINT ENERGY      -173.054694202600

DIPOLE MOMENT
-------------
                                X             Y             Z
Electronic contribution:      0.19670       0.75244      -1.57236
Nuclear contribution   :     -0.80929      -0.53001       1.24477
                        -----------------------------------------
Total Dipole Moment    :     -0.61258       0.22242      -0.32759
                        -----------------------------------------
Magnitude (a.u.)       :      0.72941
Magnitude (Debye)      :      1.85402

Rotational constants in cm-1:     0.352070     0.305406     0.168593
Rotational constants in MHz : 10554.792117  9155.853997  5054.288053

                             ****ORCA TERMINATED NORMALLY****
TOTAL RUN TIME: 0 days 0 hours 0 minutes 6 seconds 923 msec
