                         Program Version 5.0.0 -  RELEASE  -
|  1> !wB97X-D3 RIJCOSX def2-TZVPD def2/J TightSCF
|  2> *xyz -1 1
|  3> C         -1.10433        0.25137       -2.86006
|  4> C         -0.71189        0.84252       -4.21834
|  5> H          0.15463        1.49980       -4.13091
|  6> H         -1.53813        1.45922       -4.58267
|  7> C         -0.39762       -0.20587       -5.28802
|  8> O          0.61717       -0.00535       -5.99827
|  9> O         -1.13317       -1.22138       -5.34147
| 10> C         -0.19626       -0.86337       -2.32576
| 11> H         -1.14384        1.06671       -2.12968
| 12> H         -2.11440       -0.15683       -2.93032
| 13> H         -0.15538       -1.66172       -3.03700
| 14> H         -0.58845       -1.22999       -1.40020
| 15> H          0.78852       -0.47602       -2.16737
| 16> *
| 17>
| 18> %MaxCore 64000
| 19>
| 20> %pal nprocs 18
| 21> end
| 22>
| 23> %scf
| 24>   MaxIter 150
| 25> end
| 26>
| 27>
| 28>                          ****END OF INPUT****

CARTESIAN COORDINATES (ANGSTROEM)
---------------------------------
  C     -1.104330    0.251370   -2.860060
  C     -0.711890    0.842520   -4.218340
  H      0.154630    1.499800   -4.130910
  H     -1.538130    1.459220   -4.582670
  C     -0.397620   -0.205870   -5.288020
  O      0.617170   -0.005350   -5.998270
  O     -1.133170   -1.221380   -5.341470
  C     -0.196260   -0.863370   -2.325760
  H     -1.143840    1.066710   -2.129680
  H     -2.114400   -0.156830   -2.930320
  H     -0.155380   -1.661720   -3.037000
  H     -0.588450   -1.229990   -1.400200
  H      0.788520   -0.476020   -2.167370

 Total Charge           Charge          ....   -1
 Multiplicity           Mult            ....    1
 Number of Electrons    NEL             ....   48
 Basis Dimension        Dim             ....  291

ORBITAL ENERGIES
----------------

  NO   OCC          E(Eh)            E(eV)
   0   2.0000     -18.966678      -516.1095
   1   2.0000     -18.965905      -516.0885
   2   2.0000     -10.160530      -276.4821
   3   2.0000     -10.125523      -275.5295
   4   2.0000     -10.113991      -275.2157
   5   2.0000     -10.101818      -274.8845
   6   2.0000      -0.939324       -25.5603
   7   2.0000      -0.844242       -22.9730
   8   2.0000      -0.751429       -20.4474
   9   2.0000      -0.656431       -17.8624
  10   2.0000      -0.555228       -15.1085
  11   2.0000      -0.428403       -11.6574
  12   2.0000      -0.404926       -11.0186
  13   2.0000      -0.393194       -10.6993
  14   2.0000      -0.355471        -9.6729
  15   2.0000      -0.333674        -9.0797
  16   2.0000      -0.311346        -8.4721
  17   2.0000      -0.301401        -8.2015
  18   2.0000      -0.289874        -7.8879
  19   2.0000      -0.269174        -7.3246
  20   2.0000      -0.257536        -7.0079
  21   2.0000      -0.143644        -3.9087
  22   2.0000      -0.137192        -3.7332
  23   2.0000      -0.125956        -3.4274
  24   0.0000       0.186466         5.0740
  25   0.0000       0.202969         5.5231
  26   0.0000       0.210705         5.7336
  27   0.0000       0.218904         5.9567
  28   0.0000       0.239922         6.5286

MULLIKEN ATOMIC CHARGES
-----------------------
   0 C :   -0.162710
   1 C :   -0.308927
   2 H :    0.235592
   3 H :    0.208262
   4 C :    0.379635
   5 O :   -0.774207
   6 O :   -0.761543
   7 C :   -1.288121
   8 H :    0.240801
   9 H :    0.242122
  10 H :    0.358258
  11 H :    0.314007
  12 H :    0.316832
Sum of atomic charges:   -1.0000000

LOEWDIN ATOMIC CHARGES
----------------------
   0 C :   -0.277410
   1 C :   -0.168601
   2 H :    0.093911
   3 H :    0.099207
   4 C :   -0.767570
   5 O :   -0.108389
   6 O :   -0.101093
   7 C :   -0.119861
   8 H :    0.086446
   9 H :    0.094483
  10 H :    0.059365
  11 H :    0.049121
  12 H :    0.060392

  Mayer bond orders larger than 0.100000
B(  0-C ,  1-C ) :   0.7922 B(  0-C ,  7-C ) :   0.6329 B(  0-C ,  8-H ) :   0.9701
B(  0-C ,  9-H ) :   0.9271 B(  1-C ,  2-H ) :   0.9829 B(  1-C ,  3-H ) :   0.9306
B(  1-C ,  4-C ) :   0.9742 B(  1-C ,  7-C ) :   0.1424 B(  4-C ,  5-O ) :   1.4413
B(  4-C ,  6-O ) :   1.4644 B(  7-C , 10-H ) :   0.9540 B(  7-C , 11-H ) :   0.9275
B(  7-C , 12-H ) :   0.9502

Dispersion correction           -0.003359286
FINAL SINGLE POINT ENERGY      -307.189655163585

DIPOLE MOMENT
-------------
                                X             Y             Z
Electronic contribution:      0.66119      -1.02453      -7.12215
Nuclear contribution   :     -1.15173       1.87787       9.37659
                        -----------------------------------------
Total Dipole Moment    :     -0.49054       0.85334       2.25444
                        -----------------------------------------
Magnitude (a.u.)       :      2.45994
Magnitude (Debye)      :      6.25267

Rotational constants in cm-1:     0.203160     0.081703     0.075834
Rotational constants in MHz :  6090.598467  2449.397428  2273.436534

                             ****ORCA TERMINATED NORMALLY****
TOTAL RUN TIME: 0 days 0 hours 0 minutes 19 seconds 922 msec
