                         Program Version 5.0.0 -  RELEASE  -
|  1> !wB97X-D3 RIJCOSX def2-TZVPD def2/J TightSCF
|  2> *xyz 1 1
|  3> C          2.23447       -2.98975       -2.39762
|  4> N          2.75680       -2.94555       -3.76503
|  5> C          1.98721       -2.59045       -4.81898
|  6> N          0.74322       -3.01749       -4.91352
|  7> N          2.49964       -1.84860       -5.80324
|  8> H          3.30978       -1.29282       -5.55895
|  9> H          1.80103       -1.30430       -6.28913
| 10> H          3.71612       -2.62880       -3.82953
| 11> H          0.39583       -3.62775       -4.18502
| 12> H          0.03920       -2.45438       -5.37137
| 13> C          2.19120       -1.61950       -1.71549
| 14> H          2.87278       -3.66637       -1.82801
| 15> H          1.24619       -3.44744       -2.40784
| 16> C          1.29873       -0.55431       -2.35977
| 17> H          1.87292       -1.78796       -0.68131
| 18> H          3.21681       -1.23843       -1.65443
| 19> H          1.61097       -0.39090       -3.37007
| 20> H          1.37981        0.35955       -1.80916
| 21> H          0.28197       -0.88750       -2.35015
| 22> *
| 23>
| 24> %MaxCore 64000
| 25>
| 26> %pal nprocs 18
| 27> end
| 28>
| 29> %scf
| 30>   MaxIter 150
| 31> end
| 32>
| 33>
| 34>                          ****END OF INPUT****

CARTESIAN COORDINATES (ANGSTROEM)
---------------------------------
  C      2.234470   -2.989750   -2.397620
  N      2.756800   -2.945550   -3.765030
  C      1.987210   -2.590450   -4.818980
  N      0.743220   -3.017490   -4.913520
  N      2.499640   -1.848600   -5.803240
  H      3.309780   -1.292820   -5.558950
  H      1.801030   -1.304300   -6.289130
  H      3.716120   -2.628800   -3.829530
  H      0.395830   -3.627750   -4.185020
  H      0.039200   -2.454380   -5.371370
  C      2.191200   -1.619500   -1.715490
  H      2.872780   -3.666370   -1.828010
  H      1.246190   -3.447440   -2.407840
  C      1.298730   -0.554310   -2.359770
  H      1.872920   -1.787960   -0.681310
  H      3.216810   -1.238430   -1.654430
  H      1.610970   -0.390900   -3.370070
  H      1.379810    0.359550   -1.809160
  H      0.281970   -0.887500   -2.350150

 Total Charge           Charge          ....    1
 Multiplicity           Mult            ....    1
 Number of Electrons    NEL             ....   56
 Basis Dimension        Dim             ....  367

ORBITAL ENERGIES
----------------

  NO   OCC          E(Eh)            E(eV)
   0   2.0000     -14.648380      -398.6027
   1   2.0000     -14.645174      -398.5155
   2   2.0000     -14.643067      -398.4581
   3   2.0000     -10.616202      -288.8815
   4   2.0000     -10.480921      -285.2004
   5   2.0000     -10.423387      -283.6348
   6   2.0000     -10.402218      -283.0587
   7   2.0000      -1.337414       -36.3929
   8   2.0000      -1.220865       -33.2214
   9   2.0000      -1.216201       -33.0945
  10   2.0000      -1.056927       -28.7604
  11   2.0000      -0.982284       -26.7293
  12   2.0000      -0.934776       -25.4366
  13   2.0000      -0.888000       -24.1637
  14   2.0000      -0.874763       -23.8035
  15   2.0000      -0.835778       -22.7427
  16   2.0000      -0.798813       -21.7368
  17   2.0000      -0.781714       -21.2715
  18   2.0000      -0.750251       -20.4154
  19   2.0000      -0.724688       -19.7198
  20   2.0000      -0.697730       -18.9862
  21   2.0000      -0.685574       -18.6554
  22   2.0000      -0.656252       -17.8575
  23   2.0000      -0.617425       -16.8010
  24   2.0000      -0.590571       -16.0703
  25   2.0000      -0.587157       -15.9774
  26   2.0000      -0.576409       -15.6849
  27   2.0000      -0.537496       -14.6260
  28   0.0000      -0.113505        -3.0886
  29   0.0000      -0.084943        -2.3114
  30   0.0000      -0.060377        -1.6429
  31   0.0000      -0.049584        -1.3493
  32   0.0000      -0.028818        -0.7842

MULLIKEN ATOMIC CHARGES
-----------------------
   0 C :   -0.681121
   1 N :   -0.110486
   2 C :    0.567089
   3 N :   -0.372562
   4 N :   -0.470280
   5 H :    0.267034
   6 H :    0.281120
   7 H :    0.278209
   8 H :    0.266897
   9 H :    0.253545
  10 C :   -0.240500
  11 H :    0.255625
  12 H :    0.301025
  13 C :   -1.143296
  14 H :    0.300204
  15 H :    0.311064
  16 H :    0.278261
  17 H :    0.344114
  18 H :    0.314058
Sum of atomic charges:    1.0000000

LOEWDIN ATOMIC CHARGES
----------------------
   0 C :   -0.170339
   1 N :    0.090613
   2 C :   -0.447245
   3 N :    0.224225
   4 N :    0.203394
   5 H :    0.138023
   6 H :    0.137648
   7 H :    0.161238
   8 H :    0.133449
   9 H :    0.148939
  10 C :   -0.220202
  11 H :    0.132009
  12 H :    0.113928
  13 C :   -0.087215
  14 H :    0.122209
  15 H :    0.115351
  16 H :    0.049916
  17 H :    0.079977
  18 H :    0.074083

  Mayer bond orders larger than 0.100000
B(  0-C ,  1-N ) :   0.8654 B(  0-C , 10-C ) :   0.8426 B(  0-C , 11-H ) :   1.0194
B(  0-C , 12-H ) :   0.9086 B(  1-N ,  2-C ) :   1.2609 B(  1-N ,  7-H ) :   0.8666
B(  2-C ,  3-N ) :   1.1476 B(  2-C ,  4-N ) :   1.1090 B(  2-C , 13-C ) :   0.1094
B(  3-N ,  8-H ) :   0.8800 B(  3-N ,  9-H ) :   0.9420 B(  4-N ,  5-H ) :   0.9215
B(  4-N ,  6-H ) :   0.8710 B( 10-C , 13-C ) :   0.7407 B( 10-C , 14-H ) :   0.9751
B( 10-C , 15-H ) :   0.9361 B( 13-C , 16-H ) :   0.9740 B( 13-C , 17-H ) :   0.9257
B( 13-C , 18-H ) :   0.9760

Dispersion correction           -0.006059597
FINAL SINGLE POINT ENERGY      -323.739200070834

DIPOLE MOMENT
-------------
                                X             Y             Z
Electronic contribution:      1.23006      -3.56267      -5.58620
Nuclear contribution   :     -1.48325       3.81474       4.74728
                        -----------------------------------------
Total Dipole Moment    :     -0.25318       0.25207      -0.83892
                        -----------------------------------------
Magnitude (a.u.)       :      0.91183
Magnitude (Debye)      :      2.31769

Rotational constants in cm-1:     0.127669     0.058023     0.053953
Rotational constants in MHz :  3827.411023  1739.493733  1617.466565

                             ****ORCA TERMINATED NORMALLY****
TOTAL RUN TIME: 0 days 0 hours 0 minutes 40 seconds 238 msec
