                         Program Version 5.0.0 -  RELEASE  -
|  1> !wB97X-D3 RIJCOSX def2-TZVPD def2/J TightSCF
|  2> *xyz 0 1
|  3> C         -1.10433        0.25137       -2.86006
|  4> C         -0.71189        0.84252       -4.21834
|  5> H          0.15463        1.49980       -4.13091
|  6> H         -1.53813        1.45922       -4.58267
|  7> C         -0.39762       -0.20587       -5.28802
|  8> F          0.61717       -0.00535       -5.99827
|  9> O         -1.13317       -1.22138       -5.34147
| 10> C         -0.19626       -0.86337       -2.32576
| 11> H         -1.14384        1.06671       -2.12968
| 12> H         -2.11440       -0.15683       -2.93032
| 13> H         -0.15538       -1.66172       -3.03700
| 14> H         -0.58845       -1.22999       -1.40020
| 15> H          0.78852       -0.47602       -2.16737
| 16> *
| 17>
| 18> %MaxCore 64000
| 19>
| 20> %pal nprocs 18
| 21> end
| 22>
| 23> %scf
| 24>   MaxIter 150
| 25> end
| 26>
| 27>
| 28>                          ****END OF INPUT****

CARTESIAN COORDINATES (ANGSTROEM)
---------------------------------
  C     -1.104330    0.251370   -2.860060
  C     -0.711890    0.842520   -4.218340
  H      0.154630    1.499800   -4.130910
  H     -1.538130    1.459220   -4.582670
  C     -0.397620   -0.205870   -5.288020
  F      0.617170   -0.005350   -5.998270
  O     -1.133170   -1.221380   -5.341470
  C     -0.196260   -0.863370   -2.325760
  H     -1.143840    1.066710   -2.129680
  H     -2.114400   -0.156830   -2.930320
  H     -0.155380   -1.661720   -3.037000
  H     -0.588450   -1.229990   -1.400200
  H      0.788520   -0.476020   -2.167370

 Total Charge           Charge          ....    0
 Multiplicity           Mult            ....    1
 Number of Electrons    NEL             ....   48
 Basis Dimension        Dim             ....  291

ORBITAL ENERGIES
----------------

  NO   OCC          E(Eh)            E(eV)
   0   2.0000     -24.856082      -676.3684
   1   2.0000     -19.236492      -523.4515
   2   2.0000     -10.456089      -284.5246
   3   2.0000     -10.306369      -280.4506
   4   2.0000     -10.287743      -279.9437
   5   2.0000     -10.261238      -279.2225
   6   2.0000      -1.436638       -39.0929
   7   2.0000      -1.150081       -31.2953
   8   2.0000      -0.928263       -25.2593
   9   2.0000      -0.844579       -22.9822
  10   2.0000      -0.772795       -21.0288
  11   2.0000      -0.719201       -19.5705
  12   2.0000      -0.653654       -17.7868
  13   2.0000      -0.636506       -17.3202
  14   2.0000      -0.614638       -16.7251
  15   2.0000      -0.568083       -15.4583
  16   2.0000      -0.554862       -15.0986
  17   2.0000      -0.515899       -14.0383
  18   2.0000      -0.499421       -13.5899
  19   2.0000      -0.463683       -12.6174
  20   2.0000      -0.450670       -12.2634
  21   2.0000      -0.441488       -12.0135
  22   2.0000      -0.436483       -11.8773
  23   2.0000      -0.389893       -10.6095
  24   0.0000       0.052252         1.4219
  25   0.0000       0.065182         1.7737
  26   0.0000       0.086142         2.3441
  27   0.0000       0.090698         2.4680
  28   0.0000       0.095004         2.5852

MULLIKEN ATOMIC CHARGES
-----------------------
   0 C :   -0.223754
   1 C :   -0.396370
   2 H :    0.311973
   3 H :    0.275327
   4 C :    0.598767
   5 F :   -0.249596
   6 O :   -0.572874
   7 C :   -1.351320
   8 H :    0.273961
   9 H :    0.284597
  10 H :    0.379211
  11 H :    0.324495
  12 H :    0.345583
Sum of atomic charges:   -0.0000000

LOEWDIN ATOMIC CHARGES
----------------------
   0 C :   -0.247315
   1 C :   -0.117191
   2 H :    0.114157
   3 H :    0.125101
   4 C :   -0.475813
   5 F :    0.207226
   6 O :    0.075695
   7 C :   -0.099480
   8 H :    0.108743
   9 H :    0.109227
  10 H :    0.061731
  11 H :    0.068150
  12 H :    0.069769

  Mayer bond orders larger than 0.100000
B(  0-C ,  1-C ) :   0.8584 B(  0-C ,  7-C ) :   0.6107 B(  0-C ,  8-H ) :   0.9535
B(  0-C ,  9-H ) :   0.9218 B(  1-C ,  2-H ) :   0.9209 B(  1-C ,  3-H ) :   0.9059
B(  1-C ,  4-C ) :   0.9318 B(  1-C ,  7-C ) :   0.1284 B(  4-C ,  5-F ) :   0.9205
B(  4-C ,  6-O ) :   1.6631 B(  7-C , 10-H ) :   0.9203 B(  7-C , 11-H ) :   0.9407
B(  7-C , 12-H ) :   0.9406

Dispersion correction           -0.003283612
FINAL SINGLE POINT ENERGY      -331.755595531637

DIPOLE MOMENT
-------------
                                X             Y             Z
Electronic contribution:      2.62155      -0.67327     -10.68925
Nuclear contribution   :     -2.39146       1.63977      11.24418
                        -----------------------------------------
Total Dipole Moment    :      0.23009       0.96650       0.55493
                        -----------------------------------------
Magnitude (a.u.)       :      1.13799
Magnitude (Debye)      :      2.89253

Rotational constants in cm-1:     0.198868     0.077542     0.072498
Rotational constants in MHz :  5961.919605  2324.650173  2173.425242

                             ****ORCA TERMINATED NORMALLY****
TOTAL RUN TIME: 0 days 0 hours 0 minutes 32 seconds 734 msec
