                         Program Version 5.0.0 -  RELEASE  -
|  1> !wB97X-D3 RIJCOSX def2-TZVPD def2/J TightSCF
|  2> *xyz 0 1
|  3> C          2.23447       -2.98975       -2.39762
|  4> C          2.75680       -2.94555       -3.76503
|  5> C          1.98721       -2.59045       -4.81898
|  6> N          0.74322       -3.01749       -4.91352
|  7> N          2.49964       -1.84860       -5.80324
|  8> H          3.30978       -1.29282       -5.55895
|  9> H          1.80103       -1.30430       -6.28913
| 10> H          3.71612       -2.62880       -3.82953
| 11> H          0.39583       -3.62775       -4.18502
| 12> H          0.03920       -2.45438       -5.37137
| 13> C          2.19120       -1.61950       -1.71549
| 14> H          2.87278       -3.66637       -1.82801
| 15> H          1.24619       -3.44744       -2.40784
| 16> C          1.29873       -0.55431       -2.35977
| 17> H          1.87292       -1.78796       -0.68131
| 18> H          3.21681       -1.23843       -1.65443
| 19> H          1.61097       -0.39090       -3.37007
| 20> H          1.37981        0.35955       -1.80916
| 21> H          0.28197       -0.88750       -2.35015
| 22> *
| 23>
| 24> %MaxCore 64000
| 25>
| 26> %pal nprocs 18
| 27> end
| 28>
| 29> %scf
| 30>   MaxIter 150
| 31> end
| 32>
| 33>
| 34>                          ****END OF INPUT****

CARTESIAN COORDINATES (ANGSTROEM)
---------------------------------
  C      2.234470   -2.989750   -2.397620
  C      2.756800   -2.945550   -3.765030
  C      1.987210   -2.590450   -4.818980
  N      0.743220   -3.017490   -4.913520
  N      2.499640   -1.848600   -5.803240
  H      3.309780   -1.292820   -5.558950
  H      1.801030   -1.304300   -6.289130
  H      3.716120   -2.628800   -3.829530
  H      0.395830   -3.627750   -4.185020
  H      0.039200   -2.454380   -5.371370
  C      2.191200   -1.619500   -1.715490
  H      2.872780   -3.666370   -1.828010
  H      1.246190   -3.447440   -2.407840
  C      1.298730   -0.554310   -2.359770
  H      1.872920   -1.787960   -0.681310
  H      3.216810   -1.238430   -1.654430
  H      1.610970   -0.390900   -3.370070
  H      1.379810    0.359550   -1.809160
  H      0.281970   -0.887500   -2.350150

 Total Charge           Charge          ....    0
 Multiplicity           Mult            ....    1
 Number of Electrons    NEL             ....   56
 Basis Dimension        Dim             ....  367

ORBITAL ENERGIES
----------------

  NO   OCC          E(Eh)            E(eV)
   0   2.0000     -14.427793      -392.6002
   1   2.0000     -14.424924      -392.5221
   2   2.0000     -10.326113      -280.9878
   3   2.0000     -10.256243      -279.0866
   4   2.0000     -10.251648      -278.9615
   5   2.0000     -10.248785      -278.8836
   6   2.0000     -10.198909      -277.5264
   7   2.0000      -1.090670       -29.6786
   8   2.0000      -0.996417       -27.1139
   9   2.0000      -0.904659       -24.6170
  10   2.0000      -0.837880       -22.7999
  11   2.0000      -0.774469       -21.0744
  12   2.0000      -0.709202       -19.2984
  13   2.0000      -0.675902       -18.3922
  14   2.0000      -0.646532       -17.5930
  15   2.0000      -0.611583       -16.6420
  16   2.0000      -0.569710       -15.5026
  17   2.0000      -0.552480       -15.0337
  18   2.0000      -0.541387       -14.7319
  19   2.0000      -0.511980       -13.9317
  20   2.0000      -0.486870       -13.2484
  21   2.0000      -0.472650       -12.8615
  22   2.0000      -0.448453       -12.2030
  23   2.0000      -0.433241       -11.7891
  24   2.0000      -0.409901       -11.1540
  25   2.0000      -0.405917       -11.0456
  26   2.0000      -0.371890       -10.1197
  27   2.0000      -0.247805        -6.7431
  28   0.0000       0.059337         1.6147
  29   0.0000       0.085404         2.3240
  30   0.0000       0.087374         2.3776
  31   0.0000       0.095429         2.5967
  32   0.0000       0.108745         2.9591

MULLIKEN ATOMIC CHARGES
-----------------------
   0 C :   -0.183488
   1 C :   -0.701585
   2 C :    0.041787
   3 N :   -0.405869
   4 N :   -0.513380
   5 H :    0.269109
   6 H :    0.244230
   7 H :    0.423609
   8 H :    0.245860
   9 H :    0.177948
  10 C :   -0.394456
  11 H :    0.153672
  12 H :    0.319225
  13 C :   -1.114122
  14 H :    0.246805
  15 H :    0.296536
  16 H :    0.270887
  17 H :    0.328023
  18 H :    0.295209
Sum of atomic charges:   -0.0000000

LOEWDIN ATOMIC CHARGES
----------------------
   0 C :   -0.252422
   1 C :   -0.133354
   2 C :   -0.568985
   3 N :    0.130356
   4 N :    0.113137
   5 H :    0.109915
   6 H :    0.099525
   7 H :    0.062361
   8 H :    0.107565
   9 H :    0.108981
  10 C :   -0.252073
  11 H :    0.102263
  12 H :    0.091852
  13 C :   -0.103738
  14 H :    0.100390
  15 H :    0.105977
  16 H :    0.051793
  17 H :    0.061507
  18 H :    0.064950

  Mayer bond orders larger than 0.100000
B(  0-C ,  1-C ) :   0.6822 B(  0-C , 10-C ) :   0.7384 B(  0-C , 11-H ) :   1.1416
B(  0-C , 12-H ) :   0.9060 B(  1-C ,  2-C ) :   1.5789 B(  1-C ,  7-H ) :   0.8881
B(  1-C , 10-C ) :   0.2539 B(  2-C ,  3-N ) :   1.0502 B(  2-C ,  4-N ) :   1.0743
B(  2-C ,  7-H ) :  -0.1455 B(  3-N ,  8-H ) :   0.8844 B(  3-N ,  9-H ) :   0.9825
B(  4-N ,  5-H ) :   0.8900 B(  4-N ,  6-H ) :   0.8777 B( 10-C , 13-C ) :   0.7537
B( 10-C , 14-H ) :   0.9626 B( 10-C , 15-H ) :   0.9503 B( 13-C , 16-H ) :   1.0247
B( 13-C , 17-H ) :   0.9297 B( 13-C , 18-H ) :   0.9704

Dispersion correction           -0.006035613
FINAL SINGLE POINT ENERGY      -307.254952968057

DIPOLE MOMENT
-------------
                                X             Y             Z
Electronic contribution:      0.56685      -2.83138      -5.02603
Nuclear contribution   :     -1.30515       3.65216       4.73330
                        -----------------------------------------
Total Dipole Moment    :     -0.73831       0.82078      -0.29273
                        -----------------------------------------
Magnitude (a.u.)       :      1.14214
Magnitude (Debye)      :      2.90308

Rotational constants in cm-1:     0.129987     0.058163     0.054282
Rotational constants in MHz :  3896.918182  1743.696851  1627.337267

                             ****ORCA TERMINATED NORMALLY****
TOTAL RUN TIME: 0 days 0 hours 0 minutes 44 seconds 395 msec
