                         Program Version 5.0.0 -  RELEASE  -
|  1> !wB97X-D3 RIJCOSX def2-TZVPD def2/J TightSCF
|  2> *xyz 0 1
|  3> C         -1.10433        0.25137       -2.86006
|  4> C         -0.71189        0.84252       -4.21834
|  5> H          0.15463        1.49980       -4.13091
|  6> H         -1.53813        1.45922       -4.58267
|  7> C         -0.39762       -0.20587       -5.28802
|  8> O          0.61717       -0.00535       -5.99827
|  9> F         -1.13317       -1.22138       -5.34147
| 10> C         -0.19626       -0.86337       -2.32576
| 11> H         -1.14384        1.06671       -2.12968
| 12> H         -2.11440       -0.15683       -2.93032
| 13> H         -0.15538       -1.66172       -3.03700
| 14> H         -0.58845       -1.22999       -1.40020
| 15> H          0.78852       -0.47602       -2.16737
| 16> *
| 17>
| 18> %MaxCore 64000
| 19>
| 20> %pal nprocs 18
| 21> end
| 22>
| 23> %scf
| 24>   MaxIter 150
| 25> end
| 26>
| 27>
| 28>                          ****END OF INPUT****

CARTESIAN COORDINATES (ANGSTROEM)
---------------------------------
  C     -1.104330    0.251370   -2.860060
  C     -0.711890    0.842520   -4.218340
  H      0.154630    1.499800   -4.130910
  H     -1.538130    1.459220   -4.582670
  C     -0.397620   -0.205870   -5.288020
  O      0.617170   -0.005350   -5.998270
  F     -1.133170   -1.221380   -5.341470
  C     -0.196260   -0.863370   -2.325760
  H     -1.143840    1.066710   -2.129680
  H     -2.114400   -0.156830   -2.930320
  H     -0.155380   -1.661720   -3.037000
  H     -0.588450   -1.229990   -1.400200
  H      0.788520   -0.476020   -2.167370

 Total Charge           Charge          ....    0
 Multiplicity           Mult            ....    1
 Number of Electrons    NEL             ....   48
 Basis Dimension        Dim             ....  291

ORBITAL ENERGIES
----------------

  NO   OCC          E(Eh)            E(eV)
   0   2.0000     -24.856749      -676.3865
   1   2.0000     -19.235140      -523.4148
   2   2.0000     -10.454981      -284.4945
   3   2.0000     -10.305174      -280.4180
   4   2.0000     -10.292781      -280.0808
   5   2.0000     -10.269484      -279.4469
   6   2.0000      -1.437192       -39.1080
   7   2.0000      -1.148259       -31.2457
   8   2.0000      -0.933905       -25.4129
   9   2.0000      -0.845211       -22.9994
  10   2.0000      -0.772730       -21.0271
  11   2.0000      -0.726348       -19.7649
  12   2.0000      -0.656338       -17.8599
  13   2.0000      -0.647557       -17.6209
  14   2.0000      -0.597253       -16.2521
  15   2.0000      -0.575292       -15.6545
  16   2.0000      -0.555664       -15.1204
  17   2.0000      -0.519155       -14.1269
  18   2.0000      -0.500349       -13.6152
  19   2.0000      -0.472980       -12.8704
  20   2.0000      -0.460121       -12.5205
  21   2.0000      -0.447519       -12.1776
  22   2.0000      -0.436787       -11.8856
  23   2.0000      -0.384098       -10.4518
  24   0.0000       0.054870         1.4931
  25   0.0000       0.064021         1.7421
  26   0.0000       0.086486         2.3534
  27   0.0000       0.088763         2.4154
  28   0.0000       0.092731         2.5234

MULLIKEN ATOMIC CHARGES
-----------------------
   0 C :   -0.279015
   1 C :   -0.300402
   2 H :    0.259874
   3 H :    0.286493
   4 C :    0.559806
   5 O :   -0.587887
   6 F :   -0.240856
   7 C :   -1.296954
   8 H :    0.268802
   9 H :    0.291753
  10 H :    0.367240
  11 H :    0.325896
  12 H :    0.345250
Sum of atomic charges:    0.0000000

LOEWDIN ATOMIC CHARGES
----------------------
   0 C :   -0.252677
   1 C :   -0.113861
   2 H :    0.122736
   3 H :    0.123431
   4 C :   -0.483562
   5 O :    0.073685
   6 F :    0.208060
   7 C :   -0.097830
   8 H :    0.109239
   9 H :    0.105759
  10 H :    0.062944
  11 H :    0.068357
  12 H :    0.073720

  Mayer bond orders larger than 0.100000
B(  0-C ,  1-C ) :   0.8148 B(  0-C ,  7-C ) :   0.6334 B(  0-C ,  8-H ) :   0.9583
B(  0-C ,  9-H ) :   0.9259 B(  1-C ,  2-H ) :   0.9795 B(  1-C ,  3-H ) :   0.9069
B(  1-C ,  4-C ) :   0.9359 B(  4-C ,  5-O ) :   1.6421 B(  4-C ,  6-F ) :   0.9224
B(  7-C , 10-H ) :   0.9072 B(  7-C , 11-H ) :   0.9523 B(  7-C , 12-H ) :   0.9588

Dispersion correction           -0.003297995
FINAL SINGLE POINT ENERGY      -331.754644691942

DIPOLE MOMENT
-------------
                                X             Y             Z
Electronic contribution:     -0.36260      -2.73067      -9.50996
Nuclear contribution   :     -0.41432       3.01336      10.50227
                        -----------------------------------------
Total Dipole Moment    :     -0.77692       0.28269       0.99231
                        -----------------------------------------
Magnitude (a.u.)       :      1.29159
Magnitude (Debye)      :      3.28296

Rotational constants in cm-1:     0.192167     0.080512     0.073747
Rotational constants in MHz :  5761.018137  2413.690728  2210.882638

                             ****ORCA TERMINATED NORMALLY****
TOTAL RUN TIME: 0 days 0 hours 0 minutes 24 seconds 292 msec
