                         Program Version 5.0.0 -  RELEASE  -
|  1> !wB97X-D3 RIJCOSX def2-TZVPD def2/J TightSCF
|  2> *xyz 0 1
|  3> C          2.23447       -2.98975       -2.39762
|  4> N          2.75680       -2.94555       -3.76503
|  5> C          1.98721       -2.59045       -4.81898
|  6> C          0.74322       -3.01749       -4.91352
|  7> N          2.49964       -1.84860       -5.80324
|  8> H          3.30978       -1.29282       -5.55895
|  9> H          1.80103       -1.30430       -6.28913
| 10> H          3.71612       -2.62880       -3.82953
| 11> H          0.39583       -3.62775       -4.18502
| 12> H          0.03920       -2.45438       -5.37137
| 13> C          2.19120       -1.61950       -1.71549
| 14> H          2.87278       -3.66637       -1.82801
| 15> H          1.24619       -3.44744       -2.40784
| 16> C          1.29873       -0.55431       -2.35977
| 17> H          1.87292       -1.78796       -0.68131
| 18> H          3.21681       -1.23843       -1.65443
| 19> H          1.61097       -0.39090       -3.37007
| 20> H          1.37981        0.35955       -1.80916
| 21> H          0.28197       -0.88750       -2.35015
| 22> *
| 23>
| 24> %MaxCore 64000
| 25>
| 26> %pal nprocs 18
| 27> end
| 28>
| 29> %scf
| 30>   MaxIter 150
| 31> end
| 32>
| 33>
| 34>                          ****END OF INPUT****

CARTESIAN COORDINATES (ANGSTROEM)
---------------------------------
  C      2.234470   -2.989750   -2.397620
  N      2.756800   -2.945550   -3.765030
  C      1.987210   -2.590450   -4.818980
  C      0.743220   -3.017490   -4.913520
  N      2.499640   -1.848600   -5.803240
  H      3.309780   -1.292820   -5.558950
  H      1.801030   -1.304300   -6.289130
  H      3.716120   -2.628800   -3.829530
  H      0.395830   -3.627750   -4.185020
  H      0.039200   -2.454380   -5.371370
  C      2.191200   -1.619500   -1.715490
  H      2.872780   -3.666370   -1.828010
  H      1.246190   -3.447440   -2.407840
  C      1.298730   -0.554310   -2.359770
  H      1.872920   -1.787960   -0.681310
  H      3.216810   -1.238430   -1.654430
  H      1.610970   -0.390900   -3.370070
  H      1.379810    0.359550   -1.809160
  H      0.281970   -0.887500   -2.350150

 Total Charge           Charge          ....    0
 Multiplicity           Mult            ....    1
 Number of Electrons    NEL             ....   56
 Basis Dimension        Dim             ....  367

ORBITAL ENERGIES
----------------

  NO   OCC          E(Eh)            E(eV)
   0   2.0000     -14.424631      -392.5142
   1   2.0000     -14.422985      -392.4694
   2   2.0000     -10.322532      -280.8904
   3   2.0000     -10.306812      -280.4626
   4   2.0000     -10.275193      -279.6022
   5   2.0000     -10.257137      -279.1109
   6   2.0000     -10.188944      -277.2553
   7   2.0000      -1.087205       -29.5844
   8   2.0000      -1.005893       -27.3718
   9   2.0000      -0.895339       -24.3634
  10   2.0000      -0.835602       -22.7379
  11   2.0000      -0.801837       -21.8191
  12   2.0000      -0.715053       -19.4576
  13   2.0000      -0.667826       -18.1725
  14   2.0000      -0.645252       -17.5582
  15   2.0000      -0.613127       -16.6840
  16   2.0000      -0.572807       -15.5869
  17   2.0000      -0.556854       -15.1528
  18   2.0000      -0.524773       -14.2798
  19   2.0000      -0.510347       -13.8872
  20   2.0000      -0.499665       -13.5966
  21   2.0000      -0.477001       -12.9798
  22   2.0000      -0.463394       -12.6096
  23   2.0000      -0.453170       -12.3314
  24   2.0000      -0.438477       -11.9316
  25   2.0000      -0.428387       -11.6570
  26   2.0000      -0.346501        -9.4288
  27   2.0000      -0.264129        -7.1873
  28   0.0000       0.062257         1.6941
  29   0.0000       0.081002         2.2042
  30   0.0000       0.086835         2.3629
  31   0.0000       0.093607         2.5472
  32   0.0000       0.114112         3.1051

MULLIKEN ATOMIC CHARGES
-----------------------
   0 C :   -0.611932
   1 N :   -0.136381
   2 C :    0.574879
   3 C :   -1.355952
   4 N :   -0.494341
   5 H :    0.243945
   6 H :    0.236601
   7 H :    0.261232
   8 H :    0.423747
   9 H :    0.284273
  10 C :   -0.237938
  11 H :    0.218979
  12 H :    0.259437
  13 C :   -1.093349
  14 H :    0.260036
  15 H :    0.264884
  16 H :    0.266129
  17 H :    0.333893
  18 H :    0.301858
Sum of atomic charges:   -0.0000000

LOEWDIN ATOMIC CHARGES
----------------------
   0 C :   -0.200622
   1 N :    0.020708
   2 C :   -0.580080
   3 C :    0.003171
   4 N :    0.110038
   5 H :    0.098007
   6 H :    0.107773
   7 H :    0.131061
   8 H :    0.012932
   9 H :    0.023077
  10 C :   -0.239184
  11 H :    0.112789
  12 H :    0.105980
  13 C :   -0.099621
  14 H :    0.104633
  15 H :    0.102515
  16 H :    0.053395
  17 H :    0.062961
  18 H :    0.070466

  Mayer bond orders larger than 0.100000
B(  0-C ,  1-N ) :   0.8374 B(  0-C , 10-C ) :   0.8442 B(  0-C , 11-H ) :   1.0303
B(  0-C , 12-H ) :   0.9284 B(  1-N ,  2-C ) :   1.0484 B(  1-N ,  7-H ) :   0.8604
B(  2-C ,  3-C ) :   1.3954 B(  2-C ,  4-N ) :   0.8366 B(  3-C ,  4-N ) :   0.1022
B(  3-C ,  8-H ) :   0.8353 B(  3-C ,  9-H ) :   1.0328 B(  4-N ,  5-H ) :   0.8879
B(  4-N ,  6-H ) :   0.8967 B( 10-C , 13-C ) :   0.7551 B( 10-C , 14-H ) :   0.9877
B( 10-C , 15-H ) :   0.9616 B( 13-C , 16-H ) :   1.0085 B( 13-C , 17-H ) :   0.9256
B( 13-C , 18-H ) :   0.9750

Dispersion correction           -0.006060786
FINAL SINGLE POINT ENERGY      -307.249992778946

DIPOLE MOMENT
-------------
                                X             Y             Z
Electronic contribution:      2.35252      -2.68366      -3.88534
Nuclear contribution   :     -1.74624       3.63640       4.48172
                        -----------------------------------------
Total Dipole Moment    :      0.60628       0.95275       0.59638
                        -----------------------------------------
Magnitude (a.u.)       :      1.27710
Magnitude (Debye)      :      3.24612

Rotational constants in cm-1:     0.131012     0.059513     0.054636
Rotational constants in MHz :  3927.631151  1784.169731  1637.945644

                             ****ORCA TERMINATED NORMALLY****
TOTAL RUN TIME: 0 days 0 hours 0 minutes 47 seconds 363 msec
