                         Program Version 5.0.0 -  RELEASE  -
|  1> !wB97X-D3 RIJCOSX def2-TZVPD def2/J TightSCF
|  2> *xyz 0 1
|  3> C          2.23447       -2.98975       -2.39762
|  4> N          2.75680       -2.94555       -3.76503
|  5> C          1.98721       -2.59045       -4.81898
|  6> N          0.74322       -3.01749       -4.91352
|  7> C          2.49964       -1.84860       -5.80324
|  8> H          3.30978       -1.29282       -5.55895
|  9> H          1.80103       -1.30430       -6.28913
| 10> H          3.71612       -2.62880       -3.82953
| 11> H          0.39583       -3.62775       -4.18502
| 12> H          0.03920       -2.45438       -5.37137
| 13> C          2.19120       -1.61950       -1.71549
| 14> H          2.87278       -3.66637       -1.82801
| 15> H          1.24619       -3.44744       -2.40784
| 16> C          1.29873       -0.55431       -2.35977
| 17> H          1.87292       -1.78796       -0.68131
| 18> H          3.21681       -1.23843       -1.65443
| 19> H          1.61097       -0.39090       -3.37007
| 20> H          1.37981        0.35955       -1.80916
| 21> H          0.28197       -0.88750       -2.35015
| 22> *
| 23>
| 24> %MaxCore 64000
| 25>
| 26> %pal nprocs 18
| 27> end
| 28>
| 29> %scf
| 30>   MaxIter 150
| 31> end
| 32>
| 33>
| 34>                          ****END OF INPUT****

CARTESIAN COORDINATES (ANGSTROEM)
---------------------------------
  C      2.234470   -2.989750   -2.397620
  N      2.756800   -2.945550   -3.765030
  C      1.987210   -2.590450   -4.818980
  N      0.743220   -3.017490   -4.913520
  C      2.499640   -1.848600   -5.803240
  H      3.309780   -1.292820   -5.558950
  H      1.801030   -1.304300   -6.289130
  H      3.716120   -2.628800   -3.829530
  H      0.395830   -3.627750   -4.185020
  H      0.039200   -2.454380   -5.371370
  C      2.191200   -1.619500   -1.715490
  H      2.872780   -3.666370   -1.828010
  H      1.246190   -3.447440   -2.407840
  C      1.298730   -0.554310   -2.359770
  H      1.872920   -1.787960   -0.681310
  H      3.216810   -1.238430   -1.654430
  H      1.610970   -0.390900   -3.370070
  H      1.379810    0.359550   -1.809160
  H      0.281970   -0.887500   -2.350150

 Total Charge           Charge          ....    0
 Multiplicity           Mult            ....    1
 Number of Electrons    NEL             ....   56
 Basis Dimension        Dim             ....  367

ORBITAL ENERGIES
----------------

  NO   OCC          E(Eh)            E(eV)
   0   2.0000     -14.425327      -392.5331
   1   2.0000     -14.424150      -392.5011
   2   2.0000     -10.327543      -281.0267
   3   2.0000     -10.314978      -280.6848
   4   2.0000     -10.278380      -279.6890
   5   2.0000     -10.259374      -279.1717
   6   2.0000     -10.185013      -277.1483
   7   2.0000      -1.089542       -29.6479
   8   2.0000      -1.005962       -27.3736
   9   2.0000      -0.902670       -24.5629
  10   2.0000      -0.843560       -22.9544
  11   2.0000      -0.788845       -21.4656
  12   2.0000      -0.710181       -19.3250
  13   2.0000      -0.707087       -19.2408
  14   2.0000      -0.643685       -17.5156
  15   2.0000      -0.594380       -16.1739
  16   2.0000      -0.588980       -16.0270
  17   2.0000      -0.552335       -15.0298
  18   2.0000      -0.547914       -14.9095
  19   2.0000      -0.504013       -13.7149
  20   2.0000      -0.488983       -13.3059
  21   2.0000      -0.478747       -13.0274
  22   2.0000      -0.464687       -12.6448
  23   2.0000      -0.455241       -12.3877
  24   2.0000      -0.438600       -11.9349
  25   2.0000      -0.435880       -11.8609
  26   2.0000      -0.348667        -9.4877
  27   2.0000      -0.259888        -7.0719
  28   0.0000       0.062252         1.6940
  29   0.0000       0.079837         2.1725
  30   0.0000       0.081914         2.2290
  31   0.0000       0.093921         2.5557
  32   0.0000       0.111365         3.0304

MULLIKEN ATOMIC CHARGES
-----------------------
   0 C :   -0.673852
   1 N :   -0.142977
   2 C :    0.540907
   3 N :   -0.397910
   4 C :   -1.279686
   5 H :    0.332794
   6 H :    0.318411
   7 H :    0.260344
   8 H :    0.233087
   9 H :    0.203634
  10 C :   -0.211652
  11 H :    0.222565
  12 H :    0.263060
  13 C :   -1.149323
  14 H :    0.265482
  15 H :    0.275272
  16 H :    0.326309
  17 H :    0.325020
  18 H :    0.288515
Sum of atomic charges:    0.0000000

LOEWDIN ATOMIC CHARGES
----------------------
   0 C :   -0.204995
   1 N :    0.024466
   2 C :   -0.581485
   3 N :    0.128768
   4 C :   -0.018975
   5 H :    0.010115
   6 H :    0.011275
   7 H :    0.138542
   8 H :    0.098168
   9 H :    0.120092
  10 C :   -0.239640
  11 H :    0.112091
  12 H :    0.101399
  13 C :   -0.097919
  14 H :    0.103544
  15 H :    0.105814
  16 H :    0.057575
  17 H :    0.064510
  18 H :    0.066654

  Mayer bond orders larger than 0.100000
B(  0-C ,  1-N ) :   0.9194 B(  0-C ,  3-N ) :   0.1092 B(  0-C , 10-C ) :   0.8269
B(  0-C , 11-H ) :   1.0470 B(  0-C , 12-H ) :   0.9418 B(  1-N ,  2-C ) :   1.0539
B(  1-N ,  7-H ) :   0.8262 B(  2-C ,  3-N ) :   0.9427 B(  2-C ,  4-C ) :   1.2969
B(  2-C ,  5-H ) :  -0.1070 B(  3-N ,  8-H ) :   0.8836 B(  3-N ,  9-H ) :   0.9377
B(  4-C ,  5-H ) :   1.0331 B(  4-C ,  6-H ) :   0.9788 B( 10-C , 13-C ) :   0.7359
B( 10-C , 14-H ) :   0.9939 B( 10-C , 15-H ) :   0.9348 B( 13-C , 16-H ) :   0.9930
B( 13-C , 17-H ) :   0.9328 B( 13-C , 18-H ) :   0.9796

Dispersion correction           -0.006083774
FINAL SINGLE POINT ENERGY      -307.244960711040

DIPOLE MOMENT
-------------
                                X             Y             Z
Electronic contribution:      0.74071      -3.81583      -3.00730
Nuclear contribution   :     -1.36148       3.89245       4.28682
                        -----------------------------------------
Total Dipole Moment    :     -0.62078       0.07662       1.27953
                        -----------------------------------------
Magnitude (a.u.)       :      1.42423
Magnitude (Debye)      :      3.62010

Rotational constants in cm-1:     0.130039     0.059901     0.055416
Rotational constants in MHz :  3898.472533  1795.778295  1661.317267

                             ****ORCA TERMINATED NORMALLY****
TOTAL RUN TIME: 0 days 0 hours 0 minutes 34 seconds 527 msec
