                         Program Version 5.0.0 -  RELEASE  -
|  1> !wB97X-D3 RIJCOSX def2-TZVPD def2/J TightSCF xyzfile
|  2>
|  3> *xyzfile 0 1 D2.xyz
|  4>
|  5> %MaxCore 64000
|  6>
|  7> %pal nprocs 18
|  8> end
|  9>
| 10> %scf
| 11>   MaxIter 150
| 12> end
| 13>
| 14>
| 15>                          ****END OF INPUT****

CARTESIAN COORDINATES (ANGSTROEM)
---------------------------------
  C      2.234473   -2.989754   -2.397622
  N      2.756799   -2.945553   -3.765029
  C     -1.104325    0.251374   -2.860056
  C     -0.711893    0.842517   -4.218344
  H      0.154626    1.499800   -4.130909
  H     -1.538134    1.459222   -4.582671
  C     -0.397624   -0.205875   -5.288018
  C      1.987208   -2.590451   -4.818975
  C      0.743221   -3.017493   -4.913524
  N      2.499636   -1.848598   -5.803241
  H      3.309780   -1.292818   -5.558947
  H      1.801025   -1.304298   -6.289129
  H      3.716116   -2.628797   -3.829533
  H      0.395828   -3.627747   -4.185024
  H      0.039201   -2.454383   -5.371367
  F      0.617165   -0.005348   -5.998273
  O     -1.133173   -1.221380   -5.341465
  C      2.191199   -1.619503   -1.715492
  H      2.872783   -3.666368   -1.828014
  H      1.246188   -3.447444   -2.407842
  C      1.298729   -0.554314   -2.359773
  H      1.872917   -1.787955   -0.681310
  H      3.216809   -1.238432   -1.654428
  C     -0.196255   -0.863365   -2.325763
  H      1.612531   -0.371346   -3.393065
  H      1.480944    0.388638   -1.834444
  H     -0.404105   -1.761825   -2.909448
  H     -0.490439   -1.087880   -1.294131
  H     -1.143842    1.066711   -2.129680
  H     -2.114401   -0.156834   -2.930323

 Total Charge           Charge          ....    0
 Multiplicity           Mult            ....    1
 Number of Electrons    NEL             ....  102
 Basis Dimension        Dim             ....  640

ORBITAL ENERGIES
----------------

  NO   OCC          E(Eh)            E(eV)
   0   2.0000     -24.874816      -676.8782
   1   2.0000     -19.243829      -523.6512
   2   2.0000     -14.415122      -392.2554
   3   2.0000     -14.406913      -392.0320
   4   2.0000     -10.464962      -284.7661
   5   2.0000     -10.311093      -280.5791
   6   2.0000     -10.307782      -280.4890
   7   2.0000     -10.303208      -280.3645
   8   2.0000     -10.289148      -279.9820
   9   2.0000     -10.277598      -279.6677
  10   2.0000     -10.276620      -279.6411
  11   2.0000     -10.270797      -279.4826
  12   2.0000     -10.166926      -276.6561
  13   2.0000      -1.457523       -39.6612
  14   2.0000      -1.163080       -31.6490
  15   2.0000      -1.076480       -29.2925
  16   2.0000      -0.996901       -27.1271
  17   2.0000      -0.942197       -25.6385
  18   2.0000      -0.902595       -24.5609
  19   2.0000      -0.850581       -23.1455
  20   2.0000      -0.822592       -22.3839
  21   2.0000      -0.804229       -21.8842
  22   2.0000      -0.773943       -21.0601
  23   2.0000      -0.729814       -19.8592
  24   2.0000      -0.696596       -18.9553
  25   2.0000      -0.675368       -18.3777
  26   2.0000      -0.654604       -17.8127
  27   2.0000      -0.651471       -17.7274
  28   2.0000      -0.635338       -17.2884
  29   2.0000      -0.628477       -17.1017
  30   2.0000      -0.597571       -16.2607
  31   2.0000      -0.585320       -15.9274
  32   2.0000      -0.572151       -15.5690
  33   2.0000      -0.549708       -14.9583
  34   2.0000      -0.544663       -14.8210
  35   2.0000      -0.523675       -14.2499
  36   2.0000      -0.514153       -13.9908
  37   2.0000      -0.506801       -13.7907
  38   2.0000      -0.495873       -13.4934
  39   2.0000      -0.481929       -13.1140
  40   2.0000      -0.471388       -12.8271
  41   2.0000      -0.461800       -12.5662
  42   2.0000      -0.457397       -12.4464
  43   2.0000      -0.450418       -12.2565
  44   2.0000      -0.440054       -11.9745
  45   2.0000      -0.424570       -11.5531
  46   2.0000      -0.414845       -11.2885
  47   2.0000      -0.411660       -11.2018
  48   2.0000      -0.380782       -10.3616
  49   2.0000      -0.336569        -9.1585
  50   2.0000      -0.249949        -6.8015
  51   0.0000       0.041889         1.1398
  52   0.0000       0.056571         1.5394
  53   0.0000       0.070877         1.9287
  54   0.0000       0.073663         2.0045
  55   0.0000       0.082654         2.2491

MULLIKEN ATOMIC CHARGES
-----------------------
   0 C :   -0.750761
   1 N :   -0.117821
   2 C :   -0.673931
   3 C :   -0.518158
   4 H :    0.364973
   5 H :    0.313808
   6 C :    0.688672
   7 C :    0.235516
   8 C :   -1.702031
   9 N :   -0.468787
  10 H :    0.254315
  11 H :    0.285150
  12 H :    0.278566
  13 H :    0.608801
  14 H :    0.718486
  15 F :   -0.350344
  16 O :   -0.624371
  17 C :   -0.635425
  18 H :    0.248933
  19 H :    0.292191
  20 C :   -0.296892
  21 H :    0.291278
  22 H :    0.266352
  23 C :   -0.320848
  24 H :    0.169755
  25 H :    0.392954
  26 H :    0.085575
  27 H :    0.341461
  28 H :    0.274538
  29 H :    0.348042
Sum of atomic charges:    0.0000000

LOEWDIN ATOMIC CHARGES
----------------------
   0 C :   -0.188654
   1 N :    0.024221
   2 C :   -0.189313
   3 C :   -0.099123
   4 H :    0.114904
   5 H :    0.127304
   6 C :   -0.451356
   7 C :   -0.555638
   8 C :    0.015053
   9 N :    0.116533
  10 H :    0.100907
  11 H :    0.078386
  12 H :    0.129579
  13 H :    0.029903
  14 H :   -0.015827
  15 F :    0.190103
  16 O :    0.069072
  17 C :   -0.185774
  18 H :    0.113907
  19 H :    0.105170
  20 C :   -0.203494
  21 H :    0.111426
  22 H :    0.107752
  23 C :   -0.202796
  24 H :    0.097409
  25 H :    0.116488
  26 H :    0.094332
  27 H :    0.119482
  28 H :    0.114893
  29 H :    0.115150

  Mayer bond orders larger than 0.100000
B(  0-C ,  1-N ) :   0.8585 B(  0-C ,  7-C ) :   0.1292 B(  0-C ,  8-C ) :   0.1113
B(  0-C , 17-C ) :   0.7941 B(  0-C , 18-H ) :   0.9931 B(  0-C , 19-H ) :   0.9104
B(  0-C , 23-C ) :   0.1391 B(  1-N ,  7-C ) :   1.0819 B(  1-N , 12-H ) :   0.8008
B(  2-C ,  3-C ) :   0.9357 B(  2-C ,  6-C ) :   0.1200 B(  2-C , 20-C ) :   0.2992
B(  2-C , 23-C ) :   0.9934 B(  2-C , 26-H ) :   0.1103 B(  2-C , 28-H ) :   0.9418
B(  2-C , 29-H ) :   0.8483 B(  3-C ,  4-H ) :   0.8992 B(  3-C ,  5-H ) :   0.8634
B(  3-C ,  6-C ) :   0.9351 B(  3-C , 20-C ) :   0.1959 B(  6-C , 15-F ) :   0.7103
B(  6-C , 16-O ) :   1.6642 B(  6-C , 23-C ) :   0.1103 B(  7-C ,  8-C ) :   1.5203
B(  7-C ,  9-N ) :   0.8899 B(  7-C , 14-H ) :  -0.2300 B(  7-C , 20-C ) :   0.1038
B(  8-C , 13-H ) :   0.7330 B(  8-C , 14-H ) :   0.4704 B(  8-C , 20-C ) :   0.1002
B(  9-N , 10-H ) :   0.8448 B(  9-N , 11-H ) :   0.7579 B( 13-H , 14-H ) :   0.2108
B( 17-C , 20-C ) :   0.9539 B( 17-C , 21-H ) :   0.9438 B( 17-C , 22-H ) :   0.9483
B( 17-C , 23-C ) :   0.3871 B( 20-C , 23-C ) :   0.4225 B( 20-C , 24-H ) :   1.1394
B( 20-C , 25-H ) :   0.7028 B( 20-C , 26-H ) :  -0.1131 B( 23-C , 26-H ) :   1.2217
B( 23-C , 27-H ) :   0.7821

Dispersion correction           -0.015856260
FINAL SINGLE POINT ENERGY      -637.782885661485

DIPOLE MOMENT
-------------
                                X             Y             Z
Electronic contribution:     -1.49761       2.19888     -13.53123
Nuclear contribution   :      2.00823      -0.28769      14.57028
                        -----------------------------------------
Total Dipole Moment    :      0.51061       1.91119       1.03905
                        -----------------------------------------
Magnitude (a.u.)       :      2.23450
Magnitude (Debye)      :      5.67965

Rotational constants in cm-1:     0.033070     0.023715     0.016943
Rotational constants in MHz :   991.423248   710.957140   507.940500

                             ****ORCA TERMINATED NORMALLY****
TOTAL RUN TIME: 0 days 0 hours 2 minutes 59 seconds 289 msec
