                         Program Version 5.0.0 -  RELEASE  -
|  1> !wB97X-D3 RIJCOSX def2-TZVPD def2/J TightSCF xyzfile
|  2>
|  3> *xyzfile 0 1 D3.xyz
|  4>
|  5> %MaxCore 64000
|  6>
|  7> %pal nprocs 18
|  8> end
|  9>
| 10> %scf
| 11>   MaxIter 150
| 12> end
| 13>
| 14>
| 15>                          ****END OF INPUT****

CARTESIAN COORDINATES (ANGSTROEM)
---------------------------------
  C      2.234473   -2.989754   -2.397622
  N      2.756799   -2.945553   -3.765029
  C     -1.104325    0.251374   -2.860056
  C     -0.711893    0.842517   -4.218344
  H      0.154626    1.499800   -4.130909
  H     -1.538134    1.459222   -4.582671
  C     -0.397624   -0.205875   -5.288018
  C      1.987208   -2.590451   -4.818975
  N      0.743221   -3.017493   -4.913524
  C      2.499636   -1.848598   -5.803241
  H      3.309780   -1.292818   -5.558947
  H      1.801025   -1.304298   -6.289129
  H      3.716116   -2.628797   -3.829533
  H      0.395828   -3.627747   -4.185024
  H      0.039201   -2.454383   -5.371367
  F      0.617165   -0.005348   -5.998273
  O     -1.133173   -1.221380   -5.341465
  C      2.191199   -1.619503   -1.715492
  H      2.872783   -3.666368   -1.828014
  H      1.246188   -3.447444   -2.407842
  C      1.298729   -0.554314   -2.359773
  H      1.872917   -1.787955   -0.681310
  H      3.216809   -1.238432   -1.654428
  C     -0.196255   -0.863365   -2.325763
  H      1.612531   -0.371346   -3.393065
  H      1.480944    0.388638   -1.834444
  H     -0.404105   -1.761825   -2.909448
  H     -0.490439   -1.087880   -1.294131
  H     -1.143842    1.066711   -2.129680
  H     -2.114401   -0.156834   -2.930323

 Total Charge           Charge          ....    0
 Multiplicity           Mult            ....    1
 Number of Electrons    NEL             ....  102
 Basis Dimension        Dim             ....  640

ORBITAL ENERGIES
----------------

  NO   OCC          E(Eh)            E(eV)
   0   2.0000     -24.868359      -676.7024
   1   2.0000     -19.257218      -524.0156
   2   2.0000     -14.415215      -392.2579
   3   2.0000     -14.396965      -391.7613
   4   2.0000     -10.475581      -285.0551
   5   2.0000     -10.316209      -280.7183
   6   2.0000     -10.314287      -280.6660
   7   2.0000     -10.310819      -280.5716
   8   2.0000     -10.295856      -280.1645
   9   2.0000     -10.280276      -279.7405
  10   2.0000     -10.280191      -279.7382
  11   2.0000     -10.279858      -279.7292
  12   2.0000     -10.170304      -276.7480
  13   2.0000      -1.452105       -39.5138
  14   2.0000      -1.176874       -32.0244
  15   2.0000      -1.076397       -29.2902
  16   2.0000      -0.992191       -26.9989
  17   2.0000      -0.948736       -25.8164
  18   2.0000      -0.908415       -24.7192
  19   2.0000      -0.861125       -23.4324
  20   2.0000      -0.825014       -22.4498
  21   2.0000      -0.801181       -21.8012
  22   2.0000      -0.765108       -20.8196
  23   2.0000      -0.729122       -19.8404
  24   2.0000      -0.703418       -19.1410
  25   2.0000      -0.688801       -18.7432
  26   2.0000      -0.666439       -18.1347
  27   2.0000      -0.649062       -17.6619
  28   2.0000      -0.637344       -17.3430
  29   2.0000      -0.628880       -17.1127
  30   2.0000      -0.596962       -16.2442
  31   2.0000      -0.583590       -15.8803
  32   2.0000      -0.575888       -15.6707
  33   2.0000      -0.563677       -15.3384
  34   2.0000      -0.549435       -14.9509
  35   2.0000      -0.535712       -14.5775
  36   2.0000      -0.513753       -13.9799
  37   2.0000      -0.508677       -13.8418
  38   2.0000      -0.489250       -13.3132
  39   2.0000      -0.478972       -13.0335
  40   2.0000      -0.475120       -12.9287
  41   2.0000      -0.465593       -12.6694
  42   2.0000      -0.458882       -12.4868
  43   2.0000      -0.454047       -12.3552
  44   2.0000      -0.441412       -12.0114
  45   2.0000      -0.429090       -11.6761
  46   2.0000      -0.426417       -11.6034
  47   2.0000      -0.418210       -11.3801
  48   2.0000      -0.405294       -11.0286
  49   2.0000      -0.334106        -9.0915
  50   2.0000      -0.247456        -6.7336
  51   0.0000       0.033679         0.9165
  52   0.0000       0.059094         1.6080
  53   0.0000       0.068728         1.8702
  54   0.0000       0.071586         1.9480
  55   0.0000       0.079412         2.1609

MULLIKEN ATOMIC CHARGES
-----------------------
   0 C :   -0.753672
   1 N :   -0.150904
   2 C :   -0.622629
   3 C :   -0.508822
   4 H :    0.363767
   5 H :    0.308015
   6 C :    0.681923
   7 C :    0.326062
   8 N :   -0.344930
   9 C :   -1.470090
  10 H :    0.341332
  11 H :    0.549375
  12 H :    0.290679
  13 H :    0.299372
  14 H :    0.233083
  15 F :   -0.285729
  16 O :   -0.693023
  17 C :   -0.681784
  18 H :    0.254361
  19 H :    0.306494
  20 C :   -0.259420
  21 H :    0.291761
  22 H :    0.276847
  23 C :   -0.372344
  24 H :    0.167083
  25 H :    0.374675
  26 H :    0.121584
  27 H :    0.337523
  28 H :    0.278831
  29 H :    0.340581
Sum of atomic charges:   -0.0000000

LOEWDIN ATOMIC CHARGES
----------------------
   0 C :   -0.192655
   1 N :    0.029315
   2 C :   -0.189660
   3 C :   -0.095313
   4 H :    0.118361
   5 H :    0.128941
   6 C :   -0.442810
   7 C :   -0.559823
   8 N :    0.143523
   9 C :   -0.009276
  10 H :    0.016363
  11 H :   -0.006918
  12 H :    0.136978
  13 H :    0.104338
  14 H :    0.054661
  15 F :    0.192449
  16 O :    0.068149
  17 C :   -0.185411
  18 H :    0.113268
  19 H :    0.101144
  20 C :   -0.200772
  21 H :    0.110575
  22 H :    0.110935
  23 C :   -0.206571
  24 H :    0.101264
  25 H :    0.117888
  26 H :    0.090680
  27 H :    0.119293
  28 H :    0.116418
  29 H :    0.114666

  Mayer bond orders larger than 0.100000
B(  0-C ,  1-N ) :   0.9484 B(  0-C ,  8-N ) :   0.1263 B(  0-C , 17-C ) :   0.7778
B(  0-C , 18-H ) :   1.0079 B(  0-C , 19-H ) :   0.9012 B(  0-C , 23-C ) :   0.1193
B(  1-N ,  7-C ) :   1.1142 B(  1-N , 12-H ) :   0.7773 B(  2-C ,  3-C ) :   0.9223
B(  2-C ,  6-C ) :   0.1127 B(  2-C , 20-C ) :   0.2953 B(  2-C , 23-C ) :   0.9818
B(  2-C , 28-H ) :   0.9372 B(  2-C , 29-H ) :   0.8576 B(  3-C ,  4-H ) :   0.8922
B(  3-C ,  5-H ) :   0.8641 B(  3-C ,  6-C ) :   0.9612 B(  3-C , 20-C ) :   0.1728
B(  6-C , 15-F ) :   0.8144 B(  6-C , 16-O ) :   1.5026 B(  6-C , 23-C ) :   0.1030
B(  7-C ,  8-N ) :   0.9693 B(  7-C ,  9-C ) :   1.2547 B(  7-C , 10-H ) :  -0.1743
B(  7-C , 11-H ) :  -0.1003 B(  8-N , 13-H ) :   0.7692 B(  8-N , 14-H ) :   0.7496
B(  9-C , 10-H ) :   1.1735 B(  9-C , 11-H ) :   0.6459 B( 17-C , 20-C ) :   0.9796
B( 17-C , 21-H ) :   0.9606 B( 17-C , 22-H ) :   0.9335 B( 17-C , 23-C ) :   0.4077
B( 17-C , 24-H ) :   0.1128 B( 20-C , 23-C ) :   0.3411 B( 20-C , 24-H ) :   1.1321
B( 20-C , 25-H ) :   0.7215 B( 20-C , 26-H ) :  -0.1425 B( 23-C , 24-H ) :  -0.1019
B( 23-C , 26-H ) :   1.2087 B( 23-C , 27-H ) :   0.7915

Dispersion correction           -0.015940473
FINAL SINGLE POINT ENERGY      -637.788277883958

DIPOLE MOMENT
-------------
                                X             Y             Z
Electronic contribution:     -2.87995       1.37150     -12.71611
Nuclear contribution   :      2.27881      -0.10762      14.43322
                        -----------------------------------------
Total Dipole Moment    :     -0.60114       1.26388       1.71711
                        -----------------------------------------
Magnitude (a.u.)       :      2.21522
Magnitude (Debye)      :      5.63065

Rotational constants in cm-1:     0.033336     0.023673     0.017062
Rotational constants in MHz :   999.388459   709.685364   511.514310

                             ****ORCA TERMINATED NORMALLY****
TOTAL RUN TIME: 0 days 0 hours 2 minutes 59 seconds 866 msec
