                         Program Version 5.0.0 -  RELEASE  -
|  1> !wB97X-D3 RIJCOSX def2-TZVPD def2/J TightSCF xyzfile
|  2>
|  3> *xyzfile 0 1 D4.xyz
|  4>
|  5> %MaxCore 64000
|  6>
|  7> %pal nprocs 18
|  8> end
|  9>
| 10> %scf
| 11>   MaxIter 150
| 12> end
| 13>
| 14>
| 15>                          ****END OF INPUT****

CARTESIAN COORDINATES (ANGSTROEM)
---------------------------------
  C      2.234473   -2.989754   -2.397622
  C      2.756799   -2.945553   -3.765029
  C     -1.104325    0.251374   -2.860056
  C     -0.711893    0.842517   -4.218344
  H      0.154626    1.499800   -4.130909
  H     -1.538134    1.459222   -4.582671
  C     -0.397624   -0.205875   -5.288018
  C      1.987208   -2.590451   -4.818975
  N      0.743221   -3.017493   -4.913524
  N      2.499636   -1.848598   -5.803241
  H      3.309780   -1.292818   -5.558947
  H      1.801025   -1.304298   -6.289129
  H      3.716116   -2.628797   -3.829533
  H      0.395828   -3.627747   -4.185024
  H      0.039201   -2.454383   -5.371367
  O      0.617165   -0.005348   -5.998273
  F     -1.133173   -1.221380   -5.341465
  C      2.191199   -1.619503   -1.715492
  H      2.872783   -3.666368   -1.828014
  H      1.246188   -3.447444   -2.407842
  C      1.298729   -0.554314   -2.359773
  H      1.872917   -1.787955   -0.681310
  H      3.216809   -1.238432   -1.654428
  C     -0.196255   -0.863365   -2.325763
  H      1.612531   -0.371346   -3.393065
  H      1.480944    0.388638   -1.834444
  H     -0.404105   -1.761825   -2.909448
  H     -0.490439   -1.087880   -1.294131
  H     -1.143842    1.066711   -2.129680
  H     -2.114401   -0.156834   -2.930323

 Total Charge           Charge          ....    0
 Multiplicity           Mult            ....    1
 Number of Electrons    NEL             ....  102
 Basis Dimension        Dim             ....  640

ORBITAL ENERGIES
----------------

  NO   OCC          E(Eh)            E(eV)
   0   2.0000     -24.892473      -677.3586
   1   2.0000     -19.268591      -524.3250
   2   2.0000     -14.411946      -392.1690
   3   2.0000     -14.394249      -391.6874
   4   2.0000     -10.485693      -285.3302
   5   2.0000     -10.320632      -280.8387
   6   2.0000     -10.312455      -280.6162
   7   2.0000     -10.299361      -280.2599
   8   2.0000     -10.280441      -279.7450
   9   2.0000     -10.269312      -279.4422
  10   2.0000     -10.257481      -279.1202
  11   2.0000     -10.247193      -278.8403
  12   2.0000     -10.185342      -277.1573
  13   2.0000      -1.476233       -40.1703
  14   2.0000      -1.185635       -32.2628
  15   2.0000      -1.074023       -29.2256
  16   2.0000      -0.978355       -26.6224
  17   2.0000      -0.953654       -25.9502
  18   2.0000      -0.908391       -24.7186
  19   2.0000      -0.869420       -23.6581
  20   2.0000      -0.820667       -22.3315
  21   2.0000      -0.801696       -21.8153
  22   2.0000      -0.768886       -20.9225
  23   2.0000      -0.726302       -19.7637
  24   2.0000      -0.705989       -19.2109
  25   2.0000      -0.689375       -18.7588
  26   2.0000      -0.679757       -18.4971
  27   2.0000      -0.668267       -18.1845
  28   2.0000      -0.632929       -17.2229
  29   2.0000      -0.620695       -16.8900
  30   2.0000      -0.591459       -16.0944
  31   2.0000      -0.587619       -15.9899
  32   2.0000      -0.578097       -15.7308
  33   2.0000      -0.550400       -14.9771
  34   2.0000      -0.542125       -14.7520
  35   2.0000      -0.538106       -14.6426
  36   2.0000      -0.530018       -14.4225
  37   2.0000      -0.502956       -13.6861
  38   2.0000      -0.497184       -13.5291
  39   2.0000      -0.491265       -13.3680
  40   2.0000      -0.481586       -13.1046
  41   2.0000      -0.460564       -12.5326
  42   2.0000      -0.457338       -12.4448
  43   2.0000      -0.440598       -11.9893
  44   2.0000      -0.432846       -11.7783
  45   2.0000      -0.419748       -11.4219
  46   2.0000      -0.411194       -11.1892
  47   2.0000      -0.400413       -10.8958
  48   2.0000      -0.398188       -10.8352
  49   2.0000      -0.351717        -9.5707
  50   2.0000      -0.234215        -6.3733
  51   0.0000       0.026526         0.7218
  52   0.0000       0.053553         1.4573
  53   0.0000       0.069856         1.9009
  54   0.0000       0.075504         2.0546
  55   0.0000       0.081163         2.2086

MULLIKEN ATOMIC CHARGES
-----------------------
   0 C :   -0.254923
   1 C :   -0.938833
   2 C :   -0.670193
   3 C :   -0.410686
   4 H :    0.311337
   5 H :    0.311924
   6 C :    0.679670
   7 C :   -0.090442
   8 N :   -0.383980
   9 N :   -0.519830
  10 H :    0.247840
  11 H :    0.366911
  12 H :    0.468932
  13 H :    0.289686
  14 H :    0.314826
  15 O :   -0.669883
  16 F :   -0.338181
  17 C :   -0.841885
  18 H :    0.200104
  19 H :    0.372296
  20 C :   -0.320025
  21 H :    0.259695
  22 H :    0.323024
  23 C :   -0.362546
  24 H :    0.221678
  25 H :    0.375954
  26 H :    0.094999
  27 H :    0.344422
  28 H :    0.281911
  29 H :    0.336196
Sum of atomic charges:   -0.0000000

LOEWDIN ATOMIC CHARGES
----------------------
   0 C :   -0.243648
   1 C :   -0.131402
   2 C :   -0.196359
   3 C :   -0.092366
   4 H :    0.125797
   5 H :    0.127703
   6 C :   -0.446546
   7 C :   -0.545220
   8 N :    0.148648
   9 N :    0.123218
  10 H :    0.113727
  11 H :    0.054005
  12 H :    0.060576
  13 H :    0.111770
  14 H :    0.068596
  15 O :    0.068232
  16 F :    0.193614
  17 C :   -0.198362
  18 H :    0.102906
  19 H :    0.089670
  20 C :   -0.201624
  21 H :    0.106462
  22 H :    0.112009
  23 C :   -0.207132
  24 H :    0.101030
  25 H :    0.116923
  26 H :    0.089419
  27 H :    0.120352
  28 H :    0.117120
  29 H :    0.110879

  Mayer bond orders larger than 0.100000
B(  0-C ,  1-C ) :   0.7398 B(  0-C ,  7-C ) :   0.1091 B(  0-C , 17-C ) :   0.7564
B(  0-C , 18-H ) :   1.1014 B(  0-C , 19-H ) :   0.8277 B(  0-C , 23-C ) :   0.1254
B(  1-C ,  7-C ) :   1.6246 B(  1-C , 12-H ) :   0.8752 B(  1-C , 17-C ) :   0.2252
B(  2-C ,  3-C ) :   0.8558 B(  2-C ,  6-C ) :   0.1273 B(  2-C , 20-C ) :   0.2911
B(  2-C , 23-C ) :   0.8832 B(  2-C , 28-H ) :   0.9263 B(  2-C , 29-H ) :   0.9042
B(  3-C ,  4-H ) :   0.9437 B(  3-C ,  5-H ) :   0.8774 B(  3-C ,  6-C ) :   0.9546
B(  3-C , 20-C ) :   0.1664 B(  6-C , 15-O ) :   1.4887 B(  6-C , 16-F ) :   0.7814
B(  7-C ,  8-N ) :   1.1383 B(  7-C ,  9-N ) :   1.0618 B(  7-C , 12-H ) :  -0.1437
B(  7-C , 20-C ) :   0.1103 B(  8-N , 13-H ) :   0.8085 B(  8-N , 14-H ) :   0.6914
B(  9-N , 10-H ) :   0.8742 B(  9-N , 11-H ) :   0.6760 B( 17-C , 20-C ) :   1.0757
B( 17-C , 21-H ) :   0.9352 B( 17-C , 22-H ) :   0.9127 B( 17-C , 23-C ) :   0.4419
B( 17-C , 24-H ) :   0.1033 B( 20-C , 23-C ) :   0.3967 B( 20-C , 24-H ) :   1.1161
B( 20-C , 25-H ) :   0.7204 B( 20-C , 26-H ) :  -0.1301 B( 23-C , 26-H ) :   1.2239
B( 23-C , 27-H ) :   0.7922

Dispersion correction           -0.015911782
FINAL SINGLE POINT ENERGY      -637.802428043610

DIPOLE MOMENT
-------------
                                X             Y             Z
Electronic contribution:     -6.05594       0.25570     -13.41392
Nuclear contribution   :      4.38568       1.15960      13.97148
                        -----------------------------------------
Total Dipole Moment    :     -1.67026       1.41530       0.55756
                        -----------------------------------------
Magnitude (a.u.)       :      2.25914
Magnitude (Debye)      :      5.74228

Rotational constants in cm-1:     0.032892     0.023844     0.017123
Rotational constants in MHz :   986.091711   714.821905   513.334630

                             ****ORCA TERMINATED NORMALLY****
TOTAL RUN TIME: 0 days 0 hours 2 minutes 55 seconds 492 msec
