                         Program Version 5.0.0 -  RELEASE  -
|  1> !wB97X-D3 RIJCOSX def2-TZVPD def2/J TightSCF xyzfile
|  2>
|  3> *xyzfile 0 1 D5.xyz
|  4>
|  5> %MaxCore 64000
|  6>
|  7> %pal nprocs 18
|  8> end
|  9>
| 10> %scf
| 11>   MaxIter 150
| 12> end
| 13>
| 14>
| 15>                          ****END OF INPUT****

CARTESIAN COORDINATES (ANGSTROEM)
---------------------------------
  C      2.234473   -2.989754   -2.397622
  N      2.756799   -2.945553   -3.765029
  C     -1.104325    0.251374   -2.860056
  C     -0.711893    0.842517   -4.218344
  H      0.154626    1.499800   -4.130909
  H     -1.538134    1.459222   -4.582671
  C     -0.397624   -0.205875   -5.288018
  C      1.987208   -2.590451   -4.818975
  C      0.743221   -3.017493   -4.913524
  N      2.499636   -1.848598   -5.803241
  H      3.309780   -1.292818   -5.558947
  H      1.801025   -1.304298   -6.289129
  H      3.716116   -2.628797   -3.829533
  H      0.395828   -3.627747   -4.185024
  H      0.039201   -2.454383   -5.371367
  O      0.617165   -0.005348   -5.998273
  F     -1.133173   -1.221380   -5.341465
  C      2.191199   -1.619503   -1.715492
  H      2.872783   -3.666368   -1.828014
  H      1.246188   -3.447444   -2.407842
  C      1.298729   -0.554314   -2.359773
  H      1.872917   -1.787955   -0.681310
  H      3.216809   -1.238432   -1.654428
  C     -0.196255   -0.863365   -2.325763
  H      1.612531   -0.371346   -3.393065
  H      1.480944    0.388638   -1.834444
  H     -0.404105   -1.761825   -2.909448
  H     -0.490439   -1.087880   -1.294131
  H     -1.143842    1.066711   -2.129680
  H     -2.114401   -0.156834   -2.930323

 Total Charge           Charge          ....    0
 Multiplicity           Mult            ....    1
 Number of Electrons    NEL             ....  102
 Basis Dimension        Dim             ....  640

ORBITAL ENERGIES
----------------

  NO   OCC          E(Eh)            E(eV)
   0   2.0000     -24.864321      -676.5926
   1   2.0000     -19.251195      -523.8517
   2   2.0000     -14.415359      -392.2619
   3   2.0000     -14.393934      -391.6789
   4   2.0000     -10.469430      -284.8877
   5   2.0000     -10.311195      -280.5819
   6   2.0000     -10.309739      -280.5423
   7   2.0000     -10.304019      -280.3866
   8   2.0000     -10.293513      -280.1007
   9   2.0000     -10.276662      -279.6422
  10   2.0000     -10.276257      -279.6312
  11   2.0000     -10.276046      -279.6254
  12   2.0000     -10.173601      -276.8378
  13   2.0000      -1.449123       -39.4326
  14   2.0000      -1.168534       -31.7974
  15   2.0000      -1.072735       -29.1906
  16   2.0000      -0.990600       -26.9556
  17   2.0000      -0.946498       -25.7555
  18   2.0000      -0.902950       -24.5705
  19   2.0000      -0.850745       -23.1500
  20   2.0000      -0.820204       -22.3189
  21   2.0000      -0.800768       -21.7900
  22   2.0000      -0.773259       -21.0415
  23   2.0000      -0.730378       -19.8746
  24   2.0000      -0.695678       -18.9304
  25   2.0000      -0.678633       -18.4665
  26   2.0000      -0.660749       -17.9799
  27   2.0000      -0.648002       -17.6330
  28   2.0000      -0.631116       -17.1735
  29   2.0000      -0.621971       -16.9247
  30   2.0000      -0.590364       -16.0646
  31   2.0000      -0.584622       -15.9084
  32   2.0000      -0.576073       -15.6758
  33   2.0000      -0.551404       -15.0045
  34   2.0000      -0.544359       -14.8128
  35   2.0000      -0.520690       -14.1687
  36   2.0000      -0.513363       -13.9693
  37   2.0000      -0.509089       -13.8530
  38   2.0000      -0.490740       -13.3537
  39   2.0000      -0.486467       -13.2374
  40   2.0000      -0.473838       -12.8938
  41   2.0000      -0.467392       -12.7184
  42   2.0000      -0.454335       -12.3631
  43   2.0000      -0.452457       -12.3120
  44   2.0000      -0.438564       -11.9339
  45   2.0000      -0.424109       -11.5406
  46   2.0000      -0.422912       -11.5080
  47   2.0000      -0.413361       -11.2481
  48   2.0000      -0.396602       -10.7921
  49   2.0000      -0.331065        -9.0087
  50   2.0000      -0.252706        -6.8765
  51   0.0000       0.041991         1.1426
  52   0.0000       0.059350         1.6150
  53   0.0000       0.070281         1.9124
  54   0.0000       0.073494         1.9999
  55   0.0000       0.083069         2.2604

MULLIKEN ATOMIC CHARGES
-----------------------
   0 C :   -0.753228
   1 N :   -0.112427
   2 C :   -0.709669
   3 C :   -0.437414
   4 H :    0.307523
   5 H :    0.325537
   6 C :    0.665904
   7 C :    0.236982
   8 C :   -1.662742
   9 N :   -0.448857
  10 H :    0.249274
  11 H :    0.304286
  12 H :    0.279485
  13 H :    0.642931
  14 H :    0.608927
  15 O :   -0.690777
  16 F :   -0.298853
  17 C :   -0.628085
  18 H :    0.247353
  19 H :    0.284308
  20 C :   -0.306664
  21 H :    0.290387
  22 H :    0.267785
  23 C :   -0.302294
  24 H :    0.210880
  25 H :    0.396351
  26 H :    0.066597
  27 H :    0.346431
  28 H :    0.273598
  29 H :    0.346472
Sum of atomic charges:   -0.0000000

LOEWDIN ATOMIC CHARGES
----------------------
   0 C :   -0.189165
   1 N :    0.027485
   2 C :   -0.194866
   3 C :   -0.092793
   4 H :    0.123545
   5 H :    0.126591
   6 C :   -0.447924
   7 C :   -0.551099
   8 C :    0.009546
   9 N :    0.120726
  10 H :    0.102603
  11 H :    0.061015
  12 H :    0.131289
  13 H :    0.025600
  14 H :   -0.001436
  15 O :    0.061401
  16 F :    0.186507
  17 C :   -0.185571
  18 H :    0.113848
  19 H :    0.104125
  20 C :   -0.201689
  21 H :    0.110873
  22 H :    0.108552
  23 C :   -0.205691
  24 H :    0.100530
  25 H :    0.117331
  26 H :    0.092337
  27 H :    0.119099
  28 H :    0.115251
  29 H :    0.111979

  Mayer bond orders larger than 0.100000
B(  0-C ,  1-N ) :   0.8575 B(  0-C ,  7-C ) :   0.1233 B(  0-C ,  8-C ) :   0.1028
B(  0-C , 17-C ) :   0.7905 B(  0-C , 18-H ) :   0.9967 B(  0-C , 19-H ) :   0.9104
B(  0-C , 23-C ) :   0.1325 B(  1-N ,  7-C ) :   1.0939 B(  1-N , 12-H ) :   0.7986
B(  2-C ,  3-C ) :   0.8679 B(  2-C ,  6-C ) :   0.1261 B(  2-C , 20-C ) :   0.3048
B(  2-C , 23-C ) :   0.9068 B(  2-C , 28-H ) :   0.9402 B(  2-C , 29-H ) :   0.8850
B(  3-C ,  4-H ) :   0.9583 B(  3-C ,  5-H ) :   0.8638 B(  3-C ,  6-C ) :   0.9500
B(  3-C , 20-C ) :   0.1677 B(  6-C , 15-O ) :   1.4505 B(  6-C , 16-F ) :   0.8781
B(  7-C ,  8-C ) :   1.5383 B(  7-C ,  9-N ) :   0.9367 B(  7-C , 14-H ) :  -0.1692
B(  7-C , 20-C ) :   0.1034 B(  8-C , 13-H ) :   0.6785 B(  8-C , 14-H ) :   0.5309
B(  8-C , 20-C ) :   0.1077 B(  9-N , 10-H ) :   0.8429 B(  9-N , 11-H ) :   0.7467
B( 13-H , 14-H ) :   0.1762 B( 17-C , 20-C ) :   0.9521 B( 17-C , 21-H ) :   0.9451
B( 17-C , 22-H ) :   0.9472 B( 17-C , 23-C ) :   0.3987 B( 20-C , 23-C ) :   0.4093
B( 20-C , 24-H ) :   1.1266 B( 20-C , 25-H ) :   0.6918 B( 20-C , 26-H ) :  -0.1173
B( 23-C , 26-H ) :   1.2263 B( 23-C , 27-H ) :   0.7861

Dispersion correction           -0.015816978
FINAL SINGLE POINT ENERGY      -637.793239515447

DIPOLE MOMENT
-------------
                                X             Y             Z
Electronic contribution:     -4.38959       0.22267     -12.39235
Nuclear contribution   :      4.07548       1.14852      13.79455
                        -----------------------------------------
Total Dipole Moment    :     -0.31410       1.37119       1.40220
                        -----------------------------------------
Magnitude (a.u.)       :      1.98620
Magnitude (Debye)      :      5.04851

Rotational constants in cm-1:     0.033274     0.023559     0.016968
Rotational constants in MHz :   997.539108   706.293545   508.690532

                             ****ORCA TERMINATED NORMALLY****
TOTAL RUN TIME: 0 days 0 hours 2 minutes 52 seconds 247 msec
