                         Program Version 5.0.0 -  RELEASE  -
|  1> !wB97X-D3 RIJCOSX def2-TZVPD def2/J TightSCF xyzfile
|  2>
|  3> *xyzfile 0 1 D6.xyz
|  4>
|  5> %MaxCore 64000
|  6>
|  7> %pal nprocs 18
|  8> end
|  9>
| 10> %scf
| 11>   MaxIter 150
| 12> end
| 13>
| 14>
| 15>                          ****END OF INPUT****

CARTESIAN COORDINATES (ANGSTROEM)
---------------------------------
  C      2.234473   -2.989754   -2.397622
  N      2.756799   -2.945553   -3.765029
  C     -1.104325    0.251374   -2.860056
  C     -0.711893    0.842517   -4.218344
  H      0.154626    1.499800   -4.130909
  H     -1.538134    1.459222   -4.582671
  C     -0.397624   -0.205875   -5.288018
  C      1.987208   -2.590451   -4.818975
  N      0.743221   -3.017493   -4.913524
  C      2.499636   -1.848598   -5.803241
  H      3.309780   -1.292818   -5.558947
  H      1.801025   -1.304298   -6.289129
  H      3.716116   -2.628797   -3.829533
  H      0.395828   -3.627747   -4.185024
  H      0.039201   -2.454383   -5.371367
  O      0.617165   -0.005348   -5.998273
  F     -1.133173   -1.221380   -5.341465
  C      2.191199   -1.619503   -1.715492
  H      2.872783   -3.666368   -1.828014
  H      1.246188   -3.447444   -2.407842
  C      1.298729   -0.554314   -2.359773
  H      1.872917   -1.787955   -0.681310
  H      3.216809   -1.238432   -1.654428
  C     -0.196255   -0.863365   -2.325763
  H      1.612531   -0.371346   -3.393065
  H      1.480944    0.388638   -1.834444
  H     -0.404105   -1.761825   -2.909448
  H     -0.490439   -1.087880   -1.294131
  H     -1.143842    1.066711   -2.129680
  H     -2.114401   -0.156834   -2.930323

 Total Charge           Charge          ....    0
 Multiplicity           Mult            ....    1
 Number of Electrons    NEL             ....  102
 Basis Dimension        Dim             ....  640

ORBITAL ENERGIES
----------------

  NO   OCC          E(Eh)            E(eV)
   0   2.0000     -24.878604      -676.9812
   1   2.0000     -19.248149      -523.7688
   2   2.0000     -14.412957      -392.1965
   3   2.0000     -14.408830      -392.0842
   4   2.0000     -10.466357      -284.8041
   5   2.0000     -10.312714      -280.6232
   6   2.0000     -10.310323      -280.5581
   7   2.0000     -10.309704      -280.5413
   8   2.0000     -10.297768      -280.2165
   9   2.0000     -10.284938      -279.8674
  10   2.0000     -10.279126      -279.7092
  11   2.0000     -10.277930      -279.6767
  12   2.0000     -10.161062      -276.4966
  13   2.0000      -1.462743       -39.8032
  14   2.0000      -1.164610       -31.6907
  15   2.0000      -1.077697       -29.3256
  16   2.0000      -0.996183       -27.1075
  17   2.0000      -0.951197       -25.8834
  18   2.0000      -0.907790       -24.7022
  19   2.0000      -0.858641       -23.3648
  20   2.0000      -0.824209       -22.4279
  21   2.0000      -0.795652       -21.6508
  22   2.0000      -0.775024       -21.0895
  23   2.0000      -0.728925       -19.8351
  24   2.0000      -0.712271       -19.3819
  25   2.0000      -0.691117       -18.8062
  26   2.0000      -0.672063       -18.2878
  27   2.0000      -0.666226       -18.1289
  28   2.0000      -0.632720       -17.2172
  29   2.0000      -0.614890       -16.7320
  30   2.0000      -0.596138       -16.2217
  31   2.0000      -0.584123       -15.8948
  32   2.0000      -0.571738       -15.5578
  33   2.0000      -0.561738       -15.2857
  34   2.0000      -0.546597       -14.8737
  35   2.0000      -0.537732       -14.6324
  36   2.0000      -0.513969       -13.9858
  37   2.0000      -0.508409       -13.8345
  38   2.0000      -0.487158       -13.2563
  39   2.0000      -0.481056       -13.0902
  40   2.0000      -0.477888       -13.0040
  41   2.0000      -0.468130       -12.7385
  42   2.0000      -0.463081       -12.6011
  43   2.0000      -0.456239       -12.4149
  44   2.0000      -0.433430       -11.7942
  45   2.0000      -0.427520       -11.6334
  46   2.0000      -0.425583       -11.5807
  47   2.0000      -0.418259       -11.3814
  48   2.0000      -0.381957       -10.3936
  49   2.0000      -0.337851        -9.1934
  50   2.0000      -0.241990        -6.5849
  51   0.0000       0.041458         1.1281
  52   0.0000       0.056641         1.5413
  53   0.0000       0.068489         1.8637
  54   0.0000       0.070582         1.9206
  55   0.0000       0.078720         2.1421

MULLIKEN ATOMIC CHARGES
-----------------------
   0 C :   -0.747373
   1 N :   -0.149102
   2 C :   -0.668041
   3 C :   -0.417580
   4 H :    0.303743
   5 H :    0.312995
   6 C :    0.592682
   7 C :    0.220148
   8 N :   -0.365218
   9 C :   -1.423058
  10 H :    0.313303
  11 H :    0.624474
  12 H :    0.296405
  13 H :    0.317658
  14 H :    0.269970
  15 O :   -0.597551
  16 F :   -0.353455
  17 C :   -0.679931
  18 H :    0.251584
  19 H :    0.296638
  20 C :   -0.247403
  21 H :    0.289763
  22 H :    0.278524
  23 C :   -0.361942
  24 H :    0.199137
  25 H :    0.386196
  26 H :    0.094549
  27 H :    0.343032
  28 H :    0.278732
  29 H :    0.341123
Sum of atomic charges:    0.0000000

LOEWDIN ATOMIC CHARGES
----------------------
   0 C :   -0.194488
   1 N :    0.027389
   2 C :   -0.196843
   3 C :   -0.093068
   4 H :    0.125538
   5 H :    0.126313
   6 C :   -0.453173
   7 C :   -0.559765
   8 N :    0.144009
   9 C :   -0.003846
  10 H :    0.020705
  11 H :   -0.018343
  12 H :    0.137477
  13 H :    0.103164
  14 H :    0.076085
  15 O :    0.072097
  16 F :    0.188277
  17 C :   -0.185778
  18 H :    0.112922
  19 H :    0.099547
  20 C :   -0.198658
  21 H :    0.109784
  22 H :    0.111569
  23 C :   -0.209150
  24 H :    0.104795
  25 H :    0.118808
  26 H :    0.088690
  27 H :    0.118825
  28 H :    0.116163
  29 H :    0.110955

  Mayer bond orders larger than 0.100000
B(  0-C ,  1-N ) :   0.9527 B(  0-C ,  8-N ) :   0.1185 B(  0-C , 17-C ) :   0.7745
B(  0-C , 18-H ) :   1.0140 B(  0-C , 19-H ) :   0.9022 B(  0-C , 23-C ) :   0.1124
B(  1-N ,  7-C ) :   1.1087 B(  1-N , 12-H ) :   0.7698 B(  2-C ,  3-C ) :   0.8645
B(  2-C ,  6-C ) :   0.1188 B(  2-C , 20-C ) :   0.2987 B(  2-C , 23-C ) :   0.8984
B(  2-C , 28-H ) :   0.9324 B(  2-C , 29-H ) :   0.8970 B(  3-C ,  4-H ) :   0.9440
B(  3-C ,  5-H ) :   0.8778 B(  3-C ,  6-C ) :   0.9662 B(  3-C , 20-C ) :   0.1529
B(  6-C , 15-O ) :   1.5984 B(  6-C , 16-F ) :   0.7526 B(  7-C ,  8-N ) :   1.0030
B(  7-C ,  9-C ) :   1.3311 B(  7-C , 10-H ) :  -0.1590 B(  7-C , 11-H ) :  -0.1152
B(  8-N , 13-H ) :   0.7563 B(  8-N , 14-H ) :   0.7189 B(  9-C , 10-H ) :   1.1889
B(  9-C , 11-H ) :   0.5921 B( 11-H , 15-O ) :  -0.1170 B( 17-C , 20-C ) :   0.9823
B( 17-C , 21-H ) :   0.9628 B( 17-C , 22-H ) :   0.9326 B( 17-C , 23-C ) :   0.4285
B( 17-C , 24-H ) :   0.1045 B( 20-C , 23-C ) :   0.3353 B( 20-C , 24-H ) :   1.1266
B( 20-C , 25-H ) :   0.7043 B( 20-C , 26-H ) :  -0.1490 B( 23-C , 26-H ) :   1.2140
B( 23-C , 27-H ) :   0.7998

Dispersion correction           -0.015903772
FINAL SINGLE POINT ENERGY      -637.777871395858

DIPOLE MOMENT
-------------
                                X             Y             Z
Electronic contribution:     -5.74272      -0.67546     -11.67848
Nuclear contribution   :      4.34606       1.32859      13.65749
                        -----------------------------------------
Total Dipole Moment    :     -1.39665       0.65313       1.97901
                        -----------------------------------------
Magnitude (a.u.)       :      2.50873
Magnitude (Debye)      :      6.37667

Rotational constants in cm-1:     0.033551     0.023540     0.017085
Rotational constants in MHz :  1005.818710   705.725032   512.192443

                             ****ORCA TERMINATED NORMALLY****
TOTAL RUN TIME: 0 days 0 hours 2 minutes 37 seconds 28 msec
