                         Program Version 5.0.0 -  RELEASE  -
|  1> !DLPNO-CCSD(T) aug-cc-pVTZ aug-cc-pVTZ/C TightSCF TightPNO RIJCOSX def2/J
|  2> *xyz -1 1
|  3> C          4.90646       -3.10282       -5.95484
|  4> C          3.51177       -2.80621       -6.49228
|  5> H          2.73604       -3.37345       -5.97374
|  6> H          3.44490       -3.04083       -7.55528
|  7> S          3.00462       -1.09621       -6.38926
|  8> O          4.12886       -0.32965       -6.95372
|  9> O          1.78128       -1.00078       -7.13640
| 10> O          2.85155       -0.78368       -4.95679
| 11> H          5.62703       -2.52424       -6.49422
| 12> H          5.12164       -4.14387       -6.07654
| 13> H          4.95004       -2.84862       -4.91639
| 14> *
| 15>
| 16> %MaxCore 64000
| 17>
| 18> %pal nprocs 18
| 19> end
| 20>
| 21> %scf
| 22>   MaxIter 150
| 23> end
| 24>
| 25>
| 26>                          ****END OF INPUT****

CARTESIAN COORDINATES (ANGSTROEM)
---------------------------------
  C      4.906460   -3.102820   -5.954840
  C      3.511770   -2.806210   -6.492280
  H      2.736040   -3.373450   -5.973740
  H      3.444900   -3.040830   -7.555280
  S      3.004620   -1.096210   -6.389260
  O      4.128860   -0.329650   -6.953720
  O      1.781280   -1.000780   -7.136400
  O      2.851550   -0.783680   -4.956790
  H      5.627030   -2.524240   -6.494220
  H      5.121640   -4.143870   -6.076540
  H      4.950040   -2.848620   -4.916390

 Total Charge           Charge          ....   -1
 Multiplicity           Mult            ....    1
 Number of Electrons    NEL             ....   58
 Basis Dimension        Dim             ....  395

ORBITAL ENERGIES
----------------

  NO   OCC          E(Eh)            E(eV)
   0   2.0000     -91.981358     -2502.9400
   1   2.0000     -20.334910      -553.3410
   2   2.0000     -20.322435      -553.0016
   3   2.0000     -20.322339      -552.9990
   4   2.0000     -11.095806      -301.9322
   5   2.0000     -11.083621      -301.6007
   6   2.0000      -8.944924      -243.4038
   7   2.0000      -6.630964      -180.4377
   8   2.0000      -6.629845      -180.4072
   9   2.0000      -6.629757      -180.4049
  10   2.0000      -1.270010       -34.5587
  11   2.0000      -1.125794       -30.6344
  12   2.0000      -1.103207       -30.0198
  13   2.0000      -0.909688       -24.7539
  14   2.0000      -0.751086       -20.4381
  15   2.0000      -0.595670       -16.2090
  16   2.0000      -0.500152       -13.6098
  17   2.0000      -0.494596       -13.4586
  18   2.0000      -0.457282       -12.4433
  19   2.0000      -0.445287       -12.1169
  20   2.0000      -0.424897       -11.5620
  21   2.0000      -0.385154       -10.4806
  22   2.0000      -0.369722       -10.0606
  23   2.0000      -0.320847        -8.7307
  24   2.0000      -0.318573        -8.6688
  25   2.0000      -0.276282        -7.5180
  26   2.0000      -0.264159        -7.1881
  27   2.0000      -0.250766        -6.8237
  28   2.0000      -0.227402        -6.1879
  29   0.0000       0.112958         3.0738
  30   0.0000       0.132454         3.6042
  31   0.0000       0.134369         3.6564
  32   0.0000       0.145616         3.9624
  33   0.0000       0.154726         4.2103

MULLIKEN ATOMIC CHARGES
-----------------------
   0 C :   -0.973163
   1 C :   -0.563914
   2 H :    0.275674
   3 H :    0.284913
   4 S :    2.149689
   5 O :   -1.043919
   6 O :   -1.028805
   7 O :   -1.026551
   8 H :    0.320184
   9 H :    0.266523
  10 H :    0.339369
Sum of atomic charges:   -1.0000000

LOEWDIN ATOMIC CHARGES
----------------------
   0 C :    0.532884
   1 C :    0.106847
   2 H :   -0.207295
   3 H :   -0.215041
   4 S :   -0.409582
   5 O :   -0.066903
   6 O :   -0.049798
   7 O :   -0.076369
   8 H :   -0.208811
   9 H :   -0.206351
  10 H :   -0.199582

  Mayer bond orders larger than 0.100000
B(  0-C ,  1-C ) :   0.8877 B(  0-C ,  8-H ) :   0.9218 B(  0-C ,  9-H ) :   0.9810
B(  0-C , 10-H ) :   0.8881 B(  1-C ,  2-H ) :   0.9171 B(  1-C ,  3-H ) :   0.9207
B(  1-C ,  4-S ) :   0.7965 B(  4-S ,  5-O ) :   1.3384 B(  4-S ,  6-O ) :   1.3796
B(  4-S ,  7-O ) :   1.3257

E(0)                                       ...   -700.925505360
E(0)                                       ...   -700.925505360
E(CORR)(strong-pairs)                      ...     -1.302180403
E(CORR)(weak-pairs)                        ...     -0.001277723
E(CORR)(corrected)                         ...     -1.303458126
E(TOT)                                     ...   -702.228963487
E(CCSD(T))                                 ...   -702.284564903
FINAL SINGLE POINT ENERGY      -702.284564903092

DIPOLE MOMENT
-------------
                                X             Y             Z
Electronic contribution:     -4.28208       6.18169      -0.66969
Nuclear contribution   :      5.05690      -8.21735       0.57889
                        -----------------------------------------
Total Dipole Moment    :      0.77482      -2.03567      -0.09079
                        -----------------------------------------
Magnitude (a.u.)       :      2.18003
Magnitude (Debye)      :      5.54120

Rotational constants in cm-1:     0.162547     0.083494     0.081672
Rotational constants in MHz :  4873.033504  2503.090885  2448.458543

                             ****ORCA TERMINATED NORMALLY****
TOTAL RUN TIME: 0 days 0 hours 6 minutes 16 seconds 177 msec
