                         Program Version 5.0.0 -  RELEASE  -
|  1> !DLPNO-CCSD(T) aug-cc-pVTZ aug-cc-pVTZ/C TightSCF TightPNO RIJCOSX def2/J
|  2> *xyz 1 1
|  3> C          4.49059        1.15590       -2.46929
|  4> N          4.30539        1.22276       -3.90832
|  5> C          4.63192        2.24637       -4.67096
|  6> N          4.54169        2.14399       -5.98714
|  7> N          5.08409        3.39358       -4.11855
|  8> H          4.92067        3.57050       -3.13587
|  9> H          5.25465        4.19739       -4.70696
| 10> H          3.82453        0.44911       -4.35093
| 11> H          4.34337        1.24932       -6.41665
| 12> H          4.67671        2.95662       -6.57411
| 13> C          5.94213        0.93950       -2.03689
| 14> H          3.86431        0.32853       -2.13661
| 15> H          4.07623        2.04999       -1.98901
| 16> H          6.32982        0.06401       -2.51451
| 17> H          5.98308        0.81426       -0.97504
| 18> H          6.52865        1.78889       -2.31873
| 19> *
| 20>
| 21> %MaxCore 64000
| 22>
| 23> %pal nprocs 18
| 24> end
| 25>
| 26> %scf
| 27>   MaxIter 150
| 28> end
| 29>
| 30>
| 31>                          ****END OF INPUT****

CARTESIAN COORDINATES (ANGSTROEM)
---------------------------------
  C      4.490590    1.155900   -2.469290
  N      4.305390    1.222760   -3.908320
  C      4.631920    2.246370   -4.670960
  N      4.541690    2.143990   -5.987140
  N      5.084090    3.393580   -4.118550
  H      4.920670    3.570500   -3.135870
  H      5.254650    4.197390   -4.706960
  H      3.824530    0.449110   -4.350930
  H      4.343370    1.249320   -6.416650
  H      4.676710    2.956620   -6.574110
  C      5.942130    0.939500   -2.036890
  H      3.864310    0.328530   -2.136610
  H      4.076230    2.049990   -1.989010
  H      6.329820    0.064010   -2.514510
  H      5.983080    0.814260   -0.975040
  H      6.528650    1.788890   -2.318730

 Total Charge           Charge          ....    1
 Multiplicity           Mult            ....    1
 Number of Electrons    NEL             ....   48
 Basis Dimension        Dim             ....  506

ORBITAL ENERGIES
----------------

  NO   OCC          E(Eh)            E(eV)
   0   2.0000     -15.786632      -429.5761
   1   2.0000     -15.783584      -429.4932
   2   2.0000     -15.783501      -429.4909
   3   2.0000     -11.588032      -315.3264
   4   2.0000     -11.432882      -311.1045
   5   2.0000     -11.355114      -308.9884
   6   2.0000      -1.541411       -41.9439
   7   2.0000      -1.406376       -38.2694
   8   2.0000      -1.386882       -37.7390
   9   2.0000      -1.189431       -32.3661
  10   2.0000      -1.069740       -29.1091
  11   2.0000      -1.011379       -27.5210
  12   2.0000      -0.975580       -26.5469
  13   2.0000      -0.931768       -25.3547
  14   2.0000      -0.863206       -23.4890
  15   2.0000      -0.859229       -23.3808
  16   2.0000      -0.827717       -22.5233
  17   2.0000      -0.787847       -21.4384
  18   2.0000      -0.765277       -20.8242
  19   2.0000      -0.708480       -19.2787
  20   2.0000      -0.681503       -18.5446
  21   2.0000      -0.658226       -17.9112
  22   2.0000      -0.621377       -16.9085
  23   2.0000      -0.583562       -15.8795
  24   0.0000      -0.093688        -2.5494
  25   0.0000      -0.075577        -2.0565
  26   0.0000      -0.068827        -1.8729
  27   0.0000      -0.060132        -1.6363
  28   0.0000      -0.048998        -1.3333

MULLIKEN ATOMIC CHARGES
-----------------------
   0 C :   -0.343942
   1 N :   -0.075283
   2 C :    0.538758
   3 N :   -0.419404
   4 N :   -0.268573
   5 H :    0.195462
   6 H :    0.176523
   7 H :    0.177907
   8 H :    0.151423
   9 H :    0.155208
  10 C :   -0.869934
  11 H :    0.393145
  12 H :    0.246455
  13 H :    0.271406
  14 H :    0.344576
  15 H :    0.326272
Sum of atomic charges:    1.0000000

LOEWDIN ATOMIC CHARGES
----------------------
   0 C :    0.230946
   1 N :    0.615704
   2 C :   -0.365679
   3 N :    0.933461
   4 N :    0.944252
   5 H :   -0.274859
   6 H :   -0.241645
   7 H :   -0.228884
   8 H :   -0.236004
   9 H :   -0.238472
  10 C :    0.644961
  11 H :   -0.126509
  12 H :   -0.137590
  13 H :   -0.169364
  14 H :   -0.164494
  15 H :   -0.185823

  Mayer bond orders larger than 0.100000
B(  0-C ,  1-N ) :   0.8368 B(  0-C ,  2-C ) :  -0.1686 B(  0-C , 10-C ) :   0.8642
B(  0-C , 11-H ) :   0.8659 B(  0-C , 12-H ) :   0.9538 B(  1-N ,  2-C ) :   1.0142
B(  1-N ,  7-H ) :   1.0276 B(  2-C ,  3-N ) :   1.0192 B(  2-C ,  4-N ) :   0.9769
B(  3-N ,  4-N ) :  -0.1002 B(  3-N ,  8-H ) :   1.0849 B(  3-N ,  9-H ) :   1.0837
B(  4-N ,  5-H ) :   1.0380 B(  4-N ,  6-H ) :   1.0011 B( 10-C , 13-H ) :   0.9735
B( 10-C , 14-H ) :   0.8913 B( 10-C , 15-H ) :   0.9209

E(0)                                       ...   -282.708558308
E(0)                                       ...   -282.708558308
E(CORR)(strong-pairs)                      ...     -1.182494125
E(CORR)(weak-pairs)                        ...     -0.001273453
E(CORR)(corrected)                         ...     -1.183767578
E(TOT)                                     ...   -283.892325885
E(CCSD(T))                                 ...   -283.939610344
FINAL SINGLE POINT ENERGY      -283.939610343862

DIPOLE MOMENT
-------------
                                X             Y             Z
Electronic contribution:     -1.82601       1.60130      -4.48647
Nuclear contribution   :      1.34333      -1.11039       3.43667
                        -----------------------------------------
Total Dipole Moment    :     -0.48268       0.49090      -1.04980
                        -----------------------------------------
Magnitude (a.u.)       :      1.25541
Magnitude (Debye)      :      3.19100

Rotational constants in cm-1:     0.227161     0.075356     0.065003
Rotational constants in MHz :  6810.114531  2259.122204  1948.738523

                             ****ORCA TERMINATED NORMALLY****
TOTAL RUN TIME: 0 days 0 hours 11 minutes 30 seconds 742 msec
