                         Program Version 5.0.0 -  RELEASE  -
|  1> !DLPNO-CCSD(T) aug-cc-pVTZ aug-cc-pVTZ/C TightSCF TightPNO RIJCOSX def2/J
|  2> *xyz 0 1
|  3> C          4.90646       -3.10282       -5.95484
|  4> C          3.51177       -2.80621       -6.49228
|  5> H          2.73604       -3.37345       -5.97374
|  6> H          3.44490       -3.04083       -7.55528
|  7> S          3.00462       -1.09621       -6.38926
|  8> F          4.12886       -0.32965       -6.95372
|  9> O          1.78128       -1.00078       -7.13640
| 10> O          2.85155       -0.78368       -4.95679
| 11> H          5.62703       -2.52424       -6.49422
| 12> H          5.12164       -4.14387       -6.07654
| 13> H          4.95004       -2.84862       -4.91639
| 14> *
| 15>
| 16> %MaxCore 64000
| 17>
| 18> %pal nprocs 18
| 19> end
| 20>
| 21> %scf
| 22>   MaxIter 150
| 23> end
| 24>
| 25>
| 26>                          ****END OF INPUT****

CARTESIAN COORDINATES (ANGSTROEM)
---------------------------------
  C      4.906460   -3.102820   -5.954840
  C      3.511770   -2.806210   -6.492280
  H      2.736040   -3.373450   -5.973740
  H      3.444900   -3.040830   -7.555280
  S      3.004620   -1.096210   -6.389260
  F      4.128860   -0.329650   -6.953720
  O      1.781280   -1.000780   -7.136400
  O      2.851550   -0.783680   -4.956790
  H      5.627030   -2.524240   -6.494220
  H      5.121640   -4.143870   -6.076540
  H      4.950040   -2.848620   -4.916390

 Total Charge           Charge          ....    0
 Multiplicity           Mult            ....    1
 Number of Electrons    NEL             ....   58
 Basis Dimension        Dim             ....  395

ORBITAL ENERGIES
----------------

  NO   OCC          E(Eh)            E(eV)
   0   2.0000     -92.249660     -2510.2409
   1   2.0000     -26.418300      -718.8785
   2   2.0000     -20.571513      -559.7793
   3   2.0000     -20.558495      -559.4251
   4   2.0000     -11.298909      -307.4590
   5   2.0000     -11.252758      -306.2031
   6   2.0000      -9.213126      -250.7019
   7   2.0000      -6.900793      -187.7801
   8   2.0000      -6.896651      -187.6674
   9   2.0000      -6.895906      -187.6471
  10   2.0000      -1.774933       -48.2984
  11   2.0000      -1.458115       -39.6773
  12   2.0000      -1.348248       -36.6877
  13   2.0000      -1.107841       -30.1459
  14   2.0000      -0.979005       -26.6401
  15   2.0000      -0.913429       -24.8557
  16   2.0000      -0.816853       -22.2277
  17   2.0000      -0.810307       -22.0496
  18   2.0000      -0.756732       -20.5917
  19   2.0000      -0.676410       -18.4060
  20   2.0000      -0.665592       -18.1117
  21   2.0000      -0.636950       -17.3323
  22   2.0000      -0.607129       -16.5208
  23   2.0000      -0.574407       -15.6304
  24   2.0000      -0.559650       -15.2289
  25   2.0000      -0.545120       -14.8335
  26   2.0000      -0.502419       -13.6715
  27   2.0000      -0.481891       -13.1129
  28   2.0000      -0.479770       -13.0552
  29   0.0000       0.021873         0.5952
  30   0.0000       0.036479         0.9926
  31   0.0000       0.038441         1.0460
  32   0.0000       0.047573         1.2945
  33   0.0000       0.061464         1.6725

MULLIKEN ATOMIC CHARGES
-----------------------
   0 C :   -0.963287
   1 C :   -0.506991
   2 H :    0.325897
   3 H :    0.316909
   4 S :    2.125430
   5 F :   -0.510897
   6 O :   -0.879513
   7 O :   -0.880589
   8 H :    0.313480
   9 H :    0.306590
  10 H :    0.352972
Sum of atomic charges:    0.0000000

LOEWDIN ATOMIC CHARGES
----------------------
   0 C :    0.572980
   1 C :    0.165997
   2 H :   -0.173465
   3 H :   -0.197555
   4 S :   -0.118874
   5 F :    0.266777
   6 O :    0.034252
   7 O :    0.009949
   8 H :   -0.194103
   9 H :   -0.178332
  10 H :   -0.187626

  Mayer bond orders larger than 0.100000
B(  0-C ,  1-C ) :   0.8929 B(  0-C ,  8-H ) :   0.9269 B(  0-C ,  9-H ) :   0.9613
B(  0-C , 10-H ) :   0.8740 B(  1-C ,  2-H ) :   0.8730 B(  1-C ,  3-H ) :   0.8997
B(  1-C ,  4-S ) :   0.8867 B(  4-S ,  5-F ) :   0.5837 B(  4-S ,  6-O ) :   1.5695
B(  4-S ,  7-O ) :   1.5110

E(0)                                       ...   -725.435556823
E(0)                                       ...   -725.435556823
E(CORR)(strong-pairs)                      ...     -1.306396600
E(CORR)(weak-pairs)                        ...     -0.001254863
E(CORR)(corrected)                         ...     -1.307651463
E(TOT)                                     ...   -726.743208286
E(CCSD(T))                                 ...   -726.796181184
FINAL SINGLE POINT ENERGY      -726.796181183879

DIPOLE MOMENT
-------------
                                X             Y             Z
Electronic contribution:     -2.83711       8.05337      -1.80777
Nuclear contribution   :      4.18919      -9.36357       1.23251
                        -----------------------------------------
Total Dipole Moment    :      1.35208      -1.31020      -0.57526
                        -----------------------------------------
Magnitude (a.u.)       :      1.96867
Magnitude (Debye)      :      5.00396

Rotational constants in cm-1:     0.153152     0.082513     0.079874
Rotational constants in MHz :  4591.373714  2473.673397  2394.575279

                             ****ORCA TERMINATED NORMALLY****
TOTAL RUN TIME: 0 days 0 hours 5 minutes 38 seconds 548 msec
