                         Program Version 5.0.0 -  RELEASE  -
|  1> !DLPNO-CCSD(T) aug-cc-pVTZ aug-cc-pVTZ/C TightSCF TightPNO RIJCOSX def2/J
|  2> *xyz 0 1
|  3> C          4.49059        1.15590       -2.46929
|  4> C          4.30539        1.22276       -3.90832
|  5> C          4.63192        2.24637       -4.67096
|  6> N          4.54169        2.14399       -5.98714
|  7> N          5.08409        3.39358       -4.11855
|  8> H          4.92067        3.57050       -3.13587
|  9> H          5.25465        4.19739       -4.70696
| 10> H          3.82453        0.44911       -4.35093
| 11> H          4.34337        1.24932       -6.41665
| 12> H          4.67671        2.95662       -6.57411
| 13> C          5.94213        0.93950       -2.03689
| 14> H          3.86431        0.32853       -2.13661
| 15> H          4.07623        2.04999       -1.98901
| 16> H          6.32982        0.06401       -2.51451
| 17> H          5.98308        0.81426       -0.97504
| 18> H          6.52865        1.78889       -2.31873
| 19> *
| 20>
| 21> %MaxCore 64000
| 22>
| 23> %pal nprocs 18
| 24> end
| 25>
| 26> %scf
| 27>   MaxIter 150
| 28> end
| 29>
| 30>
| 31>                          ****END OF INPUT****

CARTESIAN COORDINATES (ANGSTROEM)
---------------------------------
  C      4.490590    1.155900   -2.469290
  C      4.305390    1.222760   -3.908320
  C      4.631920    2.246370   -4.670960
  N      4.541690    2.143990   -5.987140
  N      5.084090    3.393580   -4.118550
  H      4.920670    3.570500   -3.135870
  H      5.254650    4.197390   -4.706960
  H      3.824530    0.449110   -4.350930
  H      4.343370    1.249320   -6.416650
  H      4.676710    2.956620   -6.574110
  C      5.942130    0.939500   -2.036890
  H      3.864310    0.328530   -2.136610
  H      4.076230    2.049990   -1.989010
  H      6.329820    0.064010   -2.514510
  H      5.983080    0.814260   -0.975040
  H      6.528650    1.788890   -2.318730

 Total Charge           Charge          ....    0
 Multiplicity           Mult            ....    1
 Number of Electrons    NEL             ....   48
 Basis Dimension        Dim             ....  506

ORBITAL ENERGIES
----------------

  NO   OCC          E(Eh)            E(eV)
   0   2.0000     -15.561943      -423.4620
   1   2.0000     -15.559836      -423.4047
   2   2.0000     -11.281564      -306.9870
   3   2.0000     -11.194889      -304.6284
   4   2.0000     -11.183208      -304.3106
   5   2.0000     -11.136337      -303.0351
   6   2.0000      -1.276121       -34.7250
   7   2.0000      -1.163272       -31.6542
   8   2.0000      -1.046962       -28.4893
   9   2.0000      -0.947825       -25.7916
  10   2.0000      -0.841367       -22.8948
  11   2.0000      -0.775027       -21.0895
  12   2.0000      -0.721854       -19.6426
  13   2.0000      -0.691593       -18.8192
  14   2.0000      -0.641682       -17.4610
  15   2.0000      -0.601479       -16.3671
  16   2.0000      -0.583952       -15.8901
  17   2.0000      -0.549662       -14.9571
  18   2.0000      -0.543925       -14.8009
  19   2.0000      -0.492280       -13.3956
  20   2.0000      -0.472841       -12.8667
  21   2.0000      -0.459123       -12.4934
  22   2.0000      -0.413690       -11.2571
  23   2.0000      -0.258683        -7.0391
  24   0.0000       0.023876         0.6497
  25   0.0000       0.034723         0.9449
  26   0.0000       0.039588         1.0772
  27   0.0000       0.046790         1.2732
  28   0.0000       0.051475         1.4007

MULLIKEN ATOMIC CHARGES
-----------------------
   0 C :   -0.218596
   1 C :   -0.514939
   2 C :    0.656735
   3 N :   -0.581438
   4 N :   -0.438644
   5 H :    0.087820
   6 H :    0.152716
   7 H :    0.321861
   8 H :    0.078679
   9 H :    0.076240
  10 C :   -0.948452
  11 H :    0.249550
  12 H :    0.183449
  13 H :    0.275977
  14 H :    0.281529
  15 H :    0.337515
Sum of atomic charges:    0.0000000

LOEWDIN ATOMIC CHARGES
----------------------
   0 C :    0.204134
   1 C :    0.185384
   2 C :   -0.426754
   3 N :    0.847114
   4 N :    0.871941
   5 H :   -0.299294
   6 H :   -0.281536
   7 H :   -0.268522
   8 H :   -0.267579
   9 H :   -0.282081
  10 C :    0.598992
  11 H :   -0.155766
  12 H :   -0.160720
  13 H :   -0.181864
  14 H :   -0.190266
  15 H :   -0.193182

  Mayer bond orders larger than 0.100000
B(  0-C ,  1-C ) :   0.8137 B(  0-C , 10-C ) :   0.7896 B(  0-C , 11-H ) :   1.0549
B(  0-C , 12-H ) :   0.9086 B(  1-C ,  2-C ) :   1.2317 B(  1-C ,  3-N ) :  -0.2320
B(  1-C ,  4-N ) :  -0.1469 B(  1-C ,  7-H ) :   0.9189 B(  1-C , 10-C ) :   0.1145
B(  1-C , 11-H ) :  -0.1147 B(  2-C ,  3-N ) :   0.7779 B(  2-C ,  4-N ) :   0.7895
B(  2-C ,  9-H ) :  -0.1082 B(  3-N ,  4-N ) :  -0.1556 B(  3-N ,  8-H ) :   1.1531
B(  3-N ,  9-H ) :   1.1683 B(  4-N ,  5-H ) :   1.1472 B(  4-N ,  6-H ) :   1.0107
B( 10-C , 13-H ) :   0.9777 B( 10-C , 14-H ) :   0.9692 B( 10-C , 15-H ) :   0.9006

E(0)                                       ...   -266.254330225
E(0)                                       ...   -266.254330225
E(CORR)(strong-pairs)                      ...     -1.165876756
E(CORR)(weak-pairs)                        ...     -0.001253728
E(CORR)(corrected)                         ...     -1.167130484
E(TOT)                                     ...   -267.421460709
E(CCSD(T))                                 ...   -267.469159820
FINAL SINGLE POINT ENERGY      -267.469159820005

DIPOLE MOMENT
-------------
                                X             Y             Z
Electronic contribution:     -1.25935       2.00034      -4.12986
Nuclear contribution   :      1.23062      -1.24683       3.43056
                        -----------------------------------------
Total Dipole Moment    :     -0.02874       0.75351      -0.69930
                        -----------------------------------------
Magnitude (a.u.)       :      1.02840
Magnitude (Debye)      :      2.61400

Rotational constants in cm-1:     0.231477     0.075416     0.065327
Rotational constants in MHz :  6939.497385  2260.912204  1958.442932

                             ****ORCA TERMINATED NORMALLY****
TOTAL RUN TIME: 0 days 0 hours 13 minutes 7 seconds 852 msec
