                         Program Version 5.0.0 -  RELEASE  -
|  1> !DLPNO-CCSD(T) aug-cc-pVTZ aug-cc-pVTZ/C TightSCF TightPNO RIJCOSX def2/J
|  2> *xyz 0 1
|  3> C          4.90646       -3.10282       -5.95484
|  4> C          3.51177       -2.80621       -6.49228
|  5> H          2.73604       -3.37345       -5.97374
|  6> H          3.44490       -3.04083       -7.55528
|  7> S          3.00462       -1.09621       -6.38926
|  8> O          4.12886       -0.32965       -6.95372
|  9> F          1.78128       -1.00078       -7.13640
| 10> O          2.85155       -0.78368       -4.95679
| 11> H          5.62703       -2.52424       -6.49422
| 12> H          5.12164       -4.14387       -6.07654
| 13> H          4.95004       -2.84862       -4.91639
| 14> *
| 15>
| 16> %MaxCore 64000
| 17>
| 18> %pal nprocs 18
| 19> end
| 20>
| 21> %scf
| 22>   MaxIter 150
| 23> end
| 24>
| 25>
| 26>                          ****END OF INPUT****

CARTESIAN COORDINATES (ANGSTROEM)
---------------------------------
  C      4.906460   -3.102820   -5.954840
  C      3.511770   -2.806210   -6.492280
  H      2.736040   -3.373450   -5.973740
  H      3.444900   -3.040830   -7.555280
  S      3.004620   -1.096210   -6.389260
  O      4.128860   -0.329650   -6.953720
  F      1.781280   -1.000780   -7.136400
  O      2.851550   -0.783680   -4.956790
  H      5.627030   -2.524240   -6.494220
  H      5.121640   -4.143870   -6.076540
  H      4.950040   -2.848620   -4.916390

 Total Charge           Charge          ....    0
 Multiplicity           Mult            ....    1
 Number of Electrons    NEL             ....   58
 Basis Dimension        Dim             ....  395

ORBITAL ENERGIES
----------------

  NO   OCC          E(Eh)            E(eV)
   0   2.0000     -92.250905     -2510.2747
   1   2.0000     -26.438277      -719.4221
   2   2.0000     -20.558909      -559.4363
   3   2.0000     -20.558792      -559.4332
   4   2.0000     -11.299785      -307.4828
   5   2.0000     -11.247155      -306.0507
   6   2.0000      -9.214607      -250.7422
   7   2.0000      -6.902066      -187.8148
   8   2.0000      -6.898135      -187.7078
   9   2.0000      -6.897380      -187.6873
  10   2.0000      -1.808657       -49.2161
  11   2.0000      -1.441788       -39.2330
  12   2.0000      -1.333253       -36.2797
  13   2.0000      -1.104327       -30.0503
  14   2.0000      -0.996626       -27.1196
  15   2.0000      -0.916764       -24.9464
  16   2.0000      -0.835328       -22.7304
  17   2.0000      -0.826106       -22.4795
  18   2.0000      -0.765212       -20.8225
  19   2.0000      -0.675579       -18.3834
  20   2.0000      -0.666199       -18.1282
  21   2.0000      -0.618754       -16.8372
  22   2.0000      -0.595765       -16.2116
  23   2.0000      -0.567198       -15.4342
  24   2.0000      -0.548470       -14.9246
  25   2.0000      -0.544783       -14.8243
  26   2.0000      -0.493636       -13.4325
  27   2.0000      -0.477238       -12.9863
  28   2.0000      -0.468729       -12.7548
  29   0.0000       0.022294         0.6067
  30   0.0000       0.036745         0.9999
  31   0.0000       0.038988         1.0609
  32   0.0000       0.050438         1.3725
  33   0.0000       0.063977         1.7409

MULLIKEN ATOMIC CHARGES
-----------------------
   0 C :   -0.938270
   1 C :   -0.530082
   2 H :    0.311646
   3 H :    0.317367
   4 S :    2.108200
   5 O :   -0.888582
   6 F :   -0.499961
   7 O :   -0.871999
   8 H :    0.333209
   9 H :    0.303581
  10 H :    0.354891
Sum of atomic charges:   -0.0000000

LOEWDIN ATOMIC CHARGES
----------------------
   0 C :    0.582810
   1 C :    0.161705
   2 H :   -0.191202
   3 H :   -0.198921
   4 S :   -0.118593
   5 O :    0.016495
   6 F :    0.292279
   7 O :    0.009240
   8 H :   -0.192512
   9 H :   -0.177624
  10 H :   -0.183678

  Mayer bond orders larger than 0.100000
B(  0-C ,  1-C ) :   0.8938 B(  0-C ,  4-S ) :   0.1063 B(  0-C ,  8-H ) :   0.9118
B(  0-C ,  9-H ) :   0.9494 B(  0-C , 10-H ) :   0.8772 B(  1-C ,  2-H ) :   0.8887
B(  1-C ,  3-H ) :   0.8829 B(  1-C ,  4-S ) :   0.8681 B(  4-S ,  5-O ) :   1.5450
B(  4-S ,  6-F ) :   0.5538 B(  4-S ,  7-O ) :   1.5237

E(0)                                       ...   -725.419622349
E(0)                                       ...   -725.419622349
E(CORR)(strong-pairs)                      ...     -1.307464733
E(CORR)(weak-pairs)                        ...     -0.001264549
E(CORR)(corrected)                         ...     -1.308729282
E(TOT)                                     ...   -726.728351631
E(CCSD(T))                                 ...   -726.781641643
FINAL SINGLE POINT ENERGY      -726.781641642689

DIPOLE MOMENT
-------------
                                X             Y             Z
Electronic contribution:     -6.99984       6.88555      -2.12894
Nuclear contribution   :      6.63544      -8.66423       1.42287
                        -----------------------------------------
Total Dipole Moment    :     -0.36440      -1.77868      -0.70607
                        -----------------------------------------
Magnitude (a.u.)       :      1.94809
Magnitude (Debye)      :      4.95164

Rotational constants in cm-1:     0.158118     0.080978     0.078216
Rotational constants in MHz :  4740.271775  2427.649826  2344.849020

                             ****ORCA TERMINATED NORMALLY****
TOTAL RUN TIME: 0 days 0 hours 6 minutes 18 seconds 754 msec
