                         Program Version 5.0.0 -  RELEASE  -
|  1> !DLPNO-CCSD(T) aug-cc-pVTZ aug-cc-pVTZ/C TightSCF TightPNO RIJCOSX def2/J
|  2> *xyz 0 1
|  3> C          4.49059        1.15590       -2.46929
|  4> N          4.30539        1.22276       -3.90832
|  5> C          4.63192        2.24637       -4.67096
|  6> C          4.54169        2.14399       -5.98714
|  7> N          5.08409        3.39358       -4.11855
|  8> H          4.92067        3.57050       -3.13587
|  9> H          5.25465        4.19739       -4.70696
| 10> H          3.82453        0.44911       -4.35093
| 11> H          4.34337        1.24932       -6.41665
| 12> H          4.67671        2.95662       -6.57411
| 13> C          5.94213        0.93950       -2.03689
| 14> H          3.86431        0.32853       -2.13661
| 15> H          4.07623        2.04999       -1.98901
| 16> H          6.32982        0.06401       -2.51451
| 17> H          5.98308        0.81426       -0.97504
| 18> H          6.52865        1.78889       -2.31873
| 19> *
| 20>
| 21> %MaxCore 64000
| 22>
| 23> %pal nprocs 18
| 24> end
| 25>
| 26> %scf
| 27>   MaxIter 150
| 28> end
| 29>
| 30>
| 31>                          ****END OF INPUT****

CARTESIAN COORDINATES (ANGSTROEM)
---------------------------------
  C      4.490590    1.155900   -2.469290
  N      4.305390    1.222760   -3.908320
  C      4.631920    2.246370   -4.670960
  C      4.541690    2.143990   -5.987140
  N      5.084090    3.393580   -4.118550
  H      4.920670    3.570500   -3.135870
  H      5.254650    4.197390   -4.706960
  H      3.824530    0.449110   -4.350930
  H      4.343370    1.249320   -6.416650
  H      4.676710    2.956620   -6.574110
  C      5.942130    0.939500   -2.036890
  H      3.864310    0.328530   -2.136610
  H      4.076230    2.049990   -1.989010
  H      6.329820    0.064010   -2.514510
  H      5.983080    0.814260   -0.975040
  H      6.528650    1.788890   -2.318730

 Total Charge           Charge          ....    0
 Multiplicity           Mult            ....    1
 Number of Electrons    NEL             ....   48
 Basis Dimension        Dim             ....  506

ORBITAL ENERGIES
----------------

  NO   OCC          E(Eh)            E(eV)
   0   2.0000     -15.560144      -423.4130
   1   2.0000     -15.558059      -423.3563
   2   2.0000     -11.285139      -307.0842
   3   2.0000     -11.268246      -306.6246
   4   2.0000     -11.210929      -305.0649
   5   2.0000     -11.126641      -302.7713
   6   2.0000      -1.286230       -35.0001
   7   2.0000      -1.177806       -32.0497
   8   2.0000      -1.037291       -28.2261
   9   2.0000      -0.959135       -26.0994
  10   2.0000      -0.857246       -23.3269
  11   2.0000      -0.798154       -21.7189
  12   2.0000      -0.718680       -19.5563
  13   2.0000      -0.672930       -18.3114
  14   2.0000      -0.648062       -17.6347
  15   2.0000      -0.614136       -16.7115
  16   2.0000      -0.587874       -15.9969
  17   2.0000      -0.564016       -15.3476
  18   2.0000      -0.537462       -14.6251
  19   2.0000      -0.524983       -14.2855
  20   2.0000      -0.509594       -13.8668
  21   2.0000      -0.500041       -13.6068
  22   2.0000      -0.398039       -10.8312
  23   2.0000      -0.262824        -7.1518
  24   0.0000       0.026200         0.7129
  25   0.0000       0.033748         0.9183
  26   0.0000       0.038830         1.0566
  27   0.0000       0.041209         1.1214
  28   0.0000       0.053713         1.4616

MULLIKEN ATOMIC CHARGES
-----------------------
   0 C :   -0.406701
   1 N :   -0.153076
   2 C :    0.334462
   3 C :   -1.150750
   4 N :   -0.405110
   5 H :    0.156866
   6 H :    0.066522
   7 H :    0.096033
   8 H :    0.422218
   9 H :    0.419671
  10 C :   -0.886486
  11 H :    0.374730
  12 H :    0.231186
  13 H :    0.256104
  14 H :    0.310415
  15 H :    0.333917
Sum of atomic charges:    0.0000000

LOEWDIN ATOMIC CHARGES
----------------------
   0 C :    0.194592
   1 N :    0.560123
   2 C :   -0.459543
   3 C :    0.531336
   4 N :    0.865230
   5 H :   -0.311989
   6 H :   -0.270328
   7 H :   -0.252828
   8 H :   -0.308246
   9 H :   -0.312088
  10 C :    0.619134
  11 H :   -0.146056
  12 H :   -0.152627
  13 H :   -0.179173
  14 H :   -0.185936
  15 H :   -0.191601

  Mayer bond orders larger than 0.100000
B(  0-C ,  1-N ) :   0.9276 B(  0-C ,  2-C ) :  -0.2222 B(  0-C , 10-C ) :   0.8424
B(  0-C , 11-H ) :   0.8883 B(  0-C , 12-H ) :   0.9724 B(  1-N ,  2-C ) :   0.7707
B(  1-N ,  3-C ) :  -0.3038 B(  1-N ,  4-N ) :  -0.1446 B(  1-N ,  7-H ) :   1.1149
B(  2-C ,  3-C ) :   1.1039 B(  2-C ,  4-N ) :   0.8632 B(  2-C ,  5-H ) :  -0.1112
B(  3-C ,  4-N ) :  -0.2233 B(  3-C ,  8-H ) :   0.9173 B(  3-C ,  9-H ) :   0.8979
B(  4-N ,  5-H ) :   1.0637 B(  4-N ,  6-H ) :   1.1184 B( 10-C , 13-H ) :   0.9864
B( 10-C , 14-H ) :   0.9168 B( 10-C , 15-H ) :   0.9176

E(0)                                       ...   -266.249513734
E(0)                                       ...   -266.249513734
E(CORR)(strong-pairs)                      ...     -1.162447205
E(CORR)(weak-pairs)                        ...     -0.001251939
E(CORR)(corrected)                         ...     -1.163699144
E(TOT)                                     ...   -267.413212878
E(CCSD(T))                                 ...   -267.460681558
FINAL SINGLE POINT ENERGY      -267.460681558052

DIPOLE MOMENT
-------------
                                X             Y             Z
Electronic contribution:     -1.41367       1.08031      -1.85429
Nuclear contribution   :      1.28075      -1.05140       2.98955
                        -----------------------------------------
Total Dipole Moment    :     -0.13292       0.02892       1.13526
                        -----------------------------------------
Magnitude (a.u.)       :      1.14338
Magnitude (Debye)      :      2.90625

Rotational constants in cm-1:     0.229858     0.078444     0.067377
Rotational constants in MHz :  6890.979812  2351.691803  2019.910665

                             ****ORCA TERMINATED NORMALLY****
TOTAL RUN TIME: 0 days 0 hours 12 minutes 44 seconds 32 msec
