                         Program Version 5.0.0 -  RELEASE  -
|  1> !DLPNO-CCSD(T) aug-cc-pVTZ aug-cc-pVTZ/C TightSCF TightPNO RIJCOSX def2/J
|  2> *xyz 0 1
|  3> C          4.90646       -3.10282       -5.95484
|  4> C          3.51177       -2.80621       -6.49228
|  5> H          2.73604       -3.37345       -5.97374
|  6> H          3.44490       -3.04083       -7.55528
|  7> S          3.00462       -1.09621       -6.38926
|  8> O          4.12886       -0.32965       -6.95372
|  9> O          1.78128       -1.00078       -7.13640
| 10> F          2.85155       -0.78368       -4.95679
| 11> H          5.62703       -2.52424       -6.49422
| 12> H          5.12164       -4.14387       -6.07654
| 13> H          4.95004       -2.84862       -4.91639
| 14> *
| 15>
| 16> %MaxCore 64000
| 17>
| 18> %pal nprocs 18
| 19> end
| 20>
| 21> %scf
| 22>   MaxIter 150
| 23> end
| 24>
| 25>
| 26>                          ****END OF INPUT****

CARTESIAN COORDINATES (ANGSTROEM)
---------------------------------
  C      4.906460   -3.102820   -5.954840
  C      3.511770   -2.806210   -6.492280
  H      2.736040   -3.373450   -5.973740
  H      3.444900   -3.040830   -7.555280
  S      3.004620   -1.096210   -6.389260
  O      4.128860   -0.329650   -6.953720
  O      1.781280   -1.000780   -7.136400
  F      2.851550   -0.783680   -4.956790
  H      5.627030   -2.524240   -6.494220
  H      5.121640   -4.143870   -6.076540
  H      4.950040   -2.848620   -4.916390

 Total Charge           Charge          ....    0
 Multiplicity           Mult            ....    1
 Number of Electrons    NEL             ....   58
 Basis Dimension        Dim             ....  395

ORBITAL ENERGIES
----------------

  NO   OCC          E(Eh)            E(eV)
   0   2.0000     -92.249755     -2510.2435
   1   2.0000     -26.418124      -718.8737
   2   2.0000     -20.571648      -559.7830
   3   2.0000     -20.558633      -559.4288
   4   2.0000     -11.298771      -307.4552
   5   2.0000     -11.249391      -306.1115
   6   2.0000      -9.213223      -250.7045
   7   2.0000      -6.900808      -187.7805
   8   2.0000      -6.896869      -187.6733
   9   2.0000      -6.895973      -187.6490
  10   2.0000      -1.773972       -48.2722
  11   2.0000      -1.458308       -39.6826
  12   2.0000      -1.350045       -36.7366
  13   2.0000      -1.105184       -30.0736
  14   2.0000      -0.978253       -26.6196
  15   2.0000      -0.912233       -24.8231
  16   2.0000      -0.814233       -22.1564
  17   2.0000      -0.809460       -22.0265
  18   2.0000      -0.758200       -20.6317
  19   2.0000      -0.676209       -18.4006
  20   2.0000      -0.665185       -18.1006
  21   2.0000      -0.640711       -17.4346
  22   2.0000      -0.601503       -16.3677
  23   2.0000      -0.571784       -15.5590
  24   2.0000      -0.559377       -15.2214
  25   2.0000      -0.541517       -14.7354
  26   2.0000      -0.503570       -13.7028
  27   2.0000      -0.481557       -13.1038
  28   2.0000      -0.481344       -13.0980
  29   0.0000       0.022210         0.6044
  30   0.0000       0.037302         1.0150
  31   0.0000       0.037935         1.0323
  32   0.0000       0.048356         1.3158
  33   0.0000       0.062097         1.6897

MULLIKEN ATOMIC CHARGES
-----------------------
   0 C :   -0.956733
   1 C :   -0.514627
   2 H :    0.311928
   3 H :    0.334006
   4 S :    2.143905
   5 O :   -0.892275
   6 O :   -0.885763
   7 F :   -0.512135
   8 H :    0.335753
   9 H :    0.305983
  10 H :    0.329957
Sum of atomic charges:    0.0000000

LOEWDIN ATOMIC CHARGES
----------------------
   0 C :    0.571695
   1 C :    0.164976
   2 H :   -0.190748
   3 H :   -0.181750
   4 S :   -0.114717
   5 O :    0.017826
   6 O :    0.033977
   7 F :    0.261951
   8 H :   -0.194895
   9 H :   -0.179331
  10 H :   -0.188985

  Mayer bond orders larger than 0.100000
B(  0-C ,  1-C ) :   0.8978 B(  0-C ,  8-H ) :   0.9098 B(  0-C ,  9-H ) :   0.9555
B(  0-C , 10-H ) :   0.8971 B(  1-C ,  2-H ) :   0.8909 B(  1-C ,  3-H ) :   0.8797
B(  1-C ,  4-S ) :   0.8800 B(  4-S ,  5-O ) :   1.5249 B(  4-S ,  6-O ) :   1.5706
B(  4-S ,  7-F ) :   0.5550

E(0)                                       ...   -725.435703939
E(0)                                       ...   -725.435703939
E(CORR)(strong-pairs)                      ...     -1.306527585
E(CORR)(weak-pairs)                        ...     -0.001261676
E(CORR)(corrected)                         ...     -1.307789261
E(TOT)                                     ...   -726.743493200
E(CCSD(T))                                 ...   -726.796501702
FINAL SINGLE POINT ENERGY      -726.796501702272

DIPOLE MOMENT
-------------
                                X             Y             Z
Electronic contribution:     -5.10959       7.25959       1.74456
Nuclear contribution   :      5.52019      -8.89046      -0.84835
                        -----------------------------------------
Total Dipole Moment    :      0.41060      -1.63086       0.89621
                        -----------------------------------------
Magnitude (a.u.)       :      1.90565
Magnitude (Debye)      :      4.84378

Rotational constants in cm-1:     0.153332     0.082132     0.079755
Rotational constants in MHz :  4596.775407  2462.251277  2391.008596

                             ****ORCA TERMINATED NORMALLY****
TOTAL RUN TIME: 0 days 0 hours 6 minutes 7 seconds 342 msec
