                         Program Version 5.0.0 -  RELEASE  -
|  1> !DLPNO-CCSD(T) aug-cc-pVTZ aug-cc-pVTZ/C TightSCF TightPNO RIJCOSX def2/J
|  2> *xyz 0 1
|  3> C          4.49059        1.15590       -2.46929
|  4> N          4.30539        1.22276       -3.90832
|  5> C          4.63192        2.24637       -4.67096
|  6> N          4.54169        2.14399       -5.98714
|  7> C          5.08409        3.39358       -4.11855
|  8> H          4.92067        3.57050       -3.13587
|  9> H          5.25465        4.19739       -4.70696
| 10> H          3.82453        0.44911       -4.35093
| 11> H          4.34337        1.24932       -6.41665
| 12> H          4.67671        2.95662       -6.57411
| 13> C          5.94213        0.93950       -2.03689
| 14> H          3.86431        0.32853       -2.13661
| 15> H          4.07623        2.04999       -1.98901
| 16> H          6.32982        0.06401       -2.51451
| 17> H          5.98308        0.81426       -0.97504
| 18> H          6.52865        1.78889       -2.31873
| 19> *
| 20>
| 21> %MaxCore 64000
| 22>
| 23> %pal nprocs 18
| 24> end
| 25>
| 26> %scf
| 27>   MaxIter 150
| 28> end
| 29>
| 30>
| 31>                          ****END OF INPUT****

CARTESIAN COORDINATES (ANGSTROEM)
---------------------------------
  C      4.490590    1.155900   -2.469290
  N      4.305390    1.222760   -3.908320
  C      4.631920    2.246370   -4.670960
  N      4.541690    2.143990   -5.987140
  C      5.084090    3.393580   -4.118550
  H      4.920670    3.570500   -3.135870
  H      5.254650    4.197390   -4.706960
  H      3.824530    0.449110   -4.350930
  H      4.343370    1.249320   -6.416650
  H      4.676710    2.956620   -6.574110
  C      5.942130    0.939500   -2.036890
  H      3.864310    0.328530   -2.136610
  H      4.076230    2.049990   -1.989010
  H      6.329820    0.064010   -2.514510
  H      5.983080    0.814260   -0.975040
  H      6.528650    1.788890   -2.318730

 Total Charge           Charge          ....    0
 Multiplicity           Mult            ....    1
 Number of Electrons    NEL             ....   48
 Basis Dimension        Dim             ....  506

ORBITAL ENERGIES
----------------

  NO   OCC          E(Eh)            E(eV)
   0   2.0000     -15.563496      -423.5042
   1   2.0000     -15.562890      -423.4878
   2   2.0000     -11.289075      -307.1913
   3   2.0000     -11.259663      -306.3910
   4   2.0000     -11.199728      -304.7601
   5   2.0000     -11.126692      -302.7727
   6   2.0000      -1.291420       -35.1413
   7   2.0000      -1.186339       -32.2819
   8   2.0000      -1.014618       -27.6092
   9   2.0000      -0.964386       -26.2423
  10   2.0000      -0.865886       -23.5620
  11   2.0000      -0.764616       -20.8063
  12   2.0000      -0.735196       -20.0057
  13   2.0000      -0.701688       -19.0939
  14   2.0000      -0.637393       -17.3443
  15   2.0000      -0.603531       -16.4229
  16   2.0000      -0.574186       -15.6244
  17   2.0000      -0.556777       -15.1507
  18   2.0000      -0.536083       -14.5876
  19   2.0000      -0.519094       -14.1253
  20   2.0000      -0.508967       -13.8497
  21   2.0000      -0.491284       -13.3685
  22   2.0000      -0.391385       -10.6501
  23   2.0000      -0.262819        -7.1517
  24   0.0000       0.023792         0.6474
  25   0.0000       0.034026         0.9259
  26   0.0000       0.040877         1.1123
  27   0.0000       0.043798         1.1918
  28   0.0000       0.052879         1.4389

MULLIKEN ATOMIC CHARGES
-----------------------
   0 C :   -0.394167
   1 N :   -0.154575
   2 C :    0.572452
   3 N :   -0.535523
   4 C :   -1.226065
   5 H :    0.546272
   6 H :    0.216272
   7 H :    0.118383
   8 H :    0.123133
   9 H :    0.089717
  10 C :   -0.933276
  11 H :    0.406354
  12 H :    0.255270
  13 H :    0.244497
  14 H :    0.327440
  15 H :    0.343817
Sum of atomic charges:    0.0000000

LOEWDIN ATOMIC CHARGES
----------------------
   0 C :    0.196563
   1 N :    0.559341
   2 C :   -0.456482
   3 N :    0.853791
   4 C :    0.543777
   5 H :   -0.332244
   6 H :   -0.312514
   7 H :   -0.262003
   8 H :   -0.278272
   9 H :   -0.267468
  10 C :    0.616796
  11 H :   -0.147788
  12 H :   -0.151510
  13 H :   -0.181855
  14 H :   -0.184931
  15 H :   -0.195200

  Mayer bond orders larger than 0.100000
B(  0-C ,  1-N ) :   0.9278 B(  0-C ,  2-C ) :  -0.1926 B(  0-C , 10-C ) :   0.8636
B(  0-C , 11-H ) :   0.8530 B(  0-C , 12-H ) :   0.9716 B(  1-N ,  2-C ) :   0.8421
B(  1-N ,  3-N ) :  -0.1849 B(  1-N ,  4-C ) :  -0.2142 B(  1-N ,  7-H ) :   1.1056
B(  2-C ,  3-N ) :   0.8102 B(  2-C ,  4-C ) :   1.1081 B(  2-C ,  7-H ) :  -0.1021
B(  3-N ,  4-C ) :  -0.1023 B(  3-N ,  8-H ) :   1.1019 B(  3-N ,  9-H ) :   1.1492
B(  4-C ,  5-H ) :   0.6760 B(  4-C ,  6-H ) :   1.1973 B( 10-C , 13-H ) :   0.9982
B( 10-C , 14-H ) :   0.8984 B( 10-C , 15-H ) :   0.9144

E(0)                                       ...   -266.248207090
E(0)                                       ...   -266.248207090
E(CORR)(strong-pairs)                      ...     -1.163427506
E(CORR)(weak-pairs)                        ...     -0.001278813
E(CORR)(corrected)                         ...     -1.164706319
E(TOT)                                     ...   -267.412913409
E(CCSD(T))                                 ...   -267.460685534
FINAL SINGLE POINT ENERGY      -267.460685533833

DIPOLE MOMENT
-------------
                                X             Y             Z
Electronic contribution:     -1.91854      -0.18525      -3.83227
Nuclear contribution   :      1.39581      -0.78630       3.38596
                        -----------------------------------------
Total Dipole Moment    :     -0.52273      -0.97156      -0.44631
                        -----------------------------------------
Magnitude (a.u.)       :      1.19011
Magnitude (Debye)      :      3.02501

Rotational constants in cm-1:     0.239249     0.075811     0.066261
Rotational constants in MHz :  7172.504830  2272.756282  1986.457543

                             ****ORCA TERMINATED NORMALLY****
TOTAL RUN TIME: 0 days 0 hours 12 minutes 43 seconds 642 msec
