                         Program Version 5.0.0 -  RELEASE  -
|  1> !DLPNO-CCSD(T) aug-cc-pVTZ aug-cc-pVTZ/C TightSCF TightPNO RIJCOSX def2/J
|  2>
|  3> *xyzfile 0 1 D8.xyz
|  4>
|  5> %MaxCore 64000
|  6>
|  7> %pal nprocs 18
|  8> end
|  9>
| 10> %scf
| 11>   MaxIter 150
| 12> end
| 13>
| 14>
| 15>                          ****END OF INPUT****

CARTESIAN COORDINATES (ANGSTROEM)
---------------------------------
  C      4.490588    1.155899   -2.469290
  N      4.305394    1.222762   -3.908317
  C      4.906458   -3.102816   -5.954844
  C      3.511771   -2.806215   -6.492283
  H      2.736044   -3.373445   -5.973736
  H      3.444904   -3.040831   -7.555281
  S      3.004618   -1.096206   -6.389259
  C      4.631918    2.246365   -4.670958
  C      4.541686    2.143990   -5.987139
  N      5.084086    3.393584   -4.118545
  H      4.920675    3.570501   -3.135870
  H      5.254652    4.197390   -4.706956
  H      3.824530    0.449113   -4.350926
  H      4.343373    1.249318   -6.416646
  H      4.676712    2.956624   -6.574113
  O      4.128856   -0.329647   -6.953717
  O      1.781285   -1.000779   -7.136399
  C      5.942129    0.939500   -2.036893
  H      3.864305    0.328532   -2.136611
  H      4.076233    2.049994   -1.989010
  C      6.462677   -3.117775   -3.944671
  C      5.024977   -3.025679   -4.437625
  H      4.423321   -3.818693   -3.977648
  H      4.579350   -2.087131   -4.108727
  H      5.201533   -4.100207   -6.296905
  H      5.605922   -2.397822   -6.413368
  C      6.559957   -0.356290   -2.559086
  H      5.967976    0.952567   -0.942444
  H      6.547184    1.788331   -2.368849
  C      6.006283   -1.615917   -1.899301
  H      7.642360   -0.318000   -2.402059
  H      6.414855   -0.403433   -3.642587
  C      6.608718   -2.917014   -2.435655
  H      6.190324   -1.561115   -0.820948
  H      4.919250   -1.651245   -2.016586
  H      7.066975   -2.374258   -4.475514
  H      6.887808   -4.089747   -4.215332
  H      6.135197   -3.755573   -1.915159
  H      7.671142   -2.955503   -2.172291
  F      2.851546   -0.783683   -4.956789

 Total Charge           Charge          ....    0
 Multiplicity           Mult            ....    1
 Number of Electrons    NEL             ....  144
 Basis Dimension        Dim             .... 1315

ORBITAL ENERGIES
----------------

  NO   OCC          E(Eh)            E(eV)
   0   2.0000     -92.255639     -2510.4036
   1   2.0000     -26.433707      -719.2977
   2   2.0000     -20.576044      -559.9026
   3   2.0000     -20.559978      -559.4654
   4   2.0000     -15.543975      -422.9731
   5   2.0000     -15.540643      -422.8824
   6   2.0000     -11.298920      -307.4592
   7   2.0000     -11.263568      -306.4973
   8   2.0000     -11.259688      -306.3917
   9   2.0000     -11.256018      -306.2918
  10   2.0000     -11.240936      -305.8814
  11   2.0000     -11.230314      -305.5924
  12   2.0000     -11.226177      -305.4798
  13   2.0000     -11.222266      -305.3734
  14   2.0000     -11.217495      -305.2436
  15   2.0000     -11.216200      -305.2083
  16   2.0000     -11.094295      -301.8911
  17   2.0000      -9.219423      -250.8733
  18   2.0000      -6.907143      -187.9529
  19   2.0000      -6.902819      -187.8352
  20   2.0000      -6.902029      -187.8138
  21   2.0000      -1.795356       -48.8541
  22   2.0000      -1.465070       -39.8666
  23   2.0000      -1.358218       -36.9590
  24   2.0000      -1.272053       -34.6143
  25   2.0000      -1.165207       -31.7069
  26   2.0000      -1.131142       -30.7799
  27   2.0000      -1.095864       -29.8200
  28   2.0000      -1.060116       -28.8472
  29   2.0000      -1.015744       -27.6398
  30   2.0000      -0.984654       -26.7938
  31   2.0000      -0.960299       -26.1311
  32   2.0000      -0.922302       -25.0971
  33   2.0000      -0.888517       -24.1778
  34   2.0000      -0.860110       -23.4048
  35   2.0000      -0.843861       -22.9626
  36   2.0000      -0.826564       -22.4919
  37   2.0000      -0.810500       -22.0548
  38   2.0000      -0.780763       -21.2456
  39   2.0000      -0.768728       -20.9181
  40   2.0000      -0.761719       -20.7274
  41   2.0000      -0.701307       -19.0835
  42   2.0000      -0.687118       -18.6974
  43   2.0000      -0.664833       -18.0910
  44   2.0000      -0.659276       -17.9398
  45   2.0000      -0.657257       -17.8849
  46   2.0000      -0.648025       -17.6337
  47   2.0000      -0.639515       -17.4021
  48   2.0000      -0.632319       -17.2063
  49   2.0000      -0.609397       -16.5825
  50   2.0000      -0.605315       -16.4714
  51   2.0000      -0.592498       -16.1227
  52   2.0000      -0.577871       -15.7247
  53   2.0000      -0.570819       -15.5328
  54   2.0000      -0.552229       -15.0269
  55   2.0000      -0.549753       -14.9595
  56   2.0000      -0.544395       -14.8138
  57   2.0000      -0.531125       -14.4527
  58   2.0000      -0.523067       -14.2334
  59   2.0000      -0.515691       -14.0327
  60   2.0000      -0.512136       -13.9359
  61   2.0000      -0.498569       -13.5668
  62   2.0000      -0.492880       -13.4119
  63   2.0000      -0.487825       -13.2744
  64   2.0000      -0.484423       -13.1818
  65   2.0000      -0.477409       -12.9910
  66   2.0000      -0.458189       -12.4679
  67   2.0000      -0.457056       -12.4371
  68   2.0000      -0.448413       -12.2019
  69   2.0000      -0.446326       -12.1451
  70   2.0000      -0.384138       -10.4529
  71   2.0000      -0.241180        -6.5628
  72   0.0000       0.019248         0.5238
  73   0.0000       0.026081         0.7097
  74   0.0000       0.028588         0.7779
  75   0.0000       0.031529         0.8580
  76   0.0000       0.040700         1.1075

MULLIKEN ATOMIC CHARGES
-----------------------
   0 C :   -0.580604
   1 N :   -0.013334
   2 C :   -0.491013
   3 C :   -0.827862
   4 H :    0.172058
   5 H :    0.321739
   6 S :    2.672419
   7 C :    0.455953
   8 C :   -1.504140
   9 N :   -0.651668
  10 H :    0.029453
  11 H :    0.086400
  12 H :    0.739184
  13 H :    0.955882
  14 H :    0.087937
  15 O :   -0.973053
  16 O :   -1.059207
  17 C :   -0.491959
  18 H :    0.086796
  19 H :    0.284616
  20 C :   -0.380116
  21 C :   -0.450377
  22 H :    0.138198
  23 H :    0.522172
  24 H :    0.276196
  25 H :    0.332888
  26 C :   -0.455451
  27 H :    0.244840
  28 H :    0.203985
  29 C :   -0.290375
  30 H :    0.359317
  31 H :    0.291649
  32 C :   -0.670170
  33 H :    0.461764
  34 H :   -0.006429
  35 H :    0.092095
  36 H :    0.499489
  37 H :    0.143491
  38 H :    0.114971
  39 F :   -0.727735
Sum of atomic charges:   -0.0000000

LOEWDIN ATOMIC CHARGES
----------------------
   0 C :    0.218183
   1 N :    0.569075
   2 C :    0.260106
   3 C :    0.207573
   4 H :   -0.180761
   5 H :   -0.171708
   6 S :    0.051697
   7 C :   -0.437012
   8 C :    0.537561
   9 N :    0.864024
  10 H :   -0.314737
  11 H :   -0.272496
  12 H :   -0.514413
  13 H :   -0.612471
  14 H :   -0.296205
  15 O :    0.215207
  16 O :    0.063397
  17 C :    0.310396
  18 H :   -0.151002
  19 H :   -0.143504
  20 C :    0.293361
  21 C :    0.267749
  22 H :   -0.122768
  23 H :   -0.210983
  24 H :   -0.131684
  25 H :   -0.157806
  26 C :    0.290319
  27 H :   -0.142887
  28 H :   -0.148519
  29 C :    0.282867
  30 H :   -0.129017
  31 H :   -0.159206
  32 C :    0.303602
  33 H :   -0.133068
  34 H :   -0.168055
  35 H :   -0.147741
  36 H :   -0.132360
  37 H :   -0.141093
  38 H :   -0.137650
  39 F :    0.422028

  Mayer bond orders larger than 0.100000
B(  0-C ,  1-N ) :   1.1753 B(  0-C ,  7-C ) :  -0.1347 B(  0-C , 12-H ) :  -0.1603
B(  0-C , 17-C ) :   0.8042 B(  0-C , 18-H ) :   1.2141 B(  0-C , 19-H ) :   0.9022
B(  0-C , 26-C ) :   0.1189 B(  1-N ,  7-C ) :   1.1094 B(  1-N ,  8-C ) :  -0.1188
B(  1-N ,  9-N ) :  -0.1733 B(  1-N , 12-H ) :   0.1393 B(  1-N , 39-F ) :  -0.2396
B(  2-C ,  3-C ) :   0.9732 B(  2-C , 21-C ) :   0.8924 B(  2-C , 24-H ) :   0.9214
B(  2-C , 25-H ) :   0.9410 B(  3-C ,  4-H ) :   1.0619 B(  3-C ,  5-H ) :   0.8660
B(  3-C ,  6-S ) :   0.8624 B(  6-S , 15-O ) :   1.3583 B(  6-S , 16-O ) :   0.8674
B(  6-S , 39-F ) :   0.6117 B(  7-C ,  8-C ) :   1.2041 B(  7-C ,  9-N ) :   0.7580
B(  7-C , 10-H ) :  -0.1663 B(  7-C , 12-H ) :  -0.3497 B(  7-C , 14-H ) :  -0.1316
B(  8-C ,  9-N ) :  -0.3442 B(  8-C , 14-H ) :   1.5578 B(  9-N , 10-H ) :   1.2709
B(  9-N , 11-H ) :   1.0762 B( 12-H , 39-F ) :  -0.2028 B( 16-O , 39-F ) :   0.1553
B( 17-C , 26-C ) :   0.9104 B( 17-C , 27-H ) :   0.9537 B( 17-C , 28-H ) :   1.0688
B( 20-C , 21-C ) :   0.7796 B( 20-C , 32-C ) :   0.8287 B( 20-C , 35-H ) :   1.1125
B( 20-C , 36-H ) :   0.7481 B( 21-C , 22-H ) :   1.1177 B( 21-C , 23-H ) :   0.8438
B( 26-C , 29-C ) :   0.8459 B( 26-C , 30-H ) :   0.8711 B( 26-C , 31-H ) :   0.9984
B( 26-C , 34-H ) :   0.1017 B( 29-C , 32-C ) :   0.8912 B( 29-C , 33-H ) :   0.7877
B( 29-C , 34-H ) :   1.2097 B( 32-C , 37-H ) :   1.1008 B( 32-C , 38-H ) :   1.1245

E(0)                                       ...  -1185.710885064
E(0)                                       ...  -1185.710885064
E(CORR)(strong-pairs)                      ...     -3.391546191
E(CORR)(weak-pairs)                        ...     -0.006844799
E(CORR)(corrected)                         ...     -3.398390990
E(TOT)                                     ...  -1189.109276054
E(CCSD(T))                                 ...  -1189.252315409
FINAL SINGLE POINT ENERGY     -1189.252315408791

DIPOLE MOMENT
-------------
                                X             Y             Z
Electronic contribution:    -18.40700       3.00382     -16.01331
Nuclear contribution   :     18.77618      -4.78855      17.68602
                        -----------------------------------------
Total Dipole Moment    :      0.36918      -1.78472       1.67271
                        -----------------------------------------
Magnitude (a.u.)       :      2.47376
Magnitude (Debye)      :      6.28780

Rotational constants in cm-1:     0.014368     0.012319     0.007509
Rotational constants in MHz :   430.738566   369.302170   225.105103

                             ****ORCA TERMINATED NORMALLY****
TOTAL RUN TIME: 0 days 7 hours 47 minutes 20 seconds 22 msec
