                         Program Version 5.0.0 -  RELEASE  -
|  1> !DLPNO-CCSD(T) aug-cc-pVTZ aug-cc-pVTZ/C TightSCF TightPNO RIJCOSX def2/J
|  2>
|  3> *xyzfile 0 1 D9.xyz
|  4>
|  5> %MaxCore 64000
|  6>
|  7> %pal nprocs 18
|  8> end
|  9>
| 10> %scf
| 11>   MaxIter 150
| 12> end
| 13>
| 14>
| 15>                          ****END OF INPUT****

CARTESIAN COORDINATES (ANGSTROEM)
---------------------------------
  C      4.490588    1.155899   -2.469290
  N      4.305394    1.222762   -3.908317
  C      4.906458   -3.102816   -5.954844
  C      3.511771   -2.806215   -6.492283
  H      2.736044   -3.373445   -5.973736
  H      3.444904   -3.040831   -7.555281
  S      3.004618   -1.096206   -6.389259
  C      4.631918    2.246365   -4.670958
  N      4.541686    2.143990   -5.987139
  C      5.084086    3.393584   -4.118545
  H      4.920675    3.570501   -3.135870
  H      5.254652    4.197390   -4.706956
  H      3.824530    0.449113   -4.350926
  H      4.343373    1.249318   -6.416646
  H      4.676712    2.956624   -6.574113
  O      4.128856   -0.329647   -6.953717
  O      1.781285   -1.000779   -7.136399
  C      5.942129    0.939500   -2.036893
  H      3.864305    0.328532   -2.136611
  H      4.076233    2.049994   -1.989010
  C      6.462677   -3.117775   -3.944671
  C      5.024977   -3.025679   -4.437625
  H      4.423321   -3.818693   -3.977648
  H      4.579350   -2.087131   -4.108727
  H      5.201533   -4.100207   -6.296905
  H      5.605922   -2.397822   -6.413368
  C      6.559957   -0.356290   -2.559086
  H      5.967976    0.952567   -0.942444
  H      6.547184    1.788331   -2.368849
  C      6.006283   -1.615917   -1.899301
  H      7.642360   -0.318000   -2.402059
  H      6.414855   -0.403433   -3.642587
  C      6.608718   -2.917014   -2.435655
  H      6.190324   -1.561115   -0.820948
  H      4.919250   -1.651245   -2.016586
  H      7.066975   -2.374258   -4.475514
  H      6.887808   -4.089747   -4.215332
  H      6.135197   -3.755573   -1.915159
  H      7.671142   -2.955503   -2.172291
  F      2.851546   -0.783683   -4.956789

 Total Charge           Charge          ....    0
 Multiplicity           Mult            ....    1
 Number of Electrons    NEL             ....  144
 Basis Dimension        Dim             .... 1315

ORBITAL ENERGIES
----------------

  NO   OCC          E(Eh)            E(eV)
   0   2.0000     -92.276148     -2510.9616
   1   2.0000     -26.449185      -719.7189
   2   2.0000     -20.594261      -560.3983
   3   2.0000     -20.589256      -560.2621
   4   2.0000     -15.545730      -423.0208
   5   2.0000     -15.524814      -422.4517
   6   2.0000     -11.312626      -307.8322
   7   2.0000     -11.270065      -306.6741
   8   2.0000     -11.265826      -306.5587
   9   2.0000     -11.251980      -306.1819
  10   2.0000     -11.247124      -306.0498
  11   2.0000     -11.233881      -305.6894
  12   2.0000     -11.226896      -305.4994
  13   2.0000     -11.220529      -305.3261
  14   2.0000     -11.212387      -305.1046
  15   2.0000     -11.207303      -304.9662
  16   2.0000     -11.109198      -302.2967
  17   2.0000      -9.239983      -251.4327
  18   2.0000      -6.927620      -188.5101
  19   2.0000      -6.923368      -188.3944
  20   2.0000      -6.922667      -188.3753
  21   2.0000      -1.810917       -49.2776
  22   2.0000      -1.486696       -40.4550
  23   2.0000      -1.382832       -37.6288
  24   2.0000      -1.273769       -34.6610
  25   2.0000      -1.166222       -31.7345
  26   2.0000      -1.141003       -31.0483
  27   2.0000      -1.098418       -29.8895
  28   2.0000      -1.058129       -28.7932
  29   2.0000      -1.017434       -27.6858
  30   2.0000      -0.985744       -26.8235
  31   2.0000      -0.954527       -25.9740
  32   2.0000      -0.938185       -25.5293
  33   2.0000      -0.898178       -24.4407
  34   2.0000      -0.869407       -23.6578
  35   2.0000      -0.855748       -23.2861
  36   2.0000      -0.836229       -22.7549
  37   2.0000      -0.813687       -22.1415
  38   2.0000      -0.791248       -21.5309
  39   2.0000      -0.772759       -21.0279
  40   2.0000      -0.738706       -20.1012
  41   2.0000      -0.712571       -19.3901
  42   2.0000      -0.701488       -19.0884
  43   2.0000      -0.692618       -18.8471
  44   2.0000      -0.669114       -18.2075
  45   2.0000      -0.665972       -18.1220
  46   2.0000      -0.657983       -17.9046
  47   2.0000      -0.643003       -17.4970
  48   2.0000      -0.620512       -16.8850
  49   2.0000      -0.615128       -16.7385
  50   2.0000      -0.601611       -16.3707
  51   2.0000      -0.597923       -16.2703
  52   2.0000      -0.588052       -16.0017
  53   2.0000      -0.571617       -15.5545
  54   2.0000      -0.554621       -15.0920
  55   2.0000      -0.547887       -14.9088
  56   2.0000      -0.542124       -14.7519
  57   2.0000      -0.533074       -14.5057
  58   2.0000      -0.524722       -14.2784
  59   2.0000      -0.517236       -14.0747
  60   2.0000      -0.514547       -14.0015
  61   2.0000      -0.512835       -13.9550
  62   2.0000      -0.507044       -13.7974
  63   2.0000      -0.494400       -13.4533
  64   2.0000      -0.491203       -13.3663
  65   2.0000      -0.484699       -13.1893
  66   2.0000      -0.477420       -12.9913
  67   2.0000      -0.456368       -12.4184
  68   2.0000      -0.454786       -12.3754
  69   2.0000      -0.444204       -12.0874
  70   2.0000      -0.370569       -10.0837
  71   2.0000      -0.245414        -6.6780
  72   0.0000       0.015710         0.4275
  73   0.0000       0.025684         0.6989
  74   0.0000       0.027246         0.7414
  75   0.0000       0.034898         0.9496
  76   0.0000       0.041515         1.1297

MULLIKEN ATOMIC CHARGES
-----------------------
   0 C :   -0.443433
   1 N :   -0.079584
   2 C :   -0.491225
   3 C :   -0.810400
   4 H :    0.166558
   5 H :    0.332350
   6 S :    2.693473
   7 C :    0.547441
   8 N :   -0.818636
   9 C :   -1.425282
  10 H :    0.316848
  11 H :    0.281420
  12 H :    0.746462
  13 H :    0.356260
  14 H :    0.023493
  15 O :   -0.939177
  16 O :   -1.048711
  17 C :   -0.547013
  18 H :    0.142591
  19 H :    0.269075
  20 C :   -0.372051
  21 C :   -0.476134
  22 H :    0.148149
  23 H :    0.527350
  24 H :    0.282106
  25 H :    0.316084
  26 C :   -0.447427
  27 H :    0.210098
  28 H :    0.247528
  29 C :   -0.269802
  30 H :    0.336681
  31 H :    0.295718
  32 C :   -0.684965
  33 H :    0.492499
  34 H :   -0.006903
  35 H :    0.091855
  36 H :    0.519502
  37 H :    0.133580
  38 H :    0.109406
  39 F :   -0.725784
Sum of atomic charges:   -0.0000000

LOEWDIN ATOMIC CHARGES
----------------------
   0 C :    0.221621
   1 N :    0.571089
   2 C :    0.260573
   3 C :    0.211208
   4 H :   -0.177770
   5 H :   -0.170850
   6 S :    0.053675
   7 C :   -0.439324
   8 N :    0.867392
   9 C :    0.544222
  10 H :   -0.335501
  11 H :   -0.314359
  12 H :   -0.522442
  13 H :   -0.608456
  14 H :   -0.257076
  15 O :    0.218137
  16 O :    0.067736
  17 C :    0.311715
  18 H :   -0.152410
  19 H :   -0.142308
  20 C :    0.293368
  21 C :    0.267923
  22 H :   -0.122128
  23 H :   -0.211351
  24 H :   -0.130274
  25 H :   -0.158249
  26 C :    0.288353
  27 H :   -0.140686
  28 H :   -0.152459
  29 C :    0.282268
  30 H :   -0.128990
  31 H :   -0.161275
  32 C :    0.303538
  33 H :   -0.132406
  34 H :   -0.168697
  35 H :   -0.148153
  36 H :   -0.132450
  37 H :   -0.141348
  38 H :   -0.137223
  39 F :    0.423367

  Mayer bond orders larger than 0.100000
B(  0-C ,  1-N ) :   1.1770 B(  0-C ,  7-C ) :  -0.1925 B(  0-C ,  9-C ) :  -0.1554
B(  0-C , 12-H ) :  -0.1395 B(  0-C , 17-C ) :   0.8269 B(  0-C , 18-H ) :   1.1283
B(  0-C , 19-H ) :   0.9500 B(  0-C , 26-C ) :   0.1102 B(  1-N ,  7-C ) :   1.1463
B(  1-N ,  9-C ) :  -0.1668 B(  1-N , 12-H ) :   0.1261 B(  1-N , 39-F ) :  -0.2063
B(  2-C ,  3-C ) :   0.9723 B(  2-C , 21-C ) :   0.8941 B(  2-C , 24-H ) :   0.9161
B(  2-C , 25-H ) :   0.9553 B(  3-C ,  4-H ) :   1.0618 B(  3-C ,  5-H ) :   0.8631
B(  3-C ,  6-S ) :   0.8498 B(  6-S , 15-O ) :   1.2734 B(  6-S , 16-O ) :   0.8829
B(  6-S , 39-F ) :   0.6566 B(  7-C ,  8-N ) :   0.5251 B(  7-C ,  9-C ) :   1.0883
B(  7-C , 10-H ) :  -0.1007 B(  7-C , 12-H ) :  -0.5753 B(  7-C , 13-H ) :  -0.1475
B(  7-C , 14-H ) :  -0.1837 B(  8-N ,  9-C ) :  -0.1793 B(  8-N , 13-H ) :   0.8272
B(  8-N , 14-H ) :   1.2623 B(  9-C , 10-H ) :   1.1055 B(  9-C , 11-H ) :   1.0417
B( 12-H , 39-F ) :  -0.1857 B( 16-O , 39-F ) :   0.1683 B( 17-C , 26-C ) :   0.9410
B( 17-C , 27-H ) :   0.9792 B( 17-C , 28-H ) :   1.0353 B( 20-C , 21-C ) :   0.7896
B( 20-C , 32-C ) :   0.8362 B( 20-C , 35-H ) :   1.1196 B( 20-C , 36-H ) :   0.7302
B( 21-C , 22-H ) :   1.1213 B( 21-C , 23-H ) :   0.8098 B( 26-C , 29-C ) :   0.8313
B( 26-C , 30-H ) :   0.8982 B( 26-C , 31-H ) :   1.0018 B( 29-C , 32-C ) :   0.8987
B( 29-C , 33-H ) :   0.7508 B( 29-C , 34-H ) :   1.2281 B( 32-C , 37-H ) :   1.1133
B( 32-C , 38-H ) :   1.1328

E(0)                                       ...  -1185.728911506
E(0)                                       ...  -1185.728911506
E(CORR)(strong-pairs)                      ...     -3.389988456
E(CORR)(weak-pairs)                        ...     -0.006901663
E(CORR)(corrected)                         ...     -3.396890120
E(TOT)                                     ...  -1189.125801625
E(CCSD(T))                                 ...  -1189.268830565
FINAL SINGLE POINT ENERGY     -1189.268830564622

DIPOLE MOMENT
-------------
                                X             Y             Z
Electronic contribution:    -18.94354       1.63357     -17.74221
Nuclear contribution   :     18.85717      -4.60195      17.96505
                        -----------------------------------------
Total Dipole Moment    :     -0.08636      -2.96838       0.22284
                        -----------------------------------------
Magnitude (a.u.)       :      2.97799
Magnitude (Debye)      :      7.56944

Rotational constants in cm-1:     0.014436     0.012382     0.007563
Rotational constants in MHz :   432.785702   371.214592   226.743759

                             ****ORCA TERMINATED NORMALLY****
TOTAL RUN TIME: 0 days 7 hours 55 minutes 41 seconds 217 msec
