                         Program Version 5.0.0 -  RELEASE  -
|  1> !wB97X-D3 RIJCOSX def2-SVPD def2/J TightSCF
|  2> *xyz -1 1
|  3> C         -5.57236       -5.80780       -0.81644
|  4> S         -6.90318       -4.61903       -0.52846
|  5> O         -8.11485       -5.25093       -0.95701
|  6> O         -6.53271       -3.42684       -1.31485
|  7> O         -6.86563       -4.29496        0.91412
|  8> C         -3.82708       -4.66110        0.78617
|  9> C         -4.45780       -5.94187        0.22919
| 10> H         -5.17735       -5.54257       -1.79771
| 11> H         -6.07420       -6.76889       -0.92127
| 12> H         -3.68106       -6.56224       -0.22988
| 13> H         -4.84394       -6.51273        1.07581
| 14> H         -3.43706       -4.07576       -0.02016
| 15> H         -3.03403       -4.91680        1.45744
| 16> H         -4.56975       -4.09647        1.31013
| 17> *
| 18> %MaxCore 64000
| 19>
| 20> %pal nprocs 18
| 21> end
| 22>
| 23> %scf
| 24>   MaxIter 150
| 25> end
| 26>
| 27>                          ****END OF INPUT****

CARTESIAN COORDINATES (ANGSTROEM)
---------------------------------
  C     -5.572360   -5.807800   -0.816440
  S     -6.903180   -4.619030   -0.528460
  O     -8.114850   -5.250930   -0.957010
  O     -6.532710   -3.426840   -1.314850
  O     -6.865630   -4.294960    0.914120
  C     -3.827080   -4.661100    0.786170
  C     -4.457800   -5.941870    0.229190
  H     -5.177350   -5.542570   -1.797710
  H     -6.074200   -6.768890   -0.921270
  H     -3.681060   -6.562240   -0.229880
  H     -4.843940   -6.512730    1.075810
  H     -3.437060   -4.075760   -0.020160
  H     -3.034030   -4.916800    1.457440
  H     -4.569750   -4.096470    1.310130

 Total Charge           Charge          ....   -1
 Multiplicity           Mult            ....    1
 Number of Electrons    NEL             ....   66
 Basis Dimension        Dim             ....  212

ORBITAL ENERGIES
----------------

  NO   OCC          E(Eh)            E(eV)
   0   2.0000     -88.979637     -2421.2590
   1   2.0000     -19.032941      -517.9127
   2   2.0000     -19.019511      -517.5472
   3   2.0000     -19.018372      -517.5162
   4   2.0000     -10.165860      -276.6271
   5   2.0000     -10.156875      -276.3826
   6   2.0000     -10.140336      -275.9326
   7   2.0000      -8.052980      -219.1327
   8   2.0000      -6.012529      -163.6092
   9   2.0000      -6.012429      -163.6065
  10   2.0000      -6.012048      -163.5961
  11   2.0000      -1.048707       -28.5368
  12   2.0000      -0.905982       -24.6530
  13   2.0000      -0.882177       -24.0052
  14   2.0000      -0.768670       -20.9166
  15   2.0000      -0.679354       -18.4862
  16   2.0000      -0.581953       -15.8357
  17   2.0000      -0.487421       -13.2634
  18   2.0000      -0.438095       -11.9212
  19   2.0000      -0.421411       -11.4672
  20   2.0000      -0.399149       -10.8614
  21   2.0000      -0.383616       -10.4387
  22   2.0000      -0.366982        -9.9861
  23   2.0000      -0.353278        -9.6132
  24   2.0000      -0.320435        -8.7195
  25   2.0000      -0.315040        -8.5727
  26   2.0000      -0.299876        -8.1600
  27   2.0000      -0.251494        -6.8435
  28   2.0000      -0.249165        -6.7801
  29   2.0000      -0.213985        -5.8228
  30   2.0000      -0.199589        -5.4311
  31   2.0000      -0.198703        -5.4070
  32   2.0000      -0.161033        -4.3819
  33   0.0000       0.202394         5.5074
  34   0.0000       0.223906         6.0928
  35   0.0000       0.226613         6.1664
  36   0.0000       0.233112         6.3433
  37   0.0000       0.252905         6.8819

MULLIKEN ATOMIC CHARGES
-----------------------
   0 C :    0.021872
   1 S :    1.333948
   2 O :   -0.808659
   3 O :   -0.815881
   4 O :   -0.846665
   5 C :    0.717528
   6 C :   -0.314606
   7 H :    0.035792
   8 H :   -0.006461
   9 H :   -0.097406
  10 H :   -0.022238
  11 H :   -0.044238
  12 H :   -0.033936
  13 H :   -0.119050
Sum of atomic charges:   -1.0000000

LOEWDIN ATOMIC CHARGES
----------------------
   0 C :   -0.081491
   1 S :    0.879208
   2 O :   -0.573017
   3 O :   -0.600259
   4 O :   -0.586893
   5 C :    0.118735
   6 C :   -0.090942
   7 H :    0.003160
   8 H :   -0.003405
   9 H :    0.006323
  10 H :    0.016600
  11 H :   -0.016331
  12 H :   -0.031772
  13 H :   -0.039915

  Mayer bond orders larger than 0.100000
B(  0-C ,  1-S ) :   0.8892 B(  0-C ,  6-C ) :   1.2664 B(  0-C ,  7-H ) :   0.9127
B(  0-C ,  8-H ) :   0.8993 B(  0-C ,  9-H ) :   0.1452 B(  0-C , 10-H ) :   0.1295
B(  1-S ,  2-O ) :   1.3681 B(  1-S ,  3-O ) :   1.2704 B(  1-S ,  4-O ) :   1.2613
B(  5-C ,  6-C ) :   1.2489 B(  5-C , 11-H ) :   0.7819 B(  5-C , 12-H ) :   0.7445
B(  5-C , 13-H ) :   0.8508 B(  6-C ,  7-H ) :   0.1222 B(  6-C ,  8-H ) :   0.1367
B(  6-C ,  9-H ) :   0.8794 B(  6-C , 10-H ) :   0.9185 B(  6-C , 11-H ) :   0.1992
B(  6-C , 12-H ) :   0.2033 B(  6-C , 13-H ) :   0.2060

Dispersion correction           -0.004498576
FINAL SINGLE POINT ENERGY      -741.967319052016

DIPOLE MOMENT
-------------
                                X             Y             Z
Electronic contribution:     -9.80289       3.18008      -2.57857
Nuclear contribution   :     11.75544      -4.53524       2.70749
                        -----------------------------------------
Total Dipole Moment    :      1.95255      -1.35516       0.12892
                        -----------------------------------------
Magnitude (a.u.)       :      2.38023
Magnitude (Debye)      :      6.05007

Rotational constants in cm-1:     0.134586     0.054907     0.051455
Rotational constants in MHz :  4034.798577  1646.069534  1542.570153

                             ****ORCA TERMINATED NORMALLY****
TOTAL RUN TIME: 0 days 0 hours 0 minutes 14 seconds 475 msec
