                         Program Version 5.0.0 -  RELEASE  -
|  1> !wB97X-D3 RIJCOSX def2-SVPD def2/J TightSCF
|  2> *xyz 1 1
|  3> C         -4.38262       -1.67089        1.21620
|  4> N         -5.76354       -1.91517        0.70501
|  5> C         -3.28173       -2.19127        0.29436
|  6> H         -5.84081       -2.11520       -0.30065
|  7> H         -6.40882       -1.14866        0.93612
|  8> H         -6.17478       -2.79061        1.05143
|  9> H         -4.32862       -2.13922        2.19810
| 10> H         -4.26158       -0.59740        1.35725
| 11> C         -3.47464       -3.60590       -0.25961
| 12> H         -2.35455       -2.12760        0.87143
| 13> H         -3.16661       -1.49969       -0.54504
| 14> H         -2.64612       -3.85908       -0.88759
| 15> H         -4.37934       -3.64545       -0.82956
| 16> H         -3.53324       -4.30157        0.55126
| 17> *
| 18> %MaxCore 64000
| 19>
| 20> %pal nprocs 18
| 21> end
| 22>
| 23> %scf
| 24>   MaxIter 150
| 25> end
| 26>
| 27>                          ****END OF INPUT****

CARTESIAN COORDINATES (ANGSTROEM)
---------------------------------
  C     -4.382620   -1.670890    1.216200
  N     -5.763540   -1.915170    0.705010
  C     -3.281730   -2.191270    0.294360
  H     -5.840810   -2.115200   -0.300650
  H     -6.408820   -1.148660    0.936120
  H     -6.174780   -2.790610    1.051430
  H     -4.328620   -2.139220    2.198100
  H     -4.261580   -0.597400    1.357250
  C     -3.474640   -3.605900   -0.259610
  H     -2.354550   -2.127600    0.871430
  H     -3.166610   -1.499690   -0.545040
  H     -2.646120   -3.859080   -0.887590
  H     -4.379340   -3.645450   -0.829560
  H     -3.533240   -4.301570    0.551260

 Total Charge           Charge          ....    1
 Multiplicity           Mult            ....    1
 Number of Electrons    NEL             ....   34
 Basis Dimension        Dim             ....  160

ORBITAL ENERGIES
----------------

  NO   OCC          E(Eh)            E(eV)
   0   2.0000     -14.769178      -401.8898
   1   2.0000     -10.538032      -286.7544
   2   2.0000     -10.467337      -284.8307
   3   2.0000     -10.438588      -284.0484
   4   2.0000      -1.319784       -35.9132
   5   2.0000      -1.084090       -29.4996
   6   2.0000      -0.998070       -27.1589
   7   2.0000      -0.902978       -24.5713
   8   2.0000      -0.893396       -24.3105
   9   2.0000      -0.870901       -23.6984
  10   2.0000      -0.790305       -21.5053
  11   2.0000      -0.736483       -20.0407
  12   2.0000      -0.706534       -19.2258
  13   2.0000      -0.682154       -18.5624
  14   2.0000      -0.624198       -16.9853
  15   2.0000      -0.619996       -16.8710
  16   2.0000      -0.601651       -16.3718
  17   0.0000      -0.109151        -2.9701
  18   0.0000      -0.056438        -1.5358
  19   0.0000      -0.051657        -1.4057
  20   0.0000      -0.037809        -1.0288
  21   0.0000      -0.013644        -0.3713

MULLIKEN ATOMIC CHARGES
-----------------------
   0 C :    0.585348
   1 N :   -0.894168
   2 C :   -0.484059
   3 H :    0.376797
   4 H :    0.384948
   5 H :    0.449914
   6 H :   -0.007074
   7 H :    0.016473
   8 C :    0.670041
   9 H :    0.022300
  10 H :   -0.016514
  11 H :   -0.010381
  12 H :   -0.100429
  13 H :    0.006805
Sum of atomic charges:    1.0000000

LOEWDIN ATOMIC CHARGES
----------------------
   0 C :    0.100220
   1 N :    0.327956
   2 C :   -0.046785
   3 H :    0.091628
   4 H :    0.110714
   5 H :    0.107311
   6 H :    0.052597
   7 H :    0.051163
   8 C :    0.144132
   9 H :    0.046756
  10 H :    0.035953
  11 H :    0.008316
  12 H :   -0.028381
  13 H :   -0.001582

  Mayer bond orders larger than 0.100000
B(  0-C ,  1-N ) :   0.6363 B(  0-C ,  2-C ) :   1.2143 B(  0-C ,  6-H ) :   0.8489
B(  0-C ,  7-H ) :   0.9061 B(  0-C ,  9-H ) :   0.1281 B(  0-C , 10-H ) :   0.1068
B(  1-N ,  3-H ) :   0.6875 B(  1-N ,  4-H ) :   0.7537 B(  1-N ,  5-H ) :   0.7236
B(  1-N ,  6-H ) :   0.1159 B(  2-C ,  6-H ) :   0.1280 B(  2-C ,  8-C ) :   1.2830
B(  2-C ,  9-H ) :   0.9409 B(  2-C , 10-H ) :   0.9594 B(  2-C , 11-H ) :   0.1967
B(  2-C , 12-H ) :   0.1674 B(  2-C , 13-H ) :   0.1772 B(  8-C , 11-H ) :   0.8081
B(  8-C , 12-H ) :   0.8501 B(  8-C , 13-H ) :   0.8099

Dispersion correction           -0.002896416
FINAL SINGLE POINT ENERGY      -174.685348776885

DIPOLE MOMENT
-------------
                                X             Y             Z
Electronic contribution:     -1.73994       1.31713       0.78792
Nuclear contribution   :     -0.18358      -0.73024      -0.44649
                        -----------------------------------------
Total Dipole Moment    :     -1.92352       0.58689       0.34142
                        -----------------------------------------
Magnitude (a.u.)       :      2.03984
Magnitude (Debye)      :      5.18485

Rotational constants in cm-1:     0.423641     0.164544     0.133152
Rotational constants in MHz : 12700.438743  4932.897948  3991.802402

                             ****ORCA TERMINATED NORMALLY****
TOTAL RUN TIME: 0 days 0 hours 0 minutes 7 seconds 819 msec
