                         Program Version 5.0.0 -  RELEASE  -
|  1> !wB97X-D3 RIJCOSX def2-SVPD def2/J TightSCF xyzfile
|  2>
|  3> *xyzfile 0 1 B.xyz
|  4>
|  5> %MaxCore 64000
|  6>
|  7> %pal nprocs 18
|  8> end
|  9>
| 10> %scf
| 11>   MaxIter 150
| 12> end
| 13>
| 14>
| 15>                          ****END OF INPUT****

CARTESIAN COORDINATES (ANGSTROEM)
---------------------------------
  C     -4.382623   -1.670889    1.216201
  N     -5.763539   -1.915170    0.705012
  C     -3.281728   -2.191272    0.294361
  C     -5.572364   -5.807798   -0.816445
  S     -6.903179   -4.619033   -0.528458
  H     -5.840812   -2.115205   -0.300646
  H     -6.408823   -1.148656    0.936124
  H     -6.174781   -2.790606    1.051433
  O     -8.114853   -5.250932   -0.957007
  O     -6.532715   -3.426838   -1.314848
  H     -4.328618   -2.139223    2.198103
  H     -4.261583   -0.597399    1.357248
  O     -6.865632   -4.294957    0.914118
  C     -3.474641   -3.605898   -0.259608
  H     -2.354548   -2.127602    0.871433
  H     -3.166611   -1.499693   -0.545037
  C     -3.827078   -4.661097    0.786174
  H     -2.560559   -3.889391   -0.788050
  H     -4.255932   -3.570040   -1.019300
  C     -4.457800   -5.941875    0.229195
  H     -5.177347   -5.542575   -1.797714
  H     -6.074202   -6.768894   -0.921272
  H     -4.530506   -4.253640    1.511979
  H     -2.933400   -4.932302    1.356825
  H     -3.681064   -6.562236   -0.229885
  H     -4.843942   -6.512728    1.075805

 Total Charge           Charge          ....    0
 Multiplicity           Mult            ....    1
 Number of Electrons    NEL             ....   98
 Basis Dimension        Dim             ....  356

ORBITAL ENERGIES
----------------

  NO   OCC          E(Eh)            E(eV)
   0   2.0000     -89.148123     -2425.8438
   1   2.0000     -19.201984      -522.5125
   2   2.0000     -19.198312      -522.4126
   3   2.0000     -19.186306      -522.0859
   4   2.0000     -14.545974      -395.8161
   5   2.0000     -10.379938      -282.4525
   6   2.0000     -10.326322      -280.9935
   7   2.0000     -10.300751      -280.2977
   8   2.0000     -10.298797      -280.2445
   9   2.0000     -10.296901      -280.1929
  10   2.0000     -10.294982      -280.1407
  11   2.0000      -8.220909      -223.7023
  12   2.0000      -6.181321      -168.2023
  13   2.0000      -6.180349      -168.1758
  14   2.0000      -6.179149      -168.1432
  15   2.0000      -1.221106       -33.2280
  16   2.0000      -1.118024       -30.4230
  17   2.0000      -1.071804       -29.1653
  18   2.0000      -1.067335       -29.0437
  19   2.0000      -0.945497       -25.7283
  20   2.0000      -0.905180       -24.6312
  21   2.0000      -0.854367       -23.2485
  22   2.0000      -0.802056       -21.8251
  23   2.0000      -0.747369       -20.3369
  24   2.0000      -0.707892       -19.2627
  25   2.0000      -0.695051       -18.9133
  26   2.0000      -0.681896       -18.5553
  27   2.0000      -0.644781       -17.5454
  28   2.0000      -0.615535       -16.7496
  29   2.0000      -0.596195       -16.2233
  30   2.0000      -0.589764       -16.0483
  31   2.0000      -0.575849       -15.6697
  32   2.0000      -0.553060       -15.0495
  33   2.0000      -0.546018       -14.8579
  34   2.0000      -0.536002       -14.5854
  35   2.0000      -0.521846       -14.2001
  36   2.0000      -0.520765       -14.1707
  37   2.0000      -0.486445       -13.2369
  38   2.0000      -0.475054       -12.9269
  39   2.0000      -0.470870       -12.8130
  40   2.0000      -0.442875       -12.0513
  41   2.0000      -0.435550       -11.8519
  42   2.0000      -0.428927       -11.6717
  43   2.0000      -0.419554       -11.4166
  44   2.0000      -0.415898       -11.3171
  45   2.0000      -0.378376       -10.2961
  46   2.0000      -0.371751       -10.1159
  47   2.0000      -0.361497        -9.8368
  48   2.0000      -0.340308        -9.2603
  49   0.0000       0.053365         1.4521
  50   0.0000       0.085699         2.3320
  51   0.0000       0.091003         2.4763
  52   0.0000       0.095063         2.5868
  53   0.0000       0.112472         3.0605

MULLIKEN ATOMIC CHARGES
-----------------------
   0 C :    0.703240
   1 N :   -0.521797
   2 C :    0.196147
   3 C :    0.124990
   4 S :    1.390085
   5 H :    0.292367
   6 H :    0.326600
   7 H :    0.132944
   8 O :   -0.800336
   9 O :   -0.774086
  10 H :    0.172727
  11 H :   -0.330849
  12 O :   -0.836756
  13 C :    0.172214
  14 H :   -0.005015
  15 H :    0.004559
  16 C :   -0.022781
  17 H :   -0.251974
  18 H :   -0.070543
  19 C :    0.418956
  20 H :    0.139642
  21 H :   -0.238583
  22 H :    0.010794
  23 H :   -0.232496
  24 H :   -0.011379
  25 H :    0.011331
Sum of atomic charges:    0.0000000

LOEWDIN ATOMIC CHARGES
----------------------
   0 C :    0.095935
   1 N :    0.339999
   2 C :   -0.008376
   3 C :   -0.049349
   4 S :    0.976831
   5 H :   -0.010358
   6 H :    0.102338
   7 H :   -0.062295
   8 O :   -0.503006
   9 O :   -0.546324
  10 H :    0.035568
  11 H :    0.030608
  12 O :   -0.525848
  13 C :   -0.008078
  14 H :    0.031743
  15 H :    0.030132
  16 C :   -0.020188
  17 H :    0.032037
  18 H :   -0.016189
  19 C :   -0.024336
  20 H :    0.014819
  21 H :    0.012806
  22 H :   -0.014632
  23 H :    0.028141
  24 H :    0.027184
  25 H :    0.030840

  Mayer bond orders larger than 0.100000
B(  0-C ,  1-N ) :   0.6640 B(  0-C ,  2-C ) :   1.1995 B(  0-C , 10-H ) :   0.7324
B(  0-C , 11-H ) :   0.9983 B(  0-C , 14-H ) :   0.1296 B(  0-C , 15-H ) :   0.1273
B(  1-N ,  5-H ) :   0.7319 B(  1-N ,  6-H ) :   0.8454 B(  1-N ,  7-H ) :   1.1448
B(  1-N , 18-H ) :   0.1004 B(  2-C , 11-H ) :   0.1468 B(  2-C , 13-C ) :   1.2498
B(  2-C , 14-H ) :   0.8406 B(  2-C , 15-H ) :   0.7463 B(  3-C ,  4-S ) :   0.9268
B(  3-C ,  8-O ) :   0.1313 B(  3-C , 19-C ) :   1.1996 B(  3-C , 20-H ) :   0.8597
B(  3-C , 21-H ) :   0.9500 B(  3-C , 24-H ) :   0.1316 B(  3-C , 25-H ) :   0.1230
B(  4-S ,  8-O ) :   1.4833 B(  4-S ,  9-O ) :   1.1264 B(  4-S , 12-O ) :   1.0993
B(  5-H ,  9-O ) :   0.1856 B(  7-H , 12-O ) :   0.1730 B(  9-O , 12-O ) :   0.1391
B( 10-H , 11-H ) :  -0.1141 B( 13-C , 14-H ) :   0.1242 B( 13-C , 15-H ) :   0.2043
B( 13-C , 16-C ) :   1.1606 B( 13-C , 17-H ) :   0.8400 B( 13-C , 18-H ) :   0.8705
B( 13-C , 23-H ) :   0.1606 B( 16-C , 17-H ) :   0.1696 B( 16-C , 18-H ) :   0.1506
B( 16-C , 19-C ) :   1.2810 B( 16-C , 22-H ) :   0.8798 B( 16-C , 23-H ) :   0.8813
B( 16-C , 24-H ) :   0.1293 B( 16-C , 25-H ) :   0.2427 B( 19-C , 21-H ) :   0.1740
B( 19-C , 24-H ) :   0.7840 B( 19-C , 25-H ) :   0.6935

Dispersion correction           -0.013284279
FINAL SINGLE POINT ENERGY      -915.647010597832

DIPOLE MOMENT
-------------
                                X             Y             Z
Electronic contribution:    -13.45224      -2.92738      -3.66008
Nuclear contribution   :     16.18863       5.15617       4.97370
                        -----------------------------------------
Total Dipole Moment    :      2.73639       2.22879       1.31362
                        -----------------------------------------
Magnitude (a.u.)       :      3.76576
Magnitude (Debye)      :      9.57180

Rotational constants in cm-1:     0.048546     0.025588     0.020102
Rotational constants in MHz :  1455.374030   767.095631   602.645620

                             ****ORCA TERMINATED NORMALLY****
TOTAL RUN TIME: 0 days 0 hours 0 minutes 42 seconds 807 msec
