                         Program Version 5.0.0 -  RELEASE  -
|  1> !wB97X-D3 RIJCOSX def2-SVPD def2/J TightSCF
|  2> *xyz 0 1
|  3> C         -5.57236       -5.80780       -0.81644
|  4> S         -6.90318       -4.61903       -0.52846
|  5> F         -8.11485       -5.25093       -0.95701
|  6> O         -6.53271       -3.42684       -1.31485
|  7> O         -6.86563       -4.29496        0.91412
|  8> C         -3.82708       -4.66110        0.78617
|  9> C         -4.45780       -5.94187        0.22919
| 10> H         -5.17735       -5.54257       -1.79771
| 11> H         -6.07420       -6.76889       -0.92127
| 12> H         -3.68106       -6.56224       -0.22988
| 13> H         -4.84394       -6.51273        1.07581
| 14> H         -3.43706       -4.07576       -0.02016
| 15> H         -3.03403       -4.91680        1.45744
| 16> H         -4.56975       -4.09647        1.31013
| 17> *
| 18> %MaxCore 64000
| 19>
| 20> %pal nprocs 18
| 21> end
| 22>
| 23> %scf
| 24>   MaxIter 150
| 25> end
| 26>
| 27>                          ****END OF INPUT****

CARTESIAN COORDINATES (ANGSTROEM)
---------------------------------
  C     -5.572360   -5.807800   -0.816440
  S     -6.903180   -4.619030   -0.528460
  F     -8.114850   -5.250930   -0.957010
  O     -6.532710   -3.426840   -1.314850
  O     -6.865630   -4.294960    0.914120
  C     -3.827080   -4.661100    0.786170
  C     -4.457800   -5.941870    0.229190
  H     -5.177350   -5.542570   -1.797710
  H     -6.074200   -6.768890   -0.921270
  H     -3.681060   -6.562240   -0.229880
  H     -4.843940   -6.512730    1.075810
  H     -3.437060   -4.075760   -0.020160
  H     -3.034030   -4.916800    1.457440
  H     -4.569750   -4.096470    1.310130

 Total Charge           Charge          ....    0
 Multiplicity           Mult            ....    1
 Number of Electrons    NEL             ....   66
 Basis Dimension        Dim             ....  212

ORBITAL ENERGIES
----------------

  NO   OCC          E(Eh)            E(eV)
   0   2.0000     -89.237749     -2428.2826
   1   2.0000     -24.928924      -678.3505
   2   2.0000     -19.251202      -523.8518
   3   2.0000     -19.251009      -523.8466
   4   2.0000     -10.356623      -281.8181
   5   2.0000     -10.322048      -280.8772
   6   2.0000     -10.279689      -279.7246
   7   2.0000      -8.312004      -226.1811
   8   2.0000      -6.275753      -170.7719
   9   2.0000      -6.269128      -170.5916
  10   2.0000      -6.267939      -170.5593
  11   2.0000      -1.505506       -40.9669
  12   2.0000      -1.215148       -33.0659
  13   2.0000      -1.110692       -30.2235
  14   2.0000      -0.944064       -25.6893
  15   2.0000      -0.872028       -23.7291
  16   2.0000      -0.822848       -22.3908
  17   2.0000      -0.749803       -20.4032
  18   2.0000      -0.704772       -19.1778
  19   2.0000      -0.692798       -18.8520
  20   2.0000      -0.658892       -17.9294
  21   2.0000      -0.598757       -16.2930
  22   2.0000      -0.586379       -15.9562
  23   2.0000      -0.560823       -15.2608
  24   2.0000      -0.547004       -14.8847
  25   2.0000      -0.519852       -14.1459
  26   2.0000      -0.486718       -13.2443
  27   2.0000      -0.473900       -12.8955
  28   2.0000      -0.466833       -12.7032
  29   2.0000      -0.452319       -12.3082
  30   2.0000      -0.419811       -11.4236
  31   2.0000      -0.416242       -11.3265
  32   2.0000      -0.398523       -10.8444
  33   0.0000       0.064174         1.7463
  34   0.0000       0.082935         2.2568
  35   0.0000       0.093702         2.5498
  36   0.0000       0.100208         2.7268
  37   0.0000       0.113652         3.0926

MULLIKEN ATOMIC CHARGES
-----------------------
   0 C :   -0.033952
   1 S :    1.539409
   2 F :   -0.432799
   3 O :   -0.678830
   4 O :   -0.721623
   5 C :    0.703647
   6 C :   -0.331413
   7 H :    0.096770
   8 H :    0.058641
   9 H :   -0.050683
  10 H :    0.008676
  11 H :   -0.025367
  12 H :   -0.002349
  13 H :   -0.130128
Sum of atomic charges:    0.0000000

LOEWDIN ATOMIC CHARGES
----------------------
   0 C :   -0.046803
   1 S :    1.146774
   2 F :   -0.254894
   3 O :   -0.486686
   4 O :   -0.483342
   5 C :    0.139538
   6 C :   -0.063233
   7 H :    0.024305
   8 H :    0.013104
   9 H :    0.031667
  10 H :    0.029578
  11 H :   -0.006240
  12 H :   -0.010681
  13 H :   -0.033088

  Mayer bond orders larger than 0.100000
B(  0-C ,  1-S ) :   0.9335 B(  0-C ,  6-C ) :   1.3139 B(  0-C ,  7-H ) :   0.9214
B(  0-C ,  8-H ) :   0.8588 B(  0-C ,  9-H ) :   0.1383 B(  0-C , 10-H ) :   0.1274
B(  1-S ,  2-F ) :   0.6766 B(  1-S ,  3-O ) :   1.4823 B(  1-S ,  4-O ) :   1.4527
B(  5-C ,  6-C ) :   1.2694 B(  5-C , 11-H ) :   0.7864 B(  5-C , 12-H ) :   0.7554
B(  5-C , 13-H ) :   0.8589 B(  6-C ,  7-H ) :   0.1145 B(  6-C ,  8-H ) :   0.1486
B(  6-C ,  9-H ) :   0.8800 B(  6-C , 10-H ) :   0.9167 B(  6-C , 11-H ) :   0.1919
B(  6-C , 12-H ) :   0.1942 B(  6-C , 13-H ) :   0.1922

Dispersion correction           -0.004490134
FINAL SINGLE POINT ENERGY      -766.444547566405

DIPOLE MOMENT
-------------
                                X             Y             Z
Electronic contribution:    -13.36896       2.40026      -3.89410
Nuclear contribution   :     13.81909      -4.05404       3.42760
                        -----------------------------------------
Total Dipole Moment    :      0.45012      -1.65378      -0.46650
                        -----------------------------------------
Magnitude (a.u.)       :      1.77629
Magnitude (Debye)      :      4.51497

Rotational constants in cm-1:     0.132500     0.053014     0.049575
Rotational constants in MHz :  3972.256497  1589.318970  1486.215991

                             ****ORCA TERMINATED NORMALLY****
TOTAL RUN TIME: 0 days 0 hours 0 minutes 14 seconds 356 msec
