                         Program Version 5.0.0 -  RELEASE  -
|  1> !wB97X-D3 RIJCOSX def2-SVPD def2/J TightSCF
|  2> *xyz 0 1
|  3> C         -4.38262       -1.67089        1.21620
|  4> C         -5.76354       -1.91517        0.70501
|  5> C         -3.28173       -2.19127        0.29436
|  6> H         -5.84081       -2.11520       -0.30065
|  7> H         -6.40882       -1.14866        0.93612
|  8> H         -6.17478       -2.79061        1.05143
|  9> H         -4.32862       -2.13922        2.19810
| 10> H         -4.26158       -0.59740        1.35725
| 11> C         -3.47464       -3.60590       -0.25961
| 12> H         -2.35455       -2.12760        0.87143
| 13> H         -3.16661       -1.49969       -0.54504
| 14> H         -2.64612       -3.85908       -0.88759
| 15> H         -4.37934       -3.64545       -0.82956
| 16> H         -3.53324       -4.30157        0.55126
| 17> *
| 18> %MaxCore 64000
| 19>
| 20> %pal nprocs 18
| 21> end
| 22>
| 23> %scf
| 24>   MaxIter 150
| 25> end
| 26>
| 27>                          ****END OF INPUT****

CARTESIAN COORDINATES (ANGSTROEM)
---------------------------------
  C     -4.382620   -1.670890    1.216200
  C     -5.763540   -1.915170    0.705010
  C     -3.281730   -2.191270    0.294360
  H     -5.840810   -2.115200   -0.300650
  H     -6.408820   -1.148660    0.936120
  H     -6.174780   -2.790610    1.051430
  H     -4.328620   -2.139220    2.198100
  H     -4.261580   -0.597400    1.357250
  C     -3.474640   -3.605900   -0.259610
  H     -2.354550   -2.127600    0.871430
  H     -3.166610   -1.499690   -0.545040
  H     -2.646120   -3.859080   -0.887590
  H     -4.379340   -3.645450   -0.829560
  H     -3.533240   -4.301570    0.551260

 Total Charge           Charge          ....    0
 Multiplicity           Mult            ....    1
 Number of Electrons    NEL             ....   34
 Basis Dimension        Dim             ....  160

ORBITAL ENERGIES
----------------

  NO   OCC          E(Eh)            E(eV)
   0   2.0000     -10.279293      -279.7138
   1   2.0000     -10.275651      -279.6147
   2   2.0000     -10.269267      -279.4410
   3   2.0000     -10.249192      -278.8947
   4   2.0000      -0.910784       -24.7837
   5   2.0000      -0.836469       -22.7615
   6   2.0000      -0.757545       -20.6139
   7   2.0000      -0.669804       -18.2263
   8   2.0000      -0.567931       -15.4542
   9   2.0000      -0.563058       -15.3216
  10   2.0000      -0.517224       -14.0744
  11   2.0000      -0.493711       -13.4346
  12   2.0000      -0.480441       -13.0735
  13   2.0000      -0.454925       -12.3791
  14   2.0000      -0.421453       -11.4683
  15   2.0000      -0.414202       -11.2710
  16   2.0000      -0.404635       -11.0107
  17   0.0000       0.095295         2.5931
  18   0.0000       0.120374         3.2756
  19   0.0000       0.122928         3.3451
  20   0.0000       0.138520         3.7693
  21   0.0000       0.166855         4.5403

MULLIKEN ATOMIC CHARGES
-----------------------
   0 C :   -0.235787
   1 C :    0.952048
   2 C :   -0.333908
   3 H :   -0.338764
   4 H :   -0.294979
   5 H :   -0.076931
   6 H :   -0.069900
   7 H :   -0.033591
   8 C :    0.618567
   9 H :   -0.053052
  10 H :   -0.007404
  11 H :   -0.029050
  12 H :   -0.052542
  13 H :   -0.044708
Sum of atomic charges:    0.0000000

LOEWDIN ATOMIC CHARGES
----------------------
   0 C :   -0.067244
   1 C :    0.115192
   2 C :   -0.081543
   3 H :   -0.043910
   4 H :   -0.031861
   5 H :   -0.029892
   6 H :    0.021437
   7 H :    0.019883
   8 C :    0.121635
   9 H :    0.015705
  10 H :    0.021111
  11 H :   -0.017867
  12 H :   -0.028935
  13 H :   -0.013712

  Mayer bond orders larger than 0.100000
B(  0-C ,  1-C ) :   1.2290 B(  0-C ,  2-C ) :   1.2100 B(  0-C ,  3-H ) :   0.2559
B(  0-C ,  4-H ) :   0.1787 B(  0-C ,  5-H ) :   0.2186 B(  0-C ,  6-H ) :   0.8667
B(  0-C ,  7-H ) :   0.8989 B(  0-C ,  9-H ) :   0.1679 B(  0-C , 10-H ) :   0.1261
B(  1-C ,  3-H ) :   0.6504 B(  1-C ,  4-H ) :   0.7866 B(  1-C ,  5-H ) :   0.6117
B(  1-C ,  6-H ) :   0.1211 B(  2-C ,  6-H ) :   0.1361 B(  2-C ,  8-C ) :   1.2995
B(  2-C ,  9-H ) :   0.9034 B(  2-C , 10-H ) :   0.9093 B(  2-C , 11-H ) :   0.2021
B(  2-C , 12-H ) :   0.1816 B(  2-C , 13-H ) :   0.1758 B(  3-H ,  5-H ) :   0.3000
B(  8-C , 11-H ) :   0.7679 B(  8-C , 12-H ) :   0.8546 B(  8-C , 13-H ) :   0.8196

Dispersion correction           -0.002801691
FINAL SINGLE POINT ENERGY      -158.286293439175

DIPOLE MOMENT
-------------
                                X             Y             Z
Electronic contribution:      0.63547       0.59364       0.37802
Nuclear contribution   :     -0.64996      -0.59433      -0.37777
                        -----------------------------------------
Total Dipole Moment    :     -0.01449      -0.00069       0.00025
                        -----------------------------------------
Magnitude (a.u.)       :      0.01451
Magnitude (Debye)      :      0.03687

Rotational constants in cm-1:     0.431358     0.171688     0.138554
Rotational constants in MHz : 12931.797515  5147.084397  4153.759343

                             ****ORCA TERMINATED NORMALLY****
TOTAL RUN TIME: 0 days 0 hours 0 minutes 7 seconds 548 msec
