                         Program Version 5.0.0 -  RELEASE  -
|  1> !wB97X-D3 RIJCOSX def2-SVPD def2/J TightSCF
|  2> *xyz 0 1
|  3> C         -5.57236       -5.80780       -0.81644
|  4> S         -6.90318       -4.61903       -0.52846
|  5> O         -8.11485       -5.25093       -0.95701
|  6> F         -6.53271       -3.42684       -1.31485
|  7> O         -6.86563       -4.29496        0.91412
|  8> C         -3.82708       -4.66110        0.78617
|  9> C         -4.45780       -5.94187        0.22919
| 10> H         -5.17735       -5.54257       -1.79771
| 11> H         -6.07420       -6.76889       -0.92127
| 12> H         -3.68106       -6.56224       -0.22988
| 13> H         -4.84394       -6.51273        1.07581
| 14> H         -3.43706       -4.07576       -0.02016
| 15> H         -3.03403       -4.91680        1.45744
| 16> H         -4.56975       -4.09647        1.31013
| 17> *
| 18> %MaxCore 64000
| 19>
| 20> %pal nprocs 18
| 21> end
| 22>
| 23> %scf
| 24>   MaxIter 150
| 25> end
| 26>
| 27>                          ****END OF INPUT****

CARTESIAN COORDINATES (ANGSTROEM)
---------------------------------
  C     -5.572360   -5.807800   -0.816440
  S     -6.903180   -4.619030   -0.528460
  O     -8.114850   -5.250930   -0.957010
  F     -6.532710   -3.426840   -1.314850
  O     -6.865630   -4.294960    0.914120
  C     -3.827080   -4.661100    0.786170
  C     -4.457800   -5.941870    0.229190
  H     -5.177350   -5.542570   -1.797710
  H     -6.074200   -6.768890   -0.921270
  H     -3.681060   -6.562240   -0.229880
  H     -4.843940   -6.512730    1.075810
  H     -3.437060   -4.075760   -0.020160
  H     -3.034030   -4.916800    1.457440
  H     -4.569750   -4.096470    1.310130

 Total Charge           Charge          ....    0
 Multiplicity           Mult            ....    1
 Number of Electrons    NEL             ....   66
 Basis Dimension        Dim             ....  212

ORBITAL ENERGIES
----------------

  NO   OCC          E(Eh)            E(eV)
   0   2.0000     -89.235748     -2428.2281
   1   2.0000     -24.907010      -677.7542
   2   2.0000     -19.265441      -524.2393
   3   2.0000     -19.250415      -523.8304
   4   2.0000     -10.355999      -281.8011
   5   2.0000     -10.321745      -280.8689
   6   2.0000     -10.286011      -279.8966
   7   2.0000      -8.309875      -226.1232
   8   2.0000      -6.273502      -170.7107
   9   2.0000      -6.267178      -170.5386
  10   2.0000      -6.265987      -170.5062
  11   2.0000      -1.468226       -39.9525
  12   2.0000      -1.231583       -33.5131
  13   2.0000      -1.126821       -30.6624
  14   2.0000      -0.944955       -25.7135
  15   2.0000      -0.865738       -23.5579
  16   2.0000      -0.813010       -22.1231
  17   2.0000      -0.745806       -20.2944
  18   2.0000      -0.680263       -18.5109
  19   2.0000      -0.675399       -18.3785
  20   2.0000      -0.659485       -17.9455
  21   2.0000      -0.603872       -16.4322
  22   2.0000      -0.584189       -15.8966
  23   2.0000      -0.559346       -15.2206
  24   2.0000      -0.550089       -14.9687
  25   2.0000      -0.535706       -14.5773
  26   2.0000      -0.494142       -13.4463
  27   2.0000      -0.477545       -12.9946
  28   2.0000      -0.474087       -12.9006
  29   2.0000      -0.454907       -12.3786
  30   2.0000      -0.433208       -11.7882
  31   2.0000      -0.420775       -11.4499
  32   2.0000      -0.407709       -11.0943
  33   0.0000       0.067495         1.8366
  34   0.0000       0.086036         2.3412
  35   0.0000       0.095648         2.6027
  36   0.0000       0.097043         2.6407
  37   0.0000       0.113281         3.0825

MULLIKEN ATOMIC CHARGES
-----------------------
   0 C :   -0.040489
   1 S :    1.495383
   2 O :   -0.675913
   3 F :   -0.400823
   4 O :   -0.720209
   5 C :    0.705823
   6 C :   -0.306176
   7 H :    0.095932
   8 H :    0.053377
   9 H :   -0.049354
  10 H :    0.010780
  11 H :   -0.039649
  12 H :    0.001944
  13 H :   -0.130627
Sum of atomic charges:   -0.0000000

LOEWDIN ATOMIC CHARGES
----------------------
   0 C :   -0.040534
   1 S :    1.142130
   2 O :   -0.461653
   3 F :   -0.274182
   4 O :   -0.479896
   5 C :    0.133924
   6 C :   -0.067948
   7 H :    0.019680
   8 H :    0.025331
   9 H :    0.029861
  10 H :    0.031810
  11 H :   -0.011190
  12 H :   -0.009888
  13 H :   -0.037445

  Mayer bond orders larger than 0.100000
B(  0-C ,  1-S ) :   0.9476 B(  0-C ,  6-C ) :   1.3049 B(  0-C ,  7-H ) :   0.8935
B(  0-C ,  8-H ) :   0.9065 B(  0-C ,  9-H ) :   0.1337 B(  0-C , 10-H ) :   0.1322
B(  1-S ,  2-O ) :   1.5827 B(  1-S ,  3-F ) :   0.6182 B(  1-S ,  4-O ) :   1.4857
B(  5-C ,  6-C ) :   1.2653 B(  5-C , 11-H ) :   0.7860 B(  5-C , 12-H ) :   0.7622
B(  5-C , 13-H ) :   0.8590 B(  6-C ,  7-H ) :   0.1187 B(  6-C ,  8-H ) :   0.1289
B(  6-C ,  9-H ) :   0.8808 B(  6-C , 10-H ) :   0.9192 B(  6-C , 11-H ) :   0.1874
B(  6-C , 12-H ) :   0.1923 B(  6-C , 13-H ) :   0.1902

Dispersion correction           -0.004434251
FINAL SINGLE POINT ENERGY      -766.463481234183

DIPOLE MOMENT
-------------
                                X             Y             Z
Electronic contribution:    -10.62030       5.55907      -4.51494
Nuclear contribution   :     12.11759      -6.01574       3.81244
                        -----------------------------------------
Total Dipole Moment    :      1.49729      -0.45667      -0.70250
                        -----------------------------------------
Magnitude (a.u.)       :      1.71578
Magnitude (Debye)      :      4.36118

Rotational constants in cm-1:     0.128152     0.053825     0.050608
Rotational constants in MHz :  3841.897096  1613.621976  1517.196867

                             ****ORCA TERMINATED NORMALLY****
TOTAL RUN TIME: 0 days 0 hours 0 minutes 14 seconds 132 msec
