                         Program Version 5.0.0 -  RELEASE  -
|  1> !wB97X-D3 RIJCOSX def2-SVPD def2/J TightSCF
|  2> *xyz 0 1
|  3> C         -5.57236       -5.80780       -0.81644
|  4> S         -6.90318       -4.61903       -0.52846
|  5> O         -8.11485       -5.25093       -0.95701
|  6> O         -6.53271       -3.42684       -1.31485
|  7> F         -6.86563       -4.29496        0.91412
|  8> C         -3.82708       -4.66110        0.78617
|  9> C         -4.45780       -5.94187        0.22919
| 10> H         -5.17735       -5.54257       -1.79771
| 11> H         -6.07420       -6.76889       -0.92127
| 12> H         -3.68106       -6.56224       -0.22988
| 13> H         -4.84394       -6.51273        1.07581
| 14> H         -3.43706       -4.07576       -0.02016
| 15> H         -3.03403       -4.91680        1.45744
| 16> H         -4.56975       -4.09647        1.31013
| 17> *
| 18> %MaxCore 64000
| 19>
| 20> %pal nprocs 18
| 21> end
| 22>
| 23> %scf
| 24>   MaxIter 150
| 25> end
| 26>
| 27>                          ****END OF INPUT****

CARTESIAN COORDINATES (ANGSTROEM)
---------------------------------
  C     -5.572360   -5.807800   -0.816440
  S     -6.903180   -4.619030   -0.528460
  O     -8.114850   -5.250930   -0.957010
  O     -6.532710   -3.426840   -1.314850
  F     -6.865630   -4.294960    0.914120
  C     -3.827080   -4.661100    0.786170
  C     -4.457800   -5.941870    0.229190
  H     -5.177350   -5.542570   -1.797710
  H     -6.074200   -6.768890   -0.921270
  H     -3.681060   -6.562240   -0.229880
  H     -4.843940   -6.512730    1.075810
  H     -3.437060   -4.075760   -0.020160
  H     -3.034030   -4.916800    1.457440
  H     -4.569750   -4.096470    1.310130

 Total Charge           Charge          ....    0
 Multiplicity           Mult            ....    1
 Number of Electrons    NEL             ....   66
 Basis Dimension        Dim             ....  212

ORBITAL ENERGIES
----------------

  NO   OCC          E(Eh)            E(eV)
   0   2.0000     -89.234471     -2428.1934
   1   2.0000     -24.905773      -677.7205
   2   2.0000     -19.264597      -524.2163
   3   2.0000     -19.249173      -523.7966
   4   2.0000     -10.354844      -281.7696
   5   2.0000     -10.328454      -281.0515
   6   2.0000     -10.296524      -280.1827
   7   2.0000      -8.308632      -226.0894
   8   2.0000      -6.272338      -170.6790
   9   2.0000      -6.265936      -170.5048
  10   2.0000      -6.264672      -170.4704
  11   2.0000      -1.465575       -39.8803
  12   2.0000      -1.231493       -33.5106
  13   2.0000      -1.126239       -30.6465
  14   2.0000      -0.949237       -25.8301
  15   2.0000      -0.866735       -23.5851
  16   2.0000      -0.814169       -22.1547
  17   2.0000      -0.752410       -20.4741
  18   2.0000      -0.687264       -18.7014
  19   2.0000      -0.677224       -18.4282
  20   2.0000      -0.648118       -17.6362
  21   2.0000      -0.602396       -16.3920
  22   2.0000      -0.578922       -15.7533
  23   2.0000      -0.573968       -15.6185
  24   2.0000      -0.552694       -15.0396
  25   2.0000      -0.534900       -14.5554
  26   2.0000      -0.496796       -13.5185
  27   2.0000      -0.486299       -13.2329
  28   2.0000      -0.478755       -13.0276
  29   2.0000      -0.461636       -12.5618
  30   2.0000      -0.431657       -11.7460
  31   2.0000      -0.419347       -11.4110
  32   2.0000      -0.409410       -11.1406
  33   0.0000       0.063335         1.7234
  34   0.0000       0.090572         2.4646
  35   0.0000       0.095696         2.6040
  36   0.0000       0.097838         2.6623
  37   0.0000       0.113438         3.0868

MULLIKEN ATOMIC CHARGES
-----------------------
   0 C :   -0.018349
   1 S :    1.470038
   2 O :   -0.675624
   3 O :   -0.686743
   4 F :   -0.422430
   5 C :    0.712951
   6 C :   -0.313487
   7 H :    0.097359
   8 H :    0.058292
   9 H :   -0.038883
  10 H :   -0.013169
  11 H :   -0.024874
  12 H :    0.006357
  13 H :   -0.151438
Sum of atomic charges:   -0.0000000

LOEWDIN ATOMIC CHARGES
----------------------
   0 C :   -0.035585
   1 S :    1.134707
   2 O :   -0.461975
   3 O :   -0.488511
   4 F :   -0.274846
   5 C :    0.135693
   6 C :   -0.075153
   7 H :    0.032292
   8 H :    0.020057
   9 H :    0.031231
  10 H :    0.026429
  11 H :   -0.003675
  12 H :   -0.008722
  13 H :   -0.031943

  Mayer bond orders larger than 0.100000
B(  0-C ,  1-S ) :   0.9612 B(  0-C ,  6-C ) :   1.2744 B(  0-C ,  7-H ) :   0.9088
B(  0-C ,  8-H ) :   0.9040 B(  0-C ,  9-H ) :   0.1388 B(  0-C , 10-H ) :   0.1213
B(  1-S ,  2-O ) :   1.5647 B(  1-S ,  3-O ) :   1.4922 B(  1-S ,  4-F ) :   0.6300
B(  5-C ,  6-C ) :   1.2625 B(  5-C , 11-H ) :   0.7937 B(  5-C , 12-H ) :   0.7576
B(  5-C , 13-H ) :   0.8515 B(  6-C ,  7-H ) :   0.1220 B(  6-C ,  8-H ) :   0.1333
B(  6-C ,  9-H ) :   0.8742 B(  6-C , 10-H ) :   0.9356 B(  6-C , 11-H ) :   0.1967
B(  6-C , 12-H ) :   0.1940 B(  6-C , 13-H ) :   0.1853 B( 11-H , 13-H ) :   0.1037

Dispersion correction           -0.004470388
FINAL SINGLE POINT ENERGY      -766.463507497068

DIPOLE MOMENT
-------------
                                X             Y             Z
Electronic contribution:    -11.12515       4.02278      -0.66564
Nuclear contribution   :     12.47562      -5.08213       1.41531
                        -----------------------------------------
Total Dipole Moment    :      1.35047      -1.05934       0.74967
                        -----------------------------------------
Magnitude (a.u.)       :      1.87296
Magnitude (Debye)      :      4.76069

Rotational constants in cm-1:     0.128398     0.054249     0.051014
Rotational constants in MHz :  3849.278549  1626.338413  1529.351405

                             ****ORCA TERMINATED NORMALLY****
TOTAL RUN TIME: 0 days 0 hours 0 minutes 14 seconds 489 msec
