                         Program Version 5.0.0 -  RELEASE  -
|  1> !CAM-B3LYP RIJCOSX def2-SVP def2/J TightSCF
|  2> *xyz -1 1
|  3> C          0.96805        1.63064       -3.71575
|  4> C         -0.50835        1.72268       -4.12430
|  5> S         -1.32861        0.14674       -4.43578
|  6> H         -0.59151        2.29496       -5.04722
|  7> H         -1.11411        2.23561       -3.37436
|  8> O         -2.57135        0.47573       -5.06834
|  9> O         -1.51496       -0.40051       -3.06342
| 10> O         -0.37793       -0.62756       -5.20114
| 11> H          1.51840        1.12197       -4.47946
| 12> H          1.05062        1.08971       -2.79625
| 13> H          1.36450        2.61606       -3.58668
| 14> *
| 15> %MaxCore 64000
| 16>
| 17> %pal nprocs 4
| 18> end
| 19>
| 20> %scf
| 21>   MaxIter 150
| 22> end
| 23>
| 24>
| 25>                          ****END OF INPUT****

CARTESIAN COORDINATES (ANGSTROEM)
---------------------------------
  C      0.968050    1.630640   -3.715750
  C     -0.508350    1.722680   -4.124300
  S     -1.328610    0.146740   -4.435780
  H     -0.591510    2.294960   -5.047220
  H     -1.114110    2.235610   -3.374360
  O     -2.571350    0.475730   -5.068340
  O     -1.514960   -0.400510   -3.063420
  O     -0.377930   -0.627560   -5.201140
  H      1.518400    1.121970   -4.479460
  H      1.050620    1.089710   -2.796250
  H      1.364500    2.616060   -3.586680

 Total Charge           Charge          ....   -1
 Multiplicity           Mult            ....    1
 Number of Electrons    NEL             ....   58
 Basis Dimension        Dim             ....  113

ORBITAL ENERGIES
----------------

  NO   OCC          E(Eh)            E(eV)
   0   2.0000     -88.920828     -2419.6588
   1   2.0000     -18.960218      -515.9337
   2   2.0000     -18.957069      -515.8481
   3   2.0000     -18.937832      -515.3246
   4   2.0000     -10.107613      -275.0421
   5   2.0000     -10.101136      -274.8659
   6   2.0000      -7.980941      -217.1724
   7   2.0000      -5.950374      -161.9179
   8   2.0000      -5.950138      -161.9115
   9   2.0000      -5.950026      -161.9084
  10   2.0000      -0.987779       -26.8788
  11   2.0000      -0.847213       -23.0538
  12   2.0000      -0.813691       -22.1416
  13   2.0000      -0.694820       -18.9070
  14   2.0000      -0.567631       -15.4460
  15   2.0000      -0.432169       -11.7599
  16   2.0000      -0.375258       -10.2113
  17   2.0000      -0.367410        -9.9977
  18   2.0000      -0.328383        -8.9358
  19   2.0000      -0.309694        -8.4272
  20   2.0000      -0.305168        -8.3040
  21   2.0000      -0.280956        -7.6452
  22   2.0000      -0.266444        -7.2503
  23   2.0000      -0.189822        -5.1653
  24   2.0000      -0.188821        -5.1381
  25   2.0000      -0.156714        -4.2644
  26   2.0000      -0.145484        -3.9588
  27   2.0000      -0.130955        -3.5635
  28   2.0000      -0.099021        -2.6945
  29   0.0000       0.245720         6.6864
  30   0.0000       0.297659         8.0997
  31   0.0000       0.306729         8.3465
  32   0.0000       0.312919         8.5150
  33   0.0000       0.341937         9.3046

MULLIKEN ATOMIC CHARGES
-----------------------
   0 C :    0.045123
   1 C :   -0.083929
   2 S :    0.870250
   3 H :   -0.019701
   4 H :   -0.007206
   5 O :   -0.561581
   6 O :   -0.627834
   7 O :   -0.575941
   8 H :    0.002341
   9 H :   -0.000297
  10 H :   -0.041226
Sum of atomic charges:   -1.0000000

LOEWDIN ATOMIC CHARGES
----------------------
   0 C :   -0.070812
   1 C :   -0.187471
   2 S :    1.108717
   3 H :   -0.000175
   4 H :    0.006621
   5 O :   -0.603474
   6 O :   -0.668841
   7 O :   -0.615978
   8 H :    0.015601
   9 H :    0.015632
  10 H :    0.000181

  Mayer bond orders larger than 0.100000
B(  0-C ,  1-C ) :   1.0610 B(  0-C ,  8-H ) :   0.9667 B(  0-C ,  9-H ) :   0.9679
B(  0-C , 10-H ) :   0.9618 B(  1-C ,  2-S ) :   0.9010 B(  1-C ,  3-H ) :   0.9411
B(  1-C ,  4-H ) :   0.9453 B(  2-S ,  5-O ) :   1.6568 B(  2-S ,  6-O ) :   1.5822
B(  2-S ,  7-O ) :   1.6317

FINAL SINGLE POINT ENERGY      -702.606340898624

DIPOLE MOMENT
-------------
                                X             Y             Z
Electronic contribution:     -5.67595      -5.40338      -1.97022
Nuclear contribution   :      6.64523       6.80157       2.07300
                        -----------------------------------------
Total Dipole Moment    :      0.96928       1.39819       0.10278
                        -----------------------------------------
Magnitude (a.u.)       :      1.70441
Magnitude (Debye)      :      4.33226

Rotational constants in cm-1:     0.163070     0.082807     0.081541
Rotational constants in MHz :  4888.719902  2482.497026  2444.541148

                             ****ORCA TERMINATED NORMALLY****
TOTAL RUN TIME: 0 days 0 hours 0 minutes 19 seconds 34 msec
