                         Program Version 5.0.0 -  RELEASE  -
|  1> !CAM-B3LYP RIJCOSX def2-SVP def2/J TightSCF
|  2> *xyz 1 1
|  3> C          1.36401        0.46874       -2.81376
|  4> N          0.42884        0.32140       -1.65531
|  5> C          0.96805        1.63064       -3.71575
|  6> H          0.74858       -0.40054       -1.00134
|  7> H         -0.46105        0.02333       -2.07773
|  8> H          0.31026        1.20137       -1.13495
|  9> H          1.29485       -0.46874       -3.36468
| 10> H          2.37622        0.59740       -2.43149
| 11> H          1.65923        1.70213       -4.52942
| 12> H          0.98421        2.54058       -3.15304
| 13> H         -0.01744        1.46536       -4.09838
| 14> *
| 15> %MaxCore 64000
| 16>
| 17> %pal nprocs 4
| 18> end
| 19>
| 20> %scf
| 21>   MaxIter 150
| 22> end
| 23>
| 24>
| 25>                          ****END OF INPUT****

CARTESIAN COORDINATES (ANGSTROEM)
---------------------------------
  C      1.364010    0.468740   -2.813760
  N      0.428840    0.321400   -1.655310
  C      0.968050    1.630640   -3.715750
  H      0.748580   -0.400540   -1.001340
  H     -0.461050    0.023330   -2.077730
  H      0.310260    1.201370   -1.134950
  H      1.294850   -0.468740   -3.364680
  H      2.376220    0.597400   -2.431490
  H      1.659230    1.702130   -4.529420
  H      0.984210    2.540580   -3.153040
  H     -0.017440    1.465360   -4.098380

 Total Charge           Charge          ....    1
 Multiplicity           Mult            ....    1
 Number of Electrons    NEL             ....   26
 Basis Dimension        Dim             ....   82

ORBITAL ENERGIES
----------------

  NO   OCC          E(Eh)            E(eV)
   0   2.0000     -14.743371      -401.1875
   1   2.0000     -10.513818      -286.0955
   2   2.0000     -10.435609      -283.9674
   3   2.0000      -1.291690       -35.1487
   4   2.0000      -1.041147       -28.3311
   5   2.0000      -0.916842       -24.9485
   6   2.0000      -0.878895       -23.9160
   7   2.0000      -0.861691       -23.4478
   8   2.0000      -0.764385       -20.8000
   9   2.0000      -0.714129       -19.4324
  10   2.0000      -0.651175       -17.7194
  11   2.0000      -0.634042       -17.2532
  12   2.0000      -0.618558       -16.8318
  13   0.0000      -0.142961        -3.8902
  14   0.0000      -0.080232        -2.1832
  15   0.0000      -0.075866        -2.0644
  16   0.0000      -0.047134        -1.2826
  17   0.0000      -0.005617        -0.1528

MULLIKEN ATOMIC CHARGES
-----------------------
   0 C :   -0.039722
   1 N :    0.001173
   2 C :   -0.015450
   3 H :    0.220039
   4 H :    0.217032
   5 H :    0.216716
   6 H :    0.096101
   7 H :    0.102493
   8 H :    0.093653
   9 H :    0.055968
  10 H :    0.051996
Sum of atomic charges:    1.0000000

LOEWDIN ATOMIC CHARGES
----------------------
   0 C :    0.054178
   1 N :    0.291816
   2 C :   -0.039551
   3 H :    0.148356
   4 H :    0.148127
   5 H :    0.145786
   6 H :    0.053719
   7 H :    0.054561
   8 H :    0.064825
   9 H :    0.039599
  10 H :    0.038583

  Mayer bond orders larger than 0.100000
B(  0-C ,  1-N ) :   0.9209 B(  0-C ,  2-C ) :   1.0994 B(  0-C ,  6-H ) :   0.9555
B(  0-C ,  7-H ) :   0.9551 B(  1-N ,  3-H ) :   0.9324 B(  1-N ,  4-H ) :   0.9386
B(  1-N ,  5-H ) :   0.9326 B(  2-C ,  8-H ) :   0.9579 B(  2-C ,  9-H ) :   0.9698
B(  2-C , 10-H ) :   0.9699

FINAL SINGLE POINT ENERGY      -135.351604030828

DIPOLE MOMENT
-------------
                                X             Y             Z
Electronic contribution:     -0.37511      -0.97011       1.62506
Nuclear contribution   :     -0.20470       0.31427      -0.31587
                        -----------------------------------------
Total Dipole Moment    :     -0.57981      -0.65585       1.30920
                        -----------------------------------------
Magnitude (a.u.)       :      1.57490
Magnitude (Debye)      :      4.00308

Rotational constants in cm-1:     1.011480     0.279280     0.248378
Rotational constants in MHz : 30323.408050  8372.602834  7446.185305

                             ****ORCA TERMINATED NORMALLY****
TOTAL RUN TIME: 0 days 0 hours 0 minutes 12 seconds 850 msec
