                         Program Version 5.0.0 -  RELEASE  -
|  1> !CAM-B3LYP RIJCOSX def2-SVP def2/J TightSCF
|  2> *xyz 0 1
|  3> C          0.96805        1.63064       -3.71575
|  4> C         -0.50835        1.72268       -4.12430
|  5> S         -1.32861        0.14674       -4.43578
|  6> H         -0.59151        2.29496       -5.04722
|  7> H         -1.11411        2.23561       -3.37436
|  8> F         -2.57135        0.47573       -5.06834
|  9> O         -1.51496       -0.40051       -3.06342
| 10> O         -0.37793       -0.62756       -5.20114
| 11> H          1.51840        1.12197       -4.47946
| 12> H          1.05062        1.08971       -2.79625
| 13> H          1.36450        2.61606       -3.58668
| 14> *
| 15> %MaxCore 64000
| 16>
| 17> %pal nprocs 4
| 18> end
| 19>
| 20> %scf
| 21>   MaxIter 150
| 22> end
| 23>
| 24>
| 25>                          ****END OF INPUT****

CARTESIAN COORDINATES (ANGSTROEM)
---------------------------------
  C      0.968050    1.630640   -3.715750
  C     -0.508350    1.722680   -4.124300
  S     -1.328610    0.146740   -4.435780
  H     -0.591510    2.294960   -5.047220
  H     -1.114110    2.235610   -3.374360
  F     -2.571350    0.475730   -5.068340
  O     -1.514960   -0.400510   -3.063420
  O     -0.377930   -0.627560   -5.201140
  H      1.518400    1.121970   -4.479460
  H      1.050620    1.089710   -2.796250
  H      1.364500    2.616060   -3.586680

 Total Charge           Charge          ....    0
 Multiplicity           Mult            ....    1
 Number of Electrons    NEL             ....   58
 Basis Dimension        Dim             ....  113

ORBITAL ENERGIES
----------------

  NO   OCC          E(Eh)            E(eV)
   0   2.0000     -89.195982     -2427.1461
   1   2.0000     -24.882730      -677.0935
   2   2.0000     -19.209477      -522.7164
   3   2.0000     -19.191485      -522.2269
   4   2.0000     -10.314073      -280.6602
   5   2.0000     -10.276295      -279.6322
   6   2.0000      -8.258537      -224.7262
   7   2.0000      -6.232066      -169.5831
   8   2.0000      -6.225326      -169.3997
   9   2.0000      -6.224217      -169.3696
  10   2.0000      -1.461455       -39.7682
  11   2.0000      -1.178005       -32.0552
  12   2.0000      -1.067655       -29.0524
  13   2.0000      -0.893965       -24.3260
  14   2.0000      -0.809982       -22.0407
  15   2.0000      -0.749446       -20.3935
  16   2.0000      -0.663227       -18.0473
  17   2.0000      -0.662339       -18.0232
  18   2.0000      -0.619739       -16.8639
  19   2.0000      -0.560597       -15.2546
  20   2.0000      -0.545936       -14.8557
  21   2.0000      -0.498766       -13.5721
  22   2.0000      -0.494978       -13.4690
  23   2.0000      -0.472165       -12.8483
  24   2.0000      -0.451204       -12.2779
  25   2.0000      -0.441492       -12.0136
  26   2.0000      -0.388129       -10.5615
  27   2.0000      -0.370757       -10.0888
  28   2.0000      -0.356937        -9.7127
  29   0.0000       0.085282         2.3206
  30   0.0000       0.094626         2.5749
  31   0.0000       0.126462         3.4412
  32   0.0000       0.134872         3.6701
  33   0.0000       0.142452         3.8763

MULLIKEN ATOMIC CHARGES
-----------------------
   0 C :    0.031406
   1 C :   -0.123461
   2 S :    0.944146
   3 H :    0.046741
   4 H :    0.062911
   5 F :   -0.159964
   6 O :   -0.486706
   7 O :   -0.437736
   8 H :    0.044749
   9 H :    0.045539
  10 H :    0.032375
Sum of atomic charges:    0.0000000

LOEWDIN ATOMIC CHARGES
----------------------
   0 C :   -0.044236
   1 C :   -0.152005
   2 S :    1.164223
   3 H :    0.026794
   4 H :    0.035569
   5 F :   -0.108838
   6 O :   -0.538248
   7 O :   -0.487866
   8 H :    0.034045
   9 H :    0.035352
  10 H :    0.035210

  Mayer bond orders larger than 0.100000
B(  0-C ,  1-C ) :   1.0735 B(  0-C ,  8-H ) :   0.9697 B(  0-C ,  9-H ) :   0.9729
B(  0-C , 10-H ) :   0.9644 B(  1-C ,  2-S ) :   0.9278 B(  1-C ,  3-H ) :   0.9338
B(  1-C ,  4-H ) :   0.9358 B(  2-S ,  5-F ) :   1.0403 B(  2-S ,  6-O ) :   1.7339
B(  2-S ,  7-O ) :   1.7816

FINAL SINGLE POINT ENERGY      -727.105155469322

DIPOLE MOMENT
-------------
                                X             Y             Z
Electronic contribution:     -8.38203      -5.16667      -3.27014
Nuclear contribution   :      8.31000       6.74109       2.87442
                        -----------------------------------------
Total Dipole Moment    :     -0.07202       1.57442      -0.39572
                        -----------------------------------------
Magnitude (a.u.)       :      1.62498
Magnitude (Debye)      :      4.13037

Rotational constants in cm-1:     0.158705     0.080192     0.078179
Rotational constants in MHz :  4757.865601  2404.095079  2343.752507

                             ****ORCA TERMINATED NORMALLY****
TOTAL RUN TIME: 0 days 0 hours 0 minutes 18 seconds 449 msec
