                         Program Version 5.0.0 -  RELEASE  -
|  1> !CAM-B3LYP RIJCOSX def2-SVP def2/J TightSCF
|  2> *xyz 0 1
|  3> C          1.36401        0.46874       -2.81376
|  4> C          0.42884        0.32140       -1.65531
|  5> C          0.96805        1.63064       -3.71575
|  6> H          0.74858       -0.40054       -1.00134
|  7> H         -0.46105        0.02333       -2.07773
|  8> H          0.31026        1.20137       -1.13495
|  9> H          1.29485       -0.46874       -3.36468
| 10> H          2.37622        0.59740       -2.43149
| 11> H          1.65923        1.70213       -4.52942
| 12> H          0.98421        2.54058       -3.15304
| 13> H         -0.01744        1.46536       -4.09838
| 14> *
| 15> %MaxCore 64000
| 16>
| 17> %pal nprocs 4
| 18> end
| 19>
| 20> %scf
| 21>   MaxIter 150
| 22> end
| 23>
| 24>
| 25>                          ****END OF INPUT****

CARTESIAN COORDINATES (ANGSTROEM)
---------------------------------
  C      1.364010    0.468740   -2.813760
  C      0.428840    0.321400   -1.655310
  C      0.968050    1.630640   -3.715750
  H      0.748580   -0.400540   -1.001340
  H     -0.461050    0.023330   -2.077730
  H      0.310260    1.201370   -1.134950
  H      1.294850   -0.468740   -3.364680
  H      2.376220    0.597400   -2.431490
  H      1.659230    1.702130   -4.529420
  H      0.984210    2.540580   -3.153040
  H     -0.017440    1.465360   -4.098380

 Total Charge           Charge          ....    0
 Multiplicity           Mult            ....    1
 Number of Electrons    NEL             ....   26
 Basis Dimension        Dim             ....   82

ORBITAL ENERGIES
----------------

  NO   OCC          E(Eh)            E(eV)
   0   2.0000     -10.243444      -278.7383
   1   2.0000     -10.236958      -278.5618
   2   2.0000     -10.221088      -278.1300
   3   2.0000      -0.865984       -23.5646
   4   2.0000      -0.761702       -20.7270
   5   2.0000      -0.653310       -17.7775
   6   2.0000      -0.540136       -14.6978
   7   2.0000      -0.512835       -13.9550
   8   2.0000      -0.468616       -12.7517
   9   2.0000      -0.456002       -12.4085
  10   2.0000      -0.400530       -10.8990
  11   2.0000      -0.395605       -10.7650
  12   2.0000      -0.391599       -10.6560
  13   0.0000       0.104502         2.8436
  14   0.0000       0.154964         4.2168
  15   0.0000       0.156846         4.2680
  16   0.0000       0.160827         4.3763
  17   0.0000       0.190132         5.1738

MULLIKEN ATOMIC CHARGES
-----------------------
   0 C :   -0.062858
   1 C :    0.078357
   2 C :    0.020280
   3 H :   -0.013864
   4 H :   -0.016573
   5 H :   -0.014810
   6 H :   -0.000842
   7 H :    0.000471
   8 H :    0.006045
   9 H :    0.002933
  10 H :    0.000860
Sum of atomic charges:    0.0000000

LOEWDIN ATOMIC CHARGES
----------------------
   0 C :   -0.036380
   1 C :   -0.041921
   2 C :   -0.051396
   3 H :    0.013593
   4 H :    0.014179
   5 H :    0.011019
   6 H :    0.018363
   7 H :    0.015388
   8 H :    0.020259
   9 H :    0.018521
  10 H :    0.018376

  Mayer bond orders larger than 0.100000
B(  0-C ,  1-C ) :   1.1016 B(  0-C ,  2-C ) :   1.1015 B(  0-C ,  6-H ) :   0.9578
B(  0-C ,  7-H ) :   0.9581 B(  1-C ,  3-H ) :   0.9630 B(  1-C ,  4-H ) :   0.9708
B(  1-C ,  5-H ) :   0.9708 B(  2-C ,  8-H ) :   0.9703 B(  2-C ,  9-H ) :   0.9744
B(  2-C , 10-H ) :   0.9746

FINAL SINGLE POINT ENERGY      -118.955966391247

DIPOLE MOMENT
-------------
                                X             Y             Z
Electronic contribution:      0.35708      -0.17545      -0.01915
Nuclear contribution   :     -0.35842       0.15752       0.02695
                        -----------------------------------------
Total Dipole Moment    :     -0.00134      -0.01793       0.00780
                        -----------------------------------------
Magnitude (a.u.)       :      0.01960
Magnitude (Debye)      :      0.04981

Rotational constants in cm-1:     1.019891     0.293671     0.260247
Rotational constants in MHz : 30575.551403  8804.039097  7802.009261

                             ****ORCA TERMINATED NORMALLY****
TOTAL RUN TIME: 0 days 0 hours 0 minutes 11 seconds 430 msec
