                         Program Version 5.0.0 -  RELEASE  -
|  1> !CAM-B3LYP RIJCOSX def2-SVP def2/J TightSCF
|  2> *xyz 0 1
|  3> C          0.96805        1.63064       -3.71575
|  4> C         -0.50835        1.72268       -4.12430
|  5> S         -1.32861        0.14674       -4.43578
|  6> H         -0.59151        2.29496       -5.04722
|  7> H         -1.11411        2.23561       -3.37436
|  8> O         -2.57135        0.47573       -5.06834
|  9> F         -1.51496       -0.40051       -3.06342
| 10> O         -0.37793       -0.62756       -5.20114
| 11> H          1.51840        1.12197       -4.47946
| 12> H          1.05062        1.08971       -2.79625
| 13> H          1.36450        2.61606       -3.58668
| 14> *
| 15> %MaxCore 64000
| 16>
| 17> %pal nprocs 4
| 18> end
| 19>
| 20> %scf
| 21>   MaxIter 150
| 22> end
| 23>
| 24>
| 25>                          ****END OF INPUT****

CARTESIAN COORDINATES (ANGSTROEM)
---------------------------------
  C      0.968050    1.630640   -3.715750
  C     -0.508350    1.722680   -4.124300
  S     -1.328610    0.146740   -4.435780
  H     -0.591510    2.294960   -5.047220
  H     -1.114110    2.235610   -3.374360
  O     -2.571350    0.475730   -5.068340
  F     -1.514960   -0.400510   -3.063420
  O     -0.377930   -0.627560   -5.201140
  H      1.518400    1.121970   -4.479460
  H      1.050620    1.089710   -2.796250
  H      1.364500    2.616060   -3.586680

 Total Charge           Charge          ....    0
 Multiplicity           Mult            ....    1
 Number of Electrons    NEL             ....   58
 Basis Dimension        Dim             ....  113

ORBITAL ENERGIES
----------------

  NO   OCC          E(Eh)            E(eV)
   0   2.0000     -89.194510     -2427.1060
   1   2.0000     -24.853100      -676.2872
   2   2.0000     -19.213333      -522.8214
   3   2.0000     -19.210243      -522.7373
   4   2.0000     -10.313091      -280.6335
   5   2.0000     -10.278333      -279.6877
   6   2.0000      -8.256774      -224.6782
   7   2.0000      -6.230076      -169.5290
   8   2.0000      -6.223947      -169.3622
   9   2.0000      -6.222689      -169.3280
  10   2.0000      -1.412502       -38.4361
  11   2.0000      -1.193998       -32.4903
  12   2.0000      -1.096388       -29.8342
  13   2.0000      -0.896119       -24.3846
  14   2.0000      -0.790614       -21.5137
  15   2.0000      -0.740655       -20.1543
  16   2.0000      -0.647684       -17.6244
  17   2.0000      -0.628264       -17.0959
  18   2.0000      -0.610804       -16.6208
  19   2.0000      -0.560480       -15.2514
  20   2.0000      -0.543885       -14.7999
  21   2.0000      -0.518395       -14.1062
  22   2.0000      -0.497898       -13.5485
  23   2.0000      -0.469947       -12.7879
  24   2.0000      -0.465837       -12.6761
  25   2.0000      -0.444272       -12.0893
  26   2.0000      -0.399348       -10.8668
  27   2.0000      -0.387584       -10.5467
  28   2.0000      -0.378423       -10.2974
  29   0.0000       0.077831         2.1179
  30   0.0000       0.106712         2.9038
  31   0.0000       0.129615         3.5270
  32   0.0000       0.136934         3.7262
  33   0.0000       0.140974         3.8361

MULLIKEN ATOMIC CHARGES
-----------------------
   0 C :    0.021016
   1 C :   -0.135342
   2 S :    0.956075
   3 H :    0.080757
   4 H :    0.058542
   5 O :   -0.426091
   6 F :   -0.218965
   7 O :   -0.442384
   8 H :    0.048789
   9 H :    0.025386
  10 H :    0.032217
Sum of atomic charges:   -0.0000000

LOEWDIN ATOMIC CHARGES
----------------------
   0 C :   -0.056885
   1 C :   -0.153687
   2 S :    1.172737
   3 H :    0.047689
   4 H :    0.032758
   5 O :   -0.478498
   6 F :   -0.168032
   7 O :   -0.491100
   8 H :    0.034019
   9 H :    0.026363
  10 H :    0.034637

  Mayer bond orders larger than 0.100000
B(  0-C ,  1-C ) :   1.0533 B(  0-C ,  8-H ) :   0.9698 B(  0-C ,  9-H ) :   0.9750
B(  0-C , 10-H ) :   0.9632 B(  1-C ,  2-S ) :   0.9251 B(  1-C ,  3-H ) :   0.9415
B(  1-C ,  4-H ) :   0.9383 B(  2-S ,  5-O ) :   1.8094 B(  2-S ,  6-F ) :   0.9720
B(  2-S ,  7-O ) :   1.7877

FINAL SINGLE POINT ENERGY      -727.131683095174

DIPOLE MOMENT
-------------
                                X             Y             Z
Electronic contribution:     -6.58695      -6.66483       0.16659
Nuclear contribution   :      7.20921       7.65416       0.78523
                        -----------------------------------------
Total Dipole Moment    :      0.62227       0.98933       0.95182
                        -----------------------------------------
Magnitude (a.u.)       :      1.50730
Magnitude (Debye)      :      3.83125

Rotational constants in cm-1:     0.153780     0.081282     0.079816
Rotational constants in MHz :  4610.199589  2436.778679  2392.820729

                             ****ORCA TERMINATED NORMALLY****
TOTAL RUN TIME: 0 days 0 hours 0 minutes 19 seconds 789 msec
