                         Program Version 5.0.0 -  RELEASE  -
|  1> !CAM-B3LYP RIJCOSX def2-SVP def2/J TightSCF
|  2> *xyz 0 1
|  3> C          0.96805        1.63064       -3.71575
|  4> C         -0.50835        1.72268       -4.12430
|  5> S         -1.32861        0.14674       -4.43578
|  6> H         -0.59151        2.29496       -5.04722
|  7> H         -1.11411        2.23561       -3.37436
|  8> O         -2.57135        0.47573       -5.06834
|  9> O         -1.51496       -0.40051       -3.06342
| 10> F         -0.37793       -0.62756       -5.20114
| 11> H          1.51840        1.12197       -4.47946
| 12> H          1.05062        1.08971       -2.79625
| 13> H          1.36450        2.61606       -3.58668
| 14> *
| 15> %MaxCore 64000
| 16>
| 17> %pal nprocs 4
| 18> end
| 19>
| 20> %scf
| 21>   MaxIter 150
| 22> end
| 23>
| 24>
| 25>                          ****END OF INPUT****

CARTESIAN COORDINATES (ANGSTROEM)
---------------------------------
  C      0.968050    1.630640   -3.715750
  C     -0.508350    1.722680   -4.124300
  S     -1.328610    0.146740   -4.435780
  H     -0.591510    2.294960   -5.047220
  H     -1.114110    2.235610   -3.374360
  O     -2.571350    0.475730   -5.068340
  O     -1.514960   -0.400510   -3.063420
  F     -0.377930   -0.627560   -5.201140
  H      1.518400    1.121970   -4.479460
  H      1.050620    1.089710   -2.796250
  H      1.364500    2.616060   -3.586680

 Total Charge           Charge          ....    0
 Multiplicity           Mult            ....    1
 Number of Electrons    NEL             ....   58
 Basis Dimension        Dim             ....  113

ORBITAL ENERGIES
----------------

  NO   OCC          E(Eh)            E(eV)
   0   2.0000     -89.195274     -2427.1268
   1   2.0000     -24.876823      -676.9328
   2   2.0000     -19.213262      -522.8194
   3   2.0000     -19.191800      -522.2354
   4   2.0000     -10.313765      -280.6518
   5   2.0000     -10.282108      -279.7904
   6   2.0000      -8.257812      -224.7065
   7   2.0000      -6.231410      -169.5653
   8   2.0000      -6.224631      -169.3808
   9   2.0000      -6.223481      -169.3495
  10   2.0000      -1.450528       -39.4709
  11   2.0000      -1.184074       -32.2203
  12   2.0000      -1.070791       -29.1377
  13   2.0000      -0.898291       -24.4438
  14   2.0000      -0.802709       -21.8428
  15   2.0000      -0.751927       -20.4610
  16   2.0000      -0.669024       -18.2051
  17   2.0000      -0.654971       -17.8227
  18   2.0000      -0.609773       -16.5928
  19   2.0000      -0.561773       -15.2866
  20   2.0000      -0.542465       -14.7612
  21   2.0000      -0.514946       -14.0124
  22   2.0000      -0.497927       -13.5493
  23   2.0000      -0.475844       -12.9484
  24   2.0000      -0.459628       -12.5071
  25   2.0000      -0.441904       -12.0248
  26   2.0000      -0.391322       -10.6484
  27   2.0000      -0.371626       -10.1125
  28   2.0000      -0.359978        -9.7955
  29   0.0000       0.072552         1.9742
  30   0.0000       0.107968         2.9380
  31   0.0000       0.126237         3.4351
  32   0.0000       0.137256         3.7349
  33   0.0000       0.142584         3.8799

MULLIKEN ATOMIC CHARGES
-----------------------
   0 C :    0.012654
   1 C :   -0.126409
   2 S :    0.945177
   3 H :    0.056524
   4 H :    0.088854
   5 O :   -0.420049
   6 O :   -0.486869
   7 F :   -0.175066
   8 H :    0.023477
   9 H :    0.044700
  10 H :    0.037007
Sum of atomic charges:    0.0000000

LOEWDIN ATOMIC CHARGES
----------------------
   0 C :   -0.059879
   1 C :   -0.148718
   2 S :    1.166284
   3 H :    0.031213
   4 H :    0.052100
   5 O :   -0.473860
   6 O :   -0.538543
   7 F :   -0.121949
   8 H :    0.024059
   9 H :    0.032639
  10 H :    0.036653

  Mayer bond orders larger than 0.100000
B(  0-C ,  1-C ) :   1.0509 B(  0-C ,  8-H ) :   0.9743 B(  0-C ,  9-H ) :   0.9719
B(  0-C , 10-H ) :   0.9639 B(  1-C ,  2-S ) :   0.9307 B(  1-C ,  3-H ) :   0.9385
B(  1-C ,  4-H ) :   0.9401 B(  2-S ,  5-O ) :   1.8049 B(  2-S ,  6-O ) :   1.7345
B(  2-S ,  7-F ) :   1.0193

FINAL SINGLE POINT ENERGY      -727.110404034261

DIPOLE MOMENT
-------------
                                X             Y             Z
Electronic contribution:     -4.64343      -7.03108      -3.47805
Nuclear contribution   :      6.02439       7.89075       3.01280
                        -----------------------------------------
Total Dipole Moment    :      1.38097       0.85967      -0.46525
                        -----------------------------------------
Magnitude (a.u.)       :      1.69191
Magnitude (Debye)      :      4.30049

Rotational constants in cm-1:     0.153652     0.082400     0.079295
Rotational constants in MHz :  4606.361242  2470.285703  2377.214112

                             ****ORCA TERMINATED NORMALLY****
TOTAL RUN TIME: 0 days 0 hours 0 minutes 18 seconds 836 msec
