                         Program Version 5.0.0 -  RELEASE  -
|  1> !wB97X-D3 RIJCOSX def2-TZVP def2/J TightSCF
|  2> *xyz -1 1
|  3> C          0.61188        1.65763       -4.50029
|  4> C          1.69499        1.54179       -5.57045
|  5> H          2.69733        1.73466       -5.18400
|  6> H          1.50666        2.27224       -6.35808
|  7> S          1.78029       -0.03313       -6.42874
|  8> O          2.56929        0.21366       -7.60736
|  9> O          0.41688       -0.46297       -6.61859
| 10> C          0.68036        0.65542       -3.34804
| 11> H         -0.35687        1.54923       -4.99113
| 12> H          0.65023        2.67544       -4.09600
| 13> O          2.50513       -0.93326       -5.48257
| 14> H          0.64318       -0.34009       -3.73853
| 15> H         -0.14865        0.81153       -2.68980
| 16> H          1.59447        0.79330       -2.80925
| 17> *
| 18> %MaxCore 64000
| 19>
| 20> %pal nprocs 8
| 21> end
| 22>
| 23> %scf
| 24>   MaxIter 150
| 25> end
| 26>
| 27>
| 28>                          ****END OF INPUT****

CARTESIAN COORDINATES (ANGSTROEM)
---------------------------------
  C      0.611880    1.657630   -4.500290
  C      1.694990    1.541790   -5.570450
  H      2.697330    1.734660   -5.184000
  H      1.506660    2.272240   -6.358080
  S      1.780290   -0.033130   -6.428740
  O      2.569290    0.213660   -7.607360
  O      0.416880   -0.462970   -6.618590
  C      0.680360    0.655420   -3.348040
  H     -0.356870    1.549230   -4.991130
  H      0.650230    2.675440   -4.096000
  O      2.505130   -0.933260   -5.482570
  H      0.643180   -0.340090   -3.738530
  H     -0.148650    0.811530   -2.689800
  H      1.594470    0.793300   -2.809250

 Total Charge           Charge          ....   -1
 Multiplicity           Mult            ....    1
 Number of Electrons    NEL             ....   66
 Basis Dimension        Dim             ....  265

ORBITAL ENERGIES
----------------

  NO   OCC          E(Eh)            E(eV)
   0   2.0000     -88.930586     -2419.9243
   1   2.0000     -19.008424      -517.2455
   2   2.0000     -19.006449      -517.1918
   3   2.0000     -18.987471      -516.6753
   4   2.0000     -10.142194      -275.9831
   5   2.0000     -10.133765      -275.7538
   6   2.0000     -10.122047      -275.4349
   7   2.0000      -7.993465      -217.5132
   8   2.0000      -5.947722      -161.8457
   9   2.0000      -5.946526      -161.8132
  10   2.0000      -5.946079      -161.8010
  11   2.0000      -1.037684       -28.2368
  12   2.0000      -0.909377       -24.7454
  13   2.0000      -0.875745       -23.8302
  14   2.0000      -0.770829       -20.9753
  15   2.0000      -0.678573       -18.4649
  16   2.0000      -0.578287       -15.7360
  17   2.0000      -0.483661       -13.1611
  18   2.0000      -0.431683       -11.7467
  19   2.0000      -0.417097       -11.3498
  20   2.0000      -0.390180       -10.6173
  21   2.0000      -0.376395       -10.2422
  22   2.0000      -0.356546        -9.7021
  23   2.0000      -0.345861        -9.4114
  24   2.0000      -0.316558        -8.6140
  25   2.0000      -0.306835        -8.3494
  26   2.0000      -0.292846        -7.9687
  27   2.0000      -0.246191        -6.6992
  28   2.0000      -0.244989        -6.6665
  29   2.0000      -0.211173        -5.7463
  30   2.0000      -0.199969        -5.4414
  31   2.0000      -0.184759        -5.0275
  32   2.0000      -0.153700        -4.1824
  33   0.0000       0.240715         6.5502
  34   0.0000       0.280989         7.6461
  35   0.0000       0.290133         7.8949
  36   0.0000       0.306683         8.3453
  37   0.0000       0.318004         8.6533

MULLIKEN ATOMIC CHARGES
-----------------------
   0 C :   -0.147512
   1 C :   -0.252688
   2 H :    0.085797
   3 H :    0.086209
   4 S :    0.859202
   5 O :   -0.563120
   6 O :   -0.559601
   7 C :   -0.331785
   8 H :    0.091575
   9 H :    0.047760
  10 O :   -0.613526
  11 H :    0.157556
  12 H :    0.064919
  13 H :    0.075215
Sum of atomic charges:   -1.0000000

LOEWDIN ATOMIC CHARGES
----------------------
   0 C :   -0.324757
   1 C :   -0.405528
   2 H :    0.121675
   3 H :    0.121236
   4 S :    0.418863
   5 O :   -0.376248
   6 O :   -0.374357
   7 C :   -0.316591
   8 H :    0.132499
   9 H :    0.117363
  10 O :   -0.444663
  11 H :    0.124536
  12 H :    0.098769
  13 H :    0.107202

  Mayer bond orders larger than 0.100000
B(  0-C ,  1-C ) :   0.9799 B(  0-C ,  7-C ) :   0.9855 B(  0-C ,  8-H ) :   0.9741
B(  0-C ,  9-H ) :   0.9680 B(  1-C ,  2-H ) :   0.9635 B(  1-C ,  3-H ) :   0.9591
B(  1-C ,  4-S ) :   0.8853 B(  4-S ,  5-O ) :   1.8305 B(  4-S ,  6-O ) :   1.7610
B(  4-S , 10-O ) :   1.7115 B(  7-C , 11-H ) :   0.9685 B(  7-C , 12-H ) :   0.9755
B(  7-C , 13-H ) :   0.9782

Dispersion correction           -0.004635695
FINAL SINGLE POINT ENERGY      -742.535271228762

DIPOLE MOMENT
-------------
                                X             Y             Z
Electronic contribution:      3.19872      -5.31002      -8.66716
Nuclear contribution   :     -3.81113       6.97418       9.97106
                        -----------------------------------------
Total Dipole Moment    :     -0.61241       1.66416       1.30390
                        -----------------------------------------
Magnitude (a.u.)       :      2.20105
Magnitude (Debye)      :      5.59464

Rotational constants in cm-1:     0.136135     0.055477     0.052562
Rotational constants in MHz :  4081.221574  1663.170947  1575.772362

                             ****ORCA TERMINATED NORMALLY****
TOTAL RUN TIME: 0 days 0 hours 0 minutes 27 seconds 830 msec
