                         Program Version 5.0.0 -  RELEASE  -
|  1> !wB97X-D3 RIJCOSX def2-TZVP def2/J TightSCF
|  2> *xyz 1 1
|  3> C          1.96337       -1.74915       -1.89689
|  4> N          2.73849       -2.01517       -3.09711
|  5> C          4.04974       -2.15472       -3.15204
|  6> N          4.65821       -1.98629       -4.31866
|  7> N          4.76423       -2.45444       -2.05049
|  8> H          4.28736       -2.77626       -1.21750
|  9> H          5.75082       -2.65835       -2.12599
| 10> H          2.34518       -1.69027       -3.97145
| 11> H          4.10900       -1.59268       -5.07176
| 12> H          5.64910       -2.15646       -4.42724
| 13> C          2.08852       -0.30091       -1.41520
| 14> H          2.23127       -2.45162       -1.10264
| 15> H          0.93025       -1.97780       -2.15544
| 16> C          1.96899        0.73358       -2.53565
| 17> H          3.05136       -0.16860       -0.91187
| 18> H          1.31650       -0.13623       -0.65725
| 19> H          2.73046        0.55745       -3.26643
| 20> H          2.08619        1.71595       -2.12808
| 21> H          1.00672        0.65098       -2.99620
| 22> *
| 23> %MaxCore 64000
| 24>
| 25> %pal nprocs 8
| 26> end
| 27>
| 28> %scf
| 29>   MaxIter 150
| 30> end
| 31>
| 32>
| 33>                          ****END OF INPUT****

CARTESIAN COORDINATES (ANGSTROEM)
---------------------------------
  C      1.963370   -1.749150   -1.896890
  N      2.738490   -2.015170   -3.097110
  C      4.049740   -2.154720   -3.152040
  N      4.658210   -1.986290   -4.318660
  N      4.764230   -2.454440   -2.050490
  H      4.287360   -2.776260   -1.217500
  H      5.750820   -2.658350   -2.125990
  H      2.345180   -1.690270   -3.971450
  H      4.109000   -1.592680   -5.071760
  H      5.649100   -2.156460   -4.427240
  C      2.088520   -0.300910   -1.415200
  H      2.231270   -2.451620   -1.102640
  H      0.930250   -1.977800   -2.155440
  C      1.968990    0.733580   -2.535650
  H      3.051360   -0.168600   -0.911870
  H      1.316500   -0.136230   -0.657250
  H      2.730460    0.557450   -3.266430
  H      2.086190    1.715950   -2.128080
  H      1.006720    0.650980   -2.996200

 Total Charge           Charge          ....    1
 Multiplicity           Mult            ....    1
 Number of Electrons    NEL             ....   56
 Basis Dimension        Dim             ....  289

ORBITAL ENERGIES
----------------

  NO   OCC          E(Eh)            E(eV)
   0   2.0000     -14.644029      -398.4843
   1   2.0000     -14.641636      -398.4192
   2   2.0000     -14.641339      -398.4111
   3   2.0000     -10.610530      -288.7272
   4   2.0000     -10.477002      -285.0937
   5   2.0000     -10.416174      -283.4385
   6   2.0000     -10.391668      -282.7717
   7   2.0000      -1.333903       -36.2974
   8   2.0000      -1.219784       -33.1920
   9   2.0000      -1.206893       -32.8412
  10   2.0000      -1.055041       -28.7091
  11   2.0000      -0.977977       -26.6121
  12   2.0000      -0.933498       -25.4018
  13   2.0000      -0.886556       -24.1244
  14   2.0000      -0.874343       -23.7921
  15   2.0000      -0.832278       -22.6474
  16   2.0000      -0.790959       -21.5231
  17   2.0000      -0.782800       -21.3011
  18   2.0000      -0.758262       -20.6334
  19   2.0000      -0.724878       -19.7249
  20   2.0000      -0.699943       -19.0464
  21   2.0000      -0.684168       -18.6171
  22   2.0000      -0.645559       -17.5666
  23   2.0000      -0.601823       -16.3764
  24   2.0000      -0.588261       -16.0074
  25   2.0000      -0.576874       -15.6975
  26   2.0000      -0.565855       -15.3977
  27   2.0000      -0.536027       -14.5860
  28   0.0000      -0.081542        -2.2189
  29   0.0000      -0.069580        -1.8934
  30   0.0000      -0.038189        -1.0392
  31   0.0000      -0.023429        -0.6375
  32   0.0000      -0.000751        -0.0204

MULLIKEN ATOMIC CHARGES
-----------------------
   0 C :   -0.222166
   1 N :   -0.280308
   2 C :    0.467902
   3 N :   -0.436385
   4 N :   -0.443567
   5 H :    0.297577
   6 H :    0.292459
   7 H :    0.264107
   8 H :    0.291461
   9 H :    0.301961
  10 C :   -0.149861
  11 H :    0.150098
  12 H :    0.182109
  13 C :   -0.384653
  14 H :    0.122670
  15 H :    0.152324
  16 H :    0.085332
  17 H :    0.163177
  18 H :    0.145765
Sum of atomic charges:    1.0000000

LOEWDIN ATOMIC CHARGES
----------------------
   0 C :   -0.264108
   1 N :    0.169880
   2 C :   -0.400948
   3 N :    0.065023
   4 N :    0.056947
   5 H :    0.196735
   6 H :    0.196317
   7 H :    0.210536
   8 H :    0.199564
   9 H :    0.200050
  10 C :   -0.284945
  11 H :    0.140286
  12 H :    0.153311
  13 C :   -0.293094
  14 H :    0.139200
  15 H :    0.152499
  16 H :    0.106542
  17 H :    0.132511
  18 H :    0.123694

  Mayer bond orders larger than 0.100000
B(  0-C ,  1-N ) :   0.8577 B(  0-C , 10-C ) :   0.9530 B(  0-C , 11-H ) :   0.9808
B(  0-C , 12-H ) :   0.9606 B(  1-N ,  2-C ) :   1.3888 B(  1-N ,  7-H ) :   0.9021
B(  2-C ,  3-N ) :   1.3411 B(  2-C ,  4-N ) :   1.3336 B(  3-N ,  8-H ) :   0.8938
B(  3-N ,  9-H ) :   0.8894 B(  4-N ,  5-H ) :   0.8834 B(  4-N ,  6-H ) :   0.8951
B( 10-C , 13-C ) :   0.9440 B( 10-C , 14-H ) :   0.9641 B( 10-C , 15-H ) :   0.9675
B( 13-C , 16-H ) :   0.9767 B( 13-C , 17-H ) :   0.9711 B( 13-C , 18-H ) :   0.9740

Dispersion correction           -0.005597340
FINAL SINGLE POINT ENERGY      -323.747219574325

DIPOLE MOMENT
-------------
                                X             Y             Z
Electronic contribution:      3.90942      -4.90236      -2.33156
Nuclear contribution   :     -2.72963       4.05673       1.67650
                        -----------------------------------------
Total Dipole Moment    :      1.17979      -0.84563      -0.65506
                        -----------------------------------------
Magnitude (a.u.)       :      1.59251
Magnitude (Debye)      :      4.04785

Rotational constants in cm-1:     0.140891     0.054763     0.048590
Rotational constants in MHz :  4223.814968  1641.764475  1456.690885

                             ****ORCA TERMINATED NORMALLY****
TOTAL RUN TIME: 0 days 0 hours 0 minutes 38 seconds 447 msec
