                         Program Version 5.0.0 -  RELEASE  -
|  1> !wB97X-D3 RIJCOSX def2-TZVP def2/J TightSCF
|  2> *xyz 0 1
|  3> C          0.61188        1.65763       -4.50029
|  4> C          1.69499        1.54179       -5.57045
|  5> H          2.69733        1.73466       -5.18400
|  6> H          1.50666        2.27224       -6.35808
|  7> S          1.78029       -0.03313       -6.42874
|  8> F          2.56929        0.21366       -7.60736
|  9> O          0.41688       -0.46297       -6.61859
| 10> C          0.68036        0.65542       -3.34804
| 11> H         -0.35687        1.54923       -4.99113
| 12> H          0.65023        2.67544       -4.09600
| 13> O          2.50513       -0.93326       -5.48257
| 14> H          0.64318       -0.34009       -3.73853
| 15> H         -0.14865        0.81153       -2.68980
| 16> H          1.59447        0.79330       -2.80925
| 17> *
| 18> %MaxCore 64000
| 19>
| 20> %pal nprocs 8
| 21> end
| 22>
| 23> %scf
| 24>   MaxIter 150
| 25> end
| 26>
| 27>
| 28>                          ****END OF INPUT****

CARTESIAN COORDINATES (ANGSTROEM)
---------------------------------
  C      0.611880    1.657630   -4.500290
  C      1.694990    1.541790   -5.570450
  H      2.697330    1.734660   -5.184000
  H      1.506660    2.272240   -6.358080
  S      1.780290   -0.033130   -6.428740
  F      2.569290    0.213660   -7.607360
  O      0.416880   -0.462970   -6.618590
  C      0.680360    0.655420   -3.348040
  H     -0.356870    1.549230   -4.991130
  H      0.650230    2.675440   -4.096000
  O      2.505130   -0.933260   -5.482570
  H      0.643180   -0.340090   -3.738530
  H     -0.148650    0.811530   -2.689800
  H      1.594470    0.793300   -2.809250

 Total Charge           Charge          ....    0
 Multiplicity           Mult            ....    1
 Number of Electrons    NEL             ....   66
 Basis Dimension        Dim             ....  265

ORBITAL ENERGIES
----------------

  NO   OCC          E(Eh)            E(eV)
   0   2.0000     -89.194716     -2427.1116
   1   2.0000     -24.908708      -677.8004
   2   2.0000     -19.244852      -523.6791
   3   2.0000     -19.224557      -523.1268
   4   2.0000     -10.335107      -281.2325
   5   2.0000     -10.301712      -280.3238
   6   2.0000     -10.262269      -279.2505
   7   2.0000      -8.258242      -224.7182
   8   2.0000      -6.215462      -169.1313
   9   2.0000      -6.209251      -168.9623
  10   2.0000      -6.208891      -168.9525
  11   2.0000      -1.503271       -40.9061
  12   2.0000      -1.219065       -33.1724
  13   2.0000      -1.113245       -30.2929
  14   2.0000      -0.946426       -25.7536
  15   2.0000      -0.870002       -23.6740
  16   2.0000      -0.817802       -22.2535
  17   2.0000      -0.744097       -20.2479
  18   2.0000      -0.694352       -18.8943
  19   2.0000      -0.686051       -18.6684
  20   2.0000      -0.658595       -17.9213
  21   2.0000      -0.594219       -16.1695
  22   2.0000      -0.583683       -15.8828
  23   2.0000      -0.552944       -15.0464
  24   2.0000      -0.543378       -14.7861
  25   2.0000      -0.522387       -14.2149
  26   2.0000      -0.484893       -13.1946
  27   2.0000      -0.468112       -12.7380
  28   2.0000      -0.465408       -12.6644
  29   2.0000      -0.448494       -12.2041
  30   2.0000      -0.429812       -11.6958
  31   2.0000      -0.407022       -11.0756
  32   2.0000      -0.397273       -10.8103
  33   0.0000       0.101748         2.7687
  34   0.0000       0.112589         3.0637
  35   0.0000       0.144531         3.9329
  36   0.0000       0.148149         4.0313
  37   0.0000       0.157312         4.2807

MULLIKEN ATOMIC CHARGES
-----------------------
   0 C :   -0.202309
   1 C :   -0.263388
   2 H :    0.153354
   3 H :    0.142696
   4 S :    0.876047
   5 F :   -0.097278
   6 O :   -0.414505
   7 C :   -0.346288
   8 H :    0.127845
   9 H :    0.116244
  10 O :   -0.468539
  11 H :    0.148306
  12 H :    0.118954
  13 H :    0.108861
Sum of atomic charges:   -0.0000000

LOEWDIN ATOMIC CHARGES
----------------------
   0 C :   -0.302661
   1 C :   -0.375618
   2 H :    0.142025
   3 H :    0.137386
   4 S :    0.540423
   5 F :    0.102386
   6 O :   -0.261246
   7 C :   -0.298350
   8 H :    0.143905
   9 H :    0.142645
  10 O :   -0.328812
  11 H :    0.123096
  12 H :    0.117790
  13 H :    0.117029

  Mayer bond orders larger than 0.100000
B(  0-C ,  1-C ) :   0.9803 B(  0-C ,  7-C ) :   0.9940 B(  0-C ,  8-H ) :   0.9675
B(  0-C ,  9-H ) :   0.9598 B(  1-C ,  2-H ) :   0.9397 B(  1-C ,  3-H ) :   0.9415
B(  1-C ,  4-S ) :   0.9199 B(  4-S ,  5-F ) :   1.1525 B(  4-S ,  6-O ) :   1.9101
B(  4-S , 10-O ) :   1.8574 B(  7-C , 11-H ) :   0.9677 B(  7-C , 12-H ) :   0.9753
B(  7-C , 13-H ) :   0.9754

Dispersion correction           -0.004622270
FINAL SINGLE POINT ENERGY      -767.052994979817

DIPOLE MOMENT
-------------
                                X             Y             Z
Electronic contribution:      5.13613      -5.42924     -12.04406
Nuclear contribution   :     -4.93724       7.05784      11.92827
                        -----------------------------------------
Total Dipole Moment    :      0.19889       1.62860      -0.11579
                        -----------------------------------------
Magnitude (a.u.)       :      1.64478
Magnitude (Debye)      :      4.18070

Rotational constants in cm-1:     0.134572     0.053398     0.050578
Rotational constants in MHz :  4034.377338  1600.833917  1516.302250

                             ****ORCA TERMINATED NORMALLY****
TOTAL RUN TIME: 0 days 0 hours 0 minutes 29 seconds 422 msec
