                         Program Version 5.0.0 -  RELEASE  -
|  1> !wB97X-D3 RIJCOSX def2-TZVP def2/J TightSCF
|  2> *xyz 0 1
|  3> C          1.96337       -1.74915       -1.89689
|  4> C          2.73849       -2.01517       -3.09711
|  5> C          4.04974       -2.15472       -3.15204
|  6> N          4.65821       -1.98629       -4.31866
|  7> N          4.76423       -2.45444       -2.05049
|  8> H          4.28736       -2.77626       -1.21750
|  9> H          5.75082       -2.65835       -2.12599
| 10> H          2.34518       -1.69027       -3.97145
| 11> H          4.10900       -1.59268       -5.07176
| 12> H          5.64910       -2.15646       -4.42724
| 13> C          2.08852       -0.30091       -1.41520
| 14> H          2.23127       -2.45162       -1.10264
| 15> H          0.93025       -1.97780       -2.15544
| 16> C          1.96899        0.73358       -2.53565
| 17> H          3.05136       -0.16860       -0.91187
| 18> H          1.31650       -0.13623       -0.65725
| 19> H          2.73046        0.55745       -3.26643
| 20> H          2.08619        1.71595       -2.12808
| 21> H          1.00672        0.65098       -2.99620
| 22> *
| 23> %MaxCore 64000
| 24>
| 25> %pal nprocs 8
| 26> end
| 27>
| 28> %scf
| 29>   MaxIter 150
| 30> end
| 31>
| 32>
| 33>                          ****END OF INPUT****

CARTESIAN COORDINATES (ANGSTROEM)
---------------------------------
  C      1.963370   -1.749150   -1.896890
  C      2.738490   -2.015170   -3.097110
  C      4.049740   -2.154720   -3.152040
  N      4.658210   -1.986290   -4.318660
  N      4.764230   -2.454440   -2.050490
  H      4.287360   -2.776260   -1.217500
  H      5.750820   -2.658350   -2.125990
  H      2.345180   -1.690270   -3.971450
  H      4.109000   -1.592680   -5.071760
  H      5.649100   -2.156460   -4.427240
  C      2.088520   -0.300910   -1.415200
  H      2.231270   -2.451620   -1.102640
  H      0.930250   -1.977800   -2.155440
  C      1.968990    0.733580   -2.535650
  H      3.051360   -0.168600   -0.911870
  H      1.316500   -0.136230   -0.657250
  H      2.730460    0.557450   -3.266430
  H      2.086190    1.715950   -2.128080
  H      1.006720    0.650980   -2.996200

 Total Charge           Charge          ....    0
 Multiplicity           Mult            ....    1
 Number of Electrons    NEL             ....   56
 Basis Dimension        Dim             ....  289

ORBITAL ENERGIES
----------------

  NO   OCC          E(Eh)            E(eV)
   0   2.0000     -14.420327      -392.3971
   1   2.0000     -14.418432      -392.3455
   2   2.0000     -10.317730      -280.7597
   3   2.0000     -10.248093      -278.8648
   4   2.0000     -10.245060      -278.7823
   5   2.0000     -10.237236      -278.5694
   6   2.0000     -10.187977      -277.2289
   7   2.0000      -1.076712       -29.2988
   8   2.0000      -0.985282       -26.8109
   9   2.0000      -0.900837       -24.5130
  10   2.0000      -0.831843       -22.6356
  11   2.0000      -0.770494       -20.9662
  12   2.0000      -0.703479       -19.1426
  13   2.0000      -0.673391       -18.3239
  14   2.0000      -0.643723       -17.5166
  15   2.0000      -0.606839       -16.5129
  16   2.0000      -0.570367       -15.5205
  17   2.0000      -0.544549       -14.8179
  18   2.0000      -0.533973       -14.5301
  19   2.0000      -0.503187       -13.6924
  20   2.0000      -0.485692       -13.2164
  21   2.0000      -0.467828       -12.7302
  22   2.0000      -0.449973       -12.2444
  23   2.0000      -0.421792       -11.4776
  24   2.0000      -0.403249       -10.9730
  25   2.0000      -0.398740       -10.8503
  26   2.0000      -0.359027        -9.7696
  27   2.0000      -0.243314        -6.6209
  28   0.0000       0.100145         2.7251
  29   0.0000       0.129657         3.5281
  30   0.0000       0.135086         3.6759
  31   0.0000       0.157125         4.2756
  32   0.0000       0.162403         4.4192

MULLIKEN ATOMIC CHARGES
-----------------------
   0 C :   -0.226393
   1 C :   -0.326872
   2 C :    0.335964
   3 N :   -0.502829
   4 N :   -0.514430
   5 H :    0.250948
   6 H :    0.226680
   7 H :    0.077959
   8 H :    0.251532
   9 H :    0.230774
  10 C :   -0.121943
  11 H :    0.072562
  12 H :    0.099029
  13 C :   -0.345625
  14 H :    0.082836
  15 H :    0.084528
  16 H :    0.112726
  17 H :    0.109016
  18 H :    0.103539
Sum of atomic charges:    0.0000000

LOEWDIN ATOMIC CHARGES
----------------------
   0 C :   -0.289337
   1 C :   -0.288704
   2 C :   -0.455249
   3 N :   -0.015896
   4 N :   -0.021914
   5 H :    0.175571
   6 H :    0.161365
   7 H :    0.119409
   8 H :    0.181112
   9 H :    0.163000
  10 C :   -0.286992
  11 H :    0.127258
  12 H :    0.140644
  13 C :   -0.304841
  14 H :    0.128998
  15 H :    0.125804
  16 H :    0.115103
  17 H :    0.111531
  18 H :    0.113139

  Mayer bond orders larger than 0.100000
B(  0-C ,  1-C ) :   0.9919 B(  0-C , 10-C ) :   0.9661 B(  0-C , 11-H ) :   0.9890
B(  0-C , 12-H ) :   0.9881 B(  1-C ,  2-C ) :   1.6813 B(  1-C ,  7-H ) :   1.0318
B(  2-C ,  3-N ) :   1.1681 B(  2-C ,  4-N ) :   1.1580 B(  3-N ,  8-H ) :   0.9164
B(  3-N ,  9-H ) :   0.9235 B(  4-N ,  5-H ) :   0.9142 B(  4-N ,  6-H ) :   0.9255
B( 10-C , 13-C ) :   0.9689 B( 10-C , 14-H ) :   0.9722 B( 10-C , 15-H ) :   0.9829
B( 13-C , 16-H ) :   0.9798 B( 13-C , 17-H ) :   0.9818 B( 13-C , 18-H ) :   0.9822

Dispersion correction           -0.005583508
FINAL SINGLE POINT ENERGY      -307.257183634018

DIPOLE MOMENT
-------------
                                X             Y             Z
Electronic contribution:      3.91916      -4.07252      -1.74036
Nuclear contribution   :     -2.83106       3.92601       1.57906
                        -----------------------------------------
Total Dipole Moment    :      1.08810      -0.14652      -0.16129
                        -----------------------------------------
Magnitude (a.u.)       :      1.10970
Magnitude (Debye)      :      2.82064

Rotational constants in cm-1:     0.142679     0.055043     0.048600
Rotational constants in MHz :  4277.395781  1650.135877  1456.977167

                             ****ORCA TERMINATED NORMALLY****
TOTAL RUN TIME: 0 days 0 hours 0 minutes 39 seconds 515 msec
