                         Program Version 5.0.0 -  RELEASE  -
|  1> !wB97X-D3 RIJCOSX def2-TZVP def2/J TightSCF
|  2> *xyz 0 1
|  3> C          0.61188        1.65763       -4.50029
|  4> C          1.69499        1.54179       -5.57045
|  5> H          2.69733        1.73466       -5.18400
|  6> H          1.50666        2.27224       -6.35808
|  7> S          1.78029       -0.03313       -6.42874
|  8> O          2.56929        0.21366       -7.60736
|  9> F          0.41688       -0.46297       -6.61859
| 10> C          0.68036        0.65542       -3.34804
| 11> H         -0.35687        1.54923       -4.99113
| 12> H          0.65023        2.67544       -4.09600
| 13> O          2.50513       -0.93326       -5.48257
| 14> H          0.64318       -0.34009       -3.73853
| 15> H         -0.14865        0.81153       -2.68980
| 16> H          1.59447        0.79330       -2.80925
| 17> *
| 18> %MaxCore 64000
| 19>
| 20> %pal nprocs 8
| 21> end
| 22>
| 23> %scf
| 24>   MaxIter 150
| 25> end
| 26>
| 27>
| 28>                          ****END OF INPUT****

CARTESIAN COORDINATES (ANGSTROEM)
---------------------------------
  C      0.611880    1.657630   -4.500290
  C      1.694990    1.541790   -5.570450
  H      2.697330    1.734660   -5.184000
  H      1.506660    2.272240   -6.358080
  S      1.780290   -0.033130   -6.428740
  O      2.569290    0.213660   -7.607360
  F      0.416880   -0.462970   -6.618590
  C      0.680360    0.655420   -3.348040
  H     -0.356870    1.549230   -4.991130
  H      0.650230    2.675440   -4.096000
  O      2.505130   -0.933260   -5.482570
  H      0.643180   -0.340090   -3.738530
  H     -0.148650    0.811530   -2.689800
  H      1.594470    0.793300   -2.809250

 Total Charge           Charge          ....    0
 Multiplicity           Mult            ....    1
 Number of Electrons    NEL             ....   66
 Basis Dimension        Dim             ....  265

ORBITAL ENERGIES
----------------

  NO   OCC          E(Eh)            E(eV)
   0   2.0000     -89.194198     -2427.0975
   1   2.0000     -24.908594      -677.7973
   2   2.0000     -19.243499      -523.6422
   3   2.0000     -19.224207      -523.1173
   4   2.0000     -10.334879      -281.2263
   5   2.0000     -10.307187      -280.4728
   6   2.0000     -10.271511      -279.5020
   7   2.0000      -8.257730      -224.7043
   8   2.0000      -6.215210      -169.1245
   9   2.0000      -6.208608      -168.9448
  10   2.0000      -6.208255      -168.9352
  11   2.0000      -1.502053       -40.8729
  12   2.0000      -1.219267       -33.1779
  13   2.0000      -1.112601       -30.2754
  14   2.0000      -0.951969       -25.9044
  15   2.0000      -0.868492       -23.6329
  16   2.0000      -0.822432       -22.3795
  17   2.0000      -0.747189       -20.3320
  18   2.0000      -0.701485       -19.0884
  19   2.0000      -0.693262       -18.8646
  20   2.0000      -0.646992       -17.6056
  21   2.0000      -0.594669       -16.1818
  22   2.0000      -0.584345       -15.9008
  23   2.0000      -0.559062       -15.2129
  24   2.0000      -0.541150       -14.7254
  25   2.0000      -0.531315       -14.4578
  26   2.0000      -0.486360       -13.2345
  27   2.0000      -0.480601       -13.0778
  28   2.0000      -0.472236       -12.8502
  29   2.0000      -0.456305       -12.4167
  30   2.0000      -0.424657       -11.5555
  31   2.0000      -0.408638       -11.1196
  32   2.0000      -0.395081       -10.7507
  33   0.0000       0.089260         2.4289
  34   0.0000       0.122652         3.3375
  35   0.0000       0.142757         3.8846
  36   0.0000       0.146100         3.9756
  37   0.0000       0.150773         4.1027

MULLIKEN ATOMIC CHARGES
-----------------------
   0 C :   -0.222306
   1 C :   -0.265249
   2 H :    0.169393
   3 H :    0.156519
   4 S :    0.876591
   5 O :   -0.415668
   6 F :   -0.098818
   7 C :   -0.328869
   8 H :    0.113409
   9 H :    0.119656
  10 O :   -0.467352
  11 H :    0.124182
  12 H :    0.121611
  13 H :    0.116900
Sum of atomic charges:   -0.0000000

LOEWDIN ATOMIC CHARGES
----------------------
   0 C :   -0.314971
   1 C :   -0.367855
   2 H :    0.152464
   3 H :    0.142525
   4 S :    0.541521
   5 O :   -0.261278
   6 F :    0.102604
   7 C :   -0.300890
   8 H :    0.135927
   9 H :    0.142924
  10 O :   -0.327518
  11 H :    0.116541
  12 H :    0.117846
  13 H :    0.120161

  Mayer bond orders larger than 0.100000
B(  0-C ,  1-C ) :   0.9740 B(  0-C ,  7-C ) :   0.9855 B(  0-C ,  8-H ) :   0.9741
B(  0-C ,  9-H ) :   0.9627 B(  1-C ,  2-H ) :   0.9413 B(  1-C ,  3-H ) :   0.9470
B(  1-C ,  4-S ) :   0.9132 B(  4-S ,  5-O ) :   1.9520 B(  4-S ,  6-F ) :   1.1338
B(  4-S , 10-O ) :   1.8512 B(  7-C , 11-H ) :   0.9696 B(  7-C , 12-H ) :   0.9747
B(  7-C , 13-H ) :   0.9749

Dispersion correction           -0.004581112
FINAL SINGLE POINT ENERGY      -767.052133819084

DIPOLE MOMENT
-------------
                                X             Y             Z
Electronic contribution:      1.42391      -6.56901     -10.28064
Nuclear contribution   :     -2.62245       7.78551      10.86491
                        -----------------------------------------
Total Dipole Moment    :     -1.19854       1.21651       0.58426
                        -----------------------------------------
Magnitude (a.u.)       :      1.80492
Magnitude (Debye)      :      4.58775

Rotational constants in cm-1:     0.129509     0.054228     0.052367
Rotational constants in MHz :  3882.596420  1625.701900  1569.934536

                             ****ORCA TERMINATED NORMALLY****
TOTAL RUN TIME: 0 days 0 hours 0 minutes 32 seconds 140 msec
