                         Program Version 5.0.0 -  RELEASE  -
|  1> !wB97X-D3 RIJCOSX def2-TZVP def2/J TightSCF
|  2> *xyz 0 1
|  3> C          1.96337       -1.74915       -1.89689
|  4> N          2.73849       -2.01517       -3.09711
|  5> C          4.04974       -2.15472       -3.15204
|  6> C          4.65821       -1.98629       -4.31866
|  7> N          4.76423       -2.45444       -2.05049
|  8> H          4.28736       -2.77626       -1.21750
|  9> H          5.75082       -2.65835       -2.12599
| 10> H          2.34518       -1.69027       -3.97145
| 11> H          4.10900       -1.59268       -5.07176
| 12> H          5.64910       -2.15646       -4.42724
| 13> C          2.08852       -0.30091       -1.41520
| 14> H          2.23127       -2.45162       -1.10264
| 15> H          0.93025       -1.97780       -2.15544
| 16> C          1.96899        0.73358       -2.53565
| 17> H          3.05136       -0.16860       -0.91187
| 18> H          1.31650       -0.13623       -0.65725
| 19> H          2.73046        0.55745       -3.26643
| 20> H          2.08619        1.71595       -2.12808
| 21> H          1.00672        0.65098       -2.99620
| 22> *
| 23> %MaxCore 64000
| 24>
| 25> %pal nprocs 8
| 26> end
| 27>
| 28> %scf
| 29>   MaxIter 150
| 30> end
| 31>
| 32>
| 33>                          ****END OF INPUT****

CARTESIAN COORDINATES (ANGSTROEM)
---------------------------------
  C      1.963370   -1.749150   -1.896890
  N      2.738490   -2.015170   -3.097110
  C      4.049740   -2.154720   -3.152040
  C      4.658210   -1.986290   -4.318660
  N      4.764230   -2.454440   -2.050490
  H      4.287360   -2.776260   -1.217500
  H      5.750820   -2.658350   -2.125990
  H      2.345180   -1.690270   -3.971450
  H      4.109000   -1.592680   -5.071760
  H      5.649100   -2.156460   -4.427240
  C      2.088520   -0.300910   -1.415200
  H      2.231270   -2.451620   -1.102640
  H      0.930250   -1.977800   -2.155440
  C      1.968990    0.733580   -2.535650
  H      3.051360   -0.168600   -0.911870
  H      1.316500   -0.136230   -0.657250
  H      2.730460    0.557450   -3.266430
  H      2.086190    1.715950   -2.128080
  H      1.006720    0.650980   -2.996200

 Total Charge           Charge          ....    0
 Multiplicity           Mult            ....    1
 Number of Electrons    NEL             ....   56
 Basis Dimension        Dim             ....  289

ORBITAL ENERGIES
----------------

  NO   OCC          E(Eh)            E(eV)
   0   2.0000     -14.419352      -392.3705
   1   2.0000     -14.418880      -392.3577
   2   2.0000     -10.320106      -280.8244
   3   2.0000     -10.312131      -280.6073
   4   2.0000     -10.272406      -279.5264
   5   2.0000     -10.257378      -279.1174
   6   2.0000     -10.182376      -277.0765
   7   2.0000      -1.085966       -29.5506
   8   2.0000      -0.998946       -27.1827
   9   2.0000      -0.902866       -24.5682
  10   2.0000      -0.839342       -22.8397
  11   2.0000      -0.783172       -21.3112
  12   2.0000      -0.717148       -19.5146
  13   2.0000      -0.693336       -18.8666
  14   2.0000      -0.636404       -17.3174
  15   2.0000      -0.597029       -16.2460
  16   2.0000      -0.578693       -15.7470
  17   2.0000      -0.559619       -15.2280
  18   2.0000      -0.543035       -14.7767
  19   2.0000      -0.501551       -13.6479
  20   2.0000      -0.492412       -13.3992
  21   2.0000      -0.485635       -13.2148
  22   2.0000      -0.467594       -12.7239
  23   2.0000      -0.445933       -12.1344
  24   2.0000      -0.442537       -12.0421
  25   2.0000      -0.430053       -11.7023
  26   2.0000      -0.345893        -9.4122
  27   2.0000      -0.249410        -6.7868
  28   0.0000       0.102118         2.7788
  29   0.0000       0.123914         3.3719
  30   0.0000       0.138322         3.7639
  31   0.0000       0.147950         4.0259
  32   0.0000       0.162694         4.4271

MULLIKEN ATOMIC CHARGES
-----------------------
   0 C :   -0.193535
   1 N :   -0.320767
   2 C :    0.372837
   3 C :   -0.534296
   4 N :   -0.516476
   5 H :    0.229812
   6 H :    0.251674
   7 H :    0.233296
   8 H :    0.083326
   9 H :    0.094588
  10 C :   -0.103710
  11 H :    0.107902
  12 H :    0.128158
  13 C :   -0.393159
  14 H :    0.100934
  15 H :    0.092722
  16 H :    0.137319
  17 H :    0.119256
  18 H :    0.110119
Sum of atomic charges:   -0.0000000

LOEWDIN ATOMIC CHARGES
----------------------
   0 C :   -0.294663
   1 N :    0.119345
   2 C :   -0.462300
   3 C :   -0.343682
   4 N :   -0.019472
   5 H :    0.161467
   6 H :    0.176594
   7 H :    0.196459
   8 H :    0.096431
   9 H :    0.094545
  10 C :   -0.296666
  11 H :    0.126839
  12 H :    0.133858
  13 C :   -0.304690
  14 H :    0.133777
  15 H :    0.131941
  16 H :    0.119566
  17 H :    0.117209
  18 H :    0.113443

  Mayer bond orders larger than 0.100000
B(  0-C ,  1-N ) :   0.9360 B(  0-C , 10-C ) :   0.9468 B(  0-C , 11-H ) :   0.9899
B(  0-C , 12-H ) :   0.9825 B(  1-N ,  2-C ) :   1.2164 B(  1-N ,  7-H ) :   0.9234
B(  2-C ,  3-C ) :   1.6139 B(  2-C ,  4-N ) :   1.1290 B(  3-C ,  8-H ) :   1.0111
B(  3-C ,  9-H ) :   1.0118 B(  4-N ,  5-H ) :   0.9166 B(  4-N ,  6-H ) :   0.9213
B( 10-C , 13-C ) :   0.9513 B( 10-C , 14-H ) :   0.9662 B( 10-C , 15-H ) :   0.9721
B( 13-C , 16-H ) :   0.9763 B( 13-C , 17-H ) :   0.9787 B( 13-C , 18-H ) :   0.9806

Dispersion correction           -0.005637449
FINAL SINGLE POINT ENERGY      -307.254610214979

DIPOLE MOMENT
-------------
                                X             Y             Z
Electronic contribution:      1.93940      -3.93480      -0.38941
Nuclear contribution   :     -2.41054       3.93233       1.31148
                        -----------------------------------------
Total Dipole Moment    :     -0.47114      -0.00246       0.92207
                        -----------------------------------------
Magnitude (a.u.)       :      1.03546
Magnitude (Debye)      :      2.63194

Rotational constants in cm-1:     0.144008     0.056232     0.050126
Rotational constants in MHz :  4317.255215  1685.791221  1502.728769

                             ****ORCA TERMINATED NORMALLY****
TOTAL RUN TIME: 0 days 0 hours 0 minutes 41 seconds 526 msec
