                         Program Version 5.0.0 -  RELEASE  -
|  1> !wB97X-D3 RIJCOSX def2-TZVP def2/J TightSCF
|  2> *xyz 0 1
|  3> C          0.61188        1.65763       -4.50029
|  4> C          1.69499        1.54179       -5.57045
|  5> H          2.69733        1.73466       -5.18400
|  6> H          1.50666        2.27224       -6.35808
|  7> S          1.78029       -0.03313       -6.42874
|  8> O          2.56929        0.21366       -7.60736
|  9> O          0.41688       -0.46297       -6.61859
| 10> C          0.68036        0.65542       -3.34804
| 11> H         -0.35687        1.54923       -4.99113
| 12> H          0.65023        2.67544       -4.09600
| 13> F          2.50513       -0.93326       -5.48257
| 14> H          0.64318       -0.34009       -3.73853
| 15> H         -0.14865        0.81153       -2.68980
| 16> H          1.59447        0.79330       -2.80925
| 17> *
| 18> %MaxCore 64000
| 19>
| 20> %pal nprocs 8
| 21> end
| 22>
| 23> %scf
| 24>   MaxIter 150
| 25> end
| 26>
| 27>
| 28>                          ****END OF INPUT****

CARTESIAN COORDINATES (ANGSTROEM)
---------------------------------
  C      0.611880    1.657630   -4.500290
  C      1.694990    1.541790   -5.570450
  H      2.697330    1.734660   -5.184000
  H      1.506660    2.272240   -6.358080
  S      1.780290   -0.033130   -6.428740
  O      2.569290    0.213660   -7.607360
  O      0.416880   -0.462970   -6.618590
  C      0.680360    0.655420   -3.348040
  H     -0.356870    1.549230   -4.991130
  H      0.650230    2.675440   -4.096000
  F      2.505130   -0.933260   -5.482570
  H      0.643180   -0.340090   -3.738530
  H     -0.148650    0.811530   -2.689800
  H      1.594470    0.793300   -2.809250

 Total Charge           Charge          ....    0
 Multiplicity           Mult            ....    1
 Number of Electrons    NEL             ....   66
 Basis Dimension        Dim             ....  265

ORBITAL ENERGIES
----------------

  NO   OCC          E(Eh)            E(eV)
   0   2.0000     -89.191702     -2427.0296
   1   2.0000     -24.879674      -677.0103
   2   2.0000     -19.244201      -523.6613
   3   2.0000     -19.242986      -523.6283
   4   2.0000     -10.334055      -281.2039
   5   2.0000     -10.302714      -280.3511
   6   2.0000     -10.275856      -279.6203
   7   2.0000      -8.255182      -224.6349
   8   2.0000      -6.212709      -169.0564
   9   2.0000      -6.206354      -168.8835
  10   2.0000      -6.205563      -168.8620
  11   2.0000      -1.457815       -39.6692
  12   2.0000      -1.231240       -33.5037
  13   2.0000      -1.140468       -31.0337
  14   2.0000      -0.949700       -25.8427
  15   2.0000      -0.865189       -23.5430
  16   2.0000      -0.804825       -21.9004
  17   2.0000      -0.743318       -20.2267
  18   2.0000      -0.671710       -18.2781
  19   2.0000      -0.661994       -18.0138
  20   2.0000      -0.652349       -17.7513
  21   2.0000      -0.598082       -16.2746
  22   2.0000      -0.579716       -15.7749
  23   2.0000      -0.558076       -15.1860
  24   2.0000      -0.550057       -14.9678
  25   2.0000      -0.535596       -14.5743
  26   2.0000      -0.494060       -13.4441
  27   2.0000      -0.481907       -13.1134
  28   2.0000      -0.467931       -12.7331
  29   2.0000      -0.455574       -12.3968
  30   2.0000      -0.436337       -11.8733
  31   2.0000      -0.422867       -11.5068
  32   2.0000      -0.417837       -11.3699
  33   0.0000       0.097611         2.6561
  34   0.0000       0.122335         3.3289
  35   0.0000       0.142013         3.8644
  36   0.0000       0.146017         3.9733
  37   0.0000       0.158107         4.3023

MULLIKEN ATOMIC CHARGES
-----------------------
   0 C :   -0.186969
   1 C :   -0.288512
   2 H :    0.150864
   3 H :    0.171795
   4 S :    0.886152
   5 O :   -0.428296
   6 O :   -0.424659
   7 C :   -0.357726
   8 H :    0.133299
   9 H :    0.114223
  10 F :   -0.134291
  11 H :    0.123858
  12 H :    0.127508
  13 H :    0.112752
Sum of atomic charges:   -0.0000000

LOEWDIN ATOMIC CHARGES
----------------------
   0 C :   -0.309737
   1 C :   -0.371105
   2 H :    0.139286
   3 H :    0.152809
   4 S :    0.547802
   5 O :   -0.266918
   6 O :   -0.265083
   7 C :   -0.303294
   8 H :    0.144640
   9 H :    0.141427
  10 F :    0.038001
  11 H :    0.115243
  12 H :    0.121144
  13 H :    0.115784

  Mayer bond orders larger than 0.100000
B(  0-C ,  1-C ) :   0.9678 B(  0-C ,  7-C ) :   0.9804 B(  0-C ,  8-H ) :   0.9656
B(  0-C ,  9-H ) :   0.9589 B(  1-C ,  2-H ) :   0.9475 B(  1-C ,  3-H ) :   0.9430
B(  1-C ,  4-S ) :   0.9128 B(  4-S ,  5-O ) :   1.9469 B(  4-S ,  6-O ) :   1.9027
B(  4-S , 10-F ) :   1.0900 B(  7-C , 11-H ) :   0.9718 B(  7-C , 12-H ) :   0.9774
B(  7-C , 13-H ) :   0.9759

Dispersion correction           -0.004577549
FINAL SINGLE POINT ENERGY      -767.076579661192

DIPOLE MOMENT
-------------
                                X             Y             Z
Electronic contribution:      5.01087      -7.39421      -8.30298
Nuclear contribution   :     -4.86824       8.29128       9.64318
                        -----------------------------------------
Total Dipole Moment    :      0.14263       0.89708       1.34021
                        -----------------------------------------
Magnitude (a.u.)       :      1.61903
Magnitude (Debye)      :      4.11524

Rotational constants in cm-1:     0.129339     0.055092     0.051542
Rotational constants in MHz :  3877.477482  1651.602611  1545.182728

                             ****ORCA TERMINATED NORMALLY****
TOTAL RUN TIME: 0 days 0 hours 0 minutes 28 seconds 453 msec
