                         Program Version 5.0.0 -  RELEASE  -
|  1> !wB97X-D3 RIJCOSX def2-TZVP def2/J TightSCF
|  2> *xyz 0 1
|  3> C          1.96337       -1.74915       -1.89689
|  4> N          2.73849       -2.01517       -3.09711
|  5> C          4.04974       -2.15472       -3.15204
|  6> N          4.65821       -1.98629       -4.31866
|  7> C          4.76423       -2.45444       -2.05049
|  8> H          4.28736       -2.77626       -1.21750
|  9> H          5.75082       -2.65835       -2.12599
| 10> H          2.34518       -1.69027       -3.97145
| 11> H          4.10900       -1.59268       -5.07176
| 12> H          5.64910       -2.15646       -4.42724
| 13> C          2.08852       -0.30091       -1.41520
| 14> H          2.23127       -2.45162       -1.10264
| 15> H          0.93025       -1.97780       -2.15544
| 16> C          1.96899        0.73358       -2.53565
| 17> H          3.05136       -0.16860       -0.91187
| 18> H          1.31650       -0.13623       -0.65725
| 19> H          2.73046        0.55745       -3.26643
| 20> H          2.08619        1.71595       -2.12808
| 21> H          1.00672        0.65098       -2.99620
| 22> *
| 23> %MaxCore 64000
| 24>
| 25> %pal nprocs 8
| 26> end
| 27>
| 28> %scf
| 29>   MaxIter 150
| 30> end
| 31>
| 32>
| 33>                          ****END OF INPUT****

CARTESIAN COORDINATES (ANGSTROEM)
---------------------------------
  C      1.963370   -1.749150   -1.896890
  N      2.738490   -2.015170   -3.097110
  C      4.049740   -2.154720   -3.152040
  N      4.658210   -1.986290   -4.318660
  C      4.764230   -2.454440   -2.050490
  H      4.287360   -2.776260   -1.217500
  H      5.750820   -2.658350   -2.125990
  H      2.345180   -1.690270   -3.971450
  H      4.109000   -1.592680   -5.071760
  H      5.649100   -2.156460   -4.427240
  C      2.088520   -0.300910   -1.415200
  H      2.231270   -2.451620   -1.102640
  H      0.930250   -1.977800   -2.155440
  C      1.968990    0.733580   -2.535650
  H      3.051360   -0.168600   -0.911870
  H      1.316500   -0.136230   -0.657250
  H      2.730460    0.557450   -3.266430
  H      2.086190    1.715950   -2.128080
  H      1.006720    0.650980   -2.996200

 Total Charge           Charge          ....    0
 Multiplicity           Mult            ....    1
 Number of Electrons    NEL             ....   56
 Basis Dimension        Dim             ....  289

ORBITAL ENERGIES
----------------

  NO   OCC          E(Eh)            E(eV)
   0   2.0000     -14.422571      -392.4581
   1   2.0000     -14.421739      -392.4355
   2   2.0000     -10.321390      -280.8593
   3   2.0000     -10.305818      -280.4356
   4   2.0000     -10.266423      -279.3636
   5   2.0000     -10.257044      -279.1084
   6   2.0000     -10.181399      -277.0500
   7   2.0000      -1.091721       -29.7072
   8   2.0000      -1.003328       -27.3019
   9   2.0000      -0.893247       -24.3065
  10   2.0000      -0.823711       -22.4143
  11   2.0000      -0.804641       -21.8954
  12   2.0000      -0.717261       -19.5177
  13   2.0000      -0.659445       -17.9444
  14   2.0000      -0.648468       -17.6457
  15   2.0000      -0.626602       -17.0507
  16   2.0000      -0.574692       -15.6382
  17   2.0000      -0.551479       -15.0065
  18   2.0000      -0.535974       -14.5846
  19   2.0000      -0.500222       -13.6117
  20   2.0000      -0.492617       -13.4048
  21   2.0000      -0.478031       -13.0079
  22   2.0000      -0.465044       -12.6545
  23   2.0000      -0.445439       -12.1210
  24   2.0000      -0.439473       -11.9587
  25   2.0000      -0.422996       -11.5103
  26   2.0000      -0.343419        -9.3449
  27   2.0000      -0.249810        -6.7977
  28   0.0000       0.097092         2.6420
  29   0.0000       0.127398         3.4667
  30   0.0000       0.141360         3.8466
  31   0.0000       0.150826         4.1042
  32   0.0000       0.164385         4.4731

MULLIKEN ATOMIC CHARGES
-----------------------
   0 C :   -0.151630
   1 N :   -0.331657
   2 C :    0.356311
   3 N :   -0.501371
   4 C :   -0.530200
   5 H :    0.093754
   6 H :    0.086335
   7 H :    0.200827
   8 H :    0.220870
   9 H :    0.260209
  10 C :   -0.118950
  11 H :    0.127183
  12 H :    0.122422
  13 C :   -0.388177
  14 H :    0.121377
  15 H :    0.094967
  16 H :    0.107880
  17 H :    0.120781
  18 H :    0.109069
Sum of atomic charges:   -0.0000000

LOEWDIN ATOMIC CHARGES
----------------------
   0 C :   -0.276920
   1 N :    0.118188
   2 C :   -0.470609
   3 N :   -0.011849
   4 C :   -0.349648
   5 H :    0.095689
   6 H :    0.092195
   7 H :    0.178264
   8 H :    0.162869
   9 H :    0.180182
  10 C :   -0.293458
  11 H :    0.137913
  12 H :    0.131537
  13 C :   -0.308168
  14 H :    0.139720
  15 H :    0.132632
  16 H :    0.111994
  17 H :    0.117187
  18 H :    0.112283

  Mayer bond orders larger than 0.100000
B(  0-C ,  1-N ) :   0.9260 B(  0-C , 10-C ) :   0.9666 B(  0-C , 11-H ) :   0.9757
B(  0-C , 12-H ) :   0.9818 B(  1-N ,  2-C ) :   1.1883 B(  1-N ,  7-H ) :   0.9298
B(  2-C ,  3-N ) :   1.1432 B(  2-C ,  4-C ) :   1.6445 B(  3-N ,  8-H ) :   0.9251
B(  3-N ,  9-H ) :   0.9156 B(  4-C ,  5-H ) :   1.0063 B(  4-C ,  6-H ) :   1.0002
B( 10-C , 13-C ) :   0.9496 B( 10-C , 14-H ) :   0.9653 B( 10-C , 15-H ) :   0.9752
B( 13-C , 16-H ) :   0.9795 B( 13-C , 17-H ) :   0.9802 B( 13-C , 18-H ) :   0.9809

Dispersion correction           -0.005601115
FINAL SINGLE POINT ENERGY      -307.253169985928

DIPOLE MOMENT
-------------
                                X             Y             Z
Electronic contribution:      1.85389      -3.40280      -2.67950
Nuclear contribution   :     -2.38731       3.82978       1.80833
                        -----------------------------------------
Total Dipole Moment    :     -0.53343       0.42698      -0.87117
                        -----------------------------------------
Magnitude (a.u.)       :      1.10716
Magnitude (Debye)      :      2.81417

Rotational constants in cm-1:     0.144922     0.055791     0.049560
Rotational constants in MHz :  4344.653038  1672.561873  1485.775629

                             ****ORCA TERMINATED NORMALLY****
TOTAL RUN TIME: 0 days 0 hours 0 minutes 41 seconds 468 msec
