                         Program Version 5.0.0 -  RELEASE  -
|  1> !wB97X-D3 RIJCOSX def2-TZVP def2/J TightSCF xyzfile
|  2>
|  3> *xyzfile 0 1 D2.xyz
|  4>
|  5> %MaxCore 64000
|  6>
|  7> %pal nprocs 18
|  8> end
|  9>
| 10> %scf
| 11>   MaxIter 150
| 12> end
| 13>
| 14>
| 15>                          ****END OF INPUT****

CARTESIAN COORDINATES (ANGSTROEM)
---------------------------------
  C      1.963365   -1.749150   -1.896887
  N      2.738490   -2.015170   -3.097113
  C      0.611877    1.657634   -4.500288
  C      1.694991    1.541794   -5.570447
  H      2.697326    1.734659   -5.183996
  H      1.506656    2.272239   -6.358076
  S      1.780287   -0.033128   -6.428739
  C      4.049736   -2.154717   -3.152044
  C      4.658206   -1.986293   -4.318655
  N      4.764231   -2.454435   -2.050491
  H      4.287363   -2.776259   -1.217496
  H      5.750825   -2.658351   -2.125988
  H      2.345176   -1.690274   -3.971447
  H      4.109004   -1.592677   -5.071760
  H      5.649095   -2.156462   -4.427237
  F      2.569287    0.213657   -7.607360
  O      0.416880   -0.462969   -6.618595
  C      2.088520   -0.300912   -1.415204
  H      2.231272   -2.451616   -1.102643
  H      0.930249   -1.977801   -2.155438
  C      0.680356    0.655418   -3.348038
  H     -0.356865    1.549231   -4.991128
  H      0.650228    2.675438   -4.096000
  C      1.968993    0.733582   -2.535654
  H      3.051356   -0.168602   -0.911868
  H      1.316501   -0.136231   -0.657252
  O      2.505129   -0.933263   -5.482570
  H      2.824195    0.624726   -3.208464
  H      2.058919    1.730331   -2.093112
  H      0.542252   -0.344731   -3.766662
  H     -0.174219    0.829692   -2.685182

 Total Charge           Charge          ....    0
 Multiplicity           Mult            ....    1
 Number of Electrons    NEL             ....  120
 Basis Dimension        Dim             ....  542

ORBITAL ENERGIES
----------------

  NO   OCC          E(Eh)            E(eV)
   0   2.0000     -89.208313     -2427.4816
   1   2.0000     -24.919316      -678.0891
   2   2.0000     -19.255959      -523.9813
   3   2.0000     -19.240304      -523.5553
   4   2.0000     -14.399954      -391.8427
   5   2.0000     -14.386392      -391.4736
   6   2.0000     -10.342367      -281.4301
   7   2.0000     -10.307084      -280.4700
   8   2.0000     -10.297197      -280.2010
   9   2.0000     -10.295407      -280.1523
  10   2.0000     -10.281438      -279.7722
  11   2.0000     -10.271482      -279.5012
  12   2.0000     -10.266645      -279.3696
  13   2.0000     -10.150483      -276.2087
  14   2.0000      -8.271944      -225.0910
  15   2.0000      -6.229011      -169.5000
  16   2.0000      -6.222929      -169.3345
  17   2.0000      -6.222761      -169.3299
  18   2.0000      -1.513581       -41.1866
  19   2.0000      -1.233253       -33.5585
  20   2.0000      -1.133182       -30.8355
  21   2.0000      -1.062056       -28.9000
  22   2.0000      -0.978918       -26.6377
  23   2.0000      -0.959808       -26.1177
  24   2.0000      -0.909473       -24.7480
  25   2.0000      -0.874277       -23.7903
  26   2.0000      -0.835070       -22.7234
  27   2.0000      -0.809479       -22.0271
  28   2.0000      -0.771236       -20.9864
  29   2.0000      -0.736796       -20.0493
  30   2.0000      -0.711099       -19.3500
  31   2.0000      -0.701762       -19.0959
  32   2.0000      -0.693797       -18.8792
  33   2.0000      -0.671911       -18.2836
  34   2.0000      -0.662326       -18.0228
  35   2.0000      -0.618558       -16.8318
  36   2.0000      -0.604370       -16.4457
  37   2.0000      -0.601530       -16.3685
  38   2.0000      -0.578504       -15.7419
  39   2.0000      -0.574380       -15.6297
  40   2.0000      -0.563964       -15.3462
  41   2.0000      -0.556768       -15.1504
  42   2.0000      -0.540047       -14.6954
  43   2.0000      -0.529550       -14.4098
  44   2.0000      -0.513565       -13.9748
  45   2.0000      -0.498167       -13.5558
  46   2.0000      -0.484216       -13.1762
  47   2.0000      -0.479381       -13.0446
  48   2.0000      -0.467506       -12.7215
  49   2.0000      -0.459930       -12.5153
  50   2.0000      -0.449487       -12.2312
  51   2.0000      -0.448842       -12.2136
  52   2.0000      -0.441224       -12.0063
  53   2.0000      -0.426645       -11.6096
  54   2.0000      -0.422525       -11.4975
  55   2.0000      -0.414852       -11.2887
  56   2.0000      -0.411205       -11.1895
  57   2.0000      -0.396136       -10.7794
  58   2.0000      -0.323737        -8.8093
  59   2.0000      -0.224633        -6.1126
  60   0.0000       0.096204         2.6178
  61   0.0000       0.100183         2.7261
  62   0.0000       0.116415         3.1678
  63   0.0000       0.128831         3.5057
  64   0.0000       0.137412         3.7392

MULLIKEN ATOMIC CHARGES
-----------------------
   0 C :   -0.261300
   1 N :   -0.273980
   2 C :   -0.179712
   3 C :   -0.316811
   4 H :    0.178848
   5 H :    0.159939
   6 S :    0.905073
   7 C :    0.349486
   8 C :   -0.551596
   9 N :   -0.525510
  10 H :    0.223307
  11 H :    0.246136
  12 H :    0.241886
  13 H :    0.118228
  14 H :    0.079359
  15 F :   -0.091277
  16 O :   -0.410814
  17 C :   -0.102292
  18 H :    0.112856
  19 H :    0.142557
  20 C :   -0.285927
  21 H :    0.143537
  22 H :    0.127043
  23 C :   -0.250374
  24 H :    0.110362
  25 H :    0.091638
  26 O :   -0.479315
  27 H :    0.139724
  28 H :    0.104449
  29 H :    0.142519
  30 H :    0.111959
Sum of atomic charges:    0.0000000

LOEWDIN ATOMIC CHARGES
----------------------
   0 C :   -0.298855
   1 N :    0.120264
   2 C :   -0.275038
   3 C :   -0.367665
   4 H :    0.145230
   5 H :    0.139848
   6 S :    0.564801
   7 C :   -0.465440
   8 C :   -0.359210
   9 N :   -0.028821
  10 H :    0.157782
  11 H :    0.172996
  12 H :    0.176730
  13 H :    0.093431
  14 H :    0.088020
  15 F :    0.111308
  16 O :   -0.253367
  17 C :   -0.270156
  18 H :    0.125031
  19 H :    0.132770
  20 C :   -0.268538
  21 H :    0.147418
  22 H :    0.148164
  23 C :   -0.270200
  24 H :    0.137630
  25 H :    0.133262
  26 O :   -0.293933
  27 H :    0.142084
  28 H :    0.135148
  29 H :    0.138893
  30 H :    0.140412

  Mayer bond orders larger than 0.100000
B(  0-C ,  1-N ) :   0.9653 B(  0-C , 17-C ) :   0.9069 B(  0-C , 18-H ) :   0.9951
B(  0-C , 19-H ) :   0.9923 B(  1-N ,  7-C ) :   1.2341 B(  1-N , 12-H ) :   0.8902
B(  2-C ,  3-C ) :   0.9658 B(  2-C , 20-C ) :   0.9865 B(  2-C , 21-H ) :   0.9709
B(  2-C , 22-H ) :   0.9607 B(  3-C ,  4-H ) :   0.9423 B(  3-C ,  5-H ) :   0.9452
B(  3-C ,  6-S ) :   0.9221 B(  6-S , 15-F ) :   1.1680 B(  6-S , 16-O ) :   1.9252
B(  6-S , 26-O ) :   1.7346 B(  7-C ,  8-C ) :   1.6271 B(  7-C ,  9-N ) :   1.1125
B(  8-C , 13-H ) :   0.9962 B(  8-C , 14-H ) :   1.0101 B(  9-N , 10-H ) :   0.9189
B(  9-N , 11-H ) :   0.9246 B( 17-C , 23-C ) :   0.9812 B( 17-C , 24-H ) :   0.9681
B( 17-C , 25-H ) :   0.9774 B( 20-C , 23-C ) :   0.9366 B( 20-C , 29-H ) :   0.9770
B( 20-C , 30-H ) :   0.9732 B( 23-C , 27-H ) :   0.9687 B( 23-C , 28-H ) :   0.9710

Dispersion correction           -0.016478967
FINAL SINGLE POINT ENERGY     -1073.098132604485

DIPOLE MOMENT
-------------
                                X             Y             Z
Electronic contribution:     -0.87869      -0.80972     -22.50703
Nuclear contribution   :      0.43347       2.59110      22.83150
                        -----------------------------------------
Total Dipole Moment    :     -0.44522       1.78137       0.32447
                        -----------------------------------------
Magnitude (a.u.)       :      1.86462
Magnitude (Debye)      :      4.73948

Rotational constants in cm-1:     0.029257     0.014415     0.010996
Rotational constants in MHz :   877.098782   432.159206   329.643335

                             ****ORCA TERMINATED NORMALLY****
TOTAL RUN TIME: 0 days 0 hours 1 minutes 42 seconds 746 msec
