                         Program Version 5.0.0 -  RELEASE  -
|  1> !wB97X-D3 RIJCOSX def2-TZVP def2/J TightSCF xyzfile
|  2>
|  3> *xyzfile 0 1 D4.xyz
|  4>
|  5> %MaxCore 64000
|  6>
|  7> %pal nprocs 18
|  8> end
|  9>
| 10> %scf
| 11>   MaxIter 150
| 12> end
| 13>
| 14>
| 15>                          ****END OF INPUT****

CARTESIAN COORDINATES (ANGSTROEM)
---------------------------------
  C      1.963365   -1.749150   -1.896887
  C      2.738490   -2.015170   -3.097113
  C      0.611877    1.657634   -4.500288
  C      1.694991    1.541794   -5.570447
  H      2.697326    1.734659   -5.183996
  H      1.506656    2.272239   -6.358076
  S      1.780287   -0.033128   -6.428739
  C      4.049736   -2.154717   -3.152044
  N      4.658206   -1.986293   -4.318655
  N      4.764231   -2.454435   -2.050491
  H      4.287363   -2.776259   -1.217496
  H      5.750825   -2.658351   -2.125988
  H      2.345176   -1.690274   -3.971447
  H      4.109004   -1.592677   -5.071760
  H      5.649095   -2.156462   -4.427237
  O      2.569287    0.213657   -7.607360
  F      0.416880   -0.462969   -6.618595
  C      2.088520   -0.300912   -1.415204
  H      2.231272   -2.451616   -1.102643
  H      0.930249   -1.977801   -2.155438
  C      0.680356    0.655418   -3.348038
  H     -0.356865    1.549231   -4.991128
  H      0.650228    2.675438   -4.096000
  C      1.968993    0.733582   -2.535654
  H      3.051356   -0.168602   -0.911868
  H      1.316501   -0.136231   -0.657252
  O      2.505129   -0.933263   -5.482570
  H      2.824195    0.624726   -3.208464
  H      2.058919    1.730331   -2.093112
  H      0.542252   -0.344731   -3.766662
  H     -0.174219    0.829692   -2.685182

 Total Charge           Charge          ....    0
 Multiplicity           Mult            ....    1
 Number of Electrons    NEL             ....  120
 Basis Dimension        Dim             ....  542

ORBITAL ENERGIES
----------------

  NO   OCC          E(Eh)            E(eV)
   0   2.0000     -89.205729     -2427.4113
   1   2.0000     -24.917184      -678.0310
   2   2.0000     -19.253201      -523.9062
   3   2.0000     -19.238325      -523.5014
   4   2.0000     -14.402222      -391.9044
   5   2.0000     -14.385493      -391.4492
   6   2.0000     -10.338595      -281.3275
   7   2.0000     -10.303647      -280.3765
   8   2.0000     -10.294557      -280.1291
   9   2.0000     -10.275461      -279.6095
  10   2.0000     -10.259781      -279.1828
  11   2.0000     -10.247877      -278.8589
  12   2.0000     -10.235225      -278.5146
  13   2.0000     -10.155834      -276.3543
  14   2.0000      -8.269458      -225.0234
  15   2.0000      -6.226780      -169.4393
  16   2.0000      -6.220493      -169.2682
  17   2.0000      -6.219946      -169.2533
  18   2.0000      -1.510422       -41.1007
  19   2.0000      -1.232101       -33.5272
  20   2.0000      -1.131146       -30.7800
  21   2.0000      -1.053129       -28.6571
  22   2.0000      -0.962629       -26.1945
  23   2.0000      -0.957845       -26.0643
  24   2.0000      -0.908859       -24.7313
  25   2.0000      -0.867175       -23.5970
  26   2.0000      -0.837999       -22.8031
  27   2.0000      -0.806882       -21.9564
  28   2.0000      -0.764802       -20.8113
  29   2.0000      -0.730783       -19.8856
  30   2.0000      -0.708106       -19.2686
  31   2.0000      -0.705660       -19.2020
  32   2.0000      -0.688902       -18.7460
  33   2.0000      -0.659747       -17.9526
  34   2.0000      -0.648070       -17.6349
  35   2.0000      -0.623542       -16.9674
  36   2.0000      -0.598534       -16.2869
  37   2.0000      -0.596841       -16.2409
  38   2.0000      -0.578929       -15.7534
  39   2.0000      -0.572388       -15.5755
  40   2.0000      -0.565726       -15.3942
  41   2.0000      -0.542228       -14.7548
  42   2.0000      -0.536217       -14.5912
  43   2.0000      -0.530031       -14.4229
  44   2.0000      -0.516447       -14.0532
  45   2.0000      -0.492183       -13.3930
  46   2.0000      -0.482433       -13.1277
  47   2.0000      -0.475118       -12.9286
  48   2.0000      -0.467946       -12.7335
  49   2.0000      -0.461576       -12.5601
  50   2.0000      -0.447032       -12.1643
  51   2.0000      -0.433694       -11.8014
  52   2.0000      -0.429621       -11.6906
  53   2.0000      -0.421487       -11.4692
  54   2.0000      -0.410747       -11.1770
  55   2.0000      -0.404849       -11.0165
  56   2.0000      -0.392108       -10.6698
  57   2.0000      -0.369999       -10.0682
  58   2.0000      -0.336203        -9.1486
  59   2.0000      -0.220752        -6.0070
  60   0.0000       0.087276         2.3749
  61   0.0000       0.114500         3.1157
  62   0.0000       0.117528         3.1981
  63   0.0000       0.132203         3.5974
  64   0.0000       0.134964         3.6726

MULLIKEN ATOMIC CHARGES
-----------------------
   0 C :   -0.277298
   1 C :   -0.282748
   2 C :   -0.208783
   3 C :   -0.301479
   4 H :    0.184344
   5 H :    0.169371
   6 S :    0.900065
   7 C :    0.268874
   8 N :   -0.495062
   9 N :   -0.516293
  10 H :    0.244208
  11 H :    0.221525
  12 H :    0.121921
  13 H :    0.260057
  14 H :    0.214493
  15 O :   -0.415081
  16 F :   -0.092924
  17 C :   -0.141314
  18 H :    0.081284
  19 H :    0.104302
  20 C :   -0.284629
  21 H :    0.131556
  22 H :    0.124651
  23 C :   -0.160201
  24 H :    0.096112
  25 H :    0.082543
  26 O :   -0.484115
  27 H :    0.118556
  28 H :    0.098778
  29 H :    0.125593
  30 H :    0.111694
Sum of atomic charges:    0.0000000

LOEWDIN ATOMIC CHARGES
----------------------
   0 C :   -0.294706
   1 C :   -0.296213
   2 C :   -0.289184
   3 C :   -0.360305
   4 H :    0.152969
   5 H :    0.144067
   6 S :    0.564290
   7 C :   -0.459354
   8 N :   -0.019779
   9 N :   -0.030579
  10 H :    0.172106
  11 H :    0.158089
  12 H :    0.114535
  13 H :    0.166640
  14 H :    0.156155
  15 O :   -0.257131
  16 F :    0.110742
  17 C :   -0.260411
  18 H :    0.125741
  19 H :    0.136858
  20 C :   -0.268101
  21 H :    0.138451
  22 H :    0.147032
  23 C :   -0.267085
  24 H :    0.134611
  25 H :    0.127315
  26 O :   -0.296495
  27 H :    0.139819
  28 H :    0.132114
  29 H :    0.137897
  30 H :    0.139912

  Mayer bond orders larger than 0.100000
B(  0-C ,  1-C ) :   0.9755 B(  0-C , 17-C ) :   0.9346 B(  0-C , 18-H ) :   0.9979
B(  0-C , 19-H ) :   1.0028 B(  1-C ,  7-C ) :   1.6850 B(  1-C , 12-H ) :   1.0178
B(  2-C ,  3-C ) :   0.9615 B(  2-C , 20-C ) :   0.9593 B(  2-C , 21-H ) :   0.9848
B(  2-C , 22-H ) :   0.9593 B(  3-C ,  4-H ) :   0.9426 B(  3-C ,  5-H ) :   0.9504
B(  3-C ,  6-S ) :   0.9174 B(  6-S , 15-O ) :   1.9580 B(  6-S , 16-F ) :   1.1525
B(  6-S , 26-O ) :   1.7335 B(  7-C ,  8-N ) :   1.2125 B(  7-C ,  9-N ) :   1.1539
B(  8-N , 13-H ) :   0.8783 B(  8-N , 14-H ) :   0.9307 B(  9-N , 10-H ) :   0.9164
B(  9-N , 11-H ) :   0.9269 B( 17-C , 23-C ) :   0.9883 B( 17-C , 24-H ) :   0.9725
B( 17-C , 25-H ) :   0.9849 B( 20-C , 23-C ) :   0.9198 B( 20-C , 29-H ) :   0.9911
B( 20-C , 30-H ) :   0.9732 B( 23-C , 27-H ) :   0.9741 B( 23-C , 28-H ) :   0.9727

Dispersion correction           -0.016327615
FINAL SINGLE POINT ENERGY     -1073.100032529490

DIPOLE MOMENT
-------------
                                X             Y             Z
Electronic contribution:     -2.93541      -2.17092     -21.78207
Nuclear contribution   :      2.64598       3.36033      21.85869
                        -----------------------------------------
Total Dipole Moment    :     -0.28942       1.18941       0.07662
                        -----------------------------------------
Magnitude (a.u.)       :      1.22651
Magnitude (Debye)      :      3.11755

Rotational constants in cm-1:     0.028973     0.014435     0.011026
Rotational constants in MHz :   868.588266   432.748309   330.548534

                             ****ORCA TERMINATED NORMALLY****
TOTAL RUN TIME: 0 days 0 hours 1 minutes 51 seconds 751 msec
