                         Program Version 5.0.0 -  RELEASE  -
|  1> !wB97X-D3 RIJCOSX def2-TZVP def2/J TightSCF xyzfile
|  2>
|  3> *xyzfile 0 1 D7.xyz
|  4>
|  5> %MaxCore 64000
|  6>
|  7> %pal nprocs 18
|  8> end
|  9>
| 10> %scf
| 11>   MaxIter 150
| 12> end
| 13>
| 14>
| 15>                          ****END OF INPUT****

CARTESIAN COORDINATES (ANGSTROEM)
---------------------------------
  C      1.963365   -1.749150   -1.896887
  C      2.738490   -2.015170   -3.097113
  C      0.611877    1.657634   -4.500288
  C      1.694991    1.541794   -5.570447
  H      2.697326    1.734659   -5.183996
  H      1.506656    2.272239   -6.358076
  S      1.780287   -0.033128   -6.428739
  C      4.049736   -2.154717   -3.152044
  N      4.658206   -1.986293   -4.318655
  N      4.764231   -2.454435   -2.050491
  H      4.287363   -2.776259   -1.217496
  H      5.750825   -2.658351   -2.125988
  H      2.345176   -1.690274   -3.971447
  H      4.109004   -1.592677   -5.071760
  H      5.649095   -2.156462   -4.427237
  O      2.569287    0.213657   -7.607360
  O      0.416880   -0.462969   -6.618595
  C      2.088520   -0.300912   -1.415204
  H      2.231272   -2.451616   -1.102643
  H      0.930249   -1.977801   -2.155438
  C      0.680356    0.655418   -3.348038
  H     -0.356865    1.549231   -4.991128
  H      0.650228    2.675438   -4.096000
  C      1.968993    0.733582   -2.535654
  H      3.051356   -0.168602   -0.911868
  H      1.316501   -0.136231   -0.657252
  F      2.505129   -0.933263   -5.482570
  H      2.824195    0.624726   -3.208464
  H      2.058919    1.730331   -2.093112
  H      0.542252   -0.344731   -3.766662
  H     -0.174219    0.829692   -2.685182

 Total Charge           Charge          ....    0
 Multiplicity           Mult            ....    1
 Number of Electrons    NEL             ....  120
 Basis Dimension        Dim             ....  542

ORBITAL ENERGIES
----------------

  NO   OCC          E(Eh)            E(eV)
   0   2.0000     -89.195211     -2427.1251
   1   2.0000     -24.891940      -677.3441
   2   2.0000     -19.247430      -523.7492
   3   2.0000     -19.247072      -523.7395
   4   2.0000     -14.421972      -392.4418
   5   2.0000     -14.416688      -392.2980
   6   2.0000     -10.333124      -281.1786
   7   2.0000     -10.319455      -280.8067
   8   2.0000     -10.296499      -280.1820
   9   2.0000     -10.276829      -279.6467
  10   2.0000     -10.268265      -279.4137
  11   2.0000     -10.258597      -279.1506
  12   2.0000     -10.250328      -278.9256
  13   2.0000     -10.185304      -277.1562
  14   2.0000      -8.259089      -224.7412
  15   2.0000      -6.216813      -169.1681
  16   2.0000      -6.210036      -168.9837
  17   2.0000      -6.209347      -168.9649
  18   2.0000      -1.474490       -40.1229
  19   2.0000      -1.236271       -33.6407
  20   2.0000      -1.144022       -31.1304
  21   2.0000      -1.078293       -29.3418
  22   2.0000      -0.987376       -26.8679
  23   2.0000      -0.954318       -25.9683
  24   2.0000      -0.916655       -24.9434
  25   2.0000      -0.869984       -23.6735
  26   2.0000      -0.845077       -22.9957
  27   2.0000      -0.807753       -21.9801
  28   2.0000      -0.777909       -21.1680
  29   2.0000      -0.736026       -20.0283
  30   2.0000      -0.696765       -18.9600
  31   2.0000      -0.686304       -18.6753
  32   2.0000      -0.681848       -18.5540
  33   2.0000      -0.671058       -18.2604
  34   2.0000      -0.649591       -17.6763
  35   2.0000      -0.643346       -17.5063
  36   2.0000      -0.609313       -16.5802
  37   2.0000      -0.595117       -16.1940
  38   2.0000      -0.590503       -16.0684
  39   2.0000      -0.570184       -15.5155
  40   2.0000      -0.567912       -15.4537
  41   2.0000      -0.555857       -15.1256
  42   2.0000      -0.545609       -14.8468
  43   2.0000      -0.530031       -14.4229
  44   2.0000      -0.519122       -14.1260
  45   2.0000      -0.496324       -13.5057
  46   2.0000      -0.494548       -13.4573
  47   2.0000      -0.488771       -13.3001
  48   2.0000      -0.481575       -13.1043
  49   2.0000      -0.462240       -12.5782
  50   2.0000      -0.451195       -12.2776
  51   2.0000      -0.437839       -11.9142
  52   2.0000      -0.435056       -11.8385
  53   2.0000      -0.425670       -11.5831
  54   2.0000      -0.421250       -11.4628
  55   2.0000      -0.414553       -11.2806
  56   2.0000      -0.404335       -11.0025
  57   2.0000      -0.399227       -10.8635
  58   2.0000      -0.360371        -9.8062
  59   2.0000      -0.245396        -6.6776
  60   0.0000       0.094207         2.5635
  61   0.0000       0.106615         2.9011
  62   0.0000       0.116224         3.1626
  63   0.0000       0.124378         3.3845
  64   0.0000       0.135626         3.6906

MULLIKEN ATOMIC CHARGES
-----------------------
   0 C :   -0.282894
   1 C :   -0.311306
   2 C :   -0.152283
   3 C :   -0.334218
   4 H :    0.167941
   5 H :    0.181269
   6 S :    0.887484
   7 C :    0.305425
   8 N :   -0.502589
   9 N :   -0.511291
  10 H :    0.250503
  11 H :    0.227453
  12 H :    0.104836
  13 H :    0.243325
  14 H :    0.229896
  15 O :   -0.430709
  16 O :   -0.416853
  17 C :   -0.139679
  18 H :    0.089105
  19 H :    0.119078
  20 C :   -0.333764
  21 H :    0.144487
  22 H :    0.118357
  23 C :   -0.162825
  24 H :    0.097984
  25 H :    0.091552
  26 F :   -0.146250
  27 H :    0.100806
  28 H :    0.105200
  29 H :    0.145390
  30 H :    0.114571
Sum of atomic charges:    0.0000000

LOEWDIN ATOMIC CHARGES
----------------------
   0 C :   -0.289147
   1 C :   -0.296646
   2 C :   -0.283557
   3 C :   -0.365619
   4 H :    0.139619
   5 H :    0.153031
   6 S :    0.559013
   7 C :   -0.456636
   8 N :   -0.019318
   9 N :   -0.022576
  10 H :    0.175335
  11 H :    0.161331
  12 H :    0.112507
  13 H :    0.165250
  14 H :    0.162776
  15 O :   -0.265860
  16 O :   -0.256088
  17 C :   -0.259326
  18 H :    0.128512
  19 H :    0.141466
  20 C :   -0.268912
  21 H :    0.146825
  22 H :    0.144846
  23 C :   -0.269564
  24 H :    0.134646
  25 H :    0.130481
  26 F :    0.049386
  27 H :    0.133097
  28 H :    0.134516
  29 H :    0.138908
  30 H :    0.141705

  Mayer bond orders larger than 0.100000
B(  0-C ,  1-C ) :   0.9743 B(  0-C , 17-C ) :   0.9380 B(  0-C , 18-H ) :   0.9964
B(  0-C , 19-H ) :   0.9971 B(  1-C ,  7-C ) :   1.6748 B(  1-C , 12-H ) :   1.0302
B(  2-C ,  3-C ) :   0.9500 B(  2-C , 20-C ) :   0.9698 B(  2-C , 21-H ) :   0.9721
B(  2-C , 22-H ) :   0.9590 B(  3-C ,  4-H ) :   0.9494 B(  3-C ,  5-H ) :   0.9449
B(  3-C ,  6-S ) :   0.9142 B(  6-S , 15-O ) :   1.9465 B(  6-S , 16-O ) :   1.9182
B(  6-S , 26-F ) :   1.0323 B(  7-C ,  8-N ) :   1.1929 B(  7-C ,  9-N ) :   1.1731
B(  8-N , 13-H ) :   0.9043 B(  8-N , 14-H ) :   0.9246 B(  9-N , 10-H ) :   0.9134
B(  9-N , 11-H ) :   0.9244 B( 17-C , 23-C ) :   0.9858 B( 17-C , 24-H ) :   0.9744
B( 17-C , 25-H ) :   0.9846 B( 20-C , 23-C ) :   0.9162 B( 20-C , 29-H ) :   0.9917
B( 20-C , 30-H ) :   0.9726 B( 23-C , 27-H ) :   0.9761 B( 23-C , 28-H ) :   0.9740

Dispersion correction           -0.016306792
FINAL SINGLE POINT ENERGY     -1073.117653798680

DIPOLE MOMENT
-------------
                                X             Y             Z
Electronic contribution:      0.87217      -3.14320     -19.42042
Nuclear contribution   :      0.26049       3.89757      20.56096
                        -----------------------------------------
Total Dipole Moment    :      1.13266       0.75437       1.14054
                        -----------------------------------------
Magnitude (a.u.)       :      1.77562
Magnitude (Debye)      :      4.51327

Rotational constants in cm-1:     0.029090     0.014735     0.011139
Rotational constants in MHz :   872.086433   441.731892   333.928051

                             ****ORCA TERMINATED NORMALLY****
TOTAL RUN TIME: 0 days 0 hours 1 minutes 33 seconds 178 msec
