                         Program Version 5.0.0 -  RELEASE  -
|  1> !wB97X-D3 RIJCOSX def2-TZVP def2/J TightSCF xyzfile
|  2>
|  3> *xyzfile 0 1 D9.xyz
|  4>
|  5> %MaxCore 64000
|  6>
|  7> %pal nprocs 18
|  8> end
|  9>
| 10> %scf
| 11>   MaxIter 150
| 12> end
| 13>
| 14>
| 15>                          ****END OF INPUT****

CARTESIAN COORDINATES (ANGSTROEM)
---------------------------------
  C      1.963365   -1.749150   -1.896887
  N      2.738490   -2.015170   -3.097113
  C      0.611877    1.657634   -4.500288
  C      1.694991    1.541794   -5.570447
  H      2.697326    1.734659   -5.183996
  H      1.506656    2.272239   -6.358076
  S      1.780287   -0.033128   -6.428739
  C      4.049736   -2.154717   -3.152044
  N      4.658206   -1.986293   -4.318655
  C      4.764231   -2.454435   -2.050491
  H      4.287363   -2.776259   -1.217496
  H      5.750825   -2.658351   -2.125988
  H      2.345176   -1.690274   -3.971447
  H      4.109004   -1.592677   -5.071760
  H      5.649095   -2.156462   -4.427237
  O      2.569287    0.213657   -7.607360
  O      0.416880   -0.462969   -6.618595
  C      2.088520   -0.300912   -1.415204
  H      2.231272   -2.451616   -1.102643
  H      0.930249   -1.977801   -2.155438
  C      0.680356    0.655418   -3.348038
  H     -0.356865    1.549231   -4.991128
  H      0.650228    2.675438   -4.096000
  C      1.968993    0.733582   -2.535654
  H      3.051356   -0.168602   -0.911868
  H      1.316501   -0.136231   -0.657252
  F      2.505129   -0.933263   -5.482570
  H      2.824195    0.624726   -3.208464
  H      2.058919    1.730331   -2.093112
  H      0.542252   -0.344731   -3.766662
  H     -0.174219    0.829692   -2.685182

 Total Charge           Charge          ....    0
 Multiplicity           Mult            ....    1
 Number of Electrons    NEL             ....  120
 Basis Dimension        Dim             ....  542

ORBITAL ENERGIES
----------------

  NO   OCC          E(Eh)            E(eV)
   0   2.0000     -89.211165     -2427.5592
   1   2.0000     -24.916198      -678.0042
   2   2.0000     -19.262750      -524.1661
   3   2.0000     -19.262221      -524.1517
   4   2.0000     -14.418554      -392.3488
   5   2.0000     -14.417062      -392.3082
   6   2.0000     -10.347085      -281.5585
   7   2.0000     -10.320753      -280.8420
   8   2.0000     -10.310683      -280.5679
   9   2.0000     -10.309036      -280.5231
  10   2.0000     -10.294791      -280.1355
  11   2.0000     -10.285667      -279.8872
  12   2.0000     -10.275260      -279.6040
  13   2.0000     -10.180955      -277.0379
  14   2.0000      -8.275168      -225.1788
  15   2.0000      -6.233106      -169.6114
  16   2.0000      -6.225962      -169.4170
  17   2.0000      -6.225278      -169.3984
  18   2.0000      -1.497928       -40.7607
  19   2.0000      -1.251992       -34.0684
  20   2.0000      -1.158971       -31.5372
  21   2.0000      -1.091860       -29.7110
  22   2.0000      -1.003786       -27.3144
  23   2.0000      -0.968398       -26.3514
  24   2.0000      -0.918529       -24.9945
  25   2.0000      -0.878027       -23.8923
  26   2.0000      -0.848621       -23.0922
  27   2.0000      -0.811998       -22.0956
  28   2.0000      -0.807138       -21.9633
  29   2.0000      -0.751338       -20.4449
  30   2.0000      -0.716364       -19.4933
  31   2.0000      -0.709949       -19.3187
  32   2.0000      -0.693218       -18.8634
  33   2.0000      -0.674072       -18.3424
  34   2.0000      -0.655003       -17.8235
  35   2.0000      -0.643599       -17.5132
  36   2.0000      -0.622753       -16.9460
  37   2.0000      -0.611025       -16.6268
  38   2.0000      -0.604620       -16.4526
  39   2.0000      -0.585941       -15.9443
  40   2.0000      -0.574888       -15.6435
  41   2.0000      -0.563691       -15.3388
  42   2.0000      -0.547539       -14.8993
  43   2.0000      -0.538477       -14.6527
  44   2.0000      -0.527298       -14.3485
  45   2.0000      -0.511500       -13.9186
  46   2.0000      -0.500264       -13.6129
  47   2.0000      -0.498005       -13.5514
  48   2.0000      -0.478755       -13.0276
  49   2.0000      -0.470364       -12.7993
  50   2.0000      -0.468027       -12.7357
  51   2.0000      -0.461727       -12.5642
  52   2.0000      -0.454838       -12.3768
  53   2.0000      -0.443330       -12.0636
  54   2.0000      -0.437626       -11.9084
  55   2.0000      -0.434704       -11.8289
  56   2.0000      -0.430798       -11.7226
  57   2.0000      -0.420527       -11.4431
  58   2.0000      -0.342583        -9.3222
  59   2.0000      -0.249608        -6.7922
  60   0.0000       0.082425         2.2429
  61   0.0000       0.103092         2.8053
  62   0.0000       0.113099         3.0776
  63   0.0000       0.118352         3.2205
  64   0.0000       0.127131         3.4594

MULLIKEN ATOMIC CHARGES
-----------------------
   0 C :   -0.214465
   1 N :   -0.301975
   2 C :   -0.153002
   3 C :   -0.340750
   4 H :    0.176048
   5 H :    0.187545
   6 S :    0.891197
   7 C :    0.354527
   8 N :   -0.510835
   9 C :   -0.544549
  10 H :    0.094042
  11 H :    0.088168
  12 H :    0.208383
  13 H :    0.229974
  14 H :    0.257235
  15 O :   -0.418556
  16 O :   -0.411855
  17 C :   -0.120566
  18 H :    0.139078
  19 H :    0.144598
  20 C :   -0.321943
  21 H :    0.149030
  22 H :    0.125733
  23 C :   -0.254280
  24 H :    0.135051
  25 H :    0.103442
  26 F :   -0.170742
  27 H :    0.108453
  28 H :    0.116144
  29 H :    0.131682
  30 H :    0.123186
Sum of atomic charges:    0.0000000

LOEWDIN ATOMIC CHARGES
----------------------
   0 C :   -0.276879
   1 N :    0.114847
   2 C :   -0.281903
   3 C :   -0.364076
   4 H :    0.141501
   5 H :    0.155425
   6 S :    0.558647
   7 C :   -0.470589
   8 N :   -0.016734
   9 C :   -0.353097
  10 H :    0.095201
  11 H :    0.092081
  12 H :    0.161916
  13 H :    0.151261
  14 H :    0.178711
  15 O :   -0.255901
  16 O :   -0.252331
  17 C :   -0.265558
  18 H :    0.138758
  19 H :    0.132315
  20 C :   -0.273073
  21 H :    0.148162
  22 H :    0.147317
  23 C :   -0.272203
  24 H :    0.144876
  25 H :    0.136895
  26 F :    0.036834
  27 H :    0.132385
  28 H :    0.139208
  29 H :    0.131976
  30 H :    0.144028

  Mayer bond orders larger than 0.100000
B(  0-C ,  1-N ) :   0.9380 B(  0-C , 17-C ) :   0.9314 B(  0-C , 18-H ) :   0.9783
B(  0-C , 19-H ) :   0.9887 B(  1-N ,  7-C ) :   1.1891 B(  1-N , 12-H ) :   0.9196
B(  2-C ,  3-C ) :   0.9462 B(  2-C , 20-C ) :   0.9700 B(  2-C , 21-H ) :   0.9716
B(  2-C , 22-H ) :   0.9579 B(  3-C ,  4-H ) :   0.9477 B(  3-C ,  5-H ) :   0.9431
B(  3-C ,  6-S ) :   0.9154 B(  6-S , 15-O ) :   1.9567 B(  6-S , 16-O ) :   1.9217
B(  6-S , 26-F ) :   0.9993 B(  7-C ,  8-N ) :   1.1411 B(  7-C ,  9-C ) :   1.6367
B(  8-N , 13-H ) :   0.9125 B(  8-N , 14-H ) :   0.9177 B(  9-C , 10-H ) :   1.0040
B(  9-C , 11-H ) :   1.0024 B( 17-C , 23-C ) :   0.9774 B( 17-C , 24-H ) :   0.9646
B( 17-C , 25-H ) :   0.9814 B( 20-C , 23-C ) :   0.9210 B( 20-C , 29-H ) :   0.9933
B( 20-C , 30-H ) :   0.9721 B( 23-C , 27-H ) :   0.9776 B( 23-C , 28-H ) :   0.9707

Dispersion correction           -0.016329189
FINAL SINGLE POINT ENERGY     -1073.117677084280

DIPOLE MOMENT
-------------
                                X             Y             Z
Electronic contribution:     -1.04906      -2.37203     -20.39335
Nuclear contribution   :      0.52036       3.84122      20.69523
                        -----------------------------------------
Total Dipole Moment    :     -0.52870       1.46919       0.30188
                        -----------------------------------------
Magnitude (a.u.)       :      1.59034
Magnitude (Debye)      :      4.04232

Rotational constants in cm-1:     0.029184     0.014996     0.011314
Rotational constants in MHz :   874.907122   449.569665   339.178205

                             ****ORCA TERMINATED NORMALLY****
TOTAL RUN TIME: 0 days 0 hours 1 minutes 22 seconds 841 msec
