                         Program Version 5.0.0 -  RELEASE  -
|  1> !wB97X-D3 RIJCOSX def2-TZVP def2/J TightSCF
|  2> *xyz -1 1
|  3> C         -0.90349       -0.87394       -1.98739
|  4> C         -0.96015       -0.52236       -0.48987
|  5> H         -1.69039       -1.20813       -0.02168
|  6> H         -1.41449        0.48633       -0.40668
|  7> O          0.26170       -0.58031        0.13861
|  8> H         -1.88568       -0.80774       -2.40670
|  9> H         -0.53143       -1.87013       -2.10605
| 10> H         -0.25399       -0.18836       -2.49039
| 11> *
| 12>
| 13> %MaxCore 64000
| 14>
| 15> %pal nprocs 4
| 16> end
| 17>
| 18> %scf
| 19>   MaxIter 150
| 20> end
| 21>
| 22>
| 23>                          ****END OF INPUT****

CARTESIAN COORDINATES (ANGSTROEM)
---------------------------------
  C     -0.903490   -0.873940   -1.987390
  C     -0.960150   -0.522360   -0.489870
  H     -1.690390   -1.208130   -0.021680
  H     -1.414490    0.486330   -0.406680
  O      0.261700   -0.580310    0.138610
  H     -1.885680   -0.807740   -2.406700
  H     -0.531430   -1.870130   -2.106050
  H     -0.253990   -0.188360   -2.490390

 Total Charge           Charge          ....   -1
 Multiplicity           Mult            ....    1
 Number of Electrons    NEL             ....   26
 Basis Dimension        Dim             ....  123

ORBITAL ENERGIES
----------------

  NO   OCC          E(Eh)            E(eV)
   0   2.0000     -18.868701      -513.4434
   1   2.0000     -10.077323      -274.2179
   2   2.0000     -10.058160      -273.6965
   3   2.0000      -0.774335       -21.0707
   4   2.0000      -0.633382       -17.2352
   5   2.0000      -0.472820       -12.8661
   6   2.0000      -0.344481        -9.3738
   7   2.0000      -0.320966        -8.7339
   8   2.0000      -0.260429        -7.0866
   9   2.0000      -0.244460        -6.6521
  10   2.0000      -0.190318        -5.1788
  11   2.0000      -0.044011        -1.1976
  12   2.0000      -0.041495        -1.1291
  13   0.0000       0.294106         8.0030
  14   0.0000       0.331727         9.0268
  15   0.0000       0.358404         9.7527
  16   0.0000       0.359400         9.7798
  17   0.0000       0.392818        10.6891

MULLIKEN ATOMIC CHARGES
-----------------------
   0 C :   -0.173249
   1 C :    0.083062
   2 H :   -0.073718
   3 H :   -0.075645
   4 O :   -0.808574
   5 H :   -0.018429
   6 H :    0.033249
   7 H :    0.033303
Sum of atomic charges:   -1.0000000

LOEWDIN ATOMIC CHARGES
----------------------
   0 C :   -0.360896
   1 C :   -0.545446
   2 H :    0.053847
   3 H :    0.053465
   4 O :   -0.452672
   5 H :    0.075661
   6 H :    0.088023
   7 H :    0.088018

  Mayer bond orders larger than 0.100000
B(  0-C ,  1-C ) :   0.9027 B(  0-C ,  4-O ) :  -0.1845 B(  0-C ,  5-H ) :   0.9447
B(  0-C ,  6-H ) :   0.9751 B(  0-C ,  7-H ) :   0.9751 B(  1-C ,  2-H ) :   0.9314
B(  1-C ,  3-H ) :   0.9303 B(  1-C ,  4-O ) :   1.5850

Dispersion correction           -0.000860276
FINAL SINGLE POINT ENERGY      -154.431024197726

DIPOLE MOMENT
-------------
                                X             Y             Z
Electronic contribution:      1.97830       0.16144       2.15427
Nuclear contribution   :     -2.90669      -0.27617      -3.31210
                        -----------------------------------------
Total Dipole Moment    :     -0.92839      -0.11473      -1.15784
                        -----------------------------------------
Magnitude (a.u.)       :      1.48851
Magnitude (Debye)      :      3.78349

Rotational constants in cm-1:     1.291883     0.321656     0.284469
Rotational constants in MHz : 38729.676116  9643.011620  8528.167295

                             ****ORCA TERMINATED NORMALLY****
TOTAL RUN TIME: 0 days 0 hours 0 minutes 15 seconds 79 msec
