                         Program Version 5.0.0 -  RELEASE  -
|  1> !wB97X-D3 RIJCOSX def2-TZVP def2/J TightSCF
|  2> *xyz 1 1
|  3> C          4.36645       -0.13321       -1.41606
|  4> C          4.50829       -0.93187       -2.72425
|  5> C          3.05650       -0.32080       -0.70738
|  6> N          2.38983        0.71129       -0.24391
|  7> N          2.51600       -1.50772       -0.55023
|  8> H          2.96768       -2.32291       -0.95631
|  9> H          1.54987       -1.49063       -0.24988
| 10> H          2.74307        1.64947       -0.41280
| 11> H          1.44036        0.50278        0.03703
| 12> H          4.48784        0.93300       -1.61157
| 13> H          5.16967       -0.41443       -0.72982
| 14> H          5.46700       -0.73824       -3.15818
| 15> H          3.74074       -0.63528       -3.40821
| 16> H          4.41574       -1.97727       -2.51573
| 17> *
| 18>
| 19> %MaxCore 64000
| 20>
| 21> %pal nprocs 4
| 22> end
| 23>
| 24> %scf
| 25>   MaxIter 150
| 26> end
| 27>
| 28>
| 29>                          ****END OF INPUT****

CARTESIAN COORDINATES (ANGSTROEM)
---------------------------------
  C      4.366450   -0.133210   -1.416060
  C      4.508290   -0.931870   -2.724250
  C      3.056500   -0.320800   -0.707380
  N      2.389830    0.711290   -0.243910
  N      2.516000   -1.507720   -0.550230
  H      2.967680   -2.322910   -0.956310
  H      1.549870   -1.490630   -0.249880
  H      2.743070    1.649470   -0.412800
  H      1.440360    0.502780    0.037030
  H      4.487840    0.933000   -1.611570
  H      5.169670   -0.414430   -0.729820
  H      5.467000   -0.738240   -3.158180
  H      3.740740   -0.635280   -3.408210
  H      4.415740   -1.977270   -2.515730

 Total Charge           Charge          ....    1
 Multiplicity           Mult            ....    1
 Number of Electrons    NEL             ....   40
 Basis Dimension        Dim             ....  209

ORBITAL ENERGIES
----------------

  NO   OCC          E(Eh)            E(eV)
   0   2.0000     -14.667722      -399.1290
   1   2.0000     -14.666430      -399.0938
   2   2.0000     -10.599888      -288.4376
   3   2.0000     -10.477350      -285.1032
   4   2.0000     -10.432638      -283.8865
   5   2.0000      -1.331081       -36.2205
   6   2.0000      -1.222782       -33.2736
   7   2.0000      -1.087808       -29.6008
   8   2.0000      -0.972385       -26.4599
   9   2.0000      -0.926122       -25.2010
  10   2.0000      -0.873559       -23.7708
  11   2.0000      -0.859722       -23.3942
  12   2.0000      -0.802384       -21.8340
  13   2.0000      -0.763948       -20.7881
  14   2.0000      -0.727596       -19.7989
  15   2.0000      -0.701538       -19.0898
  16   2.0000      -0.650377       -17.6977
  17   2.0000      -0.636944       -17.3321
  18   2.0000      -0.622369       -16.9355
  19   2.0000      -0.586904       -15.9705
  20   0.0000      -0.128320        -3.4918
  21   0.0000      -0.078381        -2.1329
  22   0.0000      -0.032902        -0.8953
  23   0.0000      -0.030005        -0.8165
  24   0.0000       0.005258         0.1431

MULLIKEN ATOMIC CHARGES
-----------------------
   0 C :   -0.210199
   1 C :   -0.357608
   2 C :    0.335560
   3 N :   -0.366590
   4 N :   -0.364431
   5 H :    0.310583
   6 H :    0.282649
   7 H :    0.316203
   8 H :    0.280387
   9 H :    0.139831
  10 H :    0.188891
  11 H :    0.178343
  12 H :    0.154491
  13 H :    0.111890
Sum of atomic charges:    1.0000000

LOEWDIN ATOMIC CHARGES
----------------------
   0 C :   -0.217022
   1 C :   -0.261284
   2 C :   -0.287730
   3 N :    0.108292
   4 N :    0.108788
   5 H :    0.210159
   6 H :    0.202103
   7 H :    0.212708
   8 H :    0.201407
   9 H :    0.159108
  10 H :    0.174404
  11 H :    0.139884
  12 H :    0.130352
  13 H :    0.118833

  Mayer bond orders larger than 0.100000
B(  0-C ,  1-C ) :   0.9765 B(  0-C ,  2-C ) :   0.9786 B(  0-C ,  9-H ) :   0.9644
B(  0-C , 10-H ) :   0.9267 B(  1-C , 11-H ) :   0.9632 B(  1-C , 12-H ) :   0.9651
B(  1-C , 13-H ) :   0.9690 B(  2-C ,  3-N ) :   1.4648 B(  2-C ,  4-N ) :   1.4364
B(  3-N ,  7-H ) :   0.8768 B(  3-N ,  8-H ) :   0.8907 B(  4-N ,  5-H ) :   0.8841
B(  4-N ,  6-H ) :   0.8894

Dispersion correction           -0.002897595
FINAL SINGLE POINT ENERGY      -229.050965909003

DIPOLE MOMENT
-------------
                                X             Y             Z
Electronic contribution:     -2.67633       0.63416       3.11736
Nuclear contribution   :      1.78847      -0.48174      -2.67127
                        -----------------------------------------
Total Dipole Moment    :     -0.88786       0.15242       0.44609
                        -----------------------------------------
Magnitude (a.u.)       :      1.00525
Magnitude (Debye)      :      2.55513

Rotational constants in cm-1:     0.286883     0.123210     0.094446
Rotational constants in MHz :  8600.540572  3693.747366  2831.415242

                             ****ORCA TERMINATED NORMALLY****
TOTAL RUN TIME: 0 days 0 hours 0 minutes 38 seconds 300 msec
