                         Program Version 5.0.0 -  RELEASE  -
|  1> !wB97X-D3 RIJCOSX def2-TZVP def2/J TightSCF
|  2> *xyz 0 1
|  3> C         -0.90349       -0.87394       -1.98739
|  4> C         -0.96015       -0.52236       -0.48987
|  5> H         -1.69039       -1.20813       -0.02168
|  6> H         -1.41449        0.48633       -0.40668
|  7> F          0.26170       -0.58031        0.13861
|  8> H         -1.88568       -0.80774       -2.40670
|  9> H         -0.53143       -1.87013       -2.10605
| 10> H         -0.25399       -0.18836       -2.49039
| 11> *
| 12>
| 13> %MaxCore 64000
| 14>
| 15> %pal nprocs 4
| 16> end
| 17>
| 18> %scf
| 19>   MaxIter 150
| 20> end
| 21>
| 22>
| 23>                          ****END OF INPUT****

CARTESIAN COORDINATES (ANGSTROEM)
---------------------------------
  C     -0.903490   -0.873940   -1.987390
  C     -0.960150   -0.522360   -0.489870
  H     -1.690390   -1.208130   -0.021680
  H     -1.414490    0.486330   -0.406680
  F      0.261700   -0.580310    0.138610
  H     -1.885680   -0.807740   -2.406700
  H     -0.531430   -1.870130   -2.106050
  H     -0.253990   -0.188360   -2.490390

 Total Charge           Charge          ....    0
 Multiplicity           Mult            ....    1
 Number of Electrons    NEL             ....   26
 Basis Dimension        Dim             ....  123

ORBITAL ENERGIES
----------------

  NO   OCC          E(Eh)            E(eV)
   0   2.0000     -24.767579      -673.9601
   1   2.0000     -10.353116      -281.7226
   2   2.0000     -10.268899      -279.4309
   3   2.0000      -1.309379       -35.6300
   4   2.0000      -0.880734       -23.9660
   5   2.0000      -0.742378       -20.2011
   6   2.0000      -0.606890       -16.5143
   7   2.0000      -0.597637       -16.2625
   8   2.0000      -0.557062       -15.1584
   9   2.0000      -0.503888       -13.7115
  10   2.0000      -0.498346       -13.5607
  11   2.0000      -0.430854       -11.7241
  12   2.0000      -0.425820       -11.5871
  13   0.0000       0.124042         3.3754
  14   0.0000       0.163290         4.4433
  15   0.0000       0.183173         4.9844
  16   0.0000       0.185533         5.0486
  17   0.0000       0.195630         5.3234

MULLIKEN ATOMIC CHARGES
-----------------------
   0 C :   -0.327692
   1 C :    0.046103
   2 H :    0.087664
   3 H :    0.087264
   4 F :   -0.239569
   5 H :    0.111234
   6 H :    0.117473
   7 H :    0.117524
Sum of atomic charges:   -0.0000000

LOEWDIN ATOMIC CHARGES
----------------------
   0 C :   -0.307900
   1 C :   -0.360594
   2 H :    0.115468
   3 H :    0.116051
   4 F :    0.084285
   5 H :    0.120685
   6 H :    0.116004
   7 H :    0.116001

  Mayer bond orders larger than 0.100000
B(  0-C ,  1-C ) :   0.9946 B(  0-C ,  5-H ) :   0.9617 B(  0-C ,  6-H ) :   0.9728
B(  0-C ,  7-H ) :   0.9729 B(  1-C ,  2-H ) :   0.9728 B(  1-C ,  3-H ) :   0.9727
B(  1-C ,  4-F ) :   0.9916

Dispersion correction           -0.000868780
FINAL SINGLE POINT ENERGY      -179.086167954014

DIPOLE MOMENT
-------------
                                X             Y             Z
Electronic contribution:      3.23124       0.37612       3.98878
Nuclear contribution   :     -3.84149      -0.36812      -4.38946
                        -----------------------------------------
Total Dipole Moment    :     -0.61025       0.00801      -0.40069
                        -----------------------------------------
Magnitude (a.u.)       :      0.73008
Magnitude (Debye)      :      1.85573

Rotational constants in cm-1:     1.270659     0.299196     0.265842
Rotational constants in MHz : 38093.410361  8969.665806  7969.741481

                             ****ORCA TERMINATED NORMALLY****
TOTAL RUN TIME: 0 days 0 hours 0 minutes 12 seconds 699 msec
