                         Program Version 5.0.0 -  RELEASE  -
|  1> !wB97X-D3 RIJCOSX def2-TZVP def2/J TightSCF
|  2> *xyz 0 1
|  3> C          4.36645       -0.13321       -1.41606
|  4> C          4.50829       -0.93187       -2.72425
|  5> C          3.05650       -0.32080       -0.70738
|  6> C          2.38983        0.71129       -0.24391
|  7> N          2.51600       -1.50772       -0.55023
|  8> H          2.96768       -2.32291       -0.95631
|  9> H          1.54987       -1.49063       -0.24988
| 10> H          2.74307        1.64947       -0.41280
| 11> H          1.44036        0.50278        0.03703
| 12> H          4.48784        0.93300       -1.61157
| 13> H          5.16967       -0.41443       -0.72982
| 14> H          5.46700       -0.73824       -3.15818
| 15> H          3.74074       -0.63528       -3.40821
| 16> H          4.41574       -1.97727       -2.51573
| 17> *
| 18>
| 19> %MaxCore 64000
| 20>
| 21> %pal nprocs 4
| 22> end
| 23>
| 24> %scf
| 25>   MaxIter 150
| 26> end
| 27>
| 28>
| 29>                          ****END OF INPUT****

CARTESIAN COORDINATES (ANGSTROEM)
---------------------------------
  C      4.366450   -0.133210   -1.416060
  C      4.508290   -0.931870   -2.724250
  C      3.056500   -0.320800   -0.707380
  C      2.389830    0.711290   -0.243910
  N      2.516000   -1.507720   -0.550230
  H      2.967680   -2.322910   -0.956310
  H      1.549870   -1.490630   -0.249880
  H      2.743070    1.649470   -0.412800
  H      1.440360    0.502780    0.037030
  H      4.487840    0.933000   -1.611570
  H      5.169670   -0.414430   -0.729820
  H      5.467000   -0.738240   -3.158180
  H      3.740740   -0.635280   -3.408210
  H      4.415740   -1.977270   -2.515730

 Total Charge           Charge          ....    0
 Multiplicity           Mult            ....    1
 Number of Electrons    NEL             ....   40
 Basis Dimension        Dim             ....  209

ORBITAL ENERGIES
----------------

  NO   OCC          E(Eh)            E(eV)
   0   2.0000     -14.417639      -392.3239
   1   2.0000     -10.292477      -280.0725
   2   2.0000     -10.276326      -279.6331
   3   2.0000     -10.265464      -279.3375
   4   2.0000     -10.200942      -277.5817
   5   2.0000      -1.049537       -28.5593
   6   2.0000      -0.894604       -24.3434
   7   2.0000      -0.836574       -22.7643
   8   2.0000      -0.747663       -20.3449
   9   2.0000      -0.667115       -18.1531
  10   2.0000      -0.636472       -17.3193
  11   2.0000      -0.571874       -15.5615
  12   2.0000      -0.540054       -14.6956
  13   2.0000      -0.529788       -14.4163
  14   2.0000      -0.489539       -13.3210
  15   2.0000      -0.478158       -13.0113
  16   2.0000      -0.452447       -12.3117
  17   2.0000      -0.437521       -11.9056
  18   2.0000      -0.420311       -11.4372
  19   2.0000      -0.275798        -7.5048
  20   0.0000       0.106229         2.8906
  21   0.0000       0.123334         3.3561
  22   0.0000       0.151813         4.1311
  23   0.0000       0.155364         4.2277
  24   0.0000       0.174490         4.7481

MULLIKEN ATOMIC CHARGES
-----------------------
   0 C :   -0.171862
   1 C :   -0.336028
   2 C :    0.205048
   3 C :   -0.409566
   4 N :   -0.478418
   5 H :    0.233453
   6 H :    0.238633
   7 H :    0.098661
   8 H :    0.071124
   9 H :    0.106732
  10 H :    0.110457
  11 H :    0.122991
  12 H :    0.124072
  13 H :    0.084703
Sum of atomic charges:   -0.0000000

LOEWDIN ATOMIC CHARGES
----------------------
   0 C :   -0.234339
   1 C :   -0.294515
   2 C :   -0.371495
   3 C :   -0.279556
   4 N :   -0.005127
   5 H :    0.169396
   6 H :    0.179798
   7 H :    0.104491
   8 H :    0.099170
   9 H :    0.146633
  10 H :    0.141764
  11 H :    0.117083
  12 H :    0.119244
  13 H :    0.107453

  Mayer bond orders larger than 0.100000
B(  0-C ,  1-C ) :   0.9651 B(  0-C ,  2-C ) :   0.9733 B(  0-C ,  9-H ) :   0.9783
B(  0-C , 10-H ) :   0.9701 B(  1-C , 11-H ) :   0.9808 B(  1-C , 12-H ) :   0.9747
B(  1-C , 13-H ) :   0.9799 B(  2-C ,  3-C ) :   1.7643 B(  2-C ,  4-N ) :   1.1467
B(  3-C ,  7-H ) :   1.0050 B(  3-C ,  8-H ) :   0.9931 B(  4-N ,  5-H ) :   0.9274
B(  4-N ,  6-H ) :   0.9169

Dispersion correction           -0.002911663
FINAL SINGLE POINT ENERGY      -212.577597784863

DIPOLE MOMENT
-------------
                                X             Y             Z
Electronic contribution:     -1.48421      -0.46021       2.05823
Nuclear contribution   :      1.56827      -0.21459      -2.46657
                        -----------------------------------------
Total Dipole Moment    :      0.08405      -0.67480      -0.40835
                        -----------------------------------------
Magnitude (a.u.)       :      0.79320
Magnitude (Debye)      :      2.01616

Rotational constants in cm-1:     0.294070     0.127722     0.097792
Rotational constants in MHz :  8815.983970  3829.010547  2931.715816

                             ****ORCA TERMINATED NORMALLY****
TOTAL RUN TIME: 0 days 0 hours 0 minutes 37 seconds 810 msec
