                         Program Version 5.0.0 -  RELEASE  -
|  1> !wB97X-D3 RIJCOSX def2-TZVP def2/J TightSCF
|  2> *xyz 0 1
|  3> C          4.36645       -0.13321       -1.41606
|  4> C          4.50829       -0.93187       -2.72425
|  5> C          3.05650       -0.32080       -0.70738
|  6> N          2.38983        0.71129       -0.24391
|  7> C          2.51600       -1.50772       -0.55023
|  8> H          2.96768       -2.32291       -0.95631
|  9> H          1.54987       -1.49063       -0.24988
| 10> H          2.74307        1.64947       -0.41280
| 11> H          1.44036        0.50278        0.03703
| 12> H          4.48784        0.93300       -1.61157
| 13> H          5.16967       -0.41443       -0.72982
| 14> H          5.46700       -0.73824       -3.15818
| 15> H          3.74074       -0.63528       -3.40821
| 16> H          4.41574       -1.97727       -2.51573
| 17> *
| 18>
| 19> %MaxCore 64000
| 20>
| 21> %pal nprocs 4
| 22> end
| 23>
| 24> %scf
| 25>   MaxIter 150
| 26> end
| 27>
| 28>
| 29>                          ****END OF INPUT****

CARTESIAN COORDINATES (ANGSTROEM)
---------------------------------
  C      4.366450   -0.133210   -1.416060
  C      4.508290   -0.931870   -2.724250
  C      3.056500   -0.320800   -0.707380
  N      2.389830    0.711290   -0.243910
  C      2.516000   -1.507720   -0.550230
  H      2.967680   -2.322910   -0.956310
  H      1.549870   -1.490630   -0.249880
  H      2.743070    1.649470   -0.412800
  H      1.440360    0.502780    0.037030
  H      4.487840    0.933000   -1.611570
  H      5.169670   -0.414430   -0.729820
  H      5.467000   -0.738240   -3.158180
  H      3.740740   -0.635280   -3.408210
  H      4.415740   -1.977270   -2.515730

 Total Charge           Charge          ....    0
 Multiplicity           Mult            ....    1
 Number of Electrons    NEL             ....   40
 Basis Dimension        Dim             ....  209

ORBITAL ENERGIES
----------------

  NO   OCC          E(Eh)            E(eV)
   0   2.0000     -14.418105      -392.3366
   1   2.0000     -10.292626      -280.0766
   2   2.0000     -10.277598      -279.6677
   3   2.0000     -10.258970      -279.1608
   4   2.0000     -10.199070      -277.5308
   5   2.0000      -1.049738       -28.5648
   6   2.0000      -0.896065       -24.3832
   7   2.0000      -0.825114       -22.4525
   8   2.0000      -0.757234       -20.6054
   9   2.0000      -0.657606       -17.8944
  10   2.0000      -0.633452       -17.2371
  11   2.0000      -0.579692       -15.7742
  12   2.0000      -0.551590       -15.0095
  13   2.0000      -0.505270       -13.7491
  14   2.0000      -0.487219       -13.2579
  15   2.0000      -0.477269       -12.9872
  16   2.0000      -0.452802       -12.3214
  17   2.0000      -0.435529       -11.8513
  18   2.0000      -0.421767       -11.4769
  19   2.0000      -0.274154        -7.4601
  20   0.0000       0.110945         3.0190
  21   0.0000       0.120145         3.2693
  22   0.0000       0.149396         4.0653
  23   0.0000       0.155193         4.2230
  24   0.0000       0.177724         4.8361

MULLIKEN ATOMIC CHARGES
-----------------------
   0 C :   -0.163791
   1 C :   -0.334769
   2 C :    0.205949
   3 N :   -0.476262
   4 C :   -0.408344
   5 H :    0.092304
   6 H :    0.071948
   7 H :    0.236235
   8 H :    0.236416
   9 H :    0.076543
  10 H :    0.120174
  11 H :    0.114153
  12 H :    0.117829
  13 H :    0.111612
Sum of atomic charges:    0.0000000

LOEWDIN ATOMIC CHARGES
----------------------
   0 C :   -0.234471
   1 C :   -0.286183
   2 C :   -0.370048
   3 N :   -0.006813
   4 C :   -0.282287
   5 H :    0.103318
   6 H :    0.099551
   7 H :    0.170044
   8 H :    0.179143
   9 H :    0.131905
  10 H :    0.147311
  11 H :    0.113522
  12 H :    0.118183
  13 H :    0.116825

  Mayer bond orders larger than 0.100000
B(  0-C ,  1-C ) :   0.9860 B(  0-C ,  2-C ) :   0.9408 B(  0-C ,  9-H ) :   0.9791
B(  0-C , 10-H ) :   0.9718 B(  1-C , 11-H ) :   0.9783 B(  1-C , 12-H ) :   0.9780
B(  1-C , 13-H ) :   0.9794 B(  2-C ,  3-N ) :   1.1700 B(  2-C ,  4-C ) :   1.7387
B(  3-N ,  7-H ) :   0.9199 B(  3-N ,  8-H ) :   0.9163 B(  4-C ,  5-H ) :   1.0152
B(  4-C ,  6-H ) :   0.9896

Dispersion correction           -0.002887014
FINAL SINGLE POINT ENERGY      -212.576336154860

DIPOLE MOMENT
-------------
                                X             Y             Z
Electronic contribution:     -1.59997       1.50122       2.34187
Nuclear contribution   :      1.59749      -0.72853      -2.53752
                        -----------------------------------------
Total Dipole Moment    :     -0.00248       0.77269      -0.19565
                        -----------------------------------------
Magnitude (a.u.)       :      0.79708
Magnitude (Debye)      :      2.02601

Rotational constants in cm-1:     0.304597     0.124127     0.096828
Rotational constants in MHz :  9131.600925  3721.227051  2902.830760

                             ****ORCA TERMINATED NORMALLY****
TOTAL RUN TIME: 0 days 0 hours 0 minutes 41 seconds 123 msec
