                         Program Version 5.0.0 -  RELEASE  -
|  1> !wB97X-D3 RIJCOSX def2-TZVP def2/J TightSCF xyzfile
|  2>
|  3> *xyzfile 0 1 D2.xyz
|  4>
|  5> %MaxCore 64000
|  6>
|  7> %pal nprocs 18
|  8> end
|  9>
| 10> %scf
| 11>   MaxIter 150
| 12> end
| 13>
| 14>
| 15>                          ****END OF INPUT****

CARTESIAN COORDINATES (ANGSTROEM)
---------------------------------
  C      4.366454   -0.133215   -1.416062
  C      4.508292   -0.931872   -2.724249
  H      4.753716   -1.972051   -2.488408
  C      3.294164   -0.918214   -3.656570
  H      5.385637   -0.536236   -3.242640
  H      2.483463   -1.477378   -3.185764
  H      3.553092   -1.478495   -4.560331
  C      2.772335    0.460100   -4.051448
  H      2.608762    1.065107   -3.155194
  C      1.465354    0.410537   -4.853644
  H      3.532940    0.988848   -4.635671
  C      0.326171   -0.375613   -4.192580
  H      1.666704   -0.022269   -5.839323
  H      1.138198    1.439246   -5.035449
  C     -0.017405    0.080588   -2.778406
  H      0.585573   -1.439385   -4.168057
  H     -0.560005   -0.311425   -4.831461
  H      0.902090    0.201296   -2.206729
  C     -0.903495   -0.873945   -1.987388
  H     -0.479549    1.074657   -2.811915
  H     -0.502554   -1.892096   -2.081204
  H     -1.917039   -0.895427   -2.406277
  C     -0.960148   -0.522365   -0.489867
  H     -1.690392   -1.208130   -0.021677
  H     -1.414490    0.486329   -0.406677
  F      0.261703   -0.580307    0.138611
  C      3.056503   -0.320797   -0.707384
  N      2.389825    0.711285   -0.243909
  C      2.515999   -1.507721   -0.550229
  H      2.967683   -2.322915   -0.956305
  H      1.549872   -1.490634   -0.249876
  H      2.743071    1.649471   -0.412802
  H      1.440364    0.502778    0.037031
  H      4.487835    0.932997   -1.611569
  H      5.169672   -0.414432   -0.729817

 Total Charge           Charge          ....    0
 Multiplicity           Mult            ....    1
 Number of Electrons    NEL             ....  104
 Basis Dimension        Dim             ....  535

ORBITAL ENERGIES
----------------

  NO   OCC          E(Eh)            E(eV)
   0   2.0000     -24.802042      -674.8979
   1   2.0000     -14.393475      -391.6664
   2   2.0000     -10.366784      -282.0945
   3   2.0000     -10.285348      -279.8785
   4   2.0000     -10.274950      -279.5956
   5   2.0000     -10.267291      -279.3872
   6   2.0000     -10.267012      -279.3796
   7   2.0000     -10.265515      -279.3389
   8   2.0000     -10.264131      -279.3012
   9   2.0000     -10.263136      -279.2741
  10   2.0000     -10.260388      -279.1993
  11   2.0000     -10.254444      -279.0376
  12   2.0000     -10.174059      -276.8502
  13   2.0000      -1.352739       -36.8099
  14   2.0000      -1.032251       -28.0890
  15   2.0000      -0.936582       -25.4857
  16   2.0000      -0.913461       -24.8565
  17   2.0000      -0.887622       -24.1534
  18   2.0000      -0.844442       -22.9784
  19   2.0000      -0.812562       -22.1109
  20   2.0000      -0.799654       -21.7597
  21   2.0000      -0.753732       -20.5101
  22   2.0000      -0.727349       -19.7922
  23   2.0000      -0.696896       -18.9635
  24   2.0000      -0.660808       -17.9815
  25   2.0000      -0.650912       -17.7122
  26   2.0000      -0.635063       -17.2809
  27   2.0000      -0.625772       -17.0281
  28   2.0000      -0.613638       -16.6979
  29   2.0000      -0.585626       -15.9357
  30   2.0000      -0.578729       -15.7480
  31   2.0000      -0.562966       -15.3191
  32   2.0000      -0.550569       -14.9818
  33   2.0000      -0.535751       -14.5785
  34   2.0000      -0.527877       -14.3643
  35   2.0000      -0.512845       -13.9552
  36   2.0000      -0.494938       -13.4680
  37   2.0000      -0.485704       -13.2167
  38   2.0000      -0.476361       -12.9624
  39   2.0000      -0.463241       -12.6054
  40   2.0000      -0.458744       -12.4831
  41   2.0000      -0.453749       -12.3471
  42   2.0000      -0.445189       -12.1142
  43   2.0000      -0.442455       -12.0398
  44   2.0000      -0.425968       -11.5912
  45   2.0000      -0.419849       -11.4247
  46   2.0000      -0.406749       -11.0682
  47   2.0000      -0.400143       -10.8885
  48   2.0000      -0.398776       -10.8512
  49   2.0000      -0.391794       -10.6613
  50   2.0000      -0.389606       -10.6017
  51   2.0000      -0.256425        -6.9777
  52   0.0000       0.109095         2.9686
  53   0.0000       0.117717         3.2032
  54   0.0000       0.124777         3.3954
  55   0.0000       0.129178         3.5151
  56   0.0000       0.133443         3.6312

MULLIKEN ATOMIC CHARGES
-----------------------
   0 C :   -0.195754
   1 C :   -0.237641
   2 H :    0.120793
   3 C :   -0.147273
   4 H :    0.100171
   5 H :    0.101968
   6 H :    0.096408
   7 C :   -0.240988
   8 H :    0.096441
   9 C :   -0.154544
  10 H :    0.103117
  11 C :   -0.217738
  12 H :    0.103388
  13 H :    0.098236
  14 C :   -0.207119
  15 H :    0.115634
  16 H :    0.102631
  17 H :    0.063240
  18 C :   -0.203533
  19 H :    0.094777
  20 H :    0.121078
  21 H :    0.115967
  22 C :    0.026553
  23 H :    0.120975
  24 H :    0.105726
  25 F :   -0.233897
  26 C :    0.154788
  27 N :   -0.475438
  28 C :   -0.464778
  29 H :    0.095224
  30 H :    0.137764
  31 H :    0.223623
  32 H :    0.256199
  33 H :    0.097857
  34 H :    0.126143
Sum of atomic charges:   -0.0000000

LOEWDIN ATOMIC CHARGES
----------------------
   0 C :   -0.217528
   1 C :   -0.256335
   2 H :    0.137775
   3 C :   -0.267363
   4 H :    0.134733
   5 H :    0.139092
   6 H :    0.134180
   7 C :   -0.267458
   8 H :    0.131624
   9 C :   -0.264434
  10 H :    0.133643
  11 C :   -0.269143
  12 H :    0.135591
  13 H :    0.134081
  14 C :   -0.273102
  15 H :    0.135736
  16 H :    0.133287
  17 H :    0.145550
  18 C :   -0.273023
  19 H :    0.133692
  20 H :    0.142693
  21 H :    0.142256
  22 C :   -0.330115
  23 H :    0.127253
  24 H :    0.126069
  25 F :    0.138906
  26 C :   -0.382290
  27 N :   -0.011949
  28 C :   -0.290085
  29 H :    0.100694
  30 H :    0.094737
  31 H :    0.162873
  32 H :    0.155504
  33 H :    0.133824
  34 H :    0.149028

  Mayer bond orders larger than 0.100000
B(  0-C ,  1-C ) :   0.9667 B(  0-C , 26-C ) :   0.9386 B(  0-C , 33-H ) :   0.9934
B(  0-C , 34-H ) :   0.9687 B(  1-C ,  2-H ) :   0.9840 B(  1-C ,  3-C ) :   0.9769
B(  1-C ,  4-H ) :   0.9780 B(  3-C ,  5-H ) :   0.9731 B(  3-C ,  6-H ) :   0.9694
B(  3-C ,  7-C ) :   0.9297 B(  7-C ,  8-H ) :   0.9850 B(  7-C ,  9-C ) :   0.9737
B(  7-C , 10-H ) :   0.9731 B(  9-C , 11-C ) :   0.9727 B(  9-C , 12-H ) :   0.9796
B(  9-C , 13-H ) :   0.9827 B( 11-C , 14-C ) :   0.9753 B( 11-C , 15-H ) :   0.9856
B( 11-C , 16-H ) :   0.9766 B( 14-C , 17-H ) :   0.9933 B( 14-C , 18-C ) :   0.9637
B( 14-C , 19-H ) :   0.9667 B( 18-C , 20-H ) :   0.9703 B( 18-C , 21-H ) :   0.9589
B( 18-C , 22-C ) :   0.9849 B( 22-C , 23-H ) :   0.9781 B( 22-C , 24-H ) :   0.9775
B( 22-C , 25-F ) :   0.9164 B( 26-C , 27-N ) :   1.1577 B( 26-C , 28-C ) :   1.7147
B( 27-N , 31-H ) :   0.9252 B( 27-N , 32-H ) :   0.8844 B( 28-C , 29-H ) :   1.0128
B( 28-C , 30-H ) :   0.9843

Dispersion correction           -0.017787564
FINAL SINGLE POINT ENERGY      -587.028165031281

DIPOLE MOMENT
-------------
                                X             Y             Z
Electronic contribution:     -2.79865       0.03517      10.67673
Nuclear contribution   :      1.85154       0.58682     -11.15333
                        -----------------------------------------
Total Dipole Moment    :     -0.94712       0.62199      -0.47660
                        -----------------------------------------
Magnitude (a.u.)       :      1.22925
Magnitude (Debye)      :      3.12450

Rotational constants in cm-1:     0.028379     0.022321     0.014415
Rotational constants in MHz :   850.785777   669.176075   432.155504

                             ****ORCA TERMINATED NORMALLY****
TOTAL RUN TIME: 0 days 0 hours 2 minutes 10 seconds 109 msec
