                         Program Version 5.0.0 -  RELEASE  -
|  1> !BLYP D3BJ RIJCOSX def2-SVP def2/J TightSCF
|  2> *xyz -1 1
|  3> C          2.49556        1.81615       -2.13636
|  4> C          1.87218        0.42790       -2.07750
|  5> H          2.61427       -0.36583       -2.19889
|  6> H          1.38995        0.27309       -1.11236
|  7> S          0.57902        0.14047       -3.29794
|  8> O          0.22886       -1.24687       -3.12787
|  9> O         -0.43927        1.11897       -3.01455
| 10> O          1.24788        0.40347       -4.59565
| 11> H          2.96535        1.95613       -3.08747
| 12> H          3.22581        1.91242       -1.36024
| 13> H          1.73350        2.55528       -2.00274
| 14> *
| 15>
| 16> %MaxCore 64000
| 17>
| 18> %pal nprocs 4
| 19> end
| 20>
| 21> %scf
| 22>   MaxIter 150
| 23> end
| 24>
| 25>
| 26>                          ****END OF INPUT****

CARTESIAN COORDINATES (ANGSTROEM)
---------------------------------
  C      2.495560    1.816150   -2.136360
  C      1.872180    0.427900   -2.077500
  H      2.614270   -0.365830   -2.198890
  H      1.389950    0.273090   -1.112360
  S      0.579020    0.140470   -3.297940
  O      0.228860   -1.246870   -3.127870
  O     -0.439270    1.118970   -3.014550
  O      1.247880    0.403470   -4.595650
  H      2.965350    1.956130   -3.087470
  H      3.225810    1.912420   -1.360240
  H      1.733500    2.555280   -2.002740

 Total Charge           Charge          ....   -1
 Multiplicity           Mult            ....    1
 Number of Electrons    NEL             ....   58
 Basis Dimension        Dim             ....  113

ORBITAL ENERGIES
----------------

  NO   OCC          E(Eh)            E(eV)
   0   2.0000     -88.080151     -2396.7828
   1   2.0000     -18.527455      -504.1577
   2   2.0000     -18.527065      -504.1471
   3   2.0000     -18.511456      -503.7223
   4   2.0000      -9.765184      -265.7242
   5   2.0000      -9.757092      -265.5040
   6   2.0000      -7.623813      -207.4545
   7   2.0000      -5.658427      -153.9736
   8   2.0000      -5.658234      -153.9684
   9   2.0000      -5.657984      -153.9616
  10   2.0000      -0.798466       -21.7274
  11   2.0000      -0.665301       -18.1038
  12   2.0000      -0.637995       -17.3607
  13   2.0000      -0.529068       -14.3967
  14   2.0000      -0.411809       -11.2059
  15   2.0000      -0.289850        -7.8872
  16   2.0000      -0.245516        -6.6808
  17   2.0000      -0.230007        -6.2588
  18   2.0000      -0.197769        -5.3816
  19   2.0000      -0.176582        -4.8050
  20   2.0000      -0.176029        -4.7900
  21   2.0000      -0.155485        -4.2310
  22   2.0000      -0.142449        -3.8762
  23   2.0000      -0.060455        -1.6451
  24   2.0000      -0.059793        -1.6270
  25   2.0000      -0.031394        -0.8543
  26   2.0000      -0.027569        -0.7502
  27   2.0000      -0.013011        -0.3541
  28   2.0000       0.022717         0.6182
  29   0.0000       0.186440         5.0733
  30   0.0000       0.234718         6.3870
  31   0.0000       0.241087         6.5603
  32   0.0000       0.248198         6.7538
  33   0.0000       0.277370         7.5476

MULLIKEN ATOMIC CHARGES
-----------------------
   0 C :    0.121350
   1 C :   -0.017801
   2 H :   -0.045795
   3 H :   -0.053697
   4 S :    0.752987
   5 O :   -0.524210
   6 O :   -0.524875
   7 O :   -0.570795
   8 H :   -0.032381
   9 H :   -0.072208
  10 H :   -0.032575
Sum of atomic charges:   -1.0000000

LOEWDIN ATOMIC CHARGES
----------------------
   0 C :   -0.063231
   1 C :   -0.181931
   2 H :   -0.003971
   3 H :   -0.008157
   4 S :    1.053538
   5 O :   -0.585339
   6 O :   -0.585629
   7 O :   -0.630976
   8 H :    0.006295
   9 H :   -0.007630
  10 H :    0.007031

  Mayer bond orders larger than 0.100000
B(  0-C ,  1-C ) :   1.0808 B(  0-C ,  8-H ) :   0.9544 B(  0-C ,  9-H ) :   0.9435
B(  0-C , 10-H ) :   0.9552 B(  1-C ,  2-H ) :   0.9281 B(  1-C ,  3-H ) :   0.9228
B(  1-C ,  4-S ) :   0.8677 B(  4-S ,  5-O ) :   1.6522 B(  4-S ,  6-O ) :   1.6381
B(  4-S ,  7-O ) :   1.5936

Dispersion correction           -0.020600005
FINAL SINGLE POINT ENERGY      -702.641211649353

DIPOLE MOMENT
-------------
                                X             Y             Z
Electronic contribution:     -5.92331      -3.70444      -4.30176
Nuclear contribution   :      6.89220       4.11756       5.35566
                        -----------------------------------------
Total Dipole Moment    :      0.96889       0.41312       1.05390
                        -----------------------------------------
Magnitude (a.u.)       :      1.49001
Magnitude (Debye)      :      3.78730

Rotational constants in cm-1:     0.162183     0.084017     0.082390
Rotational constants in MHz :  4862.117324  2518.774315  2469.980309

                             ****ORCA TERMINATED NORMALLY****
TOTAL RUN TIME: 0 days 0 hours 0 minutes 3 seconds 783 msec
