                         Program Version 5.0.0 -  RELEASE  -
|  1> !BLYP D3BJ RIJCOSX def2-SVP def2/J TightSCF
|  2> *xyz 1 1
|  3> C          3.38093        2.08304       -3.35013
|  4> N          4.53592        1.18245       -3.42852
|  5> C          2.49556        1.81615       -2.13636
|  6> C          4.67196        0.12227       -4.22060
|  7> N          5.86602       -0.50785       -4.22428
|  8> N          3.69888       -0.31284       -4.98699
|  9> H          2.73141       -0.05009       -4.84900
| 10> H          3.89005       -1.05517       -5.64373
| 11> H          5.25193        1.30346       -2.72101
| 12> H          6.69516       -0.06232       -3.85160
| 13> H          5.97538       -1.39688       -4.69141
| 14> H          2.80646        1.98651       -4.26848
| 15> H          3.77871        3.09828       -3.30738
| 16> H          2.11090        0.81901       -2.18783
| 17> H          1.68276        2.51198       -2.12786
| 18> H          3.07216        1.93031       -1.24227
| 19> *
| 20>
| 21> %MaxCore 64000
| 22>
| 23> %pal nprocs 4
| 24> end
| 25>
| 26> %scf
| 27>   MaxIter 150
| 28> end
| 29>
| 30>
| 31>                          ****END OF INPUT****

CARTESIAN COORDINATES (ANGSTROEM)
---------------------------------
  C      3.380930    2.083040   -3.350130
  N      4.535920    1.182450   -3.428520
  C      2.495560    1.816150   -2.136360
  C      4.671960    0.122270   -4.220600
  N      5.866020   -0.507850   -4.224280
  N      3.698880   -0.312840   -4.986990
  H      2.731410   -0.050090   -4.849000
  H      3.890050   -1.055170   -5.643730
  H      5.251930    1.303460   -2.721010
  H      6.695160   -0.062320   -3.851600
  H      5.975380   -1.396880   -4.691410
  H      2.806460    1.986510   -4.268480
  H      3.778710    3.098280   -3.307380
  H      2.110900    0.819010   -2.187830
  H      1.682760    2.511980   -2.127860
  H      3.072160    1.930310   -1.242270

 Total Charge           Charge          ....    1
 Multiplicity           Mult            ....    1
 Number of Electrons    NEL             ....   48
 Basis Dimension        Dim             ....  134

ORBITAL ENERGIES
----------------

  NO   OCC          E(Eh)            E(eV)
   0   2.0000     -14.244349      -387.6084
   1   2.0000     -14.236905      -387.4059
   2   2.0000     -14.236506      -387.3950
   3   2.0000     -10.243227      -278.7324
   4   2.0000     -10.124713      -275.5074
   5   2.0000     -10.057590      -273.6809
   6   2.0000      -1.106959       -30.1219
   7   2.0000      -1.005716       -27.3669
   8   2.0000      -0.991119       -26.9697
   9   2.0000      -0.844133       -22.9700
  10   2.0000      -0.766675       -20.8623
  11   2.0000      -0.730117       -19.8675
  12   2.0000      -0.721542       -19.6342
  13   2.0000      -0.677598       -18.4384
  14   2.0000      -0.638406       -17.3719
  15   2.0000      -0.635194       -17.2845
  16   2.0000      -0.586298       -15.9540
  17   2.0000      -0.571037       -15.5387
  18   2.0000      -0.547844       -14.9076
  19   2.0000      -0.504670       -13.7328
  20   2.0000      -0.478843       -13.0300
  21   2.0000      -0.464333       -12.6351
  22   2.0000      -0.425479       -11.5779
  23   2.0000      -0.398813       -10.8523
  24   0.0000      -0.183795        -5.0013
  25   0.0000      -0.159607        -4.3431
  26   0.0000      -0.127668        -3.4740
  27   0.0000      -0.118392        -3.2216
  28   0.0000      -0.104959        -2.8561

MULLIKEN ATOMIC CHARGES
-----------------------
   0 C :    0.069358
   1 N :   -0.033772
   2 C :    0.085978
   3 C :   -0.102024
   4 N :    0.038109
   5 N :    0.078144
   6 H :    0.153425
   7 H :    0.148601
   8 H :    0.140515
   9 H :    0.151289
  10 H :    0.146648
  11 H :    0.017250
  12 H :    0.044356
  13 H :    0.001230
  14 H :    0.041233
  15 H :    0.019662
Sum of atomic charges:    1.0000000

LOEWDIN ATOMIC CHARGES
----------------------
   0 C :    0.049641
   1 N :    0.049374
   2 C :   -0.033387
   3 C :    0.110447
   4 N :    0.052602
   5 N :    0.079638
   6 H :    0.107087
   7 H :    0.107677
   8 H :    0.100513
   9 H :    0.105390
  10 H :    0.102262
  11 H :    0.027067
  12 H :    0.043675
  13 H :    0.022408
  14 H :    0.044847
  15 H :    0.030759

  Mayer bond orders larger than 0.100000
B(  0-C ,  1-N ) :   0.9603 B(  0-C ,  2-C ) :   1.1269 B(  0-C , 11-H ) :   0.9394
B(  0-C , 12-H ) :   0.9364 B(  1-N ,  3-C ) :   1.3815 B(  1-N ,  8-H ) :   0.9083
B(  2-C , 13-H ) :   0.9619 B(  2-C , 14-H ) :   0.9547 B(  2-C , 15-H ) :   0.9629
B(  3-C ,  4-N ) :   1.3695 B(  3-C ,  5-N ) :   1.4176 B(  4-N ,  9-H ) :   0.9273
B(  4-N , 10-H ) :   0.9304 B(  5-N ,  6-H ) :   0.9236 B(  5-N ,  7-H ) :   0.9240

Dispersion correction           -0.024502283
FINAL SINGLE POINT ENERGY      -284.081190939313

DIPOLE MOMENT
-------------
                                X             Y             Z
Electronic contribution:      3.61906      -2.71149      -2.85390
Nuclear contribution   :     -2.93277       1.85779       2.25966
                        -----------------------------------------
Total Dipole Moment    :      0.68629      -0.85369      -0.59424
                        -----------------------------------------
Magnitude (a.u.)       :      1.24616
Magnitude (Debye)      :      3.16749

Rotational constants in cm-1:     0.245511     0.068839     0.059711
Rotational constants in MHz :  7360.233487  2063.743353  1790.088408

                             ****ORCA TERMINATED NORMALLY****
TOTAL RUN TIME: 0 days 0 hours 0 minutes 4 seconds 478 msec
