                         Program Version 5.0.0 -  RELEASE  -
|  1> !BLYP D3BJ RIJCOSX def2-TZVP def2/J TightSCF xyzfile
|  2>
|  3> *xyzfile 0 1 B.xyz
|  4>
|  5> %MaxCore 64000
|  6>
|  7> %pal nprocs 18
|  8> end
|  9>
| 10> %scf
| 11>   MaxIter 150
| 12> end
| 13>
| 14>
| 15>                          ****END OF INPUT****

CARTESIAN COORDINATES (ANGSTROEM)
---------------------------------
  C      3.380928    2.083045   -3.350127
  N      4.535924    1.182447   -3.428518
  C      2.495557    1.816150   -2.136364
  C      1.872181    0.427903   -2.077497
  H      2.614270   -0.365825   -2.198894
  H      1.389953    0.273087   -1.112360
  S      0.579024    0.140472   -3.297943
  C      4.671956    0.122273   -4.220598
  N      5.866023   -0.507849   -4.224284
  N      3.698881   -0.312844   -4.986988
  H      2.731405   -0.050091   -4.849000
  H      3.890046   -1.055172   -5.643730
  H      5.251933    1.303459   -2.721014
  H      6.695165   -0.062322   -3.851596
  H      5.975383   -1.396884   -4.691414
  O      0.228860   -1.246868   -3.127871
  O     -0.439269    1.118966   -3.014550
  O      1.247881    0.403474   -4.595647
  H      1.697003    2.561969   -2.141109
  H      3.080787    1.987436   -1.225838
  H      2.806463    1.986511   -4.268484
  H      3.778714    3.098282   -3.307383

 Total Charge           Charge          ....    0
 Multiplicity           Mult            ....    1
 Number of Electrons    NEL             ....   96
 Basis Dimension        Dim             ....  413

ORBITAL ENERGIES
----------------

  NO   OCC          E(Eh)            E(eV)
   0   2.0000     -88.219667     -2400.5792
   1   2.0000     -18.700805      -508.8748
   2   2.0000     -18.684680      -508.4360
   3   2.0000     -18.684239      -508.4240
   4   2.0000     -14.094553      -383.5323
   5   2.0000     -14.089059      -383.3828
   6   2.0000     -14.059155      -382.5691
   7   2.0000     -10.086707      -274.4732
   8   2.0000      -9.964807      -271.1562
   9   2.0000      -9.915772      -269.8219
  10   2.0000      -9.899633      -269.3827
  11   2.0000      -7.750672      -210.9065
  12   2.0000      -5.779627      -157.2716
  13   2.0000      -5.778608      -157.2439
  14   2.0000      -5.777450      -157.2124
  15   2.0000      -0.979221       -26.6459
  16   2.0000      -0.970060       -26.3967
  17   2.0000      -0.878901       -23.9161
  18   2.0000      -0.863813       -23.5056
  19   2.0000      -0.837994       -22.8030
  20   2.0000      -0.837525       -22.7902
  21   2.0000      -0.727624       -19.7997
  22   2.0000      -0.662574       -18.0296
  23   2.0000      -0.617799       -16.8112
  24   2.0000      -0.586951       -15.9717
  25   2.0000      -0.573797       -15.6138
  26   2.0000      -0.542233       -14.7549
  27   2.0000      -0.507132       -13.7998
  28   2.0000      -0.492746       -13.4083
  29   2.0000      -0.466906       -12.7052
  30   2.0000      -0.448727       -12.2105
  31   2.0000      -0.431501       -11.7418
  32   2.0000      -0.416507       -11.3337
  33   2.0000      -0.395699       -10.7675
  34   2.0000      -0.375758       -10.2249
  35   2.0000      -0.358436        -9.7535
  36   2.0000      -0.338611        -9.2141
  37   2.0000      -0.331006        -9.0071
  38   2.0000      -0.322602        -8.7784
  39   2.0000      -0.312383        -8.5004
  40   2.0000      -0.291618        -7.9353
  41   2.0000      -0.267373        -7.2756
  42   2.0000      -0.246024        -6.6947
  43   2.0000      -0.237890        -6.4733
  44   2.0000      -0.211942        -5.7672
  45   2.0000      -0.201039        -5.4706
  46   2.0000      -0.199151        -5.4192
  47   2.0000      -0.162554        -4.4233
  48   0.0000      -0.059868        -1.6291
  49   0.0000      -0.054208        -1.4751
  50   0.0000      -0.023363        -0.6357
  51   0.0000      -0.006362        -0.1731
  52   0.0000       0.029049         0.7905

MULLIKEN ATOMIC CHARGES
-----------------------
   0 C :   -0.156826
   1 N :   -0.251579
   2 C :   -0.108776
   3 C :   -0.260257
   4 H :    0.078562
   5 H :    0.103219
   6 S :    0.773123
   7 C :    0.413092
   8 N :   -0.422891
   9 N :   -0.334377
  10 H :    0.282583
  11 H :    0.213922
  12 H :    0.201165
  13 H :    0.236399
  14 H :    0.241261
  15 O :   -0.468992
  16 O :   -0.463102
  17 O :   -0.546458
  18 H :    0.113679
  19 H :    0.068125
  20 H :    0.180676
  21 H :    0.107452
Sum of atomic charges:   -0.0000000

LOEWDIN ATOMIC CHARGES
----------------------
   0 C :   -0.261112
   1 N :    0.167813
   2 C :   -0.284952
   3 C :   -0.397466
   4 H :    0.117800
   5 H :    0.133953
   6 S :    0.406393
   7 C :   -0.442431
   8 N :    0.024057
   9 N :    0.101500
  10 H :    0.134650
  11 H :    0.179009
  12 H :    0.191066
  13 H :    0.175910
  14 H :    0.178202
  15 O :   -0.317768
  16 O :   -0.311221
  17 O :   -0.356788
  18 H :    0.151959
  19 H :    0.129229
  20 H :    0.146832
  21 H :    0.133365

  Mayer bond orders larger than 0.100000
B(  0-C ,  1-N ) :   0.8397 B(  0-C ,  2-C ) :   0.9593 B(  0-C , 20-H ) :   0.9478
B(  0-C , 21-H ) :   0.9644 B(  1-N ,  7-C ) :   1.3447 B(  1-N , 12-H ) :   0.9215
B(  2-C ,  3-C ) :   0.9455 B(  2-C , 18-H ) :   0.9407 B(  2-C , 19-H ) :   0.9504
B(  3-C ,  4-H ) :   0.9493 B(  3-C ,  5-H ) :   0.9534 B(  3-C ,  6-S ) :   0.8781
B(  6-S , 15-O ) :   1.8834 B(  6-S , 16-O ) :   1.8603 B(  6-S , 17-O ) :   1.4775
B(  7-C ,  8-N ) :   1.2019 B(  7-C ,  9-N ) :   1.4370 B(  8-N , 13-H ) :   0.9163
B(  8-N , 14-H ) :   0.9168 B(  9-N , 10-H ) :   0.7361 B(  9-N , 11-H ) :   0.9229
B( 10-H , 17-O ) :   0.2375

Dispersion correction           -0.051499326
FINAL SINGLE POINT ENERGY      -947.297632637526

DIPOLE MOMENT
-------------
                                X             Y             Z
Electronic contribution:     -7.24313      -3.24830      -2.48575
Nuclear contribution   :     13.40759       3.44219       2.21042
                        -----------------------------------------
Total Dipole Moment    :      6.16446       0.19389      -0.27533
                        -----------------------------------------
Magnitude (a.u.)       :      6.17365
Magnitude (Debye)      :     15.69218

Rotational constants in cm-1:     0.059860     0.020817     0.017914
Rotational constants in MHz :  1794.564877   624.092098   537.039275

                             ****ORCA TERMINATED NORMALLY****
TOTAL RUN TIME: 0 days 0 hours 0 minutes 13 seconds 829 msec
