                         Program Version 5.0.0 -  RELEASE  -
|  1> !BLYP D3BJ RIJCOSX def2-SVP def2/J TightSCF
|  2> *xyz 0 1
|  3> C          2.49556        1.81615       -2.13636
|  4> C          1.87218        0.42790       -2.07750
|  5> H          2.61427       -0.36583       -2.19889
|  6> H          1.38995        0.27309       -1.11236
|  7> S          0.57902        0.14047       -3.29794
|  8> F          0.22886       -1.24687       -3.12787
|  9> O         -0.43927        1.11897       -3.01455
| 10> O          1.24788        0.40347       -4.59565
| 11> H          2.96535        1.95613       -3.08747
| 12> H          3.22581        1.91242       -1.36024
| 13> H          1.73350        2.55528       -2.00274
| 14> *
| 15>
| 16> %MaxCore 64000
| 17>
| 18> %pal nprocs 4
| 19> end
| 20>
| 21> %scf
| 22>   MaxIter 150
| 23> end
| 24>
| 25>
| 26>                          ****END OF INPUT****

CARTESIAN COORDINATES (ANGSTROEM)
---------------------------------
  C      2.495560    1.816150   -2.136360
  C      1.872180    0.427900   -2.077500
  H      2.614270   -0.365830   -2.198890
  H      1.389950    0.273090   -1.112360
  S      0.579020    0.140470   -3.297940
  F      0.228860   -1.246870   -3.127870
  O     -0.439270    1.118970   -3.014550
  O      1.247880    0.403470   -4.595650
  H      2.965350    1.956130   -3.087470
  H      3.225810    1.912420   -1.360240
  H      1.733500    2.555280   -2.002740

 Total Charge           Charge          ....    0
 Multiplicity           Mult            ....    1
 Number of Electrons    NEL             ....   58
 Basis Dimension        Dim             ....  113

ORBITAL ENERGIES
----------------

  NO   OCC          E(Eh)            E(eV)
   0   2.0000     -88.351905     -2404.1776
   1   2.0000     -24.397134      -663.8798
   2   2.0000     -18.778683      -510.9939
   3   2.0000     -18.763168      -510.5718
   4   2.0000      -9.970163      -271.3019
   5   2.0000      -9.936346      -270.3817
   6   2.0000      -7.898087      -214.9179
   7   2.0000      -5.936896      -161.5512
   8   2.0000      -5.930362      -161.3734
   9   2.0000      -5.928830      -161.3317
  10   2.0000      -1.250799       -34.0360
  11   2.0000      -0.994944       -27.0738
  12   2.0000      -0.891421       -24.2568
  13   2.0000      -0.728741       -19.8300
  14   2.0000      -0.649244       -17.6668
  15   2.0000      -0.594331       -16.1726
  16   2.0000      -0.510021       -13.8784
  17   2.0000      -0.504398       -13.7254
  18   2.0000      -0.476280       -12.9602
  19   2.0000      -0.431461       -11.7406
  20   2.0000      -0.411900       -11.2084
  21   2.0000      -0.372929       -10.1479
  22   2.0000      -0.368717       -10.0333
  23   2.0000      -0.353731        -9.6255
  24   2.0000      -0.333231        -9.0677
  25   2.0000      -0.316430        -8.6105
  26   2.0000      -0.268483        -7.3058
  27   2.0000      -0.254115        -6.9148
  28   2.0000      -0.234893        -6.3918
  29   0.0000       0.008795         0.2393
  30   0.0000       0.027669         0.7529
  31   0.0000       0.052191         1.4202
  32   0.0000       0.064755         1.7621
  33   0.0000       0.074925         2.0388

MULLIKEN ATOMIC CHARGES
-----------------------
   0 C :    0.096773
   1 C :   -0.058599
   2 H :    0.025305
   3 H :    0.020464
   4 S :    0.831887
   5 F :   -0.135182
   6 O :   -0.389800
   7 O :   -0.435079
   8 H :    0.019817
   9 H :    0.007143
  10 H :    0.017271
Sum of atomic charges:   -0.0000000

LOEWDIN ATOMIC CHARGES
----------------------
   0 C :   -0.036404
   1 C :   -0.146255
   2 H :    0.025008
   3 H :    0.022475
   4 S :    1.106510
   5 F :   -0.102568
   6 O :   -0.456015
   7 O :   -0.501098
   8 H :    0.028984
   9 H :    0.030564
  10 H :    0.028799

  Mayer bond orders larger than 0.100000
B(  0-C ,  1-C ) :   1.1030 B(  0-C ,  8-H ) :   0.9649 B(  0-C ,  9-H ) :   0.9529
B(  0-C , 10-H ) :   0.9642 B(  1-C ,  2-H ) :   0.9231 B(  1-C ,  3-H ) :   0.9206
B(  1-C ,  4-S ) :   0.9062 B(  4-S ,  5-F ) :   1.0444 B(  4-S ,  6-O ) :   1.7886
B(  4-S ,  7-O ) :   1.7483

Dispersion correction           -0.019692846
FINAL SINGLE POINT ENERGY      -727.155586036067

DIPOLE MOMENT
-------------
                                X             Y             Z
Electronic contribution:     -6.93420      -6.42925      -4.21648
Nuclear contribution   :      7.60530       5.82028       5.38743
                        -----------------------------------------
Total Dipole Moment    :      0.67110      -0.60897       1.17096
                        -----------------------------------------
Magnitude (a.u.)       :      1.48066
Magnitude (Debye)      :      3.76354

Rotational constants in cm-1:     0.157861     0.081452     0.078859
Rotational constants in MHz :  4732.562506  2441.865430  2364.129821

                             ****ORCA TERMINATED NORMALLY****
TOTAL RUN TIME: 0 days 0 hours 0 minutes 3 seconds 713 msec
