                         Program Version 5.0.0 -  RELEASE  -
|  1> !BLYP D3BJ RIJCOSX def2-SVP def2/J TightSCF
|  2> *xyz 0 1
|  3> C          3.38093        2.08304       -3.35013
|  4> C          4.53592        1.18245       -3.42852
|  5> C          2.49556        1.81615       -2.13636
|  6> C          4.67196        0.12227       -4.22060
|  7> N          5.86602       -0.50785       -4.22428
|  8> N          3.69888       -0.31284       -4.98699
|  9> H          2.73141       -0.05009       -4.84900
| 10> H          3.89005       -1.05517       -5.64373
| 11> H          5.25193        1.30346       -2.72101
| 12> H          6.69516       -0.06232       -3.85160
| 13> H          5.97538       -1.39688       -4.69141
| 14> H          2.80646        1.98651       -4.26848
| 15> H          3.77871        3.09828       -3.30738
| 16> H          2.11090        0.81901       -2.18783
| 17> H          1.68276        2.51198       -2.12786
| 18> H          3.07216        1.93031       -1.24227
| 19> *
| 20>
| 21> %MaxCore 64000
| 22>
| 23> %pal nprocs 4
| 24> end
| 25>
| 26> %scf
| 27>   MaxIter 150
| 28> end
| 29>
| 30>
| 31>                          ****END OF INPUT****

CARTESIAN COORDINATES (ANGSTROEM)
---------------------------------
  C      3.380930    2.083040   -3.350130
  C      4.535920    1.182450   -3.428520
  C      2.495560    1.816150   -2.136360
  C      4.671960    0.122270   -4.220600
  N      5.866020   -0.507850   -4.224280
  N      3.698880   -0.312840   -4.986990
  H      2.731410   -0.050090   -4.849000
  H      3.890050   -1.055170   -5.643730
  H      5.251930    1.303460   -2.721010
  H      6.695160   -0.062320   -3.851600
  H      5.975380   -1.396880   -4.691410
  H      2.806460    1.986510   -4.268480
  H      3.778710    3.098280   -3.307380
  H      2.110900    0.819010   -2.187830
  H      1.682760    2.511980   -2.127860
  H      3.072160    1.930310   -1.242270

 Total Charge           Charge          ....    0
 Multiplicity           Mult            ....    1
 Number of Electrons    NEL             ....   48
 Basis Dimension        Dim             ....  134

ORBITAL ENERGIES
----------------

  NO   OCC          E(Eh)            E(eV)
   0   2.0000     -14.016047      -381.3960
   1   2.0000     -14.007957      -381.1759
   2   2.0000      -9.950021      -270.7538
   3   2.0000      -9.887289      -269.0468
   4   2.0000      -9.882619      -268.9197
   5   2.0000      -9.831430      -267.5268
   6   2.0000      -0.850309       -23.1381
   7   2.0000      -0.765620       -20.8336
   8   2.0000      -0.672903       -18.3106
   9   2.0000      -0.603259       -16.4155
  10   2.0000      -0.536517       -14.5994
  11   2.0000      -0.503049       -13.6887
  12   2.0000      -0.476045       -12.9538
  13   2.0000      -0.437402       -11.9023
  14   2.0000      -0.417941       -11.3727
  15   2.0000      -0.378629       -10.3030
  16   2.0000      -0.353528        -9.6200
  17   2.0000      -0.329198        -8.9579
  18   2.0000      -0.316328        -8.6077
  19   2.0000      -0.292699        -7.9647
  20   2.0000      -0.271250        -7.3811
  21   2.0000      -0.265338        -7.2202
  22   2.0000      -0.202894        -5.5210
  23   2.0000      -0.107268        -2.9189
  24   0.0000       0.020452         0.5565
  25   0.0000       0.048689         1.3249
  26   0.0000       0.069979         1.9042
  27   0.0000       0.077016         2.0957
  28   0.0000       0.090391         2.4597

MULLIKEN ATOMIC CHARGES
-----------------------
   0 C :    0.143177
   1 C :   -0.148830
   2 C :    0.131041
   3 C :   -0.138909
   4 N :    0.005066
   5 N :    0.050157
   6 H :    0.098799
   7 H :    0.072921
   8 H :   -0.139023
   9 H :    0.093465
  10 H :    0.066690
  11 H :   -0.071788
  12 H :   -0.048158
  13 H :   -0.042232
  14 H :   -0.039947
  15 H :   -0.032429
Sum of atomic charges:    0.0000000

LOEWDIN ATOMIC CHARGES
----------------------
   0 C :   -0.027729
   1 C :   -0.204539
   2 C :   -0.042695
   3 C :    0.001308
   4 N :   -0.014717
   5 N :    0.009982
   6 H :    0.075461
   7 H :    0.058480
   8 H :   -0.017714
   9 H :    0.074639
  10 H :    0.052249
  11 H :    0.000134
  12 H :    0.013869
  13 H :    0.005553
  14 H :    0.004241
  15 H :    0.011478

  Mayer bond orders larger than 0.100000
B(  0-C ,  1-C ) :   1.0947 B(  0-C ,  2-C ) :   1.1130 B(  0-C , 11-H ) :   0.9098
B(  0-C , 12-H ) :   0.8929 B(  1-C ,  3-C ) :   1.6664 B(  1-C ,  8-H ) :   0.9263
B(  2-C , 13-H ) :   0.9603 B(  2-C , 14-H ) :   0.9474 B(  2-C , 15-H ) :   0.9595
B(  3-C ,  4-N ) :   1.2296 B(  3-C ,  5-N ) :   1.2772 B(  4-N ,  9-H ) :   0.9411
B(  4-N , 10-H ) :   0.9446 B(  5-N ,  6-H ) :   0.9358 B(  5-N ,  7-H ) :   0.9405

Dispersion correction           -0.025631351
FINAL SINGLE POINT ENERGY      -267.592111825900

DIPOLE MOMENT
-------------
                                X             Y             Z
Electronic contribution:      3.07689      -2.95073      -3.01520
Nuclear contribution   :     -2.84307       1.95814       2.32378
                        -----------------------------------------
Total Dipole Moment    :      0.23382      -0.99260      -0.69142
                        -----------------------------------------
Magnitude (a.u.)       :      1.23206
Magnitude (Debye)      :      3.13165

Rotational constants in cm-1:     0.248902     0.068887     0.059904
Rotational constants in MHz :  7461.898926  2065.183281  1795.882140

                             ****ORCA TERMINATED NORMALLY****
TOTAL RUN TIME: 0 days 0 hours 0 minutes 4 seconds 583 msec
