                         Program Version 5.0.0 -  RELEASE  -
|  1> !BLYP D3BJ RIJCOSX def2-SVP def2/J TightSCF
|  2> *xyz 0 1
|  3> C          2.49556        1.81615       -2.13636
|  4> C          1.87218        0.42790       -2.07750
|  5> H          2.61427       -0.36583       -2.19889
|  6> H          1.38995        0.27309       -1.11236
|  7> S          0.57902        0.14047       -3.29794
|  8> O          0.22886       -1.24687       -3.12787
|  9> F         -0.43927        1.11897       -3.01455
| 10> O          1.24788        0.40347       -4.59565
| 11> H          2.96535        1.95613       -3.08747
| 12> H          3.22581        1.91242       -1.36024
| 13> H          1.73350        2.55528       -2.00274
| 14> *
| 15>
| 16> %MaxCore 64000
| 17>
| 18> %pal nprocs 4
| 19> end
| 20>
| 21> %scf
| 22>   MaxIter 150
| 23> end
| 24>
| 25>
| 26>                          ****END OF INPUT****

CARTESIAN COORDINATES (ANGSTROEM)
---------------------------------
  C      2.495560    1.816150   -2.136360
  C      1.872180    0.427900   -2.077500
  H      2.614270   -0.365830   -2.198890
  H      1.389950    0.273090   -1.112360
  S      0.579020    0.140470   -3.297940
  O      0.228860   -1.246870   -3.127870
  F     -0.439270    1.118970   -3.014550
  O      1.247880    0.403470   -4.595650
  H      2.965350    1.956130   -3.087470
  H      3.225810    1.912420   -1.360240
  H      1.733500    2.555280   -2.002740

 Total Charge           Charge          ....    0
 Multiplicity           Mult            ....    1
 Number of Electrons    NEL             ....   58
 Basis Dimension        Dim             ....  113

ORBITAL ENERGIES
----------------

  NO   OCC          E(Eh)            E(eV)
   0   2.0000     -88.352090     -2404.1826
   1   2.0000     -24.397386      -663.8866
   2   2.0000     -18.778920      -511.0004
   3   2.0000     -18.764485      -510.6076
   4   2.0000      -9.969920      -271.2953
   5   2.0000      -9.939233      -270.4603
   6   2.0000      -7.898267      -214.9228
   7   2.0000      -5.937185      -161.5590
   8   2.0000      -5.930464      -161.3761
   9   2.0000      -5.928997      -161.3362
  10   2.0000      -1.251255       -34.0484
  11   2.0000      -0.994613       -27.0648
  12   2.0000      -0.892768       -24.2934
  13   2.0000      -0.731601       -19.9079
  14   2.0000      -0.645677       -17.5698
  15   2.0000      -0.598291       -16.2803
  16   2.0000      -0.519362       -14.1326
  17   2.0000      -0.503350       -13.6968
  18   2.0000      -0.470399       -12.8002
  19   2.0000      -0.431073       -11.7301
  20   2.0000      -0.411102       -11.1867
  21   2.0000      -0.386032       -10.5045
  22   2.0000      -0.367054        -9.9881
  23   2.0000      -0.352773        -9.5994
  24   2.0000      -0.340706        -9.2711
  25   2.0000      -0.313065        -8.5189
  26   2.0000      -0.268105        -7.2955
  27   2.0000      -0.254699        -6.9307
  28   2.0000      -0.237450        -6.4613
  29   0.0000       0.002830         0.0770
  30   0.0000       0.034189         0.9303
  31   0.0000       0.046803         1.2736
  32   0.0000       0.070298         1.9129
  33   0.0000       0.071566         1.9474

MULLIKEN ATOMIC CHARGES
-----------------------
   0 C :    0.086741
   1 C :   -0.064833
   2 H :    0.056651
   3 H :    0.021127
   4 S :    0.831887
   5 O :   -0.384738
   6 F :   -0.136713
   7 O :   -0.434082
   8 H :    0.021318
   9 H :    0.007240
  10 H :   -0.004599
Sum of atomic charges:    0.0000000

LOEWDIN ATOMIC CHARGES
----------------------
   0 C :   -0.050286
   1 C :   -0.143311
   2 H :    0.044753
   3 H :    0.022124
   4 S :    1.106977
   5 O :   -0.453487
   6 F :   -0.103224
   7 O :   -0.499785
   8 H :    0.027489
   9 H :    0.029834
  10 H :    0.018917

  Mayer bond orders larger than 0.100000
B(  0-C ,  1-C ) :   1.0774 B(  0-C ,  8-H ) :   0.9643 B(  0-C ,  9-H ) :   0.9513
B(  0-C , 10-H ) :   0.9658 B(  1-C ,  2-H ) :   0.9334 B(  1-C ,  3-H ) :   0.9247
B(  1-C ,  4-S ) :   0.9049 B(  4-S ,  5-O ) :   1.7987 B(  4-S ,  6-F ) :   1.0386
B(  4-S ,  7-O ) :   1.7482

Dispersion correction           -0.019592196
FINAL SINGLE POINT ENERGY      -727.155661398715

DIPOLE MOMENT
-------------
                                X             Y             Z
Electronic contribution:     -8.04488      -2.49184      -4.02653
Nuclear contribution   :      8.30151       3.35500       5.26935
                        -----------------------------------------
Total Dipole Moment    :      0.25663       0.86316       1.24282
                        -----------------------------------------
Magnitude (a.u.)       :      1.53476
Magnitude (Debye)      :      3.90106

Rotational constants in cm-1:     0.152913     0.083043     0.080351
Rotational constants in MHz :  4584.227971  2489.580280  2408.872860

                             ****ORCA TERMINATED NORMALLY****
TOTAL RUN TIME: 0 days 0 hours 0 minutes 3 seconds 951 msec
