                         Program Version 5.0.0 -  RELEASE  -
|  1> !BLYP D3BJ RIJCOSX def2-SVP def2/J TightSCF
|  2> *xyz 0 1
|  3> C          3.38093        2.08304       -3.35013
|  4> N          4.53592        1.18245       -3.42852
|  5> C          2.49556        1.81615       -2.13636
|  6> C          4.67196        0.12227       -4.22060
|  7> C          5.86602       -0.50785       -4.22428
|  8> N          3.69888       -0.31284       -4.98699
|  9> H          2.73141       -0.05009       -4.84900
| 10> H          3.89005       -1.05517       -5.64373
| 11> H          5.25193        1.30346       -2.72101
| 12> H          6.69516       -0.06232       -3.85160
| 13> H          5.97538       -1.39688       -4.69141
| 14> H          2.80646        1.98651       -4.26848
| 15> H          3.77871        3.09828       -3.30738
| 16> H          2.11090        0.81901       -2.18783
| 17> H          1.68276        2.51198       -2.12786
| 18> H          3.07216        1.93031       -1.24227
| 19> *
| 20>
| 21> %MaxCore 64000
| 22>
| 23> %pal nprocs 4
| 24> end
| 25>
| 26> %scf
| 27>   MaxIter 150
| 28> end
| 29>
| 30>
| 31>                          ****END OF INPUT****

CARTESIAN COORDINATES (ANGSTROEM)
---------------------------------
  C      3.380930    2.083040   -3.350130
  N      4.535920    1.182450   -3.428520
  C      2.495560    1.816150   -2.136360
  C      4.671960    0.122270   -4.220600
  C      5.866020   -0.507850   -4.224280
  N      3.698880   -0.312840   -4.986990
  H      2.731410   -0.050090   -4.849000
  H      3.890050   -1.055170   -5.643730
  H      5.251930    1.303460   -2.721010
  H      6.695160   -0.062320   -3.851600
  H      5.975380   -1.396880   -4.691410
  H      2.806460    1.986510   -4.268480
  H      3.778710    3.098280   -3.307380
  H      2.110900    0.819010   -2.187830
  H      1.682760    2.511980   -2.127860
  H      3.072160    1.930310   -1.242270

 Total Charge           Charge          ....    0
 Multiplicity           Mult            ....    1
 Number of Electrons    NEL             ....   48
 Basis Dimension        Dim             ....  134

ORBITAL ENERGIES
----------------

  NO   OCC          E(Eh)            E(eV)
   0   2.0000     -14.016118      -381.3979
   1   2.0000     -14.011221      -381.2647
   2   2.0000      -9.956709      -270.9358
   3   2.0000      -9.953291      -270.8428
   4   2.0000      -9.914427      -269.7853
   5   2.0000      -9.824421      -267.3361
   6   2.0000      -0.858605       -23.3638
   7   2.0000      -0.784735       -21.3537
   8   2.0000      -0.680678       -18.5222
   9   2.0000      -0.607294       -16.5253
  10   2.0000      -0.548007       -14.9120
  11   2.0000      -0.529667       -14.4130
  12   2.0000      -0.476124       -12.9560
  13   2.0000      -0.433908       -11.8072
  14   2.0000      -0.420621       -11.4457
  15   2.0000      -0.387521       -10.5450
  16   2.0000      -0.369035       -10.0419
  17   2.0000      -0.344229        -9.3669
  18   2.0000      -0.328460        -8.9378
  19   2.0000      -0.315592        -8.5877
  20   2.0000      -0.310436        -8.4474
  21   2.0000      -0.293760        -7.9936
  22   2.0000      -0.196456        -5.3458
  23   2.0000      -0.108655        -2.9567
  24   0.0000       0.019218         0.5230
  25   0.0000       0.050098         1.3632
  26   0.0000       0.060872         1.6564
  27   0.0000       0.079137         2.1534
  28   0.0000       0.086132         2.3438

MULLIKEN ATOMIC CHARGES
-----------------------
   0 C :    0.107289
   1 N :   -0.051668
   2 C :    0.105004
   3 C :   -0.138230
   4 C :   -0.026647
   5 N :    0.037846
   6 H :    0.075215
   7 H :    0.096935
   8 H :    0.093082
   9 H :   -0.096251
  10 H :   -0.104562
  11 H :   -0.023980
  12 H :   -0.019566
  13 H :   -0.019040
  14 H :   -0.019656
  15 H :   -0.015771
Sum of atomic charges:    0.0000000

LOEWDIN ATOMIC CHARGES
----------------------
   0 C :    0.037270
   1 N :   -0.005439
   2 C :   -0.051312
   3 C :    0.013435
   4 C :   -0.253618
   5 N :    0.012224
   6 H :    0.056270
   7 H :    0.079292
   8 H :    0.077206
   9 H :   -0.017557
  10 H :   -0.019759
  11 H :    0.011784
  12 H :    0.014017
  13 H :    0.013751
  14 H :    0.016698
  15 H :    0.015739

  Mayer bond orders larger than 0.100000
B(  0-C ,  1-N ) :   1.0373 B(  0-C ,  2-C ) :   1.1172 B(  0-C , 11-H ) :   0.9337
B(  0-C , 12-H ) :   0.9366 B(  1-N ,  3-C ) :   1.2174 B(  1-N ,  8-H ) :   0.9238
B(  2-C , 13-H ) :   0.9597 B(  2-C , 14-H ) :   0.9479 B(  2-C , 15-H ) :   0.9606
B(  3-C ,  4-C ) :   1.6975 B(  3-C ,  5-N ) :   1.2716 B(  4-C ,  9-H ) :   0.9172
B(  4-C , 10-H ) :   0.9152 B(  5-N ,  6-H ) :   0.9404 B(  5-N ,  7-H ) :   0.9366

Dispersion correction           -0.025310934
FINAL SINGLE POINT ENERGY      -267.584900472207

DIPOLE MOMENT
-------------
                                X             Y             Z
Electronic contribution:      1.51351      -1.15786      -2.09084
Nuclear contribution   :     -2.56090       1.59955       2.15496
                        -----------------------------------------
Total Dipole Moment    :     -1.04739       0.44169       0.06412
                        -----------------------------------------
Magnitude (a.u.)       :      1.13852
Magnitude (Debye)      :      2.89389

Rotational constants in cm-1:     0.249834     0.071381     0.061833
Rotational constants in MHz :  7489.842787  2139.945635  1853.706310

                             ****ORCA TERMINATED NORMALLY****
TOTAL RUN TIME: 0 days 0 hours 0 minutes 5 seconds 461 msec
