                         Program Version 5.0.0 -  RELEASE  -
|  1> !BLYP D3BJ RIJCOSX def2-SVP def2/J TightSCF
|  2> *xyz 0 1
|  3> C          2.49556        1.81615       -2.13636
|  4> C          1.87218        0.42790       -2.07750
|  5> H          2.61427       -0.36583       -2.19889
|  6> H          1.38995        0.27309       -1.11236
|  7> S          0.57902        0.14047       -3.29794
|  8> O          0.22886       -1.24687       -3.12787
|  9> O         -0.43927        1.11897       -3.01455
| 10> F          1.24788        0.40347       -4.59565
| 11> H          2.96535        1.95613       -3.08747
| 12> H          3.22581        1.91242       -1.36024
| 13> H          1.73350        2.55528       -2.00274
| 14> *
| 15>
| 16> %MaxCore 64000
| 17>
| 18> %pal nprocs 4
| 19> end
| 20>
| 21> %scf
| 22>   MaxIter 150
| 23> end
| 24>
| 25>
| 26>                          ****END OF INPUT****

CARTESIAN COORDINATES (ANGSTROEM)
---------------------------------
  C      2.495560    1.816150   -2.136360
  C      1.872180    0.427900   -2.077500
  H      2.614270   -0.365830   -2.198890
  H      1.389950    0.273090   -1.112360
  S      0.579020    0.140470   -3.297940
  O      0.228860   -1.246870   -3.127870
  O     -0.439270    1.118970   -3.014550
  F      1.247880    0.403470   -4.595650
  H      2.965350    1.956130   -3.087470
  H      3.225810    1.912420   -1.360240
  H      1.733500    2.555280   -2.002740

 Total Charge           Charge          ....    0
 Multiplicity           Mult            ....    1
 Number of Electrons    NEL             ....   58
 Basis Dimension        Dim             ....  113

ORBITAL ENERGIES
----------------

  NO   OCC          E(Eh)            E(eV)
   0   2.0000     -88.350495     -2404.1392
   1   2.0000     -24.375508      -663.2913
   2   2.0000     -18.779889      -511.0268
   3   2.0000     -18.778959      -511.0015
   4   2.0000      -9.968944      -271.2688
   5   2.0000      -9.939917      -270.4789
   6   2.0000      -7.896609      -214.8777
   7   2.0000      -5.935244      -161.5062
   8   2.0000      -5.929112      -161.3393
   9   2.0000      -5.927551      -161.2969
  10   2.0000      -1.215076       -33.0639
  11   2.0000      -1.005116       -27.3506
  12   2.0000      -0.914548       -24.8861
  13   2.0000      -0.731208       -19.8972
  14   2.0000      -0.633284       -17.2325
  15   2.0000      -0.590915       -16.0796
  16   2.0000      -0.505286       -13.7495
  17   2.0000      -0.478772       -13.0280
  18   2.0000      -0.466082       -12.6827
  19   2.0000      -0.431020       -11.7286
  20   2.0000      -0.408358       -11.1120
  21   2.0000      -0.387631       -10.5480
  22   2.0000      -0.371571       -10.1110
  23   2.0000      -0.352967        -9.6047
  24   2.0000      -0.344885        -9.3848
  25   2.0000      -0.318371        -8.6633
  26   2.0000      -0.274247        -7.4626
  27   2.0000      -0.268777        -7.3138
  28   2.0000      -0.253524        -6.8987
  29   0.0000       0.004113         0.1119
  30   0.0000       0.038183         1.0390
  31   0.0000       0.051946         1.4135
  32   0.0000       0.069350         1.8871
  33   0.0000       0.074339         2.0229

MULLIKEN ATOMIC CHARGES
-----------------------
   0 C :    0.083658
   1 C :   -0.069360
   2 H :    0.030357
   3 H :    0.050799
   4 S :    0.842804
   5 O :   -0.389663
   6 O :   -0.394376
   7 F :   -0.179659
   8 H :   -0.000212
   9 H :    0.008609
  10 H :    0.017044
Sum of atomic charges:    0.0000000

LOEWDIN ATOMIC CHARGES
----------------------
   0 C :   -0.051024
   1 C :   -0.145538
   2 H :    0.027243
   3 H :    0.041604
   4 S :    1.114486
   5 O :   -0.457576
   6 O :   -0.459487
   7 F :   -0.146196
   8 H :    0.019712
   9 H :    0.030418
  10 H :    0.026357

  Mayer bond orders larger than 0.100000
B(  0-C ,  1-C ) :   1.0775 B(  0-C ,  8-H ) :   0.9678 B(  0-C ,  9-H ) :   0.9523
B(  0-C , 10-H ) :   0.9635 B(  1-C ,  2-H ) :   0.9283 B(  1-C ,  3-H ) :   0.9310
B(  1-C ,  4-S ) :   0.9069 B(  4-S ,  5-O ) :   1.8028 B(  4-S ,  6-O ) :   1.7934
B(  4-S ,  7-F ) :   0.9927

Dispersion correction           -0.019586486
FINAL SINGLE POINT ENERGY      -727.174859390047

DIPOLE MOMENT
-------------
                                X             Y             Z
Electronic contribution:     -5.22683      -3.67411      -6.66233
Nuclear contribution   :      6.54345       4.10057       6.91691
                        -----------------------------------------
Total Dipole Moment    :      1.31662       0.42646       0.25458
                        -----------------------------------------
Magnitude (a.u.)       :      1.40718
Magnitude (Debye)      :      3.57677

Rotational constants in cm-1:     0.152835     0.082826     0.080611
Rotational constants in MHz :  4581.878371  2483.049050  2416.647141

                             ****ORCA TERMINATED NORMALLY****
TOTAL RUN TIME: 0 days 0 hours 0 minutes 3 seconds 934 msec
