                         Program Version 5.0.0 -  RELEASE  -
|  1> !BLYP D3BJ RIJCOSX def2-SVP def2/J TightSCF
|  2> *xyz 0 1
|  3> C          3.38093        2.08304       -3.35013
|  4> N          4.53592        1.18245       -3.42852
|  5> C          2.49556        1.81615       -2.13636
|  6> C          4.67196        0.12227       -4.22060
|  7> N          5.86602       -0.50785       -4.22428
|  8> C          3.69888       -0.31284       -4.98699
|  9> H          2.73141       -0.05009       -4.84900
| 10> H          3.89005       -1.05517       -5.64373
| 11> H          5.25193        1.30346       -2.72101
| 12> H          6.69516       -0.06232       -3.85160
| 13> H          5.97538       -1.39688       -4.69141
| 14> H          2.80646        1.98651       -4.26848
| 15> H          3.77871        3.09828       -3.30738
| 16> H          2.11090        0.81901       -2.18783
| 17> H          1.68276        2.51198       -2.12786
| 18> H          3.07216        1.93031       -1.24227
| 19> *
| 20>
| 21> %MaxCore 64000
| 22>
| 23> %pal nprocs 4
| 24> end
| 25>
| 26> %scf
| 27>   MaxIter 150
| 28> end
| 29>
| 30>
| 31>                          ****END OF INPUT****

CARTESIAN COORDINATES (ANGSTROEM)
---------------------------------
  C      3.380930    2.083040   -3.350130
  N      4.535920    1.182450   -3.428520
  C      2.495560    1.816150   -2.136360
  C      4.671960    0.122270   -4.220600
  N      5.866020   -0.507850   -4.224280
  C      3.698880   -0.312840   -4.986990
  H      2.731410   -0.050090   -4.849000
  H      3.890050   -1.055170   -5.643730
  H      5.251930    1.303460   -2.721010
  H      6.695160   -0.062320   -3.851600
  H      5.975380   -1.396880   -4.691410
  H      2.806460    1.986510   -4.268480
  H      3.778710    3.098280   -3.307380
  H      2.110900    0.819010   -2.187830
  H      1.682760    2.511980   -2.127860
  H      3.072160    1.930310   -1.242270

 Total Charge           Charge          ....    0
 Multiplicity           Mult            ....    1
 Number of Electrons    NEL             ....   48
 Basis Dimension        Dim             ....  134

ORBITAL ENERGIES
----------------

  NO   OCC          E(Eh)            E(eV)
   0   2.0000     -14.011009      -381.2589
   1   2.0000     -14.008840      -381.1999
   2   2.0000      -9.951024      -270.7811
   3   2.0000      -9.947667      -270.6898
   4   2.0000      -9.906429      -269.5676
   5   2.0000      -9.826993      -267.4061
   6   2.0000      -0.852127       -23.1876
   7   2.0000      -0.775309       -21.0972
   8   2.0000      -0.666164       -18.1272
   9   2.0000      -0.618470       -16.8294
  10   2.0000      -0.559778       -15.2323
  11   2.0000      -0.492061       -13.3897
  12   2.0000      -0.475738       -12.9455
  13   2.0000      -0.447872       -12.1872
  14   2.0000      -0.399355       -10.8670
  15   2.0000      -0.388290       -10.5659
  16   2.0000      -0.359018        -9.7694
  17   2.0000      -0.342070        -9.3082
  18   2.0000      -0.322494        -8.7755
  19   2.0000      -0.319310        -8.6889
  20   2.0000      -0.301022        -8.1912
  21   2.0000      -0.290186        -7.8964
  22   2.0000      -0.188641        -5.1332
  23   2.0000      -0.118722        -3.2306
  24   0.0000       0.026193         0.7127
  25   0.0000       0.049689         1.3521
  26   0.0000       0.067641         1.8406
  27   0.0000       0.079729         2.1695
  28   0.0000       0.092674         2.5218

MULLIKEN ATOMIC CHARGES
-----------------------
   0 C :    0.137009
   1 N :   -0.070509
   2 C :    0.091385
   3 C :   -0.072194
   4 N :   -0.011545
   5 C :   -0.042146
   6 H :   -0.081835
   7 H :   -0.105631
   8 H :    0.068046
   9 H :    0.070867
  10 H :    0.093687
  11 H :   -0.002663
  12 H :   -0.027739
  13 H :   -0.002602
  14 H :   -0.018750
  15 H :   -0.025381
Sum of atomic charges:    0.0000000

LOEWDIN ATOMIC CHARGES
----------------------
   0 C :    0.050552
   1 N :   -0.011171
   2 C :   -0.048957
   3 C :    0.019811
   4 N :   -0.014614
   5 C :   -0.235869
   6 H :   -0.013140
   7 H :   -0.014300
   8 H :    0.055564
   9 H :    0.053864
  10 H :    0.073489
  11 H :    0.023755
  12 H :    0.011053
  13 H :    0.020926
  14 H :    0.017734
  15 H :    0.011302

  Mayer bond orders larger than 0.100000
B(  0-C ,  1-N ) :   1.0207 B(  0-C ,  2-C ) :   1.1331 B(  0-C , 11-H ) :   0.9238
B(  0-C , 12-H ) :   0.9403 B(  1-N ,  3-C ) :   1.1926 B(  1-N ,  8-H ) :   0.9252
B(  2-C , 13-H ) :   0.9633 B(  2-C , 14-H ) :   0.9504 B(  2-C , 15-H ) :   0.9602
B(  3-C ,  4-N ) :   1.2305 B(  3-C ,  5-C ) :   1.7571 B(  4-N ,  9-H ) :   0.9449
B(  4-N , 10-H ) :   0.9435 B(  5-C ,  6-H ) :   0.9144 B(  5-C ,  7-H ) :   0.9052

Dispersion correction           -0.025469260
FINAL SINGLE POINT ENERGY      -267.588174203392

DIPOLE MOMENT
-------------
                                X             Y             Z
Electronic contribution:      3.80531      -1.36265      -1.34102
Nuclear contribution   :     -3.02065       1.64092       1.99316
                        -----------------------------------------
Total Dipole Moment    :      0.78467       0.27827       0.65214
                        -----------------------------------------
Magnitude (a.u.)       :      1.05755
Magnitude (Debye)      :      2.68809

Rotational constants in cm-1:     0.259304     0.069422     0.060943
Rotational constants in MHz :  7773.747720  2081.225169  1827.013389

                             ****ORCA TERMINATED NORMALLY****
TOTAL RUN TIME: 0 days 0 hours 0 minutes 4 seconds 792 msec
