                         Program Version 5.0.0 -  RELEASE  -
|  1> !BLYP D3BJ RIJCOSX def2-TZVP def2/J TightSCF xyzfile
|  2>
|  3> *xyzfile 0 1 D3.xyz
|  4>
|  5> %MaxCore 64000
|  6>
|  7> %pal nprocs 18
|  8> end
|  9>
| 10> %scf
| 11>   MaxIter 150
| 12> end
| 13>
| 14>
| 15>                          ****END OF INPUT****

CARTESIAN COORDINATES (ANGSTROEM)
---------------------------------
  C      3.380928    2.083045   -3.350127
  N      4.535924    1.182447   -3.428518
  C      2.495557    1.816150   -2.136364
  C      1.872181    0.427903   -2.077497
  H      2.614270   -0.365825   -2.198894
  H      1.389953    0.273087   -1.112360
  S      0.579024    0.140472   -3.297943
  C      4.671956    0.122273   -4.220598
  N      5.866023   -0.507849   -4.224284
  C      3.698881   -0.312844   -4.986988
  H      2.731405   -0.050091   -4.849000
  H      3.890046   -1.055172   -5.643730
  H      5.251933    1.303459   -2.721014
  H      6.695165   -0.062322   -3.851596
  H      5.975383   -1.396884   -4.691414
  F      0.228860   -1.246868   -3.127871
  O     -0.439269    1.118966   -3.014550
  O      1.247881    0.403474   -4.595647
  H      1.697003    2.561969   -2.141109
  H      3.080787    1.987436   -1.225838
  H      2.806463    1.986511   -4.268484
  H      3.778714    3.098282   -3.307383

 Total Charge           Charge          ....    0
 Multiplicity           Mult            ....    1
 Number of Electrons    NEL             ....   96
 Basis Dimension        Dim             ....  413

ORBITAL ENERGIES
----------------

  NO   OCC          E(Eh)            E(eV)
   0   2.0000     -88.333683     -2403.6817
   1   2.0000     -24.398564      -663.9187
   2   2.0000     -18.781214      -511.0628
   3   2.0000     -18.767159      -510.6804
   4   2.0000     -14.004423      -381.0797
   5   2.0000     -13.993937      -380.7944
   6   2.0000      -9.955036      -270.8903
   7   2.0000      -9.938277      -270.4343
   8   2.0000      -9.933554      -270.3058
   9   2.0000      -9.929641      -270.1993
  10   2.0000      -9.792801      -266.4757
  11   2.0000      -7.865311      -214.0260
  12   2.0000      -5.897437      -160.4774
  13   2.0000      -5.890969      -160.3014
  14   2.0000      -5.890484      -160.2882
  15   2.0000      -1.269572       -34.5468
  16   2.0000      -1.008794       -27.4507
  17   2.0000      -0.915381       -24.9088
  18   2.0000      -0.868365       -23.6294
  19   2.0000      -0.793178       -21.5835
  20   2.0000      -0.739737       -20.1293
  21   2.0000      -0.675833       -18.3904
  22   2.0000      -0.640387       -17.4258
  23   2.0000      -0.619759       -16.8645
  24   2.0000      -0.573360       -15.6019
  25   2.0000      -0.519018       -14.1232
  26   2.0000      -0.516102       -14.0439
  27   2.0000      -0.505459       -13.7542
  28   2.0000      -0.492401       -13.3989
  29   2.0000      -0.476810       -12.9746
  30   2.0000      -0.456979       -12.4350
  31   2.0000      -0.435949       -11.8628
  32   2.0000      -0.432480       -11.7684
  33   2.0000      -0.399994       -10.8844
  34   2.0000      -0.396549       -10.7907
  35   2.0000      -0.391237       -10.6461
  36   2.0000      -0.354363        -9.6427
  37   2.0000      -0.344660        -9.3787
  38   2.0000      -0.338337        -9.2066
  39   2.0000      -0.331089        -9.0094
  40   2.0000      -0.327043        -8.8993
  41   2.0000      -0.319189        -8.6856
  42   2.0000      -0.297911        -8.1066
  43   2.0000      -0.284569        -7.7435
  44   2.0000      -0.268720        -7.3123
  45   2.0000      -0.232223        -6.3191
  46   2.0000      -0.200316        -5.4509
  47   2.0000      -0.124956        -3.4002
  48   0.0000      -0.009040        -0.2460
  49   0.0000      -0.004233        -0.1152
  50   0.0000       0.015701         0.4273
  51   0.0000       0.034326         0.9341
  52   0.0000       0.038123         1.0374

MULLIKEN ATOMIC CHARGES
-----------------------
   0 C :   -0.107423
   1 N :   -0.317310
   2 C :   -0.149326
   3 C :   -0.236513
   4 H :    0.148565
   5 H :    0.119637
   6 S :    0.790974
   7 C :    0.442634
   8 N :   -0.469713
   9 C :   -0.588457
  10 H :    0.149193
  11 H :    0.053339
  12 H :    0.156589
  13 H :    0.183955
  14 H :    0.214873
  15 F :   -0.078583
  16 O :   -0.373766
  17 O :   -0.390394
  18 H :    0.103105
  19 H :    0.087179
  20 H :    0.168141
  21 H :    0.093302
Sum of atomic charges:   -0.0000000

LOEWDIN ATOMIC CHARGES
----------------------
   0 C :   -0.265105
   1 N :    0.121377
   2 C :   -0.276069
   3 C :   -0.369898
   4 H :    0.142773
   5 H :    0.134428
   6 S :    0.508738
   7 C :   -0.483668
   8 N :   -0.022196
   9 C :   -0.330010
  10 H :    0.077272
  11 H :    0.093219
  12 H :    0.167419
  13 H :    0.147553
  14 H :    0.167039
  15 F :    0.113320
  16 O :   -0.242875
  17 O :   -0.244927
  18 H :    0.145311
  19 H :    0.139405
  20 H :    0.147424
  21 H :    0.129473

  Mayer bond orders larger than 0.100000
B(  0-C ,  1-N ) :   0.8918 B(  0-C ,  2-C ) :   0.9683 B(  0-C , 20-H ) :   0.9581
B(  0-C , 21-H ) :   0.9713 B(  1-N ,  7-C ) :   1.1398 B(  1-N , 12-H ) :   0.9316
B(  2-C ,  3-C ) :   0.9662 B(  2-C , 18-H ) :   0.9461 B(  2-C , 19-H ) :   0.9466
B(  3-C ,  4-H ) :   0.9290 B(  3-C ,  5-H ) :   0.9332 B(  3-C ,  6-S ) :   0.9111
B(  6-S , 15-F ) :   1.1520 B(  6-S , 16-O ) :   1.9454 B(  6-S , 17-O ) :   1.8021
B(  7-C ,  8-N ) :   1.0620 B(  7-C ,  9-C ) :   1.5682 B(  8-N , 13-H ) :   0.9303
B(  8-N , 14-H ) :   0.9300 B(  9-C , 10-H ) :   0.9895 B(  9-C , 11-H ) :   1.0082

Dispersion correction           -0.051849334
FINAL SINGLE POINT ENERGY      -955.157987872086

DIPOLE MOMENT
-------------
                                X             Y             Z
Electronic contribution:    -14.68664      -5.49066      -0.00808
Nuclear contribution   :     15.84345       5.19593       1.66752
                        -----------------------------------------
Total Dipole Moment    :      1.15682      -0.29473       1.65944
                        -----------------------------------------
Magnitude (a.u.)       :      2.04422
Magnitude (Debye)      :      5.19599

Rotational constants in cm-1:     0.059060     0.020573     0.017713
Rotational constants in MHz :  1770.576058   616.749938   531.036486

                             ****ORCA TERMINATED NORMALLY****
TOTAL RUN TIME: 0 days 0 hours 0 minutes 11 seconds 806 msec
