                         Program Version 5.0.0 -  RELEASE  -
|  1> !BLYP D3BJ RIJCOSX def2-TZVP def2/J TightSCF xyzfile
|  2>
|  3> *xyzfile 0 1 D4.xyz
|  4>
|  5> %MaxCore 64000
|  6>
|  7> %pal nprocs 18
|  8> end
|  9>
| 10> %scf
| 11>   MaxIter 150
| 12> end
| 13>
| 14>
| 15>                          ****END OF INPUT****

CARTESIAN COORDINATES (ANGSTROEM)
---------------------------------
  C      3.380928    2.083045   -3.350127
  C      4.535924    1.182447   -3.428518
  C      2.495557    1.816150   -2.136364
  C      1.872181    0.427903   -2.077497
  H      2.614270   -0.365825   -2.198894
  H      1.389953    0.273087   -1.112360
  S      0.579024    0.140472   -3.297943
  C      4.671956    0.122273   -4.220598
  N      5.866023   -0.507849   -4.224284
  N      3.698881   -0.312844   -4.986988
  H      2.731405   -0.050091   -4.849000
  H      3.890046   -1.055172   -5.643730
  H      5.251933    1.303459   -2.721014
  H      6.695165   -0.062322   -3.851596
  H      5.975383   -1.396884   -4.691414
  O      0.228860   -1.246868   -3.127871
  F     -0.439269    1.118966   -3.014550
  O      1.247881    0.403474   -4.595647
  H      1.697003    2.561969   -2.141109
  H      3.080787    1.987436   -1.225838
  H      2.806463    1.986511   -4.268484
  H      3.778714    3.098282   -3.307383

 Total Charge           Charge          ....    0
 Multiplicity           Mult            ....    1
 Number of Electrons    NEL             ....   96
 Basis Dimension        Dim             ....  413

ORBITAL ENERGIES
----------------

  NO   OCC          E(Eh)            E(eV)
   0   2.0000     -88.342560     -2403.9233
   1   2.0000     -24.405573      -664.1094
   2   2.0000     -18.788986      -511.2743
   3   2.0000     -18.783672      -511.1297
   4   2.0000     -13.994754      -380.8166
   5   2.0000     -13.978931      -380.3860
   6   2.0000      -9.949653      -270.7438
   7   2.0000      -9.936954      -270.3983
   8   2.0000      -9.911356      -269.7017
   9   2.0000      -9.879218      -268.8272
  10   2.0000      -9.822766      -267.2911
  11   2.0000      -7.874166      -214.2669
  12   2.0000      -5.906371      -160.7205
  13   2.0000      -5.900085      -160.5495
  14   2.0000      -5.898996      -160.5198
  15   2.0000      -1.276974       -34.7482
  16   2.0000      -1.018139       -27.7050
  17   2.0000      -0.928446       -25.2643
  18   2.0000      -0.858783       -23.3687
  19   2.0000      -0.774217       -21.0675
  20   2.0000      -0.742280       -20.1985
  21   2.0000      -0.682232       -18.5645
  22   2.0000      -0.649727       -17.6800
  23   2.0000      -0.608911       -16.5693
  24   2.0000      -0.556459       -15.1420
  25   2.0000      -0.531985       -14.4760
  26   2.0000      -0.522504       -14.2180
  27   2.0000      -0.513728       -13.9793
  28   2.0000      -0.486062       -13.2264
  29   2.0000      -0.473234       -12.8773
  30   2.0000      -0.454745       -12.3742
  31   2.0000      -0.431391       -11.7388
  32   2.0000      -0.423179       -11.5153
  33   2.0000      -0.416319       -11.3286
  34   2.0000      -0.396941       -10.8013
  35   2.0000      -0.384064       -10.4509
  36   2.0000      -0.359218        -9.7748
  37   2.0000      -0.348791        -9.4911
  38   2.0000      -0.343157        -9.3378
  39   2.0000      -0.326467        -8.8836
  40   2.0000      -0.307922        -8.3790
  41   2.0000      -0.299894        -8.1605
  42   2.0000      -0.289136        -7.8678
  43   2.0000      -0.286388        -7.7930
  44   2.0000      -0.275187        -7.4882
  45   2.0000      -0.260690        -7.0937
  46   2.0000      -0.205311        -5.5868
  47   2.0000      -0.120970        -3.2918
  48   0.0000      -0.019697        -0.5360
  49   0.0000       0.010516         0.2862
  50   0.0000       0.017859         0.4860
  51   0.0000       0.023094         0.6284
  52   0.0000       0.045563         1.2398

MULLIKEN ATOMIC CHARGES
-----------------------
   0 C :   -0.181663
   1 C :   -0.360789
   2 C :   -0.092720
   3 C :   -0.274530
   4 H :    0.166336
   5 H :    0.121195
   6 S :    0.803976
   7 C :    0.345041
   8 N :   -0.446323
   9 N :   -0.427540
  10 H :    0.261317
  11 H :    0.178619
  12 H :    0.058246
  13 H :    0.213972
  14 H :    0.186305
  15 O :   -0.364649
  16 F :   -0.076027
  17 O :   -0.435768
  18 H :    0.067348
  19 H :    0.077565
  20 H :    0.112399
  21 H :    0.067691
Sum of atomic charges:    0.0000000

LOEWDIN ATOMIC CHARGES
----------------------
   0 C :   -0.281683
   1 C :   -0.284585
   2 C :   -0.279948
   3 C :   -0.364729
   4 H :    0.152823
   5 H :    0.134913
   6 S :    0.516726
   7 C :   -0.470429
   8 N :   -0.016830
   9 N :    0.020078
  10 H :    0.134270
  11 H :    0.155502
  12 H :    0.114082
  13 H :    0.167198
  14 H :    0.150553
  15 O :   -0.236355
  16 F :    0.117069
  17 O :   -0.270601
  18 H :    0.126761
  19 H :    0.139889
  20 H :    0.138628
  21 H :    0.136667

  Mayer bond orders larger than 0.100000
B(  0-C ,  1-C ) :   1.0203 B(  0-C ,  2-C ) :   0.9349 B(  0-C , 20-H ) :   0.9702
B(  0-C , 21-H ) :   0.9684 B(  1-C ,  7-C ) :   1.5844 B(  1-C , 12-H ) :   0.9869
B(  2-C ,  3-C ) :   0.9414 B(  2-C , 18-H ) :   0.9513 B(  2-C , 19-H ) :   0.9447
B(  3-C ,  4-H ) :   0.9310 B(  3-C ,  5-H ) :   0.9444 B(  3-C ,  6-S ) :   0.9204
B(  6-S , 15-O ) :   1.9720 B(  6-S , 16-F ) :   1.1552 B(  6-S , 17-O ) :   1.7347
B(  7-C ,  8-N ) :   1.1033 B(  7-C ,  9-N ) :   1.1905 B(  8-N , 13-H ) :   0.9262
B(  8-N , 14-H ) :   0.9314 B(  9-N , 10-H ) :   0.8400 B(  9-N , 11-H ) :   0.9351
B( 10-H , 17-O ) :   0.1230

Dispersion correction           -0.051826257
FINAL SINGLE POINT ENERGY      -955.188172939394

DIPOLE MOMENT
-------------
                                X             Y             Z
Electronic contribution:    -16.39166      -2.77626      -1.09461
Nuclear contribution   :     16.65743       2.74852       1.69529
                        -----------------------------------------
Total Dipole Moment    :      0.26577      -0.02774       0.60068
                        -----------------------------------------
Magnitude (a.u.)       :      0.65743
Magnitude (Debye)      :      1.67106

Rotational constants in cm-1:     0.059907     0.020458     0.017675
Rotational constants in MHz :  1795.978106   613.328205   529.885290

                             ****ORCA TERMINATED NORMALLY****
TOTAL RUN TIME: 0 days 0 hours 0 minutes 11 seconds 314 msec
