                         Program Version 5.0.0 -  RELEASE  -
|  1> !TPSS D3BJ RIJCOSX def2-SVPD def2/J TightSCF
|  2> *xyz -1 1
|  3> C          3.34350        3.35457       -3.59200
|  4> C          2.95263        1.86308       -3.57485
|  5> C          4.12921        0.89839       -3.41895
|  6> H          3.73369       -0.10060       -3.23763
|  7> H          4.71910        0.86256       -4.33901
|  8> C          5.01734        1.31521       -2.22130
|  9> H          2.27894        1.73525       -2.72550
| 10> H          2.37747        1.62579       -4.47587
| 11> O          4.73706        0.85411       -1.12283
| 12> O          5.92815        2.16811       -2.49136
| 13> H          4.00801        3.53975       -4.40994
| 14> H          3.83025        3.60631       -2.67298
| 15> H          2.46347        3.95263       -3.70497
| 16> *
| 17> %MaxCore 64000
| 18>
| 19> %pal nprocs 4
| 20> end
| 21>
| 22> %scf
| 23>   MaxIter 150
| 24> end
| 25>
| 26>
| 27>                          ****END OF INPUT****

CARTESIAN COORDINATES (ANGSTROEM)
---------------------------------
  C      3.343500    3.354570   -3.592000
  C      2.952630    1.863080   -3.574850
  C      4.129210    0.898390   -3.418950
  H      3.733690   -0.100600   -3.237630
  H      4.719100    0.862560   -4.339010
  C      5.017340    1.315210   -2.221300
  H      2.278940    1.735250   -2.725500
  H      2.377470    1.625790   -4.475870
  O      4.737060    0.854110   -1.122830
  O      5.928150    2.168110   -2.491360
  H      4.008010    3.539750   -4.409940
  H      3.830250    3.606310   -2.672980
  H      2.463470    3.952630   -3.704970

 Total Charge           Charge          ....   -1
 Multiplicity           Mult            ....    1
 Number of Electrons    NEL             ....   48
 Basis Dimension        Dim             ....  182

ORBITAL ENERGIES
----------------

  NO   OCC          E(Eh)            E(eV)
   0   2.0000     -18.647098      -507.4133
   1   2.0000     -18.636966      -507.1376
   2   2.0000      -9.879061      -268.8229
   3   2.0000      -9.853177      -268.1186
   4   2.0000      -9.840212      -267.7658
   5   2.0000      -9.824997      -267.3518
   6   2.0000      -0.748916       -20.3790
   7   2.0000      -0.656178       -17.8555
   8   2.0000      -0.568645       -15.4736
   9   2.0000      -0.477374       -12.9900
  10   2.0000      -0.387339       -10.5400
  11   2.0000      -0.282512        -7.6875
  12   2.0000      -0.254792        -6.9333
  13   2.0000      -0.241533        -6.5724
  14   2.0000      -0.209558        -5.7024
  15   2.0000      -0.186584        -5.0772
  16   2.0000      -0.172237        -4.6868
  17   2.0000      -0.161465        -4.3937
  18   2.0000      -0.156765        -4.2658
  19   2.0000      -0.135596        -3.6897
  20   2.0000      -0.128571        -3.4986
  21   2.0000      -0.017466        -0.4753
  22   2.0000      -0.002011        -0.0547
  23   2.0000       0.011247         0.3061
  24   0.0000       0.138365         3.7651
  25   0.0000       0.163938         4.4610
  26   0.0000       0.177925         4.8416
  27   0.0000       0.188324         5.1246
  28   0.0000       0.214297         5.8313

MULLIKEN ATOMIC CHARGES
-----------------------
   0 C :    0.600226
   1 C :   -0.457066
   2 C :    0.127602
   3 H :    0.000073
   4 H :   -0.001925
   5 C :    0.373740
   6 H :    0.000197
   7 H :   -0.167032
   8 O :   -0.630365
   9 O :   -0.710236
  10 H :   -0.023573
  11 H :    0.023717
  12 H :   -0.135358
Sum of atomic charges:   -1.0000000

LOEWDIN ATOMIC CHARGES
----------------------
   0 C :    0.119087
   1 C :   -0.076915
   2 C :    0.003400
   3 H :   -0.008274
   4 H :   -0.001578
   5 C :   -0.303637
   6 H :    0.006713
   7 H :   -0.008192
   8 O :   -0.295577
   9 O :   -0.332326
  10 H :   -0.026856
  11 H :   -0.029318
  12 H :   -0.046526

  Mayer bond orders larger than 0.100000
B(  0-C ,  1-C ) :   1.3015 B(  0-C ,  7-H ) :   0.1029 B(  0-C , 10-H ) :   0.8060
B(  0-C , 11-H ) :   0.8126 B(  0-C , 12-H ) :   0.8085 B(  1-C ,  2-C ) :   1.2066
B(  1-C ,  3-H ) :   0.1400 B(  1-C ,  4-H ) :   0.1349 B(  1-C ,  6-H ) :   0.9193
B(  1-C ,  7-H ) :   0.9991 B(  1-C , 10-H ) :   0.1966 B(  1-C , 11-H ) :   0.2115
B(  1-C , 12-H ) :   0.2085 B(  2-C ,  3-H ) :   0.8715 B(  2-C ,  4-H ) :   0.9105
B(  2-C ,  5-C ) :   1.0246 B(  2-C ,  6-H ) :   0.1172 B(  3-H ,  5-C ) :   0.1370
B(  4-H ,  5-C ) :   0.1004 B(  5-C ,  8-O ) :   1.4724 B(  5-C ,  9-O ) :   1.4388

Dispersion correction           -0.012355711
FINAL SINGLE POINT ENERGY      -307.000088354740

DIPOLE MOMENT
-------------
                                X             Y             Z
Electronic contribution:      4.98168      -2.53826       4.51618
Nuclear contribution   :     -6.63819       2.74067      -6.05656
                        -----------------------------------------
Total Dipole Moment    :     -1.65651       0.20241      -1.54038
                        -----------------------------------------
Magnitude (a.u.)       :      2.27108
Magnitude (Debye)      :      5.77262

Rotational constants in cm-1:     0.190880     0.089683     0.076466
Rotational constants in MHz :  5722.446013  2688.617255  2292.390699

                             ****ORCA TERMINATED NORMALLY****
TOTAL RUN TIME: 0 days 0 hours 0 minutes 10 seconds 349 msec
