                         Program Version 5.0.0 -  RELEASE  -
|  1> !TPSS D3BJ RIJCOSX def2-SVPD def2/J TightSCF
|  2> *xyz 1 1
|  3> C          3.34350        3.35457       -3.59200
|  4> C          2.95263        1.86308       -3.57485
|  5> C          4.12921        0.89839       -3.41895
|  6> C          4.25587        3.70385       -4.72605
|  7> N          3.73403        4.29378       -5.80077
|  8> N          5.51504        3.40725       -4.63718
|  9> H          6.14919        3.60120       -5.39905
| 10> H          5.81358        2.89950       -3.80879
| 11> H          2.74138        4.51311       -5.82470
| 12> H          4.28755        4.52126       -6.61434
| 13> H          2.27894        1.73525       -2.72550
| 14> H          2.37747        1.62579       -4.47587
| 15> H          3.86125        3.59725       -2.66298
| 16> H          2.44649        3.97346       -3.65656
| 17> H          4.79753        1.01430       -4.24649
| 18> H          3.76482       -0.10731       -3.39293
| 19> H          4.64840        1.11330       -2.50837
| 20> *
| 21> %MaxCore 64000
| 22>
| 23> %pal nprocs 4
| 24> end
| 25>
| 26> %scf
| 27>   MaxIter 150
| 28> end
| 29>
| 30>
| 31>                          ****END OF INPUT****

CARTESIAN COORDINATES (ANGSTROEM)
---------------------------------
  C      3.343500    3.354570   -3.592000
  C      2.952630    1.863080   -3.574850
  C      4.129210    0.898390   -3.418950
  C      4.255870    3.703850   -4.726050
  N      3.734030    4.293780   -5.800770
  N      5.515040    3.407250   -4.637180
  H      6.149190    3.601200   -5.399050
  H      5.813580    2.899500   -3.808790
  H      2.741380    4.513110   -5.824700
  H      4.287550    4.521260   -6.614340
  H      2.278940    1.735250   -2.725500
  H      2.377470    1.625790   -4.475870
  H      3.861250    3.597250   -2.662980
  H      2.446490    3.973460   -3.656560
  H      4.797530    1.014300   -4.246490
  H      3.764820   -0.107310   -3.392930
  H      4.648400    1.113300   -2.508370

 Total Charge           Charge          ....    1
 Multiplicity           Mult            ....    1
 Number of Electrons    NEL             ....   48
 Basis Dimension        Dim             ....  208

ORBITAL ENERGIES
----------------

  NO   OCC          E(Eh)            E(eV)
   0   2.0000     -14.362261      -390.8170
   1   2.0000     -14.358570      -390.7166
   2   2.0000     -10.307242      -280.4743
   3   2.0000     -10.194731      -277.4127
   4   2.0000     -10.163683      -276.5679
   5   2.0000     -10.135515      -275.8014
   6   2.0000      -1.126750       -30.6604
   7   2.0000      -1.038107       -28.2483
   8   2.0000      -0.909252       -24.7420
   9   2.0000      -0.831086       -22.6150
  10   2.0000      -0.777776       -21.1644
  11   2.0000      -0.739274       -20.1167
  12   2.0000      -0.723835       -19.6966
  13   2.0000      -0.684082       -18.6148
  14   2.0000      -0.657478       -17.8909
  15   2.0000      -0.608362       -16.5544
  16   2.0000      -0.579415       -15.7667
  17   2.0000      -0.567628       -15.4459
  18   2.0000      -0.535024       -14.5587
  19   2.0000      -0.522608       -14.2209
  20   2.0000      -0.473309       -12.8794
  21   2.0000      -0.466679       -12.6990
  22   2.0000      -0.463682       -12.6174
  23   2.0000      -0.448930       -12.2160
  24   0.0000      -0.233538        -6.3549
  25   0.0000      -0.168546        -4.5864
  26   0.0000      -0.127426        -3.4674
  27   0.0000      -0.124527        -3.3886
  28   0.0000      -0.101818        -2.7706

MULLIKEN ATOMIC CHARGES
-----------------------
   0 C :    0.015680
   1 C :   -0.290371
   2 C :    0.670174
   3 C :    0.898918
   4 N :   -0.084535
   5 N :    0.031458
   6 H :   -0.125711
   7 H :    0.102052
   8 H :    0.051302
   9 H :   -0.112055
  10 H :    0.003926
  11 H :   -0.043461
  12 H :    0.072235
  13 H :   -0.027965
  14 H :   -0.047760
  15 H :   -0.133144
  16 H :    0.019258
Sum of atomic charges:    1.0000000

LOEWDIN ATOMIC CHARGES
----------------------
   0 C :    0.053919
   1 C :   -0.024032
   2 C :    0.145861
   3 C :   -0.043599
   4 N :    0.284734
   5 N :    0.292812
   6 H :    0.054565
   7 H :    0.044931
   8 H :    0.050834
   9 H :    0.041727
  10 H :    0.036430
  11 H :    0.030197
  12 H :    0.043451
  13 H :    0.034762
  14 H :   -0.037121
  15 H :   -0.000701
  16 H :   -0.008769

  Mayer bond orders larger than 0.100000
B(  0-C ,  1-C ) :   1.1917 B(  0-C ,  3-C ) :   1.0345 B(  0-C ,  4-N ) :   0.1133
B(  0-C ,  5-N ) :   0.1212 B(  0-C , 10-H ) :   0.1049 B(  0-C , 12-H ) :   0.8488
B(  0-C , 13-H ) :   0.9172 B(  1-C ,  2-C ) :   1.3120 B(  1-C , 10-H ) :   0.9066
B(  1-C , 11-H ) :   0.9912 B(  1-C , 12-H ) :   0.1167 B(  1-C , 13-H ) :   0.1068
B(  1-C , 14-H ) :   0.1897 B(  1-C , 15-H ) :   0.1981 B(  1-C , 16-H ) :   0.1921
B(  2-C , 14-H ) :   0.8191 B(  2-C , 15-H ) :   0.8435 B(  2-C , 16-H ) :   0.7938
B(  3-C ,  4-N ) :   0.9574 B(  3-C ,  5-N ) :   1.0892 B(  3-C ,  6-H ) :  -0.2105
B(  3-C ,  9-H ) :  -0.1881 B(  4-N ,  5-N ) :   0.1947 B(  4-N ,  8-H ) :   1.0966
B(  4-N ,  9-H ) :   1.3225 B(  5-N ,  6-H ) :   1.3858 B(  5-N ,  7-H ) :   0.9907
B(  6-H ,  7-H ) :  -0.1912 B(  8-H ,  9-H ) :  -0.1750

Dispersion correction           -0.017083006
FINAL SINGLE POINT ENERGY      -268.227003008297

DIPOLE MOMENT
-------------
                                X             Y             Z
Electronic contribution:      1.42769       4.41360      -2.94310
Nuclear contribution   :     -0.87169      -3.40560       1.97790
                        -----------------------------------------
Total Dipole Moment    :      0.55599       1.00800      -0.96519
                        -----------------------------------------
Magnitude (a.u.)       :      1.50226
Magnitude (Debye)      :      3.81845

Rotational constants in cm-1:     0.188632     0.081113     0.066356
Rotational constants in MHz :  5655.057814  2431.708101  1989.304146

                             ****ORCA TERMINATED NORMALLY****
TOTAL RUN TIME: 0 days 0 hours 0 minutes 12 seconds 179 msec
