                         Program Version 5.0.0 -  RELEASE  -
|  1> !TPSS D3BJ RIJCOSX def2-SVPD def2/J TightSCF
|  2> *xyz 0 1
|  3> C          3.34350        3.35457       -3.59200
|  4> C          2.95263        1.86308       -3.57485
|  5> C          4.12921        0.89839       -3.41895
|  6> H          3.73369       -0.10060       -3.23763
|  7> H          4.71910        0.86256       -4.33901
|  8> C          5.01734        1.31521       -2.22130
|  9> H          2.27894        1.73525       -2.72550
| 10> H          2.37747        1.62579       -4.47587
| 11> F          4.73706        0.85411       -1.12283
| 12> O          5.92815        2.16811       -2.49136
| 13> H          4.00801        3.53975       -4.40994
| 14> H          3.83025        3.60631       -2.67298
| 15> H          2.46347        3.95263       -3.70497
| 16> *
| 17> %MaxCore 64000
| 18>
| 19> %pal nprocs 4
| 20> end
| 21>
| 22> %scf
| 23>   MaxIter 150
| 24> end
| 25>
| 26>
| 27>                          ****END OF INPUT****

CARTESIAN COORDINATES (ANGSTROEM)
---------------------------------
  C      3.343500    3.354570   -3.592000
  C      2.952630    1.863080   -3.574850
  C      4.129210    0.898390   -3.418950
  H      3.733690   -0.100600   -3.237630
  H      4.719100    0.862560   -4.339010
  C      5.017340    1.315210   -2.221300
  H      2.278940    1.735250   -2.725500
  H      2.377470    1.625790   -4.475870
  F      4.737060    0.854110   -1.122830
  O      5.928150    2.168110   -2.491360
  H      4.008010    3.539750   -4.409940
  H      3.830250    3.606310   -2.672980
  H      2.463470    3.952630   -3.704970

 Total Charge           Charge          ....    0
 Multiplicity           Mult            ....    1
 Number of Electrons    NEL             ....   48
 Basis Dimension        Dim             ....  182

ORBITAL ENERGIES
----------------

  NO   OCC          E(Eh)            E(eV)
   0   2.0000     -24.510054      -666.9525
   1   2.0000     -18.903390      -514.3874
   2   2.0000     -10.173301      -276.8296
   3   2.0000     -10.030194      -272.9355
   4   2.0000     -10.019139      -272.6346
   5   2.0000      -9.990994      -271.8688
   6   2.0000      -1.250445       -34.0264
   7   2.0000      -0.942799       -25.6549
   8   2.0000      -0.747954       -20.3529
   9   2.0000      -0.665267       -18.1028
  10   2.0000      -0.612962       -16.6796
  11   2.0000      -0.560758       -15.2590
  12   2.0000      -0.510658       -13.8957
  13   2.0000      -0.492645       -13.4056
  14   2.0000      -0.451998       -12.2995
  15   2.0000      -0.427117       -11.6224
  16   2.0000      -0.412006       -11.2113
  17   2.0000      -0.376041       -10.2326
  18   2.0000      -0.352119        -9.5817
  19   2.0000      -0.329747        -8.9729
  20   2.0000      -0.323311        -8.7977
  21   2.0000      -0.314158        -8.5487
  22   2.0000      -0.303187        -8.2501
  23   2.0000      -0.241707        -6.5772
  24   0.0000      -0.065951        -1.7946
  25   0.0000       0.002977         0.0810
  26   0.0000       0.034169         0.9298
  27   0.0000       0.038997         1.0612
  28   0.0000       0.045585         1.2404

MULLIKEN ATOMIC CHARGES
-----------------------
   0 C :    0.623171
   1 C :   -0.429695
   2 C :    0.091930
   3 H :    0.030621
   4 H :    0.026784
   5 C :    0.796956
   6 H :   -0.006214
   7 H :   -0.125170
   8 F :   -0.351324
   9 O :   -0.540869
  10 H :   -0.014676
  11 H :    0.009760
  12 H :   -0.111275
Sum of atomic charges:    0.0000000

LOEWDIN ATOMIC CHARGES
----------------------
   0 C :    0.140620
   1 C :   -0.052974
   2 C :    0.051015
   3 H :    0.015579
   4 H :    0.033007
   5 C :   -0.016580
   6 H :    0.016806
   7 H :    0.020681
   8 F :   -0.000582
   9 O :   -0.144060
  10 H :   -0.012997
  11 H :   -0.028549
  12 H :   -0.021966

  Mayer bond orders larger than 0.100000
B(  0-C ,  1-C ) :   1.3225 B(  0-C , 10-H ) :   0.8103 B(  0-C , 11-H ) :   0.8216
B(  0-C , 12-H ) :   0.8106 B(  1-C ,  2-C ) :   1.2060 B(  1-C ,  3-H ) :   0.1368
B(  1-C ,  4-H ) :   0.1338 B(  1-C ,  6-H ) :   0.9208 B(  1-C ,  7-H ) :   0.9924
B(  1-C , 10-H ) :   0.1866 B(  1-C , 11-H ) :   0.1943 B(  1-C , 12-H ) :   0.1956
B(  2-C ,  3-H ) :   0.8605 B(  2-C ,  4-H ) :   0.9092 B(  2-C ,  5-C ) :   1.0370
B(  5-C ,  8-F ) :   0.7073 B(  5-C ,  9-O ) :   1.7149 B(  8-F ,  9-O ) :   0.1110

Dispersion correction           -0.011859728
FINAL SINGLE POINT ENERGY      -331.524130797041

DIPOLE MOMENT
-------------
                                X             Y             Z
Electronic contribution:      6.09816      -4.34191       7.59186
Nuclear contribution   :     -7.06456       3.75953      -7.86734
                        -----------------------------------------
Total Dipole Moment    :     -0.96639      -0.58237      -0.27548
                        -----------------------------------------
Magnitude (a.u.)       :      1.16145
Magnitude (Debye)      :      2.95217

Rotational constants in cm-1:     0.185871     0.085512     0.073500
Rotational constants in MHz :  5572.269993  2563.593529  2203.466497

                             ****ORCA TERMINATED NORMALLY****
TOTAL RUN TIME: 0 days 0 hours 0 minutes 9 seconds 851 msec
