                         Program Version 5.0.0 -  RELEASE  -
|  1> !TPSS D3BJ RIJCOSX def2-SVPD def2/J TightSCF
|  2> *xyz 0 1
|  3> C          3.34350        3.35457       -3.59200
|  4> C          2.95263        1.86308       -3.57485
|  5> C          4.12921        0.89839       -3.41895
|  6> C          4.25587        3.70385       -4.72605
|  7> C          3.73403        4.29378       -5.80077
|  8> N          5.51504        3.40725       -4.63718
|  9> H          6.14919        3.60120       -5.39905
| 10> H          5.81358        2.89950       -3.80879
| 11> H          2.74138        4.51311       -5.82470
| 12> H          4.28755        4.52126       -6.61434
| 13> H          2.27894        1.73525       -2.72550
| 14> H          2.37747        1.62579       -4.47587
| 15> H          3.86125        3.59725       -2.66298
| 16> H          2.44649        3.97346       -3.65656
| 17> H          4.79753        1.01430       -4.24649
| 18> H          3.76482       -0.10731       -3.39293
| 19> H          4.64840        1.11330       -2.50837
| 20> *
| 21> %MaxCore 64000
| 22>
| 23> %pal nprocs 4
| 24> end
| 25>
| 26> %scf
| 27>   MaxIter 150
| 28> end
| 29>
| 30>
| 31>                          ****END OF INPUT****

CARTESIAN COORDINATES (ANGSTROEM)
---------------------------------
  C      3.343500    3.354570   -3.592000
  C      2.952630    1.863080   -3.574850
  C      4.129210    0.898390   -3.418950
  C      4.255870    3.703850   -4.726050
  C      3.734030    4.293780   -5.800770
  N      5.515040    3.407250   -4.637180
  H      6.149190    3.601200   -5.399050
  H      5.813580    2.899500   -3.808790
  H      2.741380    4.513110   -5.824700
  H      4.287550    4.521260   -6.614340
  H      2.278940    1.735250   -2.725500
  H      2.377470    1.625790   -4.475870
  H      3.861250    3.597250   -2.662980
  H      2.446490    3.973460   -3.656560
  H      4.797530    1.014300   -4.246490
  H      3.764820   -0.107310   -3.392930
  H      4.648400    1.113300   -2.508370

 Total Charge           Charge          ....    0
 Multiplicity           Mult            ....    1
 Number of Electrons    NEL             ....   48
 Basis Dimension        Dim             ....  208

ORBITAL ENERGIES
----------------

  NO   OCC          E(Eh)            E(eV)
   0   2.0000     -14.122079      -384.2813
   1   2.0000     -10.011742      -272.4333
   2   2.0000      -9.998462      -272.0720
   3   2.0000      -9.998119      -272.0626
   4   2.0000      -9.988523      -271.8015
   5   2.0000      -9.931528      -270.2506
   6   2.0000      -0.865332       -23.5469
   7   2.0000      -0.728304       -19.8181
   8   2.0000      -0.673020       -18.3138
   9   2.0000      -0.620782       -16.8923
  10   2.0000      -0.555115       -15.1055
  11   2.0000      -0.515402       -14.0248
  12   2.0000      -0.484257       -13.1773
  13   2.0000      -0.440288       -11.9809
  14   2.0000      -0.408672       -11.1205
  15   2.0000      -0.392803       -10.6887
  16   2.0000      -0.371308       -10.1038
  17   2.0000      -0.350692        -9.5428
  18   2.0000      -0.335741        -9.1360
  19   2.0000      -0.323444        -8.8014
  20   2.0000      -0.304251        -8.2791
  21   2.0000      -0.288091        -7.8394
  22   2.0000      -0.287483        -7.8228
  23   2.0000      -0.155838        -4.2406
  24   0.0000       0.004179         0.1137
  25   0.0000       0.022008         0.5989
  26   0.0000       0.035957         0.9784
  27   0.0000       0.039101         1.0640
  28   0.0000       0.054379         1.4797

MULLIKEN ATOMIC CHARGES
-----------------------
   0 C :    0.228061
   1 C :   -0.312449
   2 C :    0.646754
   3 C :   -0.021096
   4 C :    0.337184
   5 N :    0.182433
   6 H :   -0.199018
   7 H :   -0.050847
   8 H :   -0.094256
   9 H :   -0.449267
  10 H :   -0.028285
  11 H :   -0.078400
  12 H :   -0.029593
  13 H :    0.047730
  14 H :   -0.032596
  15 H :   -0.155152
  16 H :    0.008797
Sum of atomic charges:   -0.0000000

LOEWDIN ATOMIC CHARGES
----------------------
   0 C :    0.013002
   1 C :   -0.048443
   2 C :    0.123959
   3 C :   -0.262752
   4 C :    0.182024
   5 N :    0.178492
   6 H :    0.015749
   7 H :   -0.002355
   8 H :   -0.086793
   9 H :   -0.093973
  10 H :    0.011084
  11 H :    0.020082
  12 H :    0.016009
  13 H :    0.019035
  14 H :   -0.039696
  15 H :   -0.023328
  16 H :   -0.022095

  Mayer bond orders larger than 0.100000
B(  0-C ,  1-C ) :   1.1627 B(  0-C ,  3-C ) :   1.1117 B(  0-C ,  4-C ) :   0.1573
B(  0-C ,  5-N ) :   0.1352 B(  0-C , 11-H ) :   0.1204 B(  0-C , 12-H ) :   0.7713
B(  0-C , 13-H ) :   0.8565 B(  1-C ,  2-C ) :   1.2916 B(  1-C , 10-H ) :   0.9045
B(  1-C , 11-H ) :   1.0046 B(  1-C , 12-H ) :   0.1301 B(  1-C , 13-H ) :   0.1130
B(  1-C , 14-H ) :   0.1975 B(  1-C , 15-H ) :   0.2080 B(  1-C , 16-H ) :   0.1996
B(  2-C , 14-H ) :   0.8360 B(  2-C , 15-H ) :   0.8253 B(  2-C , 16-H ) :   0.7884
B(  3-C ,  4-C ) :   1.6035 B(  3-C ,  5-N ) :   1.1475 B(  3-C ,  6-H ) :  -0.1200
B(  3-C ,  9-H ) :   0.1666 B(  3-C , 12-H ) :   0.1599 B(  3-C , 13-H ) :   0.1294
B(  4-C ,  5-N ) :   0.3068 B(  4-C ,  8-H ) :   0.9685 B(  4-C ,  9-H ) :   0.7321
B(  5-N ,  6-H ) :   1.3445 B(  5-N ,  7-H ) :   0.9921 B(  6-H ,  7-H ) :  -0.1635

Dispersion correction           -0.017624032
FINAL SINGLE POINT ENERGY      -251.763141180359

DIPOLE MOMENT
-------------
                                X             Y             Z
Electronic contribution:      1.45260       2.66811      -1.23620
Nuclear contribution   :     -0.93682      -3.08083       1.62582
                        -----------------------------------------
Total Dipole Moment    :      0.51578      -0.41272       0.38962
                        -----------------------------------------
Magnitude (a.u.)       :      0.76692
Magnitude (Debye)      :      1.94937

Rotational constants in cm-1:     0.191400     0.084268     0.068511
Rotational constants in MHz :  5738.038424  2526.291061  2053.912421

                             ****ORCA TERMINATED NORMALLY****
TOTAL RUN TIME: 0 days 0 hours 0 minutes 13 seconds 644 msec
