                         Program Version 5.0.0 -  RELEASE  -
|  1> !TPSS D3BJ RIJCOSX def2-SVPD def2/J TightSCF
|  2> *xyz 0 1
|  3> C          3.34350        3.35457       -3.59200
|  4> C          2.95263        1.86308       -3.57485
|  5> C          4.12921        0.89839       -3.41895
|  6> H          3.73369       -0.10060       -3.23763
|  7> H          4.71910        0.86256       -4.33901
|  8> C          5.01734        1.31521       -2.22130
|  9> H          2.27894        1.73525       -2.72550
| 10> H          2.37747        1.62579       -4.47587
| 11> O          4.73706        0.85411       -1.12283
| 12> F          5.92815        2.16811       -2.49136
| 13> H          4.00801        3.53975       -4.40994
| 14> H          3.83025        3.60631       -2.67298
| 15> H          2.46347        3.95263       -3.70497
| 16> *
| 17> %MaxCore 64000
| 18>
| 19> %pal nprocs 4
| 20> end
| 21>
| 22> %scf
| 23>   MaxIter 150
| 24> end
| 25>
| 26>
| 27>                          ****END OF INPUT****

CARTESIAN COORDINATES (ANGSTROEM)
---------------------------------
  C      3.343500    3.354570   -3.592000
  C      2.952630    1.863080   -3.574850
  C      4.129210    0.898390   -3.418950
  H      3.733690   -0.100600   -3.237630
  H      4.719100    0.862560   -4.339010
  C      5.017340    1.315210   -2.221300
  H      2.278940    1.735250   -2.725500
  H      2.377470    1.625790   -4.475870
  O      4.737060    0.854110   -1.122830
  F      5.928150    2.168110   -2.491360
  H      4.008010    3.539750   -4.409940
  H      3.830250    3.606310   -2.672980
  H      2.463470    3.952630   -3.704970

 Total Charge           Charge          ....    0
 Multiplicity           Mult            ....    1
 Number of Electrons    NEL             ....   48
 Basis Dimension        Dim             ....  182

ORBITAL ENERGIES
----------------

  NO   OCC          E(Eh)            E(eV)
   0   2.0000     -24.489107      -666.3825
   1   2.0000     -18.912346      -514.6311
   2   2.0000     -10.169228      -276.7188
   3   2.0000     -10.029722      -272.9226
   4   2.0000     -10.019612      -272.6475
   5   2.0000      -9.999428      -272.0983
   6   2.0000      -1.210375       -32.9360
   7   2.0000      -0.974389       -26.5145
   8   2.0000      -0.750049       -20.4099
   9   2.0000      -0.665617       -18.1124
  10   2.0000      -0.598526       -16.2867
  11   2.0000      -0.558202       -15.1895
  12   2.0000      -0.492015       -13.3884
  13   2.0000      -0.474350       -12.9077
  14   2.0000      -0.455915       -12.4061
  15   2.0000      -0.420820       -11.4511
  16   2.0000      -0.412115       -11.2142
  17   2.0000      -0.381159       -10.3719
  18   2.0000      -0.363522        -9.8919
  19   2.0000      -0.345718        -9.4075
  20   2.0000      -0.323571        -8.8048
  21   2.0000      -0.317105        -8.6289
  22   2.0000      -0.312763        -8.5107
  23   2.0000      -0.253787        -6.9059
  24   0.0000      -0.060536        -1.6473
  25   0.0000       0.004922         0.1339
  26   0.0000       0.033407         0.9090
  27   0.0000       0.036406         0.9907
  28   0.0000       0.048441         1.3181

MULLIKEN ATOMIC CHARGES
-----------------------
   0 C :    0.604945
   1 C :   -0.402187
   2 C :    0.081055
   3 H :    0.031614
   4 H :    0.031868
   5 C :    0.801149
   6 H :    0.014081
   7 H :   -0.128673
   8 O :   -0.490234
   9 F :   -0.401385
  10 H :   -0.026464
  11 H :   -0.011866
  12 H :   -0.103902
Sum of atomic charges:    0.0000000

LOEWDIN ATOMIC CHARGES
----------------------
   0 C :    0.138714
   1 C :   -0.050563
   2 C :    0.052500
   3 H :    0.026612
   4 H :    0.022978
   5 C :   -0.018697
   6 H :    0.022987
   7 H :    0.020354
   8 O :   -0.107721
   9 F :   -0.043607
  10 H :   -0.016998
  11 H :   -0.026603
  12 H :   -0.019956

  Mayer bond orders larger than 0.100000
B(  0-C ,  1-C ) :   1.3278 B(  0-C , 10-H ) :   0.8074 B(  0-C , 11-H ) :   0.8285
B(  0-C , 12-H ) :   0.8142 B(  1-C ,  2-C ) :   1.2198 B(  1-C ,  3-H ) :   0.1322
B(  1-C ,  4-H ) :   0.1329 B(  1-C ,  6-H ) :   0.9201 B(  1-C ,  7-H ) :   0.9955
B(  1-C , 10-H ) :   0.1830 B(  1-C , 11-H ) :   0.1907 B(  1-C , 12-H ) :   0.1947
B(  2-C ,  3-H ) :   0.8708 B(  2-C ,  4-H ) :   0.9008 B(  2-C ,  5-C ) :   1.0212
B(  2-C ,  6-H ) :   0.1051 B(  3-H ,  5-C ) :   0.1059 B(  5-C ,  8-O ) :   1.7580
B(  5-C ,  9-F ) :   0.6451 B(  8-O ,  9-F ) :   0.1190

Dispersion correction           -0.011801680
FINAL SINGLE POINT ENERGY      -331.540022021304

DIPOLE MOMENT
-------------
                                X             Y             Z
Electronic contribution:      8.06628      -2.12513       5.26828
Nuclear contribution   :     -8.40998       2.27527      -6.32148
                        -----------------------------------------
Total Dipole Moment    :     -0.34370       0.15015      -1.05320
                        -----------------------------------------
Magnitude (a.u.)       :      1.11799
Magnitude (Debye)      :      2.84171

Rotational constants in cm-1:     0.181105     0.088112     0.073966
Rotational constants in MHz :  5429.384816  2641.525058  2217.445966

                             ****ORCA TERMINATED NORMALLY****
TOTAL RUN TIME: 0 days 0 hours 0 minutes 9 seconds 166 msec
