                         Program Version 5.0.0 -  RELEASE  -
|  1> !TPSS D3BJ RIJCOSX def2-SVPD def2/J TightSCF
|  2> *xyz 0 1
|  3> C          3.34350        3.35457       -3.59200
|  4> C          2.95263        1.86308       -3.57485
|  5> C          4.12921        0.89839       -3.41895
|  6> C          4.25587        3.70385       -4.72605
|  7> N          3.73403        4.29378       -5.80077
|  8> C          5.51504        3.40725       -4.63718
|  9> H          6.14919        3.60120       -5.39905
| 10> H          5.81358        2.89950       -3.80879
| 11> H          2.74138        4.51311       -5.82470
| 12> H          4.28755        4.52126       -6.61434
| 13> H          2.27894        1.73525       -2.72550
| 14> H          2.37747        1.62579       -4.47587
| 15> H          3.86125        3.59725       -2.66298
| 16> H          2.44649        3.97346       -3.65656
| 17> H          4.79753        1.01430       -4.24649
| 18> H          3.76482       -0.10731       -3.39293
| 19> H          4.64840        1.11330       -2.50837
| 20> *
| 21> %MaxCore 64000
| 22>
| 23> %pal nprocs 4
| 24> end
| 25>
| 26> %scf
| 27>   MaxIter 150
| 28> end
| 29>
| 30>
| 31>                          ****END OF INPUT****

CARTESIAN COORDINATES (ANGSTROEM)
---------------------------------
  C      3.343500    3.354570   -3.592000
  C      2.952630    1.863080   -3.574850
  C      4.129210    0.898390   -3.418950
  C      4.255870    3.703850   -4.726050
  N      3.734030    4.293780   -5.800770
  C      5.515040    3.407250   -4.637180
  H      6.149190    3.601200   -5.399050
  H      5.813580    2.899500   -3.808790
  H      2.741380    4.513110   -5.824700
  H      4.287550    4.521260   -6.614340
  H      2.278940    1.735250   -2.725500
  H      2.377470    1.625790   -4.475870
  H      3.861250    3.597250   -2.662980
  H      2.446490    3.973460   -3.656560
  H      4.797530    1.014300   -4.246490
  H      3.764820   -0.107310   -3.392930
  H      4.648400    1.113300   -2.508370

 Total Charge           Charge          ....    0
 Multiplicity           Mult            ....    1
 Number of Electrons    NEL             ....   48
 Basis Dimension        Dim             ....  208

ORBITAL ENERGIES
----------------

  NO   OCC          E(Eh)            E(eV)
   0   2.0000     -14.118937      -384.1958
   1   2.0000     -10.009544      -272.3735
   2   2.0000      -9.998001      -272.0594
   3   2.0000      -9.996073      -272.0070
   4   2.0000      -9.976874      -271.4845
   5   2.0000      -9.930533      -270.2235
   6   2.0000      -0.851150       -23.1610
   7   2.0000      -0.728845       -19.8329
   8   2.0000      -0.669060       -18.2060
   9   2.0000      -0.626821       -17.0567
  10   2.0000      -0.544670       -14.8212
  11   2.0000      -0.513609       -13.9760
  12   2.0000      -0.475475       -12.9383
  13   2.0000      -0.435333       -11.8460
  14   2.0000      -0.410153       -11.1608
  15   2.0000      -0.392244       -10.6735
  16   2.0000      -0.355703        -9.6792
  17   2.0000      -0.352542        -9.5932
  18   2.0000      -0.335567        -9.1312
  19   2.0000      -0.320512        -8.7216
  20   2.0000      -0.299517        -8.1503
  21   2.0000      -0.286274        -7.7899
  22   2.0000      -0.281361        -7.6562
  23   2.0000      -0.160381        -4.3642
  24   0.0000       0.004792         0.1304
  25   0.0000       0.022275         0.6061
  26   0.0000       0.035290         0.9603
  27   0.0000       0.041729         1.1355
  28   0.0000       0.056802         1.5457

MULLIKEN ATOMIC CHARGES
-----------------------
   0 C :    0.204042
   1 C :   -0.299592
   2 C :    0.601673
   3 C :    0.170435
   4 N :    0.001956
   5 C :    0.302865
   6 H :   -0.577919
   7 H :    0.132645
   8 H :   -0.088258
   9 H :   -0.175143
  10 H :   -0.032952
  11 H :   -0.076823
  12 H :    0.101508
  13 H :   -0.117172
  14 H :    0.017661
  15 H :   -0.193952
  16 H :    0.029026
Sum of atomic charges:    0.0000000

LOEWDIN ATOMIC CHARGES
----------------------
   0 C :    0.012675
   1 C :   -0.050103
   2 C :    0.127158
   3 C :   -0.247420
   4 N :    0.173147
   5 C :    0.169864
   6 H :   -0.080280
   7 H :   -0.078252
   8 H :   -0.004400
   9 H :    0.001156
  10 H :    0.010740
  11 H :    0.016013
  12 H :    0.023618
  13 H :    0.007842
  14 H :   -0.038636
  15 H :   -0.025413
  16 H :   -0.017709

  Mayer bond orders larger than 0.100000
B(  0-C ,  1-C ) :   1.1791 B(  0-C ,  3-C ) :   0.9823 B(  0-C ,  4-N ) :   0.1367
B(  0-C ,  5-C ) :   0.2158 B(  0-C , 10-H ) :   0.1175 B(  0-C , 11-H ) :   0.1150
B(  0-C , 12-H ) :   0.8014 B(  0-C , 13-H ) :   0.8700 B(  1-C ,  2-C ) :   1.3058
B(  1-C , 10-H ) :   0.8768 B(  1-C , 11-H ) :   0.9838 B(  1-C , 12-H ) :   0.1304
B(  1-C , 13-H ) :   0.1233 B(  1-C , 14-H ) :   0.1970 B(  1-C , 15-H ) :   0.2152
B(  1-C , 16-H ) :   0.1939 B(  2-C , 10-H ) :   0.1007 B(  2-C , 14-H ) :   0.8222
B(  2-C , 15-H ) :   0.8555 B(  2-C , 16-H ) :   0.7905 B(  3-C ,  4-N ) :   1.0690
B(  3-C ,  5-C ) :   1.7676 B(  3-C ,  6-H ) :   0.2067 B(  3-C ,  7-H ) :   0.2139
B(  3-C ,  9-H ) :  -0.1138 B(  3-C , 13-H ) :   0.1108 B(  4-N ,  5-C ) :   0.2733
B(  4-N ,  8-H ) :   1.1387 B(  4-N ,  9-H ) :   1.3112 B(  5-C ,  6-H ) :   0.8498
B(  5-C ,  7-H ) :   0.6728 B(  6-H ,  7-H ) :  -0.1390 B(  8-H ,  9-H ) :  -0.1542

Dispersion correction           -0.017695445
FINAL SINGLE POINT ENERGY      -251.762678725392

DIPOLE MOMENT
-------------
                                X             Y             Z
Electronic contribution:     -0.06153       3.48473      -2.25159
Nuclear contribution   :     -0.51555      -3.29052       1.90104
                        -----------------------------------------
Total Dipole Moment    :     -0.57708       0.19421      -0.35055
                        -----------------------------------------
Magnitude (a.u.)       :      0.70259
Magnitude (Debye)      :      1.78584

Rotational constants in cm-1:     0.197086     0.081749     0.067746
Rotational constants in MHz :  5908.486274  2450.769911  2030.963952

                             ****ORCA TERMINATED NORMALLY****
TOTAL RUN TIME: 0 days 0 hours 0 minutes 13 seconds 437 msec
