                         Program Version 5.0.0 -  RELEASE  -
|  1> !TPSS D3BJ RIJCOSX def2-SVPD def2/J TightSCF xyzfile
|  2>
|  3> *xyzfile 0 1 D3.xyz
|  4>
|  5> %MaxCore 64000
|  6>
|  7> %pal nprocs 4
|  8> end
|  9>
| 10> %scf
| 11>   MaxIter 150
| 12> end
| 13>
| 14>
| 15>                          ****END OF INPUT****

CARTESIAN COORDINATES (ANGSTROEM)
---------------------------------
  C      3.343500    3.354571   -3.591998
  C      2.952633    1.863077   -3.574849
  C      4.129209    0.898394   -3.418950
  H      3.733687   -0.100605   -3.237633
  H      4.719095    0.862556   -4.339005
  C      5.017344    1.315212   -2.221305
  C      4.255868    3.703851   -4.726054
  C      3.734032    4.293783   -5.800770
  N      5.515039    3.407255   -4.637185
  H      6.149187    3.601203   -5.399053
  H      5.813584    2.899504   -3.808785
  H      2.741380    4.513109   -5.824701
  H      4.287548    4.521260   -6.614341
  H      2.278938    1.735250   -2.725496
  H      2.377466    1.625787   -4.475869
  O      4.737055    0.854112   -1.122825
  F      5.928146    2.168108   -2.491365
  H      3.861246    3.597252   -2.662979
  H      2.446493    3.973461   -3.656556

 Total Charge           Charge          ....    0
 Multiplicity           Mult            ....    1
 Number of Electrons    NEL             ....   70
 Basis Dimension        Dim             ....  266

ORBITAL ENERGIES
----------------

  NO   OCC          E(Eh)            E(eV)
   0   2.0000     -24.521100      -667.2530
   1   2.0000     -18.929135      -515.0880
   2   2.0000     -14.112446      -384.0192
   3   2.0000     -10.186640      -277.1926
   4   2.0000     -10.037694      -273.1395
   5   2.0000     -10.023535      -272.7543
   6   2.0000     -10.016219      -272.5552
   7   2.0000     -10.011757      -272.4338
   8   2.0000      -9.935457      -270.3575
   9   2.0000      -1.246899       -33.9298
  10   2.0000      -0.991007       -26.9667
  11   2.0000      -0.866015       -23.5655
  12   2.0000      -0.758693       -20.6451
  13   2.0000      -0.694710       -18.9040
  14   2.0000      -0.656838       -17.8735
  15   2.0000      -0.621254       -16.9052
  16   2.0000      -0.585453       -15.9310
  17   2.0000      -0.534463       -14.5435
  18   2.0000      -0.519023       -14.1233
  19   2.0000      -0.501621       -13.6498
  20   2.0000      -0.479602       -13.0506
  21   2.0000      -0.457917       -12.4605
  22   2.0000      -0.440531       -11.9875
  23   2.0000      -0.428094       -11.6490
  24   2.0000      -0.405939       -11.0462
  25   2.0000      -0.381245       -10.3742
  26   2.0000      -0.363868        -9.9013
  27   2.0000      -0.356856        -9.7105
  28   2.0000      -0.348430        -9.4813
  29   2.0000      -0.340374        -9.2620
  30   2.0000      -0.325732        -8.8636
  31   2.0000      -0.300380        -8.1738
  32   2.0000      -0.296858        -8.0779
  33   2.0000      -0.267820        -7.2877
  34   2.0000      -0.158973        -4.3259
  35   0.0000      -0.077346        -2.1047
  36   0.0000      -0.000277        -0.0075
  37   0.0000       0.014546         0.3958
  38   0.0000       0.028857         0.7852
  39   0.0000       0.030790         0.8378

MULLIKEN ATOMIC CHARGES
-----------------------
   0 C :    0.312991
   1 C :   -0.024696
   2 C :    0.104663
   3 H :   -0.136464
   4 H :    0.173257
   5 C :    0.802694
   6 C :    0.029635
   7 C :    0.228379
   8 N :    0.558758
   9 H :   -0.232608
  10 H :   -0.344770
  11 H :   -0.090046
  12 H :   -0.393498
  13 H :    0.078379
  14 H :   -0.117707
  15 O :   -0.468682
  16 F :   -0.484744
  17 H :    0.028890
  18 H :   -0.024427
Sum of atomic charges:    0.0000000

LOEWDIN ATOMIC CHARGES
----------------------
   0 C :    0.028999
   1 C :    0.009662
   2 C :    0.065454
   3 H :    0.027894
   4 H :    0.019744
   5 C :    0.008100
   6 C :   -0.248534
   7 C :    0.181627
   8 N :    0.203199
   9 H :    0.018737
  10 H :   -0.098194
  11 H :   -0.087677
  12 H :   -0.092179
  13 H :    0.024984
  14 H :    0.028846
  15 O :   -0.087290
  16 F :   -0.043399
  17 H :    0.015671
  18 H :    0.024355

  Mayer bond orders larger than 0.100000
B(  0-C ,  1-C ) :   1.1726 B(  0-C ,  6-C ) :   1.1113 B(  0-C ,  8-N ) :   0.1306
B(  0-C , 13-H ) :   0.1076 B(  0-C , 14-H ) :   0.1500 B(  0-C , 17-H ) :   0.6741
B(  0-C , 18-H ) :   0.8545 B(  1-C ,  2-C ) :   1.2819 B(  1-C ,  3-H ) :   0.1763
B(  1-C ,  4-H ) :   0.1480 B(  1-C , 13-H ) :   0.8483 B(  1-C , 14-H ) :   0.9658
B(  1-C , 17-H ) :   0.1509 B(  1-C , 18-H ) :   0.1399 B(  2-C ,  3-H ) :   0.8685
B(  2-C ,  4-H ) :   0.8190 B(  2-C ,  5-C ) :   1.0613 B(  2-C , 13-H ) :   0.1173
B(  2-C , 16-F ) :   0.1462 B(  3-H ,  5-C ) :   0.1247 B(  5-C , 15-O ) :   1.7470
B(  5-C , 16-F ) :   0.5557 B(  6-C ,  7-C ) :   1.5205 B(  6-C ,  8-N ) :   1.1167
B(  6-C ,  9-H ) :  -0.1410 B(  6-C , 12-H ) :   0.1685 B(  6-C , 17-H ) :   0.1665
B(  6-C , 18-H ) :   0.1420 B(  7-C ,  8-N ) :   0.2468 B(  7-C , 11-H ) :   0.9875
B(  7-C , 12-H ) :   0.7134 B(  8-N ,  9-H ) :   1.2952 B(  8-N , 10-H ) :   0.9308
B(  9-H , 10-H ) :  -0.2194 B( 15-O , 16-F ) :   0.1313

Dispersion correction           -0.023282824
FINAL SINGLE POINT ENERGY      -464.202811767225

DIPOLE MOMENT
-------------
                                X             Y             Z
Electronic contribution:      7.46796      -3.56793       8.05263
Nuclear contribution   :     -7.21688       3.18902      -8.52197
                        -----------------------------------------
Total Dipole Moment    :      0.25108      -0.37891      -0.46934
                        -----------------------------------------
Magnitude (a.u.)       :      0.65337
Magnitude (Debye)      :      1.66073

Rotational constants in cm-1:     0.103917     0.036987     0.030872
Rotational constants in MHz :  3115.342573  1108.839114   925.506342

                             ****ORCA TERMINATED NORMALLY****
TOTAL RUN TIME: 0 days 0 hours 0 minutes 25 seconds 310 msec
