                         Program Version 5.0.0 -  RELEASE  -
|  1> !CAM-B3LYP RIJCOSX def2-TZVPD def2/J TightSCF
|  2> *xyz -1 1
|  3> C         -1.10433        0.25137       -2.86006
|  4> C         -0.71189        0.84252       -4.21834
|  5> H          0.15463        1.49980       -4.13091
|  6> H         -1.53813        1.45922       -4.58267
|  7> C         -0.39762       -0.20587       -5.28802
|  8> O          0.61717       -0.00535       -5.99827
|  9> O         -1.13317       -1.22138       -5.34147
| 10> H         -1.95489       -0.38644       -2.98099
| 11> H         -1.34603        1.04362       -2.18269
| 12> H         -0.28606       -0.31581       -2.46809
| 13> *
| 14>
| 15> %MaxCore 64000
| 16>
| 17> %pal nprocs 4
| 18> end
| 19>
| 20> %scf
| 21>   MaxIter 150
| 22> end
| 23>
| 24>
| 25>                          ****END OF INPUT****

CARTESIAN COORDINATES (ANGSTROEM)
---------------------------------
  C     -1.104330    0.251370   -2.860060
  C     -0.711890    0.842520   -4.218340
  H      0.154630    1.499800   -4.130910
  H     -1.538130    1.459220   -4.582670
  C     -0.397620   -0.205870   -5.288020
  O      0.617170   -0.005350   -5.998270
  O     -1.133170   -1.221380   -5.341470
  H     -1.954890   -0.386440   -2.980990
  H     -1.346030    1.043620   -2.182690
  H     -0.286060   -0.315810   -2.468090

 Total Charge           Charge          ....   -1
 Multiplicity           Mult            ....    1
 Number of Electrons    NEL             ....   40
 Basis Dimension        Dim             ....  236

ORBITAL ENERGIES
----------------

  NO   OCC          E(Eh)            E(eV)
   0   2.0000     -18.934421      -515.2318
   1   2.0000     -18.933738      -515.2132
   2   2.0000     -10.129595      -275.6403
   3   2.0000     -10.078018      -274.2368
   4   2.0000     -10.069787      -274.0128
   5   2.0000      -0.903908       -24.5966
   6   2.0000      -0.809458       -22.0265
   7   2.0000      -0.687649       -18.7119
   8   2.0000      -0.553741       -15.0681
   9   2.0000      -0.392735       -10.6869
  10   2.0000      -0.364386        -9.9154
  11   2.0000      -0.331851        -9.0301
  12   2.0000      -0.299601        -8.1526
  13   2.0000      -0.283875        -7.7246
  14   2.0000      -0.276477        -7.5233
  15   2.0000      -0.246768        -6.7149
  16   2.0000      -0.228625        -6.2212
  17   2.0000      -0.113297        -3.0830
  18   2.0000      -0.108209        -2.9445
  19   2.0000      -0.096224        -2.6184
  20   0.0000       0.157695         4.2911
  21   0.0000       0.181472         4.9381
  22   0.0000       0.192468         5.2373
  23   0.0000       0.206746         5.6259
  24   0.0000       0.226785         6.1711

MULLIKEN ATOMIC CHARGES
-----------------------
   0 C :   -1.009843
   1 C :   -0.133396
   2 H :    0.212715
   3 H :    0.192634
   4 C :    0.331322
   5 O :   -0.719834
   6 O :   -0.712768
   7 H :    0.253816
   8 H :    0.299939
   9 H :    0.285416
Sum of atomic charges:   -1.0000000

LOEWDIN ATOMIC CHARGES
----------------------
   0 C :   -0.134897
   1 C :   -0.210953
   2 H :    0.088090
   3 H :    0.095183
   4 C :   -0.778975
   5 O :   -0.111673
   6 O :   -0.103257
   7 H :    0.053704
   8 H :    0.042467
   9 H :    0.060312

  Mayer bond orders larger than 0.100000
B(  0-C ,  1-C ) :   0.5512 B(  0-C ,  7-H ) :   1.0293 B(  0-C ,  8-H ) :   0.9441
B(  0-C ,  9-H ) :   0.9648 B(  1-C ,  2-H ) :   1.0219 B(  1-C ,  3-H ) :   0.9587
B(  1-C ,  4-C ) :   0.9286 B(  4-C ,  5-O ) :   1.4790 B(  4-C ,  6-O ) :   1.4898

FINAL SINGLE POINT ENERGY      -267.837161885761

DIPOLE MOMENT
-------------
                                X             Y             Z
Electronic contribution:      1.53425      -2.34490      -5.19234
Nuclear contribution   :     -2.09607       3.44215       6.87744
                        -----------------------------------------
Total Dipole Moment    :     -0.56182       1.09724       1.68510
                        -----------------------------------------
Magnitude (a.u.)       :      2.08786
Magnitude (Debye)      :      5.30691

Rotational constants in cm-1:     0.324698     0.133739     0.103466
Rotational constants in MHz :  9734.203431  4009.406827  3101.846422

                             ****ORCA TERMINATED NORMALLY****
TOTAL RUN TIME: 0 days 0 hours 0 minutes 48 seconds 553 msec
