                         Program Version 5.0.0 -  RELEASE  -
|  1> !CAM-B3LYP RIJCOSX def2-TZVPD def2/J TightSCF
|  2> *xyz 1 1
|  3> C          2.23447       -2.98975       -2.39762
|  4> N          2.75680       -2.94555       -3.76503
|  5> C          1.98721       -2.59045       -4.81898
|  6> N          0.74322       -3.01749       -4.91352
|  7> N          2.49964       -1.84860       -5.80324
|  8> H          3.30978       -1.29282       -5.55895
|  9> H          1.80103       -1.30430       -6.28913
| 10> H          3.71612       -2.62880       -3.82953
| 11> H          0.39583       -3.62775       -4.18502
| 12> H          0.03920       -2.45438       -5.37137
| 13> C          2.19120       -1.61950       -1.71549
| 14> H          2.87278       -3.66637       -1.82801
| 15> H          1.24619       -3.44744       -2.40784
| 16> H          1.56387       -0.96046       -2.27853
| 17> H          3.18033       -1.21449       -1.66568
| 18> H          1.79916       -1.72608       -0.72562
| 19> *
| 20>
| 21> %MaxCore 64000
| 22>
| 23> %pal nprocs 4
| 24> end
| 25>
| 26> %scf
| 27>   MaxIter 150
| 28> end
| 29>
| 30>
| 31>                          ****END OF INPUT****

CARTESIAN COORDINATES (ANGSTROEM)
---------------------------------
  C      2.234470   -2.989750   -2.397620
  N      2.756800   -2.945550   -3.765030
  C      1.987210   -2.590450   -4.818980
  N      0.743220   -3.017490   -4.913520
  N      2.499640   -1.848600   -5.803240
  H      3.309780   -1.292820   -5.558950
  H      1.801030   -1.304300   -6.289130
  H      3.716120   -2.628800   -3.829530
  H      0.395830   -3.627750   -4.185020
  H      0.039200   -2.454380   -5.371370
  C      2.191200   -1.619500   -1.715490
  H      2.872780   -3.666370   -1.828010
  H      1.246190   -3.447440   -2.407840
  H      1.563870   -0.960460   -2.278530
  H      3.180330   -1.214490   -1.665680
  H      1.799160   -1.726080   -0.725620

 Total Charge           Charge          ....    1
 Multiplicity           Mult            ....    1
 Number of Electrons    NEL             ....   48
 Basis Dimension        Dim             ....  312

ORBITAL ENERGIES
----------------

  NO   OCC          E(Eh)            E(eV)
   0   2.0000     -14.620092      -397.8329
   1   2.0000     -14.616267      -397.7289
   2   2.0000     -14.613259      -397.6470
   3   2.0000     -10.589114      -288.1444
   4   2.0000     -10.453539      -284.4553
   5   2.0000     -10.383695      -282.5547
   6   2.0000      -1.306897       -35.5625
   7   2.0000      -1.190416       -32.3929
   8   2.0000      -1.186139       -32.2765
   9   2.0000      -1.011633       -27.5279
  10   2.0000      -0.921692       -25.0805
  11   2.0000      -0.882709       -24.0197
  12   2.0000      -0.859719       -23.3941
  13   2.0000      -0.815171       -22.1819
  14   2.0000      -0.773562       -21.0497
  15   2.0000      -0.755695       -20.5635
  16   2.0000      -0.721029       -19.6202
  17   2.0000      -0.692827       -18.8528
  18   2.0000      -0.673461       -18.3258
  19   2.0000      -0.638473       -17.3737
  20   2.0000      -0.603446       -16.4206
  21   2.0000      -0.583825       -15.8867
  22   2.0000      -0.556120       -15.1328
  23   2.0000      -0.516227       -14.0472
  24   0.0000      -0.151861        -4.1323
  25   0.0000      -0.131217        -3.5706
  26   0.0000      -0.101890        -2.7726
  27   0.0000      -0.089266        -2.4291
  28   0.0000      -0.070074        -1.9068

MULLIKEN ATOMIC CHARGES
-----------------------
   0 C :   -0.418649
   1 N :   -0.171875
   2 C :    0.552999
   3 N :   -0.304123
   4 N :   -0.393930
   5 H :    0.246190
   6 H :    0.247359
   7 H :    0.223529
   8 H :    0.255658
   9 H :    0.237314
  10 C :   -1.113279
  11 H :    0.326052
  12 H :    0.289350
  13 H :    0.314728
  14 H :    0.342191
  15 H :    0.366486
Sum of atomic charges:    1.0000000

LOEWDIN ATOMIC CHARGES
----------------------
   0 C :   -0.209270
   1 N :    0.084588
   2 C :   -0.435608
   3 N :    0.225943
   4 N :    0.209828
   5 H :    0.136334
   6 H :    0.135696
   7 H :    0.158200
   8 H :    0.131418
   9 H :    0.146623
  10 C :   -0.056847
  11 H :    0.130410
  12 H :    0.109097
  13 H :    0.072215
  14 H :    0.077177
  15 H :    0.084195

  Mayer bond orders larger than 0.100000
B(  0-C ,  1-N ) :   0.7933 B(  0-C , 10-C ) :   0.6129 B(  0-C , 11-H ) :   0.9472
B(  0-C , 12-H ) :   0.9073 B(  1-N ,  2-C ) :   1.2726 B(  1-N ,  7-H ) :   0.9252
B(  2-C ,  3-N ) :   1.1514 B(  2-C ,  4-N ) :   1.1411 B(  3-N ,  8-H ) :   0.9009
B(  3-N ,  9-H ) :   0.9573 B(  4-N ,  5-H ) :   0.9318 B(  4-N ,  6-H ) :   0.9157
B( 10-C , 13-H ) :   0.9543 B( 10-C , 14-H ) :   0.9514 B( 10-C , 15-H ) :   0.9517

FINAL SINGLE POINT ENERGY      -284.352615452835

DIPOLE MOMENT
-------------
                                X             Y             Z
Electronic contribution:      0.18068      -1.67926      -5.18598
Nuclear contribution   :     -0.59121       2.30298       4.63196
                        -----------------------------------------
Total Dipole Moment    :     -0.41053       0.62372      -0.55402
                        -----------------------------------------
Magnitude (a.u.)       :      0.92979
Magnitude (Debye)      :      2.36333

Rotational constants in cm-1:     0.205874     0.074757     0.066901
Rotational constants in MHz :  6171.937773  2241.151057  2005.629823

                             ****ORCA TERMINATED NORMALLY****
TOTAL RUN TIME: 0 days 0 hours 1 minutes 28 seconds 205 msec
