                         Program Version 5.0.0 -  RELEASE  -
|  1> !CAM-B3LYP RIJCOSX def2-TZVPD def2/J TightSCF xyzfile
|  2>
|  3> *xyzfile 0 1 B.xyz
|  4>
|  5> %MaxCore 64000
|  6>
|  7> %pal nprocs 4
|  8> end
|  9>
| 10> %scf
| 11>   MaxIter 150
| 12> end
| 13>
| 14>
| 15>                          ****END OF INPUT****

CARTESIAN COORDINATES (ANGSTROEM)
---------------------------------
  C      2.234473   -2.989754   -2.397622
  N      2.756799   -2.945553   -3.765029
  C     -1.104325    0.251374   -2.860056
  C     -0.711893    0.842517   -4.218344
  H      0.154626    1.499800   -4.130909
  H     -1.538134    1.459222   -4.582671
  C     -0.397624   -0.205875   -5.288018
  C      1.987208   -2.590451   -4.818975
  N      0.743221   -3.017493   -4.913524
  N      2.499636   -1.848598   -5.803241
  H      3.309780   -1.292818   -5.558947
  H      1.801025   -1.304298   -6.289129
  H      3.716116   -2.628797   -3.829533
  H      0.395828   -3.627747   -4.185024
  H      0.039201   -2.454383   -5.371367
  O      0.617165   -0.005348   -5.998273
  O     -1.133173   -1.221380   -5.341465
  C      2.191199   -1.619503   -1.715492
  H      2.872783   -3.666368   -1.828014
  H      1.246188   -3.447444   -2.407842
  C      1.298729   -0.554314   -2.359773
  H      1.872917   -1.787955   -0.681310
  H      3.216809   -1.238432   -1.654428
  C     -0.196255   -0.863365   -2.325763
  H      1.612531   -0.371346   -3.393065
  H      1.480944    0.388638   -1.834444
  H     -0.404105   -1.761825   -2.909448
  H     -0.490439   -1.087880   -1.294131
  H     -1.143842    1.066711   -2.129680
  H     -2.114401   -0.156834   -2.930323

 Total Charge           Charge          ....    0
 Multiplicity           Mult            ....    1
 Number of Electrons    NEL             ....  102
 Basis Dimension        Dim             ....  640

ORBITAL ENERGIES
----------------

  NO   OCC          E(Eh)            E(eV)
   0   2.0000     -19.116018      -520.1733
   1   2.0000     -19.114297      -520.1265
   2   2.0000     -14.458467      -393.4349
   3   2.0000     -14.428207      -392.6115
   4   2.0000     -14.427441      -392.5906
   5   2.0000     -10.415057      -283.4081
   6   2.0000     -10.319772      -280.8153
   7   2.0000     -10.305881      -280.4373
   8   2.0000     -10.268495      -279.4199
   9   2.0000     -10.248456      -278.8747
  10   2.0000     -10.234666      -278.4994
  11   2.0000     -10.225254      -278.2433
  12   2.0000     -10.212662      -277.9007
  13   2.0000      -1.135381       -30.8953
  14   2.0000      -1.090514       -29.6744
  15   2.0000      -1.027985       -27.9729
  16   2.0000      -1.008318       -27.4377
  17   2.0000      -0.990881       -26.9632
  18   2.0000      -0.903990       -24.5988
  19   2.0000      -0.860355       -23.4114
  20   2.0000      -0.807634       -21.9768
  21   2.0000      -0.761879       -20.7318
  22   2.0000      -0.732683       -19.9373
  23   2.0000      -0.699501       -19.0344
  24   2.0000      -0.687912       -18.7191
  25   2.0000      -0.655609       -17.8400
  26   2.0000      -0.632540       -17.2123
  27   2.0000      -0.607479       -16.5303
  28   2.0000      -0.583039       -15.8653
  29   2.0000      -0.572749       -15.5853
  30   2.0000      -0.554126       -15.0785
  31   2.0000      -0.543381       -14.7862
  32   2.0000      -0.536772       -14.6063
  33   2.0000      -0.519901       -14.1472
  34   2.0000      -0.507754       -13.8167
  35   2.0000      -0.497267       -13.5313
  36   2.0000      -0.482164       -13.1204
  37   2.0000      -0.478238       -13.0135
  38   2.0000      -0.460086       -12.5196
  39   2.0000      -0.449157       -12.2222
  40   2.0000      -0.435552       -11.8520
  41   2.0000      -0.425407       -11.5759
  42   2.0000      -0.411429       -11.1956
  43   2.0000      -0.394236       -10.7277
  44   2.0000      -0.380704       -10.3595
  45   2.0000      -0.373869       -10.1735
  46   2.0000      -0.369686       -10.0597
  47   2.0000      -0.359324        -9.7777
  48   2.0000      -0.295822        -8.0497
  49   2.0000      -0.286511        -7.7963
  50   2.0000      -0.281357        -7.6561
  51   0.0000       0.003676         0.1000
  52   0.0000       0.017177         0.4674
  53   0.0000       0.024355         0.6627
  54   0.0000       0.035558         0.9676
  55   0.0000       0.044371         1.2074

MULLIKEN ATOMIC CHARGES
-----------------------
   0 C :   -0.790117
   1 N :   -0.141812
   2 C :   -0.628182
   3 C :   -0.456952
   4 H :    0.266624
   5 H :    0.303909
   6 C :    0.607443
   7 C :    0.331531
   8 N :   -0.334431
   9 N :   -0.416950
  10 H :    0.207964
  11 H :    0.346230
  12 H :    0.217562
  13 H :    0.230462
  14 H :    0.340528
  15 O :   -0.822464
  16 O :   -0.814872
  17 C :   -0.527082
  18 H :    0.302220
  19 H :    0.331763
  20 C :   -0.476591
  21 H :    0.322729
  22 H :    0.280553
  23 C :   -0.431355
  24 H :    0.281670
  25 H :    0.363796
  26 H :    0.226927
  27 H :    0.313263
  28 H :    0.270109
  29 H :    0.295524
Sum of atomic charges:   -0.0000000

LOEWDIN ATOMIC CHARGES
----------------------
   0 C :   -0.179002
   1 N :    0.074075
   2 C :   -0.201184
   3 C :   -0.128021
   4 H :    0.106430
   5 H :    0.118108
   6 C :   -0.681345
   7 C :   -0.450816
   8 N :    0.231100
   9 N :    0.195346
  10 H :    0.124245
  11 H :    0.070598
  12 H :    0.145876
  13 H :    0.122639
  14 H :    0.062944
  15 O :   -0.062866
  16 O :   -0.055209
  17 C :   -0.183976
  18 H :    0.120487
  19 H :    0.108075
  20 C :   -0.201223
  21 H :    0.116403
  22 H :    0.110887
  23 C :   -0.210373
  24 H :    0.102240
  25 H :    0.122150
  26 H :    0.088135
  27 H :    0.115342
  28 H :    0.108339
  29 H :    0.110594

  Mayer bond orders larger than 0.100000
B(  0-C ,  1-N ) :   0.8145 B(  0-C ,  8-N ) :   0.1108 B(  0-C , 17-C ) :   0.6357
B(  0-C , 18-H ) :   0.9836 B(  0-C , 19-H ) :   0.9436 B(  0-C , 23-C ) :   0.1052
B(  1-N ,  7-C ) :   1.1560 B(  1-N , 12-H ) :   0.8891 B(  2-C ,  3-C ) :   0.7742
B(  2-C , 20-C ) :   0.1185 B(  2-C , 23-C ) :   0.8804 B(  2-C , 28-H ) :   0.9853
B(  2-C , 29-H ) :   0.9200 B(  3-C ,  4-H ) :   1.0205 B(  3-C ,  5-H ) :   0.8994
B(  3-C ,  6-C ) :   0.8857 B(  3-C , 20-C ) :   0.1013 B(  6-C , 15-O ) :   1.1789
B(  6-C , 16-O ) :   1.2773 B(  7-C ,  8-N ) :   1.2804 B(  7-C ,  9-N ) :   1.1461
B(  8-N , 13-H ) :   0.8807 B(  8-N , 14-H ) :   0.7015 B(  9-N , 10-H ) :   0.9292
B(  9-N , 11-H ) :   0.7400 B( 14-H , 16-O ) :   0.1099 B( 15-O , 16-O ) :   0.1080
B( 17-C , 20-C ) :   0.7874 B( 17-C , 21-H ) :   0.9754 B( 17-C , 22-H ) :   0.9835
B( 17-C , 23-C ) :   0.1080 B( 20-C , 23-C ) :   0.3906 B( 20-C , 24-H ) :   1.0909
B( 20-C , 25-H ) :   0.8117 B( 20-C , 26-H ) :  -0.1746 B( 23-C , 26-H ) :   1.1667
B( 23-C , 27-H ) :   0.8806

FINAL SINGLE POINT ENERGY      -629.774673246016

DIPOLE MOMENT
-------------
                                X             Y             Z
Electronic contribution:      0.59130      -2.84231     -10.20397
Nuclear contribution   :      1.76912       1.50070      12.36652
                        -----------------------------------------
Total Dipole Moment    :      2.36041      -1.34161       2.16256
                        -----------------------------------------
Magnitude (a.u.)       :      3.47104
Magnitude (Debye)      :      8.82269

Rotational constants in cm-1:     0.033272     0.023886     0.017112
Rotational constants in MHz :   997.469575   716.074432   513.001395

                             ****ORCA TERMINATED NORMALLY****
TOTAL RUN TIME: 0 days 0 hours 9 minutes 44 seconds 930 msec
