                         Program Version 5.0.0 -  RELEASE  -
|  1> !CAM-B3LYP RIJCOSX def2-TZVPD def2/J TightSCF
|  2> *xyz 0 1
|  3> C         -1.10433        0.25137       -2.86006
|  4> C         -0.71189        0.84252       -4.21834
|  5> H          0.15463        1.49980       -4.13091
|  6> H         -1.53813        1.45922       -4.58267
|  7> C         -0.39762       -0.20587       -5.28802
|  8> F          0.61717       -0.00535       -5.99827
|  9> O         -1.13317       -1.22138       -5.34147
| 10> H         -1.95489       -0.38644       -2.98099
| 11> H         -1.34603        1.04362       -2.18269
| 12> H         -0.28606       -0.31581       -2.46809
| 13> *
| 14>
| 15> %MaxCore 64000
| 16>
| 17> %pal nprocs 4
| 18> end
| 19>
| 20> %scf
| 21>   MaxIter 150
| 22> end
| 23>
| 24>
| 25>                          ****END OF INPUT****

CARTESIAN COORDINATES (ANGSTROEM)
---------------------------------
  C     -1.104330    0.251370   -2.860060
  C     -0.711890    0.842520   -4.218340
  H      0.154630    1.499800   -4.130910
  H     -1.538130    1.459220   -4.582670
  C     -0.397620   -0.205870   -5.288020
  F      0.617170   -0.005350   -5.998270
  O     -1.133170   -1.221380   -5.341470
  H     -1.954890   -0.386440   -2.980990
  H     -1.346030    1.043620   -2.182690
  H     -0.286060   -0.315810   -2.468090

 Total Charge           Charge          ....    0
 Multiplicity           Mult            ....    1
 Number of Electrons    NEL             ....   40
 Basis Dimension        Dim             ....  236

ORBITAL ENERGIES
----------------

  NO   OCC          E(Eh)            E(eV)
   0   2.0000     -24.829655      -675.6493
   1   2.0000     -19.207845      -522.6720
   2   2.0000     -10.428623      -283.7773
   3   2.0000     -10.277950      -279.6772
   4   2.0000     -10.245899      -278.8051
   5   2.0000      -1.405005       -38.2321
   6   2.0000      -1.118285       -30.4301
   7   2.0000      -0.884102       -24.0576
   8   2.0000      -0.772639       -21.0246
   9   2.0000      -0.716580       -19.4991
  10   2.0000      -0.627172       -17.0662
  11   2.0000      -0.612960       -16.6795
  12   2.0000      -0.584082       -15.8937
  13   2.0000      -0.538198       -14.6451
  14   2.0000      -0.506476       -13.7819
  15   2.0000      -0.465136       -12.6570
  16   2.0000      -0.446291       -12.1442
  17   2.0000      -0.443208       -12.0603
  18   2.0000      -0.416053       -11.3214
  19   2.0000      -0.364516        -9.9190
  20   0.0000       0.015112         0.4112
  21   0.0000       0.029255         0.7961
  22   0.0000       0.052294         1.4230
  23   0.0000       0.061157         1.6642
  24   0.0000       0.072656         1.9771

MULLIKEN ATOMIC CHARGES
-----------------------
   0 C :   -1.067672
   1 C :   -0.217598
   2 H :    0.275089
   3 H :    0.261240
   4 C :    0.496945
   5 F :   -0.208340
   6 O :   -0.482276
   7 H :    0.299494
   8 H :    0.318928
   9 H :    0.324189
Sum of atomic charges:    0.0000000

LOEWDIN ATOMIC CHARGES
----------------------
   0 C :   -0.089968
   1 C :   -0.157582
   2 H :    0.109640
   3 H :    0.122356
   4 C :   -0.487803
   5 F :    0.207539
   6 O :    0.080199
   7 H :    0.071431
   8 H :    0.069279
   9 H :    0.074910

  Mayer bond orders larger than 0.100000
B(  0-C ,  1-C ) :   0.6219 B(  0-C ,  7-H ) :   0.9960 B(  0-C ,  8-H ) :   0.9455
B(  0-C ,  9-H ) :   0.9328 B(  1-C ,  2-H ) :   0.9606 B(  1-C ,  3-H ) :   0.9356
B(  1-C ,  4-C ) :   0.9192 B(  4-C ,  5-F ) :   1.0228 B(  4-C ,  6-O ) :   1.7680

FINAL SINGLE POINT ENERGY      -292.404312272092

DIPOLE MOMENT
-------------
                                X             Y             Z
Electronic contribution:      3.60180      -2.33846      -7.69221
Nuclear contribution   :     -3.36368       3.36392       8.24820
                        -----------------------------------------
Total Dipole Moment    :      0.23811       1.02546       0.55599
                        -----------------------------------------
Magnitude (a.u.)       :      1.19054
Magnitude (Debye)      :      3.02612

Rotational constants in cm-1:     0.315013     0.126712     0.098430
Rotational constants in MHz :  9443.861322  3798.734540  2950.846388

                             ****ORCA TERMINATED NORMALLY****
TOTAL RUN TIME: 0 days 0 hours 0 minutes 49 seconds 615 msec
