                         Program Version 5.0.0 -  RELEASE  -
|  1> !CAM-B3LYP RIJCOSX def2-TZVPD def2/J TightSCF
|  2> *xyz 0 1
|  3> C          2.23447       -2.98975       -2.39762
|  4> C          2.75680       -2.94555       -3.76503
|  5> C          1.98721       -2.59045       -4.81898
|  6> N          0.74322       -3.01749       -4.91352
|  7> N          2.49964       -1.84860       -5.80324
|  8> H          3.30978       -1.29282       -5.55895
|  9> H          1.80103       -1.30430       -6.28913
| 10> H          3.71612       -2.62880       -3.82953
| 11> H          0.39583       -3.62775       -4.18502
| 12> H          0.03920       -2.45438       -5.37137
| 13> C          2.19120       -1.61950       -1.71549
| 14> H          2.87278       -3.66637       -1.82801
| 15> H          1.24619       -3.44744       -2.40784
| 16> H          1.56387       -0.96046       -2.27853
| 17> H          3.18033       -1.21449       -1.66568
| 18> H          1.79916       -1.72608       -0.72562
| 19> *
| 20>
| 21> %MaxCore 64000
| 22>
| 23> %pal nprocs 4
| 24> end
| 25>
| 26> %scf
| 27>   MaxIter 150
| 28> end
| 29>
| 30>
| 31>                          ****END OF INPUT****

CARTESIAN COORDINATES (ANGSTROEM)
---------------------------------
  C      2.234470   -2.989750   -2.397620
  C      2.756800   -2.945550   -3.765030
  C      1.987210   -2.590450   -4.818980
  N      0.743220   -3.017490   -4.913520
  N      2.499640   -1.848600   -5.803240
  H      3.309780   -1.292820   -5.558950
  H      1.801030   -1.304300   -6.289130
  H      3.716120   -2.628800   -3.829530
  H      0.395830   -3.627750   -4.185020
  H      0.039200   -2.454380   -5.371370
  C      2.191200   -1.619500   -1.715490
  H      2.872780   -3.666370   -1.828010
  H      1.246190   -3.447440   -2.407840
  H      1.563870   -0.960460   -2.278530
  H      3.180330   -1.214490   -1.665680
  H      1.799160   -1.726080   -0.725620

 Total Charge           Charge          ....    0
 Multiplicity           Mult            ....    1
 Number of Electrons    NEL             ....   48
 Basis Dimension        Dim             ....  312

ORBITAL ENERGIES
----------------

  NO   OCC          E(Eh)            E(eV)
   0   2.0000     -14.396329      -391.7440
   1   2.0000     -14.392498      -391.6398
   2   2.0000     -10.295565      -280.1566
   3   2.0000     -10.220405      -278.1113
   4   2.0000     -10.211045      -277.8567
   5   2.0000     -10.169111      -276.7156
   6   2.0000      -1.056930       -28.7605
   7   2.0000      -0.963060       -26.2062
   8   2.0000      -0.857972       -23.3466
   9   2.0000      -0.773882       -21.0584
  10   2.0000      -0.697474       -18.9792
  11   2.0000      -0.655712       -17.8428
  12   2.0000      -0.616509       -16.7761
  13   2.0000      -0.580899       -15.8071
  14   2.0000      -0.539805       -14.6888
  15   2.0000      -0.523352       -14.2411
  16   2.0000      -0.483868       -13.1667
  17   2.0000      -0.464978       -12.6527
  18   2.0000      -0.441992       -12.0272
  19   2.0000      -0.426908       -11.6168
  20   2.0000      -0.394365       -10.7312
  21   2.0000      -0.386908       -10.5283
  22   2.0000      -0.343399        -9.3443
  23   2.0000      -0.219844        -5.9822
  24   0.0000       0.022046         0.5999
  25   0.0000       0.050431         1.3723
  26   0.0000       0.055399         1.5075
  27   0.0000       0.063101         1.7171
  28   0.0000       0.082644         2.2489

MULLIKEN ATOMIC CHARGES
-----------------------
   0 C :   -0.251508
   1 C :   -0.511698
   2 C :    0.251024
   3 N :   -0.364516
   4 N :   -0.476986
   5 H :    0.223313
   6 H :    0.190552
   7 H :    0.317712
   8 H :    0.208686
   9 H :    0.149971
  10 C :   -1.166534
  11 H :    0.217139
  12 H :    0.277559
  13 H :    0.289397
  14 H :    0.319925
  15 H :    0.325966
Sum of atomic charges:   -0.0000000

LOEWDIN ATOMIC CHARGES
----------------------
   0 C :   -0.293710
   1 C :   -0.136861
   2 C :   -0.555366
   3 N :    0.129082
   4 N :    0.115640
   5 H :    0.106970
   6 H :    0.095883
   7 H :    0.058463
   8 H :    0.104568
   9 H :    0.104449
  10 C :   -0.101919
  11 H :    0.099298
  12 H :    0.086013
  13 H :    0.063685
  14 H :    0.064893
  15 H :    0.058912

  Mayer bond orders larger than 0.100000
B(  0-C ,  1-C ) :   0.6401 B(  0-C , 10-C ) :   0.4981 B(  0-C , 11-H ) :   1.0858
B(  0-C , 12-H ) :   0.9592 B(  1-C ,  2-C ) :   1.4704 B(  1-C ,  7-H ) :   1.0201
B(  2-C ,  3-N ) :   0.9445 B(  2-C ,  4-N ) :   1.0496 B(  2-C ,  7-H ) :  -0.1817
B(  3-N ,  8-H ) :   0.9389 B(  3-N ,  9-H ) :   1.0257 B(  4-N ,  5-H ) :   0.9279
B(  4-N ,  6-H ) :   0.9651 B( 10-C , 13-H ) :   0.9871 B( 10-C , 14-H ) :   0.9858
B( 10-C , 15-H ) :   0.9659

FINAL SINGLE POINT ENERGY      -267.869058387106

DIPOLE MOMENT
-------------
                                X             Y             Z
Electronic contribution:     -0.31993      -1.37311      -4.97036
Nuclear contribution   :     -0.44240       2.20379       4.66256
                        -----------------------------------------
Total Dipole Moment    :     -0.76233       0.83067      -0.30780
                        -----------------------------------------
Magnitude (a.u.)       :      1.16872
Magnitude (Debye)      :      2.97065

Rotational constants in cm-1:     0.209447     0.075194     0.066975
Rotational constants in MHz :  6279.068019  2254.272519  2007.845458

                             ****ORCA TERMINATED NORMALLY****
TOTAL RUN TIME: 0 days 0 hours 1 minutes 36 seconds 550 msec
