                         Program Version 5.0.0 -  RELEASE  -
|  1> !CAM-B3LYP RIJCOSX def2-TZVPD def2/J TightSCF
|  2> *xyz 0 1
|  3> C         -1.10433        0.25137       -2.86006
|  4> C         -0.71189        0.84252       -4.21834
|  5> H          0.15463        1.49980       -4.13091
|  6> H         -1.53813        1.45922       -4.58267
|  7> C         -0.39762       -0.20587       -5.28802
|  8> O          0.61717       -0.00535       -5.99827
|  9> F         -1.13317       -1.22138       -5.34147
| 10> H         -1.95489       -0.38644       -2.98099
| 11> H         -1.34603        1.04362       -2.18269
| 12> H         -0.28606       -0.31581       -2.46809
| 13> *
| 14>
| 15> %MaxCore 64000
| 16>
| 17> %pal nprocs 4
| 18> end
| 19>
| 20> %scf
| 21>   MaxIter 150
| 22> end
| 23>
| 24>
| 25>                          ****END OF INPUT****

CARTESIAN COORDINATES (ANGSTROEM)
---------------------------------
  C     -1.104330    0.251370   -2.860060
  C     -0.711890    0.842520   -4.218340
  H      0.154630    1.499800   -4.130910
  H     -1.538130    1.459220   -4.582670
  C     -0.397620   -0.205870   -5.288020
  O      0.617170   -0.005350   -5.998270
  F     -1.133170   -1.221380   -5.341470
  H     -1.954890   -0.386440   -2.980990
  H     -1.346030    1.043620   -2.182690
  H     -0.286060   -0.315810   -2.468090

 Total Charge           Charge          ....    0
 Multiplicity           Mult            ....    1
 Number of Electrons    NEL             ....   40
 Basis Dimension        Dim             ....  236

ORBITAL ENERGIES
----------------

  NO   OCC          E(Eh)            E(eV)
   0   2.0000     -24.830382      -675.6690
   1   2.0000     -19.206933      -522.6472
   2   2.0000     -10.427999      -283.7603
   3   2.0000     -10.277194      -279.6567
   4   2.0000     -10.251765      -278.9647
   5   2.0000      -1.405486       -38.2452
   6   2.0000      -1.117362       -30.4050
   7   2.0000      -0.888366       -24.1737
   8   2.0000      -0.767655       -20.8889
   9   2.0000      -0.724037       -19.7020
  10   2.0000      -0.629333       -17.1250
  11   2.0000      -0.620370       -16.8811
  12   2.0000      -0.573677       -15.6105
  13   2.0000      -0.539770       -14.6879
  14   2.0000      -0.506031       -13.7698
  15   2.0000      -0.471610       -12.8332
  16   2.0000      -0.455153       -12.3854
  17   2.0000      -0.447160       -12.1678
  18   2.0000      -0.416414       -11.3312
  19   2.0000      -0.359634        -9.7861
  20   0.0000       0.016556         0.4505
  21   0.0000       0.028147         0.7659
  22   0.0000       0.052312         1.4235
  23   0.0000       0.059502         1.6191
  24   0.0000       0.072842         1.9821

MULLIKEN ATOMIC CHARGES
-----------------------
   0 C :   -1.099380
   1 C :   -0.161318
   2 H :    0.240703
   3 H :    0.272286
   4 C :    0.481501
   5 O :   -0.486711
   6 F :   -0.208950
   7 H :    0.311180
   8 H :    0.309527
   9 H :    0.341162
Sum of atomic charges:    0.0000000

LOEWDIN ATOMIC CHARGES
----------------------
   0 C :   -0.094376
   1 C :   -0.153047
   2 H :    0.118272
   3 H :    0.120962
   4 C :   -0.491499
   5 O :    0.076645
   6 F :    0.210337
   7 H :    0.068123
   8 H :    0.069719
   9 H :    0.074864

  Mayer bond orders larger than 0.100000
B(  0-C ,  1-C ) :   0.5586 B(  0-C ,  7-H ) :   0.9689 B(  0-C ,  8-H ) :   0.9678
B(  0-C ,  9-H ) :   0.9409 B(  1-C ,  2-H ) :   0.9959 B(  1-C ,  3-H ) :   0.9271
B(  1-C ,  4-C ) :   0.9171 B(  4-C ,  5-O ) :   1.7643 B(  4-C ,  6-F ) :   1.0291

FINAL SINGLE POINT ENERGY      -292.403529911154

DIPOLE MOMENT
-------------
                                X             Y             Z
Electronic contribution:      0.66688      -4.35541      -6.56678
Nuclear contribution   :     -1.45527       4.68977       7.53208
                        -----------------------------------------
Total Dipole Moment    :     -0.78839       0.33436       0.96530
                        -----------------------------------------
Magnitude (a.u.)       :      1.29041
Magnitude (Debye)      :      3.27995

Rotational constants in cm-1:     0.298240     0.132464     0.099915
Rotational constants in MHz :  8940.998095  3971.171647  2995.369122

                             ****ORCA TERMINATED NORMALLY****
TOTAL RUN TIME: 0 days 0 hours 0 minutes 48 seconds 959 msec
