                         Program Version 5.0.0 -  RELEASE  -
|  1> !CAM-B3LYP RIJCOSX def2-TZVPD def2/J TightSCF
|  2> *xyz 0 1
|  3> C          2.23447       -2.98975       -2.39762
|  4> N          2.75680       -2.94555       -3.76503
|  5> C          1.98721       -2.59045       -4.81898
|  6> C          0.74322       -3.01749       -4.91352
|  7> N          2.49964       -1.84860       -5.80324
|  8> H          3.30978       -1.29282       -5.55895
|  9> H          1.80103       -1.30430       -6.28913
| 10> H          3.71612       -2.62880       -3.82953
| 11> H          0.39583       -3.62775       -4.18502
| 12> H          0.03920       -2.45438       -5.37137
| 13> C          2.19120       -1.61950       -1.71549
| 14> H          2.87278       -3.66637       -1.82801
| 15> H          1.24619       -3.44744       -2.40784
| 16> H          1.56387       -0.96046       -2.27853
| 17> H          3.18033       -1.21449       -1.66568
| 18> H          1.79916       -1.72608       -0.72562
| 19> *
| 20>
| 21> %MaxCore 64000
| 22>
| 23> %pal nprocs 4
| 24> end
| 25>
| 26> %scf
| 27>   MaxIter 150
| 28> end
| 29>
| 30>
| 31>                          ****END OF INPUT****

CARTESIAN COORDINATES (ANGSTROEM)
---------------------------------
  C      2.234470   -2.989750   -2.397620
  N      2.756800   -2.945550   -3.765030
  C      1.987210   -2.590450   -4.818980
  C      0.743220   -3.017490   -4.913520
  N      2.499640   -1.848600   -5.803240
  H      3.309780   -1.292820   -5.558950
  H      1.801030   -1.304300   -6.289130
  H      3.716120   -2.628800   -3.829530
  H      0.395830   -3.627750   -4.185020
  H      0.039200   -2.454380   -5.371370
  C      2.191200   -1.619500   -1.715490
  H      2.872780   -3.666370   -1.828010
  H      1.246190   -3.447440   -2.407840
  H      1.563870   -0.960460   -2.278530
  H      3.180330   -1.214490   -1.665680
  H      1.799160   -1.726080   -0.725620

 Total Charge           Charge          ....    0
 Multiplicity           Mult            ....    1
 Number of Electrons    NEL             ....   48
 Basis Dimension        Dim             ....  312

ORBITAL ENERGIES
----------------

  NO   OCC          E(Eh)            E(eV)
   0   2.0000     -14.391658      -391.6169
   1   2.0000     -14.390504      -391.5855
   2   2.0000     -10.292409      -280.0707
   3   2.0000     -10.276702      -279.6433
   4   2.0000     -10.231625      -278.4167
   5   2.0000     -10.160715      -276.4871
   6   2.0000      -1.053206       -28.6592
   7   2.0000      -0.971811       -26.4443
   8   2.0000      -0.838588       -22.8191
   9   2.0000      -0.796986       -21.6871
  10   2.0000      -0.719200       -19.5704
  11   2.0000      -0.637620       -17.3505
  12   2.0000      -0.616762       -16.7829
  13   2.0000      -0.584602       -15.9078
  14   2.0000      -0.532345       -14.4859
  15   2.0000      -0.517598       -14.0846
  16   2.0000      -0.486644       -13.2423
  17   2.0000      -0.467306       -12.7160
  18   2.0000      -0.462505       -12.5854
  19   2.0000      -0.438358       -11.9283
  20   2.0000      -0.427517       -11.6333
  21   2.0000      -0.414853       -11.2887
  22   2.0000      -0.318666        -8.6713
  23   2.0000      -0.236784        -6.4432
  24   0.0000       0.025737         0.7003
  25   0.0000       0.048775         1.3272
  26   0.0000       0.056686         1.5425
  27   0.0000       0.059393         1.6162
  28   0.0000       0.084251         2.2926

MULLIKEN ATOMIC CHARGES
-----------------------
   0 C :   -0.352345
   1 N :   -0.246411
   2 C :    0.453047
   3 C :   -0.935334
   4 N :   -0.456488
   5 H :    0.199890
   6 H :    0.194489
   7 H :    0.179547
   8 H :    0.359900
   9 H :    0.199354
  10 C :   -1.094133
  11 H :    0.297352
  12 H :    0.258834
  13 H :    0.291843
  14 H :    0.301650
  15 H :    0.348805
Sum of atomic charges:   -0.0000000

LOEWDIN ATOMIC CHARGES
----------------------
   0 C :   -0.241204
   1 N :    0.012495
   2 C :   -0.566095
   3 C :    0.009487
   4 N :    0.112512
   5 H :    0.094527
   6 H :    0.104563
   7 H :    0.126766
   8 H :    0.009110
   9 H :    0.017630
  10 C :   -0.084303
  11 H :    0.110347
  12 H :    0.100792
  13 H :    0.066272
  14 H :    0.062148
  15 H :    0.064955

  Mayer bond orders larger than 0.100000
B(  0-C ,  1-N ) :   0.7546 B(  0-C , 10-C ) :   0.5438 B(  0-C , 11-H ) :   0.9386
B(  0-C , 12-H ) :   0.9583 B(  1-N ,  2-C ) :   0.9830 B(  1-N ,  7-H ) :   0.9632
B(  2-C ,  3-C ) :   1.5105 B(  2-C ,  4-N ) :   0.9067 B(  3-C ,  8-H ) :   0.8742
B(  3-C ,  9-H ) :   1.1288 B(  4-N ,  5-H ) :   0.9624 B(  4-N ,  6-H ) :   0.9500
B( 10-C , 13-H ) :   0.9979 B( 10-C , 14-H ) :   0.9715 B( 10-C , 15-H ) :   0.9460

FINAL SINGLE POINT ENERGY      -267.865436890660

DIPOLE MOMENT
-------------
                                X             Y             Z
Electronic contribution:      1.48669      -1.25013      -3.82569
Nuclear contribution   :     -0.86957       2.18853       4.41892
                        -----------------------------------------
Total Dipole Moment    :      0.61712       0.93840       0.59323
                        -----------------------------------------
Magnitude (a.u.)       :      1.27018
Magnitude (Debye)      :      3.22854

Rotational constants in cm-1:     0.214718     0.075736     0.068547
Rotational constants in MHz :  6437.075121  2270.519635  2054.974198

                             ****ORCA TERMINATED NORMALLY****
TOTAL RUN TIME: 0 days 0 hours 1 minutes 35 seconds 886 msec
