                         Program Version 5.0.0 -  RELEASE  -
|  1> !CAM-B3LYP RIJCOSX def2-TZVPD def2/J TightSCF
|  2> *xyz 0 1
|  3> C          2.23447       -2.98975       -2.39762
|  4> N          2.75680       -2.94555       -3.76503
|  5> C          1.98721       -2.59045       -4.81898
|  6> N          0.74322       -3.01749       -4.91352
|  7> C          2.49964       -1.84860       -5.80324
|  8> H          3.30978       -1.29282       -5.55895
|  9> H          1.80103       -1.30430       -6.28913
| 10> H          3.71612       -2.62880       -3.82953
| 11> H          0.39583       -3.62775       -4.18502
| 12> H          0.03920       -2.45438       -5.37137
| 13> C          2.19120       -1.61950       -1.71549
| 14> H          2.87278       -3.66637       -1.82801
| 15> H          1.24619       -3.44744       -2.40784
| 16> H          1.56387       -0.96046       -2.27853
| 17> H          3.18033       -1.21449       -1.66568
| 18> H          1.79916       -1.72608       -0.72562
| 19> *
| 20>
| 21> %MaxCore 64000
| 22>
| 23> %pal nprocs 4
| 24> end
| 25>
| 26> %scf
| 27>   MaxIter 150
| 28> end
| 29>
| 30>
| 31>                          ****END OF INPUT****

CARTESIAN COORDINATES (ANGSTROEM)
---------------------------------
  C      2.234470   -2.989750   -2.397620
  N      2.756800   -2.945550   -3.765030
  C      1.987210   -2.590450   -4.818980
  N      0.743220   -3.017490   -4.913520
  C      2.499640   -1.848600   -5.803240
  H      3.309780   -1.292820   -5.558950
  H      1.801030   -1.304300   -6.289130
  H      3.716120   -2.628800   -3.829530
  H      0.395830   -3.627750   -4.185020
  H      0.039200   -2.454380   -5.371370
  C      2.191200   -1.619500   -1.715490
  H      2.872780   -3.666370   -1.828010
  H      1.246190   -3.447440   -2.407840
  H      1.563870   -0.960460   -2.278530
  H      3.180330   -1.214490   -1.665680
  H      1.799160   -1.726080   -0.725620

 Total Charge           Charge          ....    0
 Multiplicity           Mult            ....    1
 Number of Electrons    NEL             ....   48
 Basis Dimension        Dim             ....  312

ORBITAL ENERGIES
----------------

  NO   OCC          E(Eh)            E(eV)
   0   2.0000     -14.393360      -391.6632
   1   2.0000     -14.390805      -391.5937
   2   2.0000     -10.296344      -280.1778
   3   2.0000     -10.285030      -279.8699
   4   2.0000     -10.235631      -278.5257
   5   2.0000     -10.155640      -276.3490
   6   2.0000      -1.055437       -28.7199
   7   2.0000      -0.971965       -26.4485
   8   2.0000      -0.851195       -23.1622
   9   2.0000      -0.789969       -21.4961
  10   2.0000      -0.709131       -19.2964
  11   2.0000      -0.676636       -18.4122
  12   2.0000      -0.613135       -16.6843
  13   2.0000      -0.562618       -15.3096
  14   2.0000      -0.561580       -15.2814
  15   2.0000      -0.508686       -13.8421
  16   2.0000      -0.498919       -13.5763
  17   2.0000      -0.471670       -12.8348
  18   2.0000      -0.445621       -12.1260
  19   2.0000      -0.434640       -11.8272
  20   2.0000      -0.433124       -11.7859
  21   2.0000      -0.422458       -11.4957
  22   2.0000      -0.321283        -8.7426
  23   2.0000      -0.231670        -6.3041
  24   0.0000       0.024544         0.6679
  25   0.0000       0.047941         1.3045
  26   0.0000       0.053305         1.4505
  27   0.0000       0.059206         1.6111
  28   0.0000       0.086479         2.3532

MULLIKEN ATOMIC CHARGES
-----------------------
   0 C :   -0.432523
   1 N :   -0.226993
   2 C :    0.467284
   3 N :   -0.359940
   4 C :   -0.909101
   5 H :    0.229775
   6 H :    0.231258
   7 H :    0.198690
   8 H :    0.202351
   9 H :    0.175355
  10 C :   -1.063543
  11 H :    0.297501
  12 H :    0.251348
  13 H :    0.290537
  14 H :    0.299056
  15 H :    0.348945
Sum of atomic charges:    0.0000000

LOEWDIN ATOMIC CHARGES
----------------------
   0 C :   -0.245250
   1 N :    0.015745
   2 C :   -0.568237
   3 N :    0.127016
   4 C :   -0.008812
   5 H :    0.006057
   6 H :    0.007207
   7 H :    0.134566
   8 H :    0.094431
   9 H :    0.116064
  10 C :   -0.082566
  11 H :    0.109682
  12 H :    0.095868
  13 H :    0.067575
  14 H :    0.066226
  15 H :    0.064429

  Mayer bond orders larger than 0.100000
B(  0-C ,  1-N ) :   0.8276 B(  0-C , 10-C ) :   0.5970 B(  0-C , 11-H ) :   0.9595
B(  0-C , 12-H ) :   0.9528 B(  1-N ,  2-C ) :   1.0607 B(  1-N ,  7-H ) :   0.9065
B(  2-C ,  3-N ) :   0.9589 B(  2-C ,  4-C ) :   1.3044 B(  2-C ,  5-H ) :  -0.1097
B(  3-N ,  8-H ) :   0.9481 B(  3-N ,  9-H ) :   0.9818 B(  4-C ,  5-H ) :   1.1308
B(  4-C ,  6-H ) :   1.0775 B( 10-C , 13-H ) :   0.9853 B( 10-C , 14-H ) :   0.9731
B( 10-C , 15-H ) :   0.9530

FINAL SINGLE POINT ENERGY      -267.859632002731

DIPOLE MOMENT
-------------
                                X             Y             Z
Electronic contribution:     -0.12482      -2.38482      -2.94145
Nuclear contribution   :     -0.49695       2.43650       4.23017
                        -----------------------------------------
Total Dipole Moment    :     -0.62177       0.05168       1.28872
                        -----------------------------------------
Magnitude (a.u.)       :      1.43181
Magnitude (Debye)      :      3.63937

Rotational constants in cm-1:     0.211102     0.077011     0.069221
Rotational constants in MHz :  6328.667765  2308.731604  2075.192956

                             ****ORCA TERMINATED NORMALLY****
TOTAL RUN TIME: 0 days 0 hours 1 minutes 36 seconds 604 msec
