                         Program Version 5.0.0 -  RELEASE  -
|  1> !CAM-B3LYP RIJCOSX def2-TZVPD def2/J TightSCF xyzfile
|  2>
|  3> *xyzfile 0 1 D1.xyz
|  4>
|  5> %MaxCore 64000
|  6>
|  7> %pal nprocs 4
|  8> end
|  9>
| 10> %scf
| 11>   MaxIter 150
| 12> end
| 13>
| 14>
| 15>                          ****END OF INPUT****

CARTESIAN COORDINATES (ANGSTROEM)
---------------------------------
  C      2.234473   -2.989754   -2.397622
  C      2.756799   -2.945553   -3.765029
  C     -1.104325    0.251374   -2.860056
  C     -0.711893    0.842517   -4.218344
  H      0.154626    1.499800   -4.130909
  H     -1.538134    1.459222   -4.582671
  C     -0.397624   -0.205875   -5.288018
  C      1.987208   -2.590451   -4.818975
  N      0.743221   -3.017493   -4.913524
  N      2.499636   -1.848598   -5.803241
  H      3.309780   -1.292818   -5.558947
  H      1.801025   -1.304298   -6.289129
  H      3.716116   -2.628797   -3.829533
  H      0.395828   -3.627747   -4.185024
  H      0.039201   -2.454383   -5.371367
  F      0.617165   -0.005348   -5.998273
  O     -1.133173   -1.221380   -5.341465
  C      2.191199   -1.619503   -1.715492
  H      2.872783   -3.666368   -1.828014
  H      1.246188   -3.447444   -2.407842
  C      1.298729   -0.554314   -2.359773
  H      1.872917   -1.787955   -0.681310
  H      3.216809   -1.238432   -1.654428
  C     -0.196255   -0.863365   -2.325763
  H      1.612531   -0.371346   -3.393065
  H      1.480944    0.388638   -1.834444
  H     -0.404105   -1.761825   -2.909448
  H     -0.490439   -1.087880   -1.294131
  H     -1.143842    1.066711   -2.129680
  H     -2.114401   -0.156834   -2.930323

 Total Charge           Charge          ....    0
 Multiplicity           Mult            ....    1
 Number of Electrons    NEL             ....  102
 Basis Dimension        Dim             ....  640

ORBITAL ENERGIES
----------------

  NO   OCC          E(Eh)            E(eV)
   0   2.0000     -24.863961      -676.5828
   1   2.0000     -19.238868      -523.5162
   2   2.0000     -14.377528      -391.2324
   3   2.0000     -14.367389      -390.9565
   4   2.0000     -10.457937      -284.5749
   5   2.0000     -10.290548      -280.0200
   6   2.0000     -10.283396      -279.8254
   7   2.0000     -10.263648      -279.2880
   8   2.0000     -10.242662      -278.7170
   9   2.0000     -10.238969      -278.6165
  10   2.0000     -10.226217      -278.2695
  11   2.0000     -10.215301      -277.9725
  12   2.0000     -10.157118      -276.3892
  13   2.0000      -1.442152       -39.2430
  14   2.0000      -1.155734       -31.4491
  15   2.0000      -1.042563       -28.3696
  16   2.0000      -0.947636       -25.7865
  17   2.0000      -0.916428       -24.9373
  18   2.0000      -0.874835       -23.8055
  19   2.0000      -0.837309       -22.7843
  20   2.0000      -0.792251       -21.5582
  21   2.0000      -0.769968       -20.9519
  22   2.0000      -0.733269       -19.9533
  23   2.0000      -0.692907       -18.8550
  24   2.0000      -0.668873       -18.2010
  25   2.0000      -0.658479       -17.9181
  26   2.0000      -0.647263       -17.6129
  27   2.0000      -0.627005       -17.0617
  28   2.0000      -0.618935       -16.8421
  29   2.0000      -0.591380       -16.0923
  30   2.0000      -0.566642       -15.4191
  31   2.0000      -0.555203       -15.1079
  32   2.0000      -0.548129       -14.9154
  33   2.0000      -0.527277       -14.3479
  34   2.0000      -0.515846       -14.0369
  35   2.0000      -0.509237       -13.8571
  36   2.0000      -0.493073       -13.4172
  37   2.0000      -0.479659       -13.0522
  38   2.0000      -0.464041       -12.6272
  39   2.0000      -0.456337       -12.4176
  40   2.0000      -0.445135       -12.1127
  41   2.0000      -0.436450       -11.8764
  42   2.0000      -0.425121       -11.5681
  43   2.0000      -0.413665       -11.2564
  44   2.0000      -0.403606       -10.9827
  45   2.0000      -0.394040       -10.7224
  46   2.0000      -0.382774       -10.4158
  47   2.0000      -0.376179       -10.2363
  48   2.0000      -0.369711       -10.0603
  49   2.0000      -0.323904        -8.8139
  50   2.0000      -0.208240        -5.6665
  51   0.0000      -0.012431        -0.3383
  52   0.0000       0.018522         0.5040
  53   0.0000       0.036750         1.0000
  54   0.0000       0.041062         1.1174
  55   0.0000       0.046414         1.2630

MULLIKEN ATOMIC CHARGES
-----------------------
   0 C :   -0.442020
   1 C :   -0.637829
   2 C :   -0.634690
   3 C :   -0.484244
   4 H :    0.341886
   5 H :    0.318964
   6 C :    0.643348
   7 C :   -0.024457
   8 N :   -0.402898
   9 N :   -0.549553
  10 H :    0.206704
  11 H :    0.329055
  12 H :    0.367362
  13 H :    0.221125
  14 H :    0.298584
  15 F :   -0.304439
  16 O :   -0.592954
  17 C :   -0.682494
  18 H :    0.212445
  19 H :    0.376027
  20 C :   -0.501177
  21 H :    0.276424
  22 H :    0.310007
  23 C :   -0.445181
  24 H :    0.291066
  25 H :    0.325439
  26 H :    0.245988
  27 H :    0.332647
  28 H :    0.296263
  29 H :    0.308605
Sum of atomic charges:    0.0000000

LOEWDIN ATOMIC CHARGES
----------------------
   0 C :   -0.242906
   1 C :   -0.128820
   2 C :   -0.190317
   3 C :   -0.097907
   4 H :    0.117735
   5 H :    0.129710
   6 C :   -0.451484
   7 C :   -0.548295
   8 N :    0.150229
   9 N :    0.127716
  10 H :    0.110997
  11 H :    0.069190
  12 H :    0.058634
  13 H :    0.111141
  14 H :    0.045403
  15 F :    0.196119
  16 O :    0.077740
  17 C :   -0.198475
  18 H :    0.103147
  19 H :    0.091545
  20 C :   -0.204517
  21 H :    0.107382
  22 H :    0.111362
  23 C :   -0.205272
  24 H :    0.098271
  25 H :    0.116371
  26 H :    0.092344
  27 H :    0.121124
  28 H :    0.117223
  29 H :    0.114611

  Mayer bond orders larger than 0.100000
B(  0-C ,  1-C ) :   0.6512 B(  0-C , 17-C ) :   0.6638 B(  0-C , 18-H ) :   1.1463
B(  0-C , 19-H ) :   0.8483 B(  0-C , 23-C ) :   0.1206 B(  1-C ,  7-C ) :   1.4105
B(  1-C , 12-H ) :   1.0817 B(  2-C ,  3-C ) :   0.7916 B(  2-C , 23-C ) :   0.8297
B(  2-C , 28-H ) :   0.9682 B(  2-C , 29-H ) :   0.9289 B(  3-C ,  4-H ) :   0.9439
B(  3-C ,  5-H ) :   0.9061 B(  3-C ,  6-C ) :   0.8834 B(  3-C , 20-C ) :   0.1081
B(  6-C , 15-F ) :   0.8013 B(  6-C , 16-O ) :   1.5928 B(  7-C ,  8-N ) :   1.0031
B(  7-C ,  9-N ) :   0.9232 B(  7-C , 12-H ) :  -0.1682 B(  8-N , 13-H ) :   0.8739
B(  8-N , 14-H ) :   0.7279 B(  9-N , 10-H ) :   0.9222 B(  9-N , 11-H ) :   0.7150
B( 17-C , 20-C ) :   0.9154 B( 17-C , 21-H ) :   0.9558 B( 17-C , 22-H ) :   0.9580
B( 17-C , 23-C ) :   0.1298 B( 20-C , 23-C ) :   0.2967 B( 20-C , 24-H ) :   1.1043
B( 20-C , 25-H ) :   0.8712 B( 20-C , 26-H ) :  -0.1490 B( 23-C , 24-H ) :  -0.1606
B( 23-C , 26-H ) :   1.1937 B( 23-C , 27-H ) :   0.8481

FINAL SINGLE POINT ENERGY      -637.664718627729

DIPOLE MOMENT
-------------
                                X             Y             Z
Electronic contribution:     -3.11359       2.27346     -14.49743
Nuclear contribution   :      2.31842      -0.27661      14.74721
                        -----------------------------------------
Total Dipole Moment    :     -0.79516       1.99686       0.24978
                        -----------------------------------------
Magnitude (a.u.)       :      2.16382
Magnitude (Debye)      :      5.49999

Rotational constants in cm-1:     0.032691     0.023990     0.017099
Rotational constants in MHz :   980.050971   719.190545   512.606858

                             ****ORCA TERMINATED NORMALLY****
TOTAL RUN TIME: 0 days 0 hours 9 minutes 12 seconds 295 msec
