                         Program Version 5.0.0 -  RELEASE  -
|  1> !CAM-B3LYP RIJCOSX def2-TZVPD def2/J TightSCF xyzfile
|  2>
|  3> *xyzfile 0 1 D2.xyz
|  4>
|  5> %MaxCore 64000
|  6>
|  7> %pal nprocs 4
|  8> end
|  9>
| 10> %scf
| 11>   MaxIter 150
| 12> end
| 13>
| 14>
| 15>                          ****END OF INPUT****

CARTESIAN COORDINATES (ANGSTROEM)
---------------------------------
  C      2.234473   -2.989754   -2.397622
  N      2.756799   -2.945553   -3.765029
  C     -1.104325    0.251374   -2.860056
  C     -0.711893    0.842517   -4.218344
  H      0.154626    1.499800   -4.130909
  H     -1.538134    1.459222   -4.582671
  C     -0.397624   -0.205875   -5.288018
  C      1.987208   -2.590451   -4.818975
  C      0.743221   -3.017493   -4.913524
  N      2.499636   -1.848598   -5.803241
  H      3.309780   -1.292818   -5.558947
  H      1.801025   -1.304298   -6.289129
  H      3.716116   -2.628797   -3.829533
  H      0.395828   -3.627747   -4.185024
  H      0.039201   -2.454383   -5.371367
  F      0.617165   -0.005348   -5.998273
  O     -1.133173   -1.221380   -5.341465
  C      2.191199   -1.619503   -1.715492
  H      2.872783   -3.666368   -1.828014
  H      1.246188   -3.447444   -2.407842
  C      1.298729   -0.554314   -2.359773
  H      1.872917   -1.787955   -0.681310
  H      3.216809   -1.238432   -1.654428
  C     -0.196255   -0.863365   -2.325763
  H      1.612531   -0.371346   -3.393065
  H      1.480944    0.388638   -1.834444
  H     -0.404105   -1.761825   -2.909448
  H     -0.490439   -1.087880   -1.294131
  H     -1.143842    1.066711   -2.129680
  H     -2.114401   -0.156834   -2.930323

 Total Charge           Charge          ....    0
 Multiplicity           Mult            ....    1
 Number of Electrons    NEL             ....  102
 Basis Dimension        Dim             ....  640

ORBITAL ENERGIES
----------------

  NO   OCC          E(Eh)            E(eV)
   0   2.0000     -24.846878      -676.1179
   1   2.0000     -19.214165      -522.8440
   2   2.0000     -14.381967      -391.3532
   3   2.0000     -14.374790      -391.1579
   4   2.0000     -10.436611      -283.9946
   5   2.0000     -10.280030      -279.7338
   6   2.0000     -10.277100      -279.6541
   7   2.0000     -10.271598      -279.5044
   8   2.0000     -10.257302      -279.1154
   9   2.0000     -10.245548      -278.7955
  10   2.0000     -10.244770      -278.7744
  11   2.0000     -10.238844      -278.6131
  12   2.0000     -10.137694      -275.8607
  13   2.0000      -1.424934       -38.7744
  14   2.0000      -1.131174       -30.7808
  15   2.0000      -1.042923       -28.3794
  16   2.0000      -0.963509       -26.2184
  17   2.0000      -0.908863       -24.7314
  18   2.0000      -0.869242       -23.6533
  19   2.0000      -0.817418       -22.2431
  20   2.0000      -0.790182       -21.5019
  21   2.0000      -0.772160       -21.0115
  22   2.0000      -0.742561       -20.2061
  23   2.0000      -0.697650       -18.9840
  24   2.0000      -0.665864       -18.1191
  25   2.0000      -0.646092       -17.5811
  26   2.0000      -0.624120       -16.9832
  27   2.0000      -0.621886       -16.9224
  28   2.0000      -0.604860       -16.4591
  29   2.0000      -0.598120       -16.2757
  30   2.0000      -0.567305       -15.4372
  31   2.0000      -0.554872       -15.0988
  32   2.0000      -0.542147       -14.7526
  33   2.0000      -0.520202       -14.1554
  34   2.0000      -0.514843       -14.0096
  35   2.0000      -0.494884       -13.4665
  36   2.0000      -0.485444       -13.2096
  37   2.0000      -0.477915       -13.0047
  38   2.0000      -0.467389       -12.7183
  39   2.0000      -0.453486       -12.3400
  40   2.0000      -0.442777       -12.0486
  41   2.0000      -0.433367       -11.7925
  42   2.0000      -0.428027       -11.6472
  43   2.0000      -0.422280       -11.4908
  44   2.0000      -0.412183       -11.2161
  45   2.0000      -0.396756       -10.7963
  46   2.0000      -0.387108       -10.5338
  47   2.0000      -0.383880       -10.4459
  48   2.0000      -0.353858        -9.6290
  49   2.0000      -0.308371        -8.3912
  50   2.0000      -0.221783        -6.0350
  51   0.0000       0.005998         0.1632
  52   0.0000       0.020747         0.5646
  53   0.0000       0.035532         0.9669
  54   0.0000       0.038450         1.0463
  55   0.0000       0.048628         1.3232

MULLIKEN ATOMIC CHARGES
-----------------------
   0 C :   -0.685745
   1 N :   -0.203980
   2 C :   -0.650252
   3 C :   -0.528177
   4 H :    0.338519
   5 H :    0.329430
   6 C :    0.627579
   7 C :    0.082335
   8 C :   -1.468371
   9 N :   -0.478388
  10 H :    0.204972
  11 H :    0.263219
  12 H :    0.191686
  13 H :    0.561751
  14 H :    0.783536
  15 F :   -0.323765
  16 O :   -0.540776
  17 C :   -0.612348
  18 H :    0.290783
  19 H :    0.291618
  20 C :   -0.400583
  21 H :    0.307720
  22 H :    0.276218
  23 C :   -0.438978
  24 H :    0.239367
  25 H :    0.354223
  26 H :    0.248472
  27 H :    0.329930
  28 H :    0.290127
  29 H :    0.319877
Sum of atomic charges:    0.0000000

LOEWDIN ATOMIC CHARGES
----------------------
   0 C :   -0.191149
   1 N :    0.028057
   2 C :   -0.189663
   3 C :   -0.099992
   4 H :    0.114997
   5 H :    0.127789
   6 C :   -0.458395
   7 C :   -0.556609
   8 C :    0.015801
   9 N :    0.120706
  10 H :    0.098129
  11 H :    0.076183
  12 H :    0.127483
  13 H :    0.029507
  14 H :   -0.016636
  15 F :    0.193119
  16 O :    0.074203
  17 C :   -0.185967
  18 H :    0.114291
  19 H :    0.105500
  20 C :   -0.204263
  21 H :    0.111593
  22 H :    0.107976
  23 C :   -0.203453
  24 H :    0.098046
  25 H :    0.116891
  26 H :    0.095375
  27 H :    0.119954
  28 H :    0.115194
  29 H :    0.115331

  Mayer bond orders larger than 0.100000
B(  0-C ,  1-N ) :   0.7956 B(  0-C , 17-C ) :   0.6877 B(  0-C , 18-H ) :   0.9847
B(  0-C , 19-H ) :   0.9631 B(  0-C , 23-C ) :   0.1150 B(  1-N ,  7-C ) :   0.9586
B(  1-N , 12-H ) :   0.8996 B(  2-C ,  3-C ) :   0.7975 B(  2-C , 20-C ) :   0.1025
B(  2-C , 23-C ) :   0.8296 B(  2-C , 28-H ) :   0.9784 B(  2-C , 29-H ) :   0.9096
B(  3-C ,  4-H ) :   0.9472 B(  3-C ,  5-H ) :   0.9029 B(  3-C ,  6-C ) :   0.8820
B(  3-C , 20-C ) :   0.1185 B(  6-C , 15-F ) :   0.7593 B(  6-C , 16-O ) :   1.7408
B(  7-C ,  8-C ) :   1.7691 B(  7-C ,  9-N ) :   0.8006 B(  7-C , 14-H ) :  -0.2407
B(  8-C , 13-H ) :   0.8205 B(  8-C , 14-H ) :   0.4508 B(  9-N , 10-H ) :   0.9056
B(  9-N , 11-H ) :   0.7994 B( 13-H , 14-H ) :   0.2079 B( 14-H , 16-O ) :  -0.1262
B( 17-C , 20-C ) :   0.8468 B( 17-C , 21-H ) :   0.9728 B( 17-C , 22-H ) :   0.9767
B( 17-C , 23-C ) :   0.1214 B( 20-C , 23-C ) :   0.3298 B( 20-C , 24-H ) :   1.1125
B( 20-C , 25-H ) :   0.8376 B( 20-C , 26-H ) :  -0.1467 B( 23-C , 24-H ) :  -0.1310
B( 23-C , 26-H ) :   1.1792 B( 23-C , 27-H ) :   0.8508

FINAL SINGLE POINT ENERGY      -637.645785343098

DIPOLE MOMENT
-------------
                                X             Y             Z
Electronic contribution:     -1.51497       2.19387     -13.51118
Nuclear contribution   :      2.00823      -0.28769      14.57028
                        -----------------------------------------
Total Dipole Moment    :      0.49326       1.90618       1.05910
                        -----------------------------------------
Magnitude (a.u.)       :      2.23574
Magnitude (Debye)      :      5.68279

Rotational constants in cm-1:     0.033070     0.023715     0.016943
Rotational constants in MHz :   991.423248   710.957140   507.940500

                             ****ORCA TERMINATED NORMALLY****
TOTAL RUN TIME: 0 days 0 hours 9 minutes 6 seconds 103 msec
