                         Program Version 5.0.0 -  RELEASE  -
|  1> !CAM-B3LYP RIJCOSX def2-TZVPD def2/J TightSCF xyzfile
|  2>
|  3> *xyzfile 0 1 D3.xyz
|  4>
|  5> %MaxCore 64000
|  6>
|  7> %pal nprocs 4
|  8> end
|  9>
| 10> %scf
| 11>   MaxIter 150
| 12> end
| 13>
| 14>
| 15>                          ****END OF INPUT****

CARTESIAN COORDINATES (ANGSTROEM)
---------------------------------
  C      2.234473   -2.989754   -2.397622
  N      2.756799   -2.945553   -3.765029
  C     -1.104325    0.251374   -2.860056
  C     -0.711893    0.842517   -4.218344
  H      0.154626    1.499800   -4.130909
  H     -1.538134    1.459222   -4.582671
  C     -0.397624   -0.205875   -5.288018
  C      1.987208   -2.590451   -4.818975
  N      0.743221   -3.017493   -4.913524
  C      2.499636   -1.848598   -5.803241
  H      3.309780   -1.292818   -5.558947
  H      1.801025   -1.304298   -6.289129
  H      3.716116   -2.628797   -3.829533
  H      0.395828   -3.627747   -4.185024
  H      0.039201   -2.454383   -5.371367
  F      0.617165   -0.005348   -5.998273
  O     -1.133173   -1.221380   -5.341465
  C      2.191199   -1.619503   -1.715492
  H      2.872783   -3.666368   -1.828014
  H      1.246188   -3.447444   -2.407842
  C      1.298729   -0.554314   -2.359773
  H      1.872917   -1.787955   -0.681310
  H      3.216809   -1.238432   -1.654428
  C     -0.196255   -0.863365   -2.325763
  H      1.612531   -0.371346   -3.393065
  H      1.480944    0.388638   -1.834444
  H     -0.404105   -1.761825   -2.909448
  H     -0.490439   -1.087880   -1.294131
  H     -1.143842    1.066711   -2.129680
  H     -2.114401   -0.156834   -2.930323

 Total Charge           Charge          ....    0
 Multiplicity           Mult            ....    1
 Number of Electrons    NEL             ....  102
 Basis Dimension        Dim             ....  640

ORBITAL ENERGIES
----------------

  NO   OCC          E(Eh)            E(eV)
   0   2.0000     -24.840290      -675.9387
   1   2.0000     -19.227462      -523.2058
   2   2.0000     -14.382054      -391.3556
   3   2.0000     -14.364612      -390.8810
   4   2.0000     -10.447151      -284.2814
   5   2.0000     -10.285108      -279.8720
   6   2.0000     -10.283370      -279.8247
   7   2.0000     -10.279049      -279.7071
   8   2.0000     -10.263921      -279.2955
   9   2.0000     -10.248261      -278.8694
  10   2.0000     -10.248152      -278.8664
  11   2.0000     -10.247708      -278.8543
  12   2.0000     -10.140990      -275.9504
  13   2.0000      -1.419482       -38.6261
  14   2.0000      -1.144866       -31.1534
  15   2.0000      -1.042776       -28.3754
  16   2.0000      -0.958728       -26.0883
  17   2.0000      -0.915314       -24.9069
  18   2.0000      -0.874937       -23.8082
  19   2.0000      -0.827997       -22.5309
  20   2.0000      -0.791927       -21.5494
  21   2.0000      -0.769401       -20.9365
  22   2.0000      -0.733516       -19.9600
  23   2.0000      -0.696945       -18.9648
  24   2.0000      -0.672426       -18.2976
  25   2.0000      -0.657252       -17.8847
  26   2.0000      -0.637717       -17.3532
  27   2.0000      -0.619931       -16.8692
  28   2.0000      -0.606934       -16.5155
  29   2.0000      -0.598373       -16.2825
  30   2.0000      -0.566439       -15.4136
  31   2.0000      -0.553418       -15.0593
  32   2.0000      -0.545620       -14.8471
  33   2.0000      -0.534234       -14.5373
  34   2.0000      -0.520048       -14.1512
  35   2.0000      -0.505976       -13.7683
  36   2.0000      -0.485428       -13.2092
  37   2.0000      -0.479640       -13.0517
  38   2.0000      -0.460527       -12.5316
  39   2.0000      -0.450438       -12.2570
  40   2.0000      -0.446346       -12.1457
  41   2.0000      -0.436929       -11.8894
  42   2.0000      -0.430200       -11.7063
  43   2.0000      -0.425476       -11.5778
  44   2.0000      -0.413184       -11.2433
  45   2.0000      -0.401182       -10.9167
  46   2.0000      -0.398228       -10.8363
  47   2.0000      -0.390390       -10.6230
  48   2.0000      -0.378358       -10.2957
  49   2.0000      -0.305890        -8.3237
  50   2.0000      -0.219293        -5.9673
  51   0.0000      -0.002212        -0.0602
  52   0.0000       0.023300         0.6340
  53   0.0000       0.033720         0.9176
  54   0.0000       0.036986         1.0064
  55   0.0000       0.044897         1.2217

MULLIKEN ATOMIC CHARGES
-----------------------
   0 C :   -0.767328
   1 N :   -0.211420
   2 C :   -0.612123
   3 C :   -0.522999
   4 H :    0.339783
   5 H :    0.326304
   6 C :    0.625636
   7 C :    0.142125
   8 N :   -0.400932
   9 C :   -1.025216
  10 H :    0.274802
  11 H :    0.478225
  12 H :    0.219427
  13 H :    0.235387
  14 H :    0.282172
  15 F :   -0.264380
  16 O :   -0.612805
  17 C :   -0.574054
  18 H :    0.285280
  19 H :    0.301862
  20 C :   -0.465237
  21 H :    0.305136
  22 H :    0.283170
  23 C :   -0.441658
  24 H :    0.286423
  25 H :    0.342548
  26 H :    0.239469
  27 H :    0.324853
  28 H :    0.292885
  29 H :    0.312667
Sum of atomic charges:   -0.0000000

LOEWDIN ATOMIC CHARGES
----------------------
   0 C :   -0.195243
   1 N :    0.033327
   2 C :   -0.190021
   3 C :   -0.096151
   4 H :    0.118432
   5 H :    0.129437
   6 C :   -0.449874
   7 C :   -0.560811
   8 N :    0.145872
   9 C :   -0.006684
  10 H :    0.014950
  11 H :   -0.007897
  12 H :    0.135181
  13 H :    0.102411
  14 H :    0.052736
  15 F :    0.195278
  16 O :    0.073506
  17 C :   -0.185564
  18 H :    0.113575
  19 H :    0.101380
  20 C :   -0.201581
  21 H :    0.110671
  22 H :    0.111158
  23 C :   -0.207277
  24 H :    0.102024
  25 H :    0.118268
  26 H :    0.091610
  27 H :    0.119727
  28 H :    0.116708
  29 H :    0.114856

  Mayer bond orders larger than 0.100000
B(  0-C ,  1-N ) :   0.8618 B(  0-C ,  7-C ) :  -0.1032 B(  0-C ,  8-N ) :   0.1071
B(  0-C , 17-C ) :   0.6395 B(  0-C , 18-H ) :   1.0172 B(  0-C , 19-H ) :   0.9616
B(  0-C , 23-C ) :   0.1052 B(  1-N ,  7-C ) :   1.0145 B(  1-N , 12-H ) :   0.8532
B(  2-C ,  3-C ) :   0.7939 B(  2-C , 23-C ) :   0.8217 B(  2-C , 28-H ) :   0.9727
B(  2-C , 29-H ) :   0.9199 B(  3-C ,  4-H ) :   0.9430 B(  3-C ,  5-H ) :   0.8989
B(  3-C ,  6-C ) :   0.8884 B(  3-C , 20-C ) :   0.1015 B(  6-C , 15-F ) :   0.8572
B(  6-C , 16-O ) :   1.5775 B(  7-C ,  8-N ) :   0.8825 B(  7-C ,  9-C ) :   1.4942
B(  7-C , 10-H ) :  -0.1658 B(  7-C , 11-H ) :  -0.1001 B(  8-N , 13-H ) :   0.8373
B(  8-N , 14-H ) :   0.7556 B(  9-C , 10-H ) :   1.2402 B(  9-C , 11-H ) :   0.7465
B( 17-C , 20-C ) :   0.8623 B( 17-C , 21-H ) :   0.9932 B( 17-C , 22-H ) :   0.9674
B( 17-C , 23-C ) :   0.1187 B( 20-C , 23-C ) :   0.3023 B( 20-C , 24-H ) :   1.0951
B( 20-C , 25-H ) :   0.8412 B( 20-C , 26-H ) :  -0.1557 B( 23-C , 24-H ) :  -0.1373
B( 23-C , 26-H ) :   1.1836 B( 23-C , 27-H ) :   0.8640

FINAL SINGLE POINT ENERGY      -637.651205857086

DIPOLE MOMENT
-------------
                                X             Y             Z
Electronic contribution:     -2.87915       1.37583     -12.70691
Nuclear contribution   :      2.27881      -0.10762      14.43322
                        -----------------------------------------
Total Dipole Moment    :     -0.60034       1.26822       1.72630
                        -----------------------------------------
Magnitude (a.u.)       :      2.22461
Magnitude (Debye)      :      5.65451

Rotational constants in cm-1:     0.033336     0.023673     0.017062
Rotational constants in MHz :   999.388459   709.685364   511.514310

                             ****ORCA TERMINATED NORMALLY****
TOTAL RUN TIME: 0 days 0 hours 9 minutes 11 seconds 680 msec
