                         Program Version 5.0.0 -  RELEASE  -
|  1> !CAM-B3LYP RIJCOSX def2-TZVPD def2/J TightSCF xyzfile
|  2>
|  3> *xyzfile 0 1 D4.xyz
|  4>
|  5> %MaxCore 64000
|  6>
|  7> %pal nprocs 4
|  8> end
|  9>
| 10> %scf
| 11>   MaxIter 150
| 12> end
| 13>
| 14>
| 15>                          ****END OF INPUT****

CARTESIAN COORDINATES (ANGSTROEM)
---------------------------------
  C      2.234473   -2.989754   -2.397622
  C      2.756799   -2.945553   -3.765029
  C     -1.104325    0.251374   -2.860056
  C     -0.711893    0.842517   -4.218344
  H      0.154626    1.499800   -4.130909
  H     -1.538134    1.459222   -4.582671
  C     -0.397624   -0.205875   -5.288018
  C      1.987208   -2.590451   -4.818975
  N      0.743221   -3.017493   -4.913524
  N      2.499636   -1.848598   -5.803241
  H      3.309780   -1.292818   -5.558947
  H      1.801025   -1.304298   -6.289129
  H      3.716116   -2.628797   -3.829533
  H      0.395828   -3.627747   -4.185024
  H      0.039201   -2.454383   -5.371367
  O      0.617165   -0.005348   -5.998273
  F     -1.133173   -1.221380   -5.341465
  C      2.191199   -1.619503   -1.715492
  H      2.872783   -3.666368   -1.828014
  H      1.246188   -3.447444   -2.407842
  C      1.298729   -0.554314   -2.359773
  H      1.872917   -1.787955   -0.681310
  H      3.216809   -1.238432   -1.654428
  C     -0.196255   -0.863365   -2.325763
  H      1.612531   -0.371346   -3.393065
  H      1.480944    0.388638   -1.834444
  H     -0.404105   -1.761825   -2.909448
  H     -0.490439   -1.087880   -1.294131
  H     -1.143842    1.066711   -2.129680
  H     -2.114401   -0.156834   -2.930323

 Total Charge           Charge          ....    0
 Multiplicity           Mult            ....    1
 Number of Electrons    NEL             ....  102
 Basis Dimension        Dim             ....  640

ORBITAL ENERGIES
----------------

  NO   OCC          E(Eh)            E(eV)
   0   2.0000     -24.864451      -676.5961
   1   2.0000     -19.238630      -523.5097
   2   2.0000     -14.379716      -391.2920
   3   2.0000     -14.362397      -390.8207
   4   2.0000     -10.456948      -284.5480
   5   2.0000     -10.289411      -279.9891
   6   2.0000     -10.281867      -279.7838
   7   2.0000     -10.267374      -279.3895
   8   2.0000     -10.248333      -278.8713
   9   2.0000     -10.237310      -278.5714
  10   2.0000     -10.225647      -278.2540
  11   2.0000     -10.215485      -277.9775
  12   2.0000     -10.155670      -276.3498
  13   2.0000      -1.443518       -39.2801
  14   2.0000      -1.153405       -31.3858
  15   2.0000      -1.040683       -28.3184
  16   2.0000      -0.945354       -25.7244
  17   2.0000      -0.920261       -25.0416
  18   2.0000      -0.874996       -23.8099
  19   2.0000      -0.836405       -22.7597
  20   2.0000      -0.788323       -21.4514
  21   2.0000      -0.770183       -20.9577
  22   2.0000      -0.736670       -20.0458
  23   2.0000      -0.694259       -18.8918
  24   2.0000      -0.676573       -18.4105
  25   2.0000      -0.659446       -17.9444
  26   2.0000      -0.649717       -17.6797
  27   2.0000      -0.637103       -17.3365
  28   2.0000      -0.602626       -16.3983
  29   2.0000      -0.590566       -16.0701
  30   2.0000      -0.561465       -15.2782
  31   2.0000      -0.557187       -15.1618
  32   2.0000      -0.548003       -14.9119
  33   2.0000      -0.521300       -14.1853
  34   2.0000      -0.512668       -13.9504
  35   2.0000      -0.509106       -13.8535
  36   2.0000      -0.500929       -13.6310
  37   2.0000      -0.474012       -12.8985
  38   2.0000      -0.468127       -12.7384
  39   2.0000      -0.462254       -12.5786
  40   2.0000      -0.452729       -12.3194
  41   2.0000      -0.431569       -11.7436
  42   2.0000      -0.428525       -11.6608
  43   2.0000      -0.412736       -11.2311
  44   2.0000      -0.404895       -11.0177
  45   2.0000      -0.391813       -10.6618
  46   2.0000      -0.383787       -10.4434
  47   2.0000      -0.373050       -10.1512
  48   2.0000      -0.370529       -10.0826
  49   2.0000      -0.323181        -8.7942
  50   2.0000      -0.206785        -5.6269
  51   0.0000      -0.009212        -0.2507
  52   0.0000       0.017529         0.4770
  53   0.0000       0.035791         0.9739
  54   0.0000       0.040966         1.1147
  55   0.0000       0.045892         1.2488

MULLIKEN ATOMIC CHARGES
-----------------------
   0 C :   -0.440006
   1 C :   -0.603721
   2 C :   -0.673518
   3 C :   -0.417791
   4 H :    0.288911
   5 H :    0.333082
   6 C :    0.621436
   7 C :   -0.108300
   8 N :   -0.425866
   9 N :   -0.528018
  10 H :    0.198405
  11 H :    0.360203
  12 H :    0.363930
  13 H :    0.229010
  14 H :    0.332781
  15 O :   -0.600697
  16 F :   -0.312185
  17 C :   -0.677368
  18 H :    0.207128
  19 H :    0.372127
  20 C :   -0.495157
  21 H :    0.277065
  22 H :    0.310255
  23 C :   -0.425174
  24 H :    0.330662
  25 H :    0.328520
  26 H :    0.214150
  27 H :    0.332050
  28 H :    0.293439
  29 H :    0.314648
Sum of atomic charges:   -0.0000000

LOEWDIN ATOMIC CHARGES
----------------------
   0 C :   -0.244470
   1 C :   -0.128049
   2 C :   -0.196729
   3 C :   -0.093250
   4 H :    0.125666
   5 H :    0.128256
   6 C :   -0.453857
   7 C :   -0.546699
   8 N :    0.151249
   9 N :    0.127574
  10 H :    0.111533
  11 H :    0.051463
  12 H :    0.059917
  13 H :    0.110131
  14 H :    0.066471
  15 O :    0.073034
  16 F :    0.196645
  17 C :   -0.198646
  18 H :    0.102874
  19 H :    0.089903
  20 C :   -0.202539
  21 H :    0.106576
  22 H :    0.112150
  23 C :   -0.207801
  24 H :    0.101723
  25 H :    0.117265
  26 H :    0.090318
  27 H :    0.120768
  28 H :    0.117359
  29 H :    0.111166

  Mayer bond orders larger than 0.100000
B(  0-C ,  1-C ) :   0.6568 B(  0-C , 17-C ) :   0.6584 B(  0-C , 18-H ) :   1.1514
B(  0-C , 19-H ) :   0.8459 B(  0-C , 23-C ) :   0.1150 B(  1-C ,  7-C ) :   1.4011
B(  1-C , 12-H ) :   1.0773 B(  2-C ,  3-C ) :   0.7307 B(  2-C , 20-C ) :   0.1045
B(  2-C , 23-C ) :   0.7479 B(  2-C , 28-H ) :   0.9697 B(  2-C , 29-H ) :   0.9630
B(  3-C ,  4-H ) :   0.9949 B(  3-C ,  5-H ) :   0.9082 B(  3-C ,  6-C ) :   0.8823
B(  3-C , 23-C ) :  -0.1122 B(  6-C , 15-O ) :   1.5455 B(  6-C , 16-F ) :   0.8297
B(  7-C ,  8-N ) :   1.0452 B(  7-C ,  9-N ) :   0.9642 B(  7-C , 12-H ) :  -0.1568
B(  7-C , 20-C ) :   0.1056 B(  8-N , 13-H ) :   0.8715 B(  8-N , 14-H ) :   0.6901
B(  9-N , 10-H ) :   0.9207 B(  9-N , 11-H ) :   0.6965 B( 17-C , 20-C ) :   0.9036
B( 17-C , 21-H ) :   0.9585 B( 17-C , 22-H ) :   0.9566 B( 17-C , 23-C ) :   0.1421
B( 20-C , 23-C ) :   0.3067 B( 20-C , 24-H ) :   1.0949 B( 20-C , 25-H ) :   0.8588
B( 20-C , 26-H ) :  -0.1523 B( 23-C , 24-H ) :  -0.1441 B( 23-C , 26-H ) :   1.2002
B( 23-C , 27-H ) :   0.8610

FINAL SINGLE POINT ENERGY      -637.664657586493

DIPOLE MOMENT
-------------
                                X             Y             Z
Electronic contribution:     -6.04103       0.25459     -13.39177
Nuclear contribution   :      4.38568       1.15960      13.97148
                        -----------------------------------------
Total Dipole Moment    :     -1.65535       1.41419       0.57971
                        -----------------------------------------
Magnitude (a.u.)       :      2.25304
Magnitude (Debye)      :      5.72677

Rotational constants in cm-1:     0.032892     0.023844     0.017123
Rotational constants in MHz :   986.091711   714.821905   513.334630

                             ****ORCA TERMINATED NORMALLY****
TOTAL RUN TIME: 0 days 0 hours 9 minutes 50 seconds 683 msec
