                         Program Version 5.0.0 -  RELEASE  -
|  1> !CAM-B3LYP RIJCOSX def2-TZVPD def2/J TightSCF xyzfile
|  2>
|  3> *xyzfile 0 1 D5.xyz
|  4>
|  5> %MaxCore 64000
|  6>
|  7> %pal nprocs 4
|  8> end
|  9>
| 10> %scf
| 11>   MaxIter 150
| 12> end
| 13>
| 14>
| 15>                          ****END OF INPUT****

CARTESIAN COORDINATES (ANGSTROEM)
---------------------------------
  C      2.234473   -2.989754   -2.397622
  N      2.756799   -2.945553   -3.765029
  C     -1.104325    0.251374   -2.860056
  C     -0.711893    0.842517   -4.218344
  H      0.154626    1.499800   -4.130909
  H     -1.538134    1.459222   -4.582671
  C     -0.397624   -0.205875   -5.288018
  C      1.987208   -2.590451   -4.818975
  C      0.743221   -3.017493   -4.913524
  N      2.499636   -1.848598   -5.803241
  H      3.309780   -1.292818   -5.558947
  H      1.801025   -1.304298   -6.289129
  H      3.716116   -2.628797   -3.829533
  H      0.395828   -3.627747   -4.185024
  H      0.039201   -2.454383   -5.371367
  O      0.617165   -0.005348   -5.998273
  F     -1.133173   -1.221380   -5.341465
  C      2.191199   -1.619503   -1.715492
  H      2.872783   -3.666368   -1.828014
  H      1.246188   -3.447444   -2.407842
  C      1.298729   -0.554314   -2.359773
  H      1.872917   -1.787955   -0.681310
  H      3.216809   -1.238432   -1.654428
  C     -0.196255   -0.863365   -2.325763
  H      1.612531   -0.371346   -3.393065
  H      1.480944    0.388638   -1.834444
  H     -0.404105   -1.761825   -2.909448
  H     -0.490439   -1.087880   -1.294131
  H     -1.143842    1.066711   -2.129680
  H     -2.114401   -0.156834   -2.930323

 Total Charge           Charge          ....    0
 Multiplicity           Mult            ....    1
 Number of Electrons    NEL             ....  102
 Basis Dimension        Dim             ....  640

ORBITAL ENERGIES
----------------

  NO   OCC          E(Eh)            E(eV)
   0   2.0000     -24.836313      -675.8304
   1   2.0000     -19.221293      -523.0380
   2   2.0000     -14.382237      -391.3606
   3   2.0000     -14.361925      -390.8078
   4   2.0000     -10.440840      -284.1097
   5   2.0000     -10.280061      -279.7347
   6   2.0000     -10.279088      -279.7082
   7   2.0000     -10.272414      -279.5266
   8   2.0000     -10.261586      -279.2320
   9   2.0000     -10.244811      -278.7755
  10   2.0000     -10.244222      -278.7595
  11   2.0000     -10.244003      -278.7535
  12   2.0000     -10.144471      -276.0451
  13   2.0000      -1.416515       -38.5453
  14   2.0000      -1.136391       -30.9228
  15   2.0000      -1.039230       -28.2789
  16   2.0000      -0.957271       -26.0487
  17   2.0000      -0.913085       -24.8463
  18   2.0000      -0.869506       -23.6605
  19   2.0000      -0.817600       -22.2480
  20   2.0000      -0.787466       -21.4280
  21   2.0000      -0.768525       -20.9126
  22   2.0000      -0.742190       -20.1960
  23   2.0000      -0.698030       -18.9944
  24   2.0000      -0.664518       -18.0824
  25   2.0000      -0.649020       -17.6607
  26   2.0000      -0.631634       -17.1876
  27   2.0000      -0.617554       -16.8045
  28   2.0000      -0.600863       -16.3503
  29   2.0000      -0.591759       -16.1026
  30   2.0000      -0.560019       -15.2389
  31   2.0000      -0.554284       -15.0828
  32   2.0000      -0.545983       -14.8569
  33   2.0000      -0.521704       -14.1963
  34   2.0000      -0.514392       -13.9973
  35   2.0000      -0.492651       -13.4057
  36   2.0000      -0.484397       -13.1811
  37   2.0000      -0.479877       -13.0581
  38   2.0000      -0.462477       -12.5846
  39   2.0000      -0.457303       -12.4439
  40   2.0000      -0.445180       -12.1140
  41   2.0000      -0.438787       -11.9400
  42   2.0000      -0.426039       -11.5931
  43   2.0000      -0.424462       -11.5502
  44   2.0000      -0.410081       -11.1589
  45   2.0000      -0.396327       -10.7846
  46   2.0000      -0.394789       -10.7428
  47   2.0000      -0.385605       -10.4928
  48   2.0000      -0.369779       -10.0622
  49   2.0000      -0.302991        -8.2448
  50   2.0000      -0.224585        -6.1113
  51   0.0000       0.006155         0.1675
  52   0.0000       0.023526         0.6402
  53   0.0000       0.034566         0.9406
  54   0.0000       0.039443         1.0733
  55   0.0000       0.048736         1.3262

MULLIKEN ATOMIC CHARGES
-----------------------
   0 C :   -0.688173
   1 N :   -0.196128
   2 C :   -0.686818
   3 C :   -0.460617
   4 H :    0.287250
   5 H :    0.343611
   6 C :    0.625142
   7 C :    0.080887
   8 C :   -1.393283
   9 N :   -0.463058
  10 H :    0.200070
  11 H :    0.288861
  12 H :    0.193704
  13 H :    0.591440
  14 H :    0.634333
  15 O :   -0.620280
  16 F :   -0.268346
  17 C :   -0.601509
  18 H :    0.290397
  19 H :    0.282832
  20 C :   -0.411603
  21 H :    0.306953
  22 H :    0.276376
  23 C :   -0.406878
  24 H :    0.277335
  25 H :    0.356803
  26 H :    0.220244
  27 H :    0.330243
  28 H :    0.286870
  29 H :    0.323342
Sum of atomic charges:   -0.0000000

LOEWDIN ATOMIC CHARGES
----------------------
   0 C :   -0.191677
   1 N :    0.031309
   2 C :   -0.195226
   3 C :   -0.093643
   4 H :    0.123448
   5 H :    0.127156
   6 C :   -0.454981
   7 C :   -0.552102
   8 C :    0.010726
   9 N :    0.124848
  10 H :    0.099972
  11 H :    0.058910
  12 H :    0.129221
  13 H :    0.025204
  14 H :   -0.002189
  15 O :    0.066228
  16 F :    0.189324
  17 C :   -0.185775
  18 H :    0.114233
  19 H :    0.104471
  20 C :   -0.202459
  21 H :    0.111040
  22 H :    0.108772
  23 C :   -0.206400
  24 H :    0.101169
  25 H :    0.117751
  26 H :    0.093363
  27 H :    0.119547
  28 H :    0.115514
  29 H :    0.112245

  Mayer bond orders larger than 0.100000
B(  0-C ,  1-N ) :   0.7985 B(  0-C , 17-C ) :   0.6853 B(  0-C , 18-H ) :   0.9868
B(  0-C , 19-H ) :   0.9645 B(  0-C , 23-C ) :   0.1108 B(  1-N ,  7-C ) :   0.9716
B(  1-N , 12-H ) :   0.8942 B(  2-C ,  3-C ) :   0.7326 B(  2-C , 20-C ) :   0.1107
B(  2-C , 23-C ) :   0.7528 B(  2-C , 28-H ) :   0.9822 B(  2-C , 29-H ) :   0.9434
B(  3-C ,  4-H ) :   1.0032 B(  3-C ,  5-H ) :   0.8996 B(  3-C ,  6-C ) :   0.8862
B(  3-C , 20-C ) :   0.1013 B(  3-C , 23-C ) :  -0.1170 B(  6-C , 15-O ) :   1.5047
B(  6-C , 16-F ) :   0.9260 B(  7-C ,  8-C ) :   1.7568 B(  7-C ,  9-N ) :   0.8620
B(  7-C , 13-H ) :  -0.1034 B(  7-C , 14-H ) :  -0.1727 B(  8-C , 13-H ) :   0.7715
B(  8-C , 14-H ) :   0.5419 B(  9-N , 10-H ) :   0.9015 B(  9-N , 11-H ) :   0.7787
B( 13-H , 14-H ) :   0.1725 B( 17-C , 20-C ) :   0.8392 B( 17-C , 21-H ) :   0.9743
B( 17-C , 22-H ) :   0.9757 B( 17-C , 23-C ) :   0.1298 B( 20-C , 23-C ) :   0.3301
B( 20-C , 24-H ) :   1.0975 B( 20-C , 25-H ) :   0.8284 B( 20-C , 26-H ) :  -0.1507
B( 23-C , 24-H ) :  -0.1179 B( 23-C , 26-H ) :   1.1879 B( 23-C , 27-H ) :   0.8579

FINAL SINGLE POINT ENERGY      -637.656083029719

DIPOLE MOMENT
-------------
                                X             Y             Z
Electronic contribution:     -4.39480       0.22210     -12.37682
Nuclear contribution   :      4.07548       1.14852      13.79455
                        -----------------------------------------
Total Dipole Moment    :     -0.31931       1.37062       1.41772
                        -----------------------------------------
Magnitude (a.u.)       :      1.99762
Magnitude (Debye)      :      5.07756

Rotational constants in cm-1:     0.033274     0.023559     0.016968
Rotational constants in MHz :   997.539108   706.293545   508.690532

                             ****ORCA TERMINATED NORMALLY****
TOTAL RUN TIME: 0 days 0 hours 9 minutes 8 seconds 546 msec
