                         Program Version 5.0.0 -  RELEASE  -
|  1> !CAM-B3LYP RIJCOSX def2-TZVPD def2/J TightSCF xyzfile
|  2>
|  3> *xyzfile 0 1 D6.xyz
|  4>
|  5> %MaxCore 64000
|  6>
|  7> %pal nprocs 4
|  8> end
|  9>
| 10> %scf
| 11>   MaxIter 150
| 12> end
| 13>
| 14>
| 15>                          ****END OF INPUT****

CARTESIAN COORDINATES (ANGSTROEM)
---------------------------------
  C      2.234473   -2.989754   -2.397622
  N      2.756799   -2.945553   -3.765029
  C     -1.104325    0.251374   -2.860056
  C     -0.711893    0.842517   -4.218344
  H      0.154626    1.499800   -4.130909
  H     -1.538134    1.459222   -4.582671
  C     -0.397624   -0.205875   -5.288018
  C      1.987208   -2.590451   -4.818975
  N      0.743221   -3.017493   -4.913524
  C      2.499636   -1.848598   -5.803241
  H      3.309780   -1.292818   -5.558947
  H      1.801025   -1.304298   -6.289129
  H      3.716116   -2.628797   -3.829533
  H      0.395828   -3.627747   -4.185024
  H      0.039201   -2.454383   -5.371367
  O      0.617165   -0.005348   -5.998273
  F     -1.133173   -1.221380   -5.341465
  C      2.191199   -1.619503   -1.715492
  H      2.872783   -3.666368   -1.828014
  H      1.246188   -3.447444   -2.407842
  C      1.298729   -0.554314   -2.359773
  H      1.872917   -1.787955   -0.681310
  H      3.216809   -1.238432   -1.654428
  C     -0.196255   -0.863365   -2.325763
  H      1.612531   -0.371346   -3.393065
  H      1.480944    0.388638   -1.834444
  H     -0.404105   -1.761825   -2.909448
  H     -0.490439   -1.087880   -1.294131
  H     -1.143842    1.066711   -2.129680
  H     -2.114401   -0.156834   -2.930323

 Total Charge           Charge          ....    0
 Multiplicity           Mult            ....    1
 Number of Electrons    NEL             ....  102
 Basis Dimension        Dim             ....  640

ORBITAL ENERGIES
----------------

  NO   OCC          E(Eh)            E(eV)
   0   2.0000     -24.850516      -676.2169
   1   2.0000     -19.218172      -522.9530
   2   2.0000     -14.379962      -391.2987
   3   2.0000     -14.376590      -391.2069
   4   2.0000     -10.437603      -284.0216
   5   2.0000     -10.281468      -279.7730
   6   2.0000     -10.279012      -279.7061
   7   2.0000     -10.278632      -279.6958
   8   2.0000     -10.265730      -279.3447
   9   2.0000     -10.252760      -278.9918
  10   2.0000     -10.247248      -278.8418
  11   2.0000     -10.245822      -278.8030
  12   2.0000     -10.131904      -275.7031
  13   2.0000      -1.429987       -38.9119
  14   2.0000      -1.132397       -30.8141
  15   2.0000      -1.044223       -28.4148
  16   2.0000      -0.962829       -26.1999
  17   2.0000      -0.917667       -24.9710
  18   2.0000      -0.874321       -23.7915
  19   2.0000      -0.825375       -22.4596
  20   2.0000      -0.791558       -21.5394
  21   2.0000      -0.764160       -20.7939
  22   2.0000      -0.742956       -20.2169
  23   2.0000      -0.696627       -18.9562
  24   2.0000      -0.682060       -18.5598
  25   2.0000      -0.659563       -17.9476
  26   2.0000      -0.642716       -17.4892
  27   2.0000      -0.636576       -17.3221
  28   2.0000      -0.602442       -16.3933
  29   2.0000      -0.584800       -15.9132
  30   2.0000      -0.565540       -15.3891
  31   2.0000      -0.553855       -15.0712
  32   2.0000      -0.541514       -14.7353
  33   2.0000      -0.532225       -14.4826
  34   2.0000      -0.517302       -14.0765
  35   2.0000      -0.507921       -13.8212
  36   2.0000      -0.485578       -13.2132
  37   2.0000      -0.479499       -13.0478
  38   2.0000      -0.458294       -12.4708
  39   2.0000      -0.452323       -12.3083
  40   2.0000      -0.449114       -12.2210
  41   2.0000      -0.439470       -11.9586
  42   2.0000      -0.434353       -11.8193
  43   2.0000      -0.427592       -11.6354
  44   2.0000      -0.405462       -11.0332
  45   2.0000      -0.399508       -10.8712
  46   2.0000      -0.397616       -10.8197
  47   2.0000      -0.390406       -10.6235
  48   2.0000      -0.354955        -9.6588
  49   2.0000      -0.309687        -8.4270
  50   2.0000      -0.214038        -5.8243
  51   0.0000       0.005841         0.1589
  52   0.0000       0.020436         0.5561
  53   0.0000       0.033546         0.9128
  54   0.0000       0.035097         0.9550
  55   0.0000       0.044594         1.2135

MULLIKEN ATOMIC CHARGES
-----------------------
   0 C :   -0.764091
   1 N :   -0.210489
   2 C :   -0.657230
   3 C :   -0.442959
   4 H :    0.285366
   5 H :    0.331989
   6 C :    0.559112
   7 C :    0.050404
   8 N :   -0.418248
   9 C :   -1.004660
  10 H :    0.250969
  11 H :    0.568219
  12 H :    0.225094
  13 H :    0.251227
  14 H :    0.304903
  15 O :   -0.530477
  16 F :   -0.326504
  17 C :   -0.571219
  18 H :    0.283199
  19 H :    0.294644
  20 C :   -0.456831
  21 H :    0.303820
  22 H :    0.284401
  23 C :   -0.416392
  24 H :    0.310635
  25 H :    0.353610
  26 H :    0.207283
  27 H :    0.325673
  28 H :    0.289323
  29 H :    0.319229
Sum of atomic charges:   -0.0000000

LOEWDIN ATOMIC CHARGES
----------------------
   0 C :   -0.197048
   1 N :    0.031509
   2 C :   -0.197246
   3 C :   -0.093961
   4 H :    0.125397
   5 H :    0.126831
   6 C :   -0.460306
   7 C :   -0.560447
   8 N :    0.146710
   9 C :   -0.001494
  10 H :    0.019488
  11 H :   -0.019286
  12 H :    0.135707
  13 H :    0.101258
  14 H :    0.074254
  15 O :    0.076676
  16 F :    0.191239
  17 C :   -0.185923
  18 H :    0.113232
  19 H :    0.099817
  20 C :   -0.199417
  21 H :    0.109895
  22 H :    0.111792
  23 C :   -0.209908
  24 H :    0.105554
  25 H :    0.119214
  26 H :    0.089606
  27 H :    0.119235
  28 H :    0.116396
  29 H :    0.111224

  Mayer bond orders larger than 0.100000
B(  0-C ,  1-N ) :   0.8653 B(  0-C ,  7-C ) :  -0.1078 B(  0-C , 17-C ) :   0.6369
B(  0-C , 18-H ) :   1.0229 B(  0-C , 19-H ) :   0.9619 B(  0-C , 23-C ) :   0.1001
B(  1-N ,  7-C ) :   1.0061 B(  1-N , 12-H ) :   0.8458 B(  2-C ,  3-C ) :   0.7364
B(  2-C , 20-C ) :   0.1055 B(  2-C , 23-C ) :   0.7452 B(  2-C , 28-H ) :   0.9741
B(  2-C , 29-H ) :   0.9542 B(  3-C ,  4-H ) :   0.9915 B(  3-C ,  5-H ) :   0.9115
B(  3-C ,  6-C ) :   0.8907 B(  3-C , 23-C ) :  -0.1072 B(  6-C , 15-O ) :   1.6484
B(  6-C , 16-F ) :   0.8009 B(  7-C ,  8-N ) :   0.9086 B(  7-C ,  9-C ) :   1.5569
B(  7-C , 10-H ) :  -0.1496 B(  7-C , 11-H ) :  -0.1207 B(  8-N , 13-H ) :   0.8286
B(  8-N , 14-H ) :   0.7282 B(  9-C , 10-H ) :   1.2447 B(  9-C , 11-H ) :   0.6919
B( 11-H , 15-O ) :  -0.1224 B( 17-C , 20-C ) :   0.8607 B( 17-C , 21-H ) :   0.9955
B( 17-C , 22-H ) :   0.9659 B( 17-C , 23-C ) :   0.1329 B( 20-C , 23-C ) :   0.3101
B( 20-C , 24-H ) :   1.0883 B( 20-C , 25-H ) :   0.8242 B( 20-C , 26-H ) :  -0.1599
B( 23-C , 24-H ) :  -0.1234 B( 23-C , 26-H ) :   1.1918 B( 23-C , 27-H ) :   0.8762

FINAL SINGLE POINT ENERGY      -637.640792377392

DIPOLE MOMENT
-------------
                                X             Y             Z
Electronic contribution:     -5.72784      -0.66906     -11.67187
Nuclear contribution   :      4.34606       1.32859      13.65749
                        -----------------------------------------
Total Dipole Moment    :     -1.38178       0.65953       1.98561
                        -----------------------------------------
Magnitude (a.u.)       :      2.50738
Magnitude (Debye)      :      6.37325

Rotational constants in cm-1:     0.033551     0.023540     0.017085
Rotational constants in MHz :  1005.818710   705.725032   512.192443

                             ****ORCA TERMINATED NORMALLY****
TOTAL RUN TIME: 0 days 0 hours 9 minutes 12 seconds 719 msec
