                         Program Version 5.0.0 -  RELEASE  -
|  1> !wB97X-D3 RIJCOSX def2-SVPD def2/J TightSCF CPCM(Water)
|  2> *xyz 1 1
|  3> C          2.20996       -2.81239       -3.66571
|  4> C          2.48901       -1.66851       -2.73754
|  5> N          3.59631       -0.94761       -2.95225
|  6> N          1.66394       -1.41369       -1.77781
|  7> H          0.81164       -1.96318       -1.70275
|  8> H          1.84550       -0.63508       -1.15875
|  9> H          4.20535       -1.17600       -3.73383
| 10> H          3.81723       -0.12585       -2.40604
| 11> H          2.99011       -2.87840       -4.39503
| 12> H          1.27381       -2.65174       -4.15838
| 13> H          2.16680       -3.72339       -3.10614
| 14> *
| 15>
| 16> %MaxCore 64000
| 17> %pal nprocs 18
| 18> end
| 19>
| 20> %scf
| 21>   MaxIter 150
| 22> end
| 23>
| 24>
| 25>                          ****END OF INPUT****

CARTESIAN COORDINATES (ANGSTROEM)
---------------------------------
  C      2.209960   -2.812390   -3.665710
  C      2.489010   -1.668510   -2.737540
  N      3.596310   -0.947610   -2.952250
  N      1.663940   -1.413690   -1.777810
  H      0.811640   -1.963180   -1.702750
  H      1.845500   -0.635080   -1.158750
  H      4.205350   -1.176000   -3.733830
  H      3.817230   -0.125850   -2.406040
  H      2.990110   -2.878400   -4.395030
  H      1.273810   -2.651740   -4.158380
  H      2.166800   -3.723390   -3.106140

 Total Charge           Charge          ....    1
 Multiplicity           Mult            ....    1
 Number of Electrons    NEL             ....   32
 Basis Dimension        Dim             ....  136

ORBITAL ENERGIES
----------------

  NO   OCC          E(Eh)            E(eV)
   0   2.0000     -14.501362      -394.6021
   1   2.0000     -14.496608      -394.4728
   2   2.0000     -10.438608      -284.0490
   3   2.0000     -10.309818      -280.5444
   4   2.0000      -1.132090       -30.8057
   5   2.0000      -1.032637       -28.0995
   6   2.0000      -0.882360       -24.0102
   7   2.0000      -0.759700       -20.6725
   8   2.0000      -0.697010       -18.9666
   9   2.0000      -0.685209       -18.6455
  10   2.0000      -0.617934       -16.8148
  11   2.0000      -0.583389       -15.8748
  12   2.0000      -0.530963       -14.4482
  13   2.0000      -0.520465       -14.1626
  14   2.0000      -0.493867       -13.4388
  15   2.0000      -0.405077       -11.0227
  16   0.0000       0.052947         1.4408
  17   0.0000       0.088816         2.4168
  18   0.0000       0.128941         3.5087
  19   0.0000       0.136746         3.7210
  20   0.0000       0.156980         4.2716

MULLIKEN ATOMIC CHARGES
-----------------------
   0 C :    0.447066
   1 C :    0.290014
   2 N :   -0.133931
   3 N :    0.096879
   4 H :    0.097488
   5 H :   -0.063721
   6 H :    0.121845
   7 H :   -0.060464
   8 H :    0.078269
   9 H :    0.059994
  10 H :    0.066562
Sum of atomic charges:    1.0000000

LOEWDIN ATOMIC CHARGES
----------------------
   0 C :    0.221026
   1 C :   -0.059549
   2 N :    0.275130
   3 N :    0.280706
   4 H :    0.073051
   5 H :    0.063459
   6 H :    0.052951
   7 H :    0.051510
   8 H :    0.003701
   9 H :    0.019227
  10 H :    0.018788

  Mayer bond orders larger than 0.100000
B(  0-C ,  1-C ) :   1.2679 B(  0-C ,  8-H ) :   0.7993 B(  0-C ,  9-H ) :   0.8049
B(  0-C , 10-H ) :   0.7866 B(  1-C ,  2-N ) :   0.9566 B(  1-C ,  3-N ) :   1.2625
B(  1-C ,  5-H ) :  -0.1179 B(  1-C ,  7-H ) :  -0.2165 B(  1-C ,  8-H ) :   0.2247
B(  1-C ,  9-H ) :   0.1458 B(  1-C , 10-H ) :   0.1609 B(  2-N ,  3-N ) :   0.1400
B(  2-N ,  6-H ) :   1.0325 B(  2-N ,  7-H ) :   1.3343 B(  3-N ,  4-H ) :   1.0852
B(  3-N ,  5-H ) :   1.2223 B(  4-H ,  5-H ) :  -0.1408 B(  6-H ,  7-H ) :  -0.1696
B(  8-H , 10-H ) :   0.1007

Dispersion correction           -0.001668903
FINAL SINGLE POINT ENERGY      -189.642283975616

DIPOLE MOMENT
-------------
                                X             Y             Z
Electronic contribution:      0.32082       1.77227       1.56100
Nuclear contribution   :     -0.32363      -1.20411      -1.15396
                        -----------------------------------------
Total Dipole Moment    :     -0.00281       0.56816       0.40704
                        -----------------------------------------
Magnitude (a.u.)       :      0.69892
Magnitude (Debye)      :      1.77652

Rotational constants in cm-1:     0.327805     0.304052     0.162439
Rotational constants in MHz :  9827.347355  9115.244333  4869.808750

                             ****ORCA TERMINATED NORMALLY****
TOTAL RUN TIME: 0 days 0 hours 0 minutes 7 seconds 117 msec
