                         Program Version 5.0.0 -  RELEASE  -
|  1> !wB97X-D3 RIJCOSX def2-SVPD def2/J TightSCF CPCM(Water)
|  2> *xyz 0 1
|  3> C         -1.36353       -1.98134       -2.29361
|  4> F         -0.35039       -2.74969       -1.79601
|  5> H         -2.22523       -2.59288       -2.46214
|  6> H         -1.05452       -1.53818       -3.21720
|  7> H         -1.60477       -1.21086       -1.59143
|  8> *
|  9>
| 10> %MaxCore 64000
| 11> %pal nprocs 18
| 12> end
| 13>
| 14> %scf
| 15>   MaxIter 150
| 16> end
| 17>
| 18>
| 19>                          ****END OF INPUT****

CARTESIAN COORDINATES (ANGSTROEM)
---------------------------------
  C     -1.363530   -1.981340   -2.293610
  F     -0.350390   -2.749690   -1.796010
  H     -2.225230   -2.592880   -2.462140
  H     -1.054520   -1.538180   -3.217200
  H     -1.604770   -1.210860   -1.591430

 Total Charge           Charge          ....    0
 Multiplicity           Mult            ....    1
 Number of Electrons    NEL             ....   18
 Basis Dimension        Dim             ....   67

ORBITAL ENERGIES
----------------

  NO   OCC          E(Eh)            E(eV)
   0   2.0000     -24.791650      -674.6151
   1   2.0000     -10.349666      -281.6287
   2   2.0000      -1.304603       -35.5001
   3   2.0000      -0.807821       -21.9819
   4   2.0000      -0.602559       -16.3965
   5   2.0000      -0.594075       -16.1656
   6   2.0000      -0.594071       -16.1655
   7   2.0000      -0.448188       -12.1958
   8   2.0000      -0.448180       -12.1956
   9   0.0000       0.102578         2.7913
  10   0.0000       0.149694         4.0734
  11   0.0000       0.183690         4.9985
  12   0.0000       0.183700         4.9987
  13   0.0000       0.212033         5.7697

MULLIKEN ATOMIC CHARGES
-----------------------
   0 C :    0.736788
   1 F :   -0.519397
   2 H :   -0.072649
   3 H :   -0.072835
   4 H :   -0.071906
Sum of atomic charges:   -0.0000000

LOEWDIN ATOMIC CHARGES
----------------------
   0 C :    0.273697
   1 F :   -0.279811
   2 H :    0.002020
   3 H :    0.002019
   4 H :    0.002074

  Mayer bond orders larger than 0.100000
B(  0-C ,  1-F ) :   0.8161 B(  0-C ,  2-H ) :   0.9602 B(  0-C ,  3-H ) :   0.9603
B(  0-C ,  4-H ) :   0.9595

Dispersion correction           -0.000128134
FINAL SINGLE POINT ENERGY      -139.610935756702

DIPOLE MOMENT
-------------
                                X             Y             Z
Electronic contribution:      2.05818      -1.56107       1.01118
Nuclear contribution   :     -2.70693       2.05289      -1.32950
                        -----------------------------------------
Total Dipole Moment    :     -0.64875       0.49182      -0.31833
                        -----------------------------------------
Magnitude (a.u.)       :      0.87413
Magnitude (Debye)      :      2.22186

Rotational constants in cm-1:     5.477725     0.878859     0.878857
Rotational constants in MHz : 164218.064700 26347.517988 26347.482187

                             ****ORCA TERMINATED NORMALLY****
TOTAL RUN TIME: 0 days 0 hours 0 minutes 3 seconds 586 msec
