                         Program Version 5.0.0 -  RELEASE  -
|  1> !wB97X-D3 RIJCOSX def2-SVPD def2/J TightSCF CPCM(Water)
|  2> *xyz 0 1
|  3> C          2.20996       -2.81239       -3.66571
|  4> C          2.48901       -1.66851       -2.73754
|  5> C          3.59631       -0.94761       -2.95225
|  6> N          1.66394       -1.41369       -1.77781
|  7> H          0.81164       -1.96318       -1.70275
|  8> H          1.84550       -0.63508       -1.15875
|  9> H          4.20535       -1.17600       -3.73383
| 10> H          3.81723       -0.12585       -2.40604
| 11> H          2.99011       -2.87840       -4.39503
| 12> H          1.27381       -2.65174       -4.15838
| 13> H          2.16680       -3.72339       -3.10614
| 14> *
| 15>
| 16> %MaxCore 64000
| 17> %pal nprocs 18
| 18> end
| 19>
| 20> %scf
| 21>   MaxIter 150
| 22> end
| 23>
| 24>
| 25>                          ****END OF INPUT****

CARTESIAN COORDINATES (ANGSTROEM)
---------------------------------
  C      2.209960   -2.812390   -3.665710
  C      2.489010   -1.668510   -2.737540
  C      3.596310   -0.947610   -2.952250
  N      1.663940   -1.413690   -1.777810
  H      0.811640   -1.963180   -1.702750
  H      1.845500   -0.635080   -1.158750
  H      4.205350   -1.176000   -3.733830
  H      3.817230   -0.125850   -2.406040
  H      2.990110   -2.878400   -4.395030
  H      1.273810   -2.651740   -4.158380
  H      2.166800   -3.723390   -3.106140

 Total Charge           Charge          ....    0
 Multiplicity           Mult            ....    1
 Number of Electrons    NEL             ....   32
 Basis Dimension        Dim             ....  136

ORBITAL ENERGIES
----------------

  NO   OCC          E(Eh)            E(eV)
   0   2.0000     -14.435293      -392.8043
   1   2.0000     -10.318519      -280.7812
   2   2.0000     -10.274641      -279.5872
   3   2.0000     -10.223743      -278.2022
   4   2.0000      -1.044836       -28.4314
   5   2.0000      -0.863706       -23.5026
   6   2.0000      -0.793863       -21.6021
   7   2.0000      -0.675912       -18.3925
   8   2.0000      -0.629859       -17.1393
   9   2.0000      -0.575801       -15.6684
  10   2.0000      -0.532748       -14.4968
  11   2.0000      -0.493923       -13.4403
  12   2.0000      -0.487603       -13.2684
  13   2.0000      -0.444915       -12.1067
  14   2.0000      -0.436684       -11.8828
  15   2.0000      -0.280373        -7.6293
  16   0.0000       0.096809         2.6343
  17   0.0000       0.123669         3.3652
  18   0.0000       0.131807         3.5867
  19   0.0000       0.138574         3.7708
  20   0.0000       0.168895         4.5959

MULLIKEN ATOMIC CHARGES
-----------------------
   0 C :    0.722962
   1 C :   -0.705176
   2 C :    0.439738
   3 N :    0.269626
   4 H :   -0.083937
   5 H :   -0.110463
   6 H :   -0.121425
   7 H :   -0.442271
   8 H :    0.048471
   9 H :   -0.012154
  10 H :   -0.005370
Sum of atomic charges:    0.0000000

LOEWDIN ATOMIC CHARGES
----------------------
   0 C :    0.161065
   1 C :   -0.308278
   2 C :    0.140318
   3 N :    0.169020
   4 H :    0.029839
   5 H :    0.027651
   6 H :   -0.097461
   7 H :   -0.097950
   8 H :   -0.014126
   9 H :   -0.004600
  10 H :   -0.005477

  Mayer bond orders larger than 0.100000
B(  0-C ,  1-C ) :   1.3041 B(  0-C ,  8-H ) :   0.7937 B(  0-C ,  9-H ) :   0.7015
B(  0-C , 10-H ) :   0.7059 B(  1-C ,  2-C ) :   1.7829 B(  1-C ,  3-N ) :   1.3159
B(  1-C ,  7-H ) :   0.1411 B(  1-C ,  8-H ) :   0.2171 B(  1-C ,  9-H ) :   0.2573
B(  1-C , 10-H ) :   0.2538 B(  2-C ,  3-N ) :   0.1992 B(  2-C ,  6-H ) :   0.9454
B(  2-C ,  7-H ) :   0.8393 B(  3-N ,  4-H ) :   1.1366 B(  3-N ,  5-H ) :   1.1667
B(  4-H ,  5-H ) :  -0.1163 B(  8-H ,  9-H ) :   0.1013 B(  8-H , 10-H ) :   0.1017

Dispersion correction           -0.001680036
FINAL SINGLE POINT ENERGY      -173.094035425216

DIPOLE MOMENT
-------------
                                X             Y             Z
Electronic contribution:     -0.97504       0.76625       1.65629
Nuclear contribution   :     -0.07639      -1.03653      -1.19368
                        -----------------------------------------
Total Dipole Moment    :     -1.05143      -0.27028       0.46261
                        -----------------------------------------
Magnitude (a.u.)       :      1.18007
Magnitude (Debye)      :      2.99949

Rotational constants in cm-1:     0.347569     0.308531     0.168494
Rotational constants in MHz : 10419.863808  9249.512495  5051.317883

                             ****ORCA TERMINATED NORMALLY****
TOTAL RUN TIME: 0 days 0 hours 0 minutes 7 seconds 489 msec
