                         Program Version 5.0.0 -  RELEASE  -
|  1> !wB97X-D3 RIJCOSX def2-SVPD def2/J TightSCF CPCM(Water)
|  2> *xyz 0 1
|  3> C          2.20996       -2.81239       -3.66571
|  4> C          2.48901       -1.66851       -2.73754
|  5> N          3.59631       -0.94761       -2.95225
|  6> C          1.66394       -1.41369       -1.77781
|  7> H          0.81164       -1.96318       -1.70275
|  8> H          1.84550       -0.63508       -1.15875
|  9> H          4.20535       -1.17600       -3.73383
| 10> H          3.81723       -0.12585       -2.40604
| 11> H          2.99011       -2.87840       -4.39503
| 12> H          1.27381       -2.65174       -4.15838
| 13> H          2.16680       -3.72339       -3.10614
| 14> *
| 15>
| 16> %MaxCore 64000
| 17> %pal nprocs 18
| 18> end
| 19>
| 20> %scf
| 21>   MaxIter 150
| 22> end
| 23>
| 24>
| 25>                          ****END OF INPUT****

CARTESIAN COORDINATES (ANGSTROEM)
---------------------------------
  C      2.209960   -2.812390   -3.665710
  C      2.489010   -1.668510   -2.737540
  N      3.596310   -0.947610   -2.952250
  C      1.663940   -1.413690   -1.777810
  H      0.811640   -1.963180   -1.702750
  H      1.845500   -0.635080   -1.158750
  H      4.205350   -1.176000   -3.733830
  H      3.817230   -0.125850   -2.406040
  H      2.990110   -2.878400   -4.395030
  H      1.273810   -2.651740   -4.158380
  H      2.166800   -3.723390   -3.106140

 Total Charge           Charge          ....    0
 Multiplicity           Mult            ....    1
 Number of Electrons    NEL             ....   32
 Basis Dimension        Dim             ....  136

ORBITAL ENERGIES
----------------

  NO   OCC          E(Eh)            E(eV)
   0   2.0000     -14.431535      -392.7020
   1   2.0000     -10.314016      -280.6586
   2   2.0000     -10.273921      -279.5676
   3   2.0000     -10.220884      -278.1244
   4   2.0000      -1.027488       -27.9594
   5   2.0000      -0.868570       -23.6350
   6   2.0000      -0.799026       -21.7426
   7   2.0000      -0.668945       -18.2029
   8   2.0000      -0.617982       -16.8161
   9   2.0000      -0.577179       -15.7058
  10   2.0000      -0.529392       -14.4055
  11   2.0000      -0.498151       -13.5554
  12   2.0000      -0.485506       -13.2113
  13   2.0000      -0.448178       -12.1955
  14   2.0000      -0.430840       -11.7238
  15   2.0000      -0.285698        -7.7742
  16   0.0000       0.097597         2.6557
  17   0.0000       0.123037         3.3480
  18   0.0000       0.132180         3.5968
  19   0.0000       0.138008         3.7554
  20   0.0000       0.169574         4.6143

MULLIKEN ATOMIC CHARGES
-----------------------
   0 C :    0.680617
   1 C :   -0.408764
   2 N :    0.030098
   3 C :    0.301695
   4 H :   -0.159776
   5 H :   -0.288360
   6 H :   -0.027904
   7 H :   -0.114828
   8 H :   -0.079878
   9 H :    0.034104
  10 H :    0.032996
Sum of atomic charges:   -0.0000000

LOEWDIN ATOMIC CHARGES
----------------------
   0 C :    0.162056
   1 C :   -0.297730
   2 N :    0.167163
   3 C :    0.127573
   4 H :   -0.073606
   5 H :   -0.083057
   6 H :    0.008811
   7 H :    0.014255
   8 H :   -0.019391
   9 H :   -0.002785
  10 H :   -0.003291

  Mayer bond orders larger than 0.100000
B(  0-C ,  1-C ) :   1.1273 B(  0-C ,  8-H ) :   0.7613 B(  0-C ,  9-H ) :   0.7634
B(  0-C , 10-H ) :   0.7599 B(  1-C ,  2-N ) :   1.0377 B(  1-C ,  3-C ) :   1.9137
B(  1-C ,  4-H ) :   0.1083 B(  1-C ,  5-H ) :   0.2499 B(  1-C ,  7-H ) :  -0.1257
B(  1-C ,  8-H ) :   0.2514 B(  1-C ,  9-H ) :   0.1671 B(  1-C , 10-H ) :   0.1751
B(  2-N ,  3-C ) :   0.2148 B(  2-N ,  6-H ) :   1.0895 B(  2-N ,  7-H ) :   1.2869
B(  3-C ,  4-H ) :   0.8408 B(  3-C ,  5-H ) :   0.7570 B(  6-H ,  7-H ) :  -0.1560

Dispersion correction           -0.001666506
FINAL SINGLE POINT ENERGY      -173.093084504153

DIPOLE MOMENT
-------------
                                X             Y             Z
Electronic contribution:      1.24207       1.28239       0.28973
Nuclear contribution   :     -0.50975      -1.14105      -0.93029
                        -----------------------------------------
Total Dipole Moment    :      0.73232       0.14134      -0.64056
                        -----------------------------------------
Magnitude (a.u.)       :      0.98315
Magnitude (Debye)      :      2.49897

Rotational constants in cm-1:     0.350603     0.305690     0.168346
Rotational constants in MHz : 10510.799277  9164.357607  5046.873498

                             ****ORCA TERMINATED NORMALLY****
TOTAL RUN TIME: 0 days 0 hours 0 minutes 9 seconds 919 msec
