                         Program Version 5.0.0 -  RELEASE  -
|  1> !wB97X-D3 RIJCOSX def2-TZVP def2/J TightSCF
|  2> *xyz -1 1
|  3> C         -5.57236       -5.80780       -0.81644
|  4> S         -6.90318       -4.61903       -0.52846
|  5> O         -8.11485       -5.25093       -0.95701
|  6> O         -6.53271       -3.42684       -1.31485
|  7> O         -6.86563       -4.29496        0.91412
|  8> C         -4.45780       -5.94187        0.22919
|  9> H         -5.17735       -5.54257       -1.79771
| 10> H         -6.07420       -6.76889       -0.92127
| 11> H         -3.75515       -6.68239       -0.09144
| 12> H         -4.88182       -6.23486        1.16689
| 13> H         -3.95908       -5.00189        0.34143
| 14> *
| 15> %MaxCore 64000
| 16>
| 17> %pal nprocs 4
| 18> end
| 19>
| 20> %scf
| 21>   MaxIter 150
| 22> end
| 23>
| 24>                          ****END OF INPUT****

CARTESIAN COORDINATES (ANGSTROEM)
---------------------------------
  C     -5.572360   -5.807800   -0.816440
  S     -6.903180   -4.619030   -0.528460
  O     -8.114850   -5.250930   -0.957010
  O     -6.532710   -3.426840   -1.314850
  O     -6.865630   -4.294960    0.914120
  C     -4.457800   -5.941870    0.229190
  H     -5.177350   -5.542570   -1.797710
  H     -6.074200   -6.768890   -0.921270
  H     -3.755150   -6.682390   -0.091440
  H     -4.881820   -6.234860    1.166890
  H     -3.959080   -5.001890    0.341430

 Total Charge           Charge          ....   -1
 Multiplicity           Mult            ....    1
 Number of Electrons    NEL             ....   58
 Basis Dimension        Dim             ....  222

ORBITAL ENERGIES
----------------

  NO   OCC          E(Eh)            E(eV)
   0   2.0000     -88.929312     -2419.8896
   1   2.0000     -19.006853      -517.2028
   2   2.0000     -18.992430      -516.8103
   3   2.0000     -18.991251      -516.7782
   4   2.0000     -10.135235      -275.7938
   5   2.0000     -10.131414      -275.6898
   6   2.0000      -7.991787      -217.4676
   7   2.0000      -5.946146      -161.8029
   8   2.0000      -5.944750      -161.7649
   9   2.0000      -5.944475      -161.7574
  10   2.0000      -1.031368       -28.0649
  11   2.0000      -0.898478       -24.4488
  12   2.0000      -0.874919       -23.8078
  13   2.0000      -0.746563       -20.3150
  14   2.0000      -0.619493       -16.8573
  15   2.0000      -0.483402       -13.1540
  16   2.0000      -0.418407       -11.3854
  17   2.0000      -0.411110       -11.1869
  18   2.0000      -0.371957       -10.1215
  19   2.0000      -0.354430        -9.6445
  20   2.0000      -0.352371        -9.5885
  21   2.0000      -0.318839        -8.6761
  22   2.0000      -0.312713        -8.5093
  23   2.0000      -0.241187        -6.5630
  24   2.0000      -0.239696        -6.5225
  25   2.0000      -0.204697        -5.5701
  26   2.0000      -0.192472        -5.2374
  27   2.0000      -0.188222        -5.1218
  28   2.0000      -0.149930        -4.0798
  29   0.0000       0.249903         6.8002
  30   0.0000       0.298178         8.1138
  31   0.0000       0.311896         8.4871
  32   0.0000       0.316066         8.6006
  33   0.0000       0.337916         9.1952

MULLIKEN ATOMIC CHARGES
-----------------------
   0 C :   -0.261123
   1 S :    0.862033
   2 O :   -0.553290
   3 O :   -0.599475
   4 O :   -0.601201
   5 C :   -0.313027
   6 H :    0.093954
   7 H :    0.087515
   8 H :    0.067535
   9 H :    0.110618
  10 H :    0.106461
Sum of atomic charges:   -1.0000000

LOEWDIN ATOMIC CHARGES
----------------------
   0 C :   -0.424462
   1 S :    0.422935
   2 O :   -0.369060
   3 O :   -0.428465
   4 O :   -0.424697
   5 C :   -0.337730
   6 H :    0.118827
   7 H :    0.116884
   8 H :    0.098863
   9 H :    0.113426
  10 H :    0.113478

  Mayer bond orders larger than 0.100000
B(  0-C ,  1-S ) :   0.8793 B(  0-C ,  5-C ) :   0.9659 B(  0-C ,  6-H ) :   0.9674
B(  0-C ,  7-H ) :   0.9632 B(  1-S ,  2-O ) :   1.8158 B(  1-S ,  3-O ) :   1.7592
B(  1-S ,  4-O ) :   1.7428 B(  5-C ,  8-H ) :   0.9692 B(  5-C ,  9-H ) :   0.9778
B(  5-C , 10-H ) :   0.9800

Dispersion correction           -0.002821806
FINAL SINGLE POINT ENERGY      -703.213178189960

DIPOLE MOMENT
-------------
                                X             Y             Z
Electronic contribution:     -6.69402       4.31934      -0.92502
Nuclear contribution   :      8.13140      -5.68016       0.80206
                        -----------------------------------------
Total Dipole Moment    :      1.43739      -1.36082      -0.12295
                        -----------------------------------------
Magnitude (a.u.)       :      1.98319
Magnitude (Debye)      :      5.04086

Rotational constants in cm-1:     0.162101     0.080498     0.079099
Rotational constants in MHz :  4859.669771  2413.267251  2371.338602

                             ****ORCA TERMINATED NORMALLY****
TOTAL RUN TIME: 0 days 0 hours 0 minutes 39 seconds 476 msec
