                         Program Version 5.0.0 -  RELEASE  -
|  1> !wB97X-D3 RIJCOSX def2-TZVP def2/J TightSCF
|  2> *xyz 1 1
|  3> C         -4.38262       -1.67089        1.21620
|  4> N         -5.76354       -1.91517        0.70501
|  5> C         -3.28173       -2.19127        0.29436
|  6> H         -5.84081       -2.11520       -0.30065
|  7> H         -6.40882       -1.14866        0.93612
|  8> H         -6.17478       -2.79061        1.05143
|  9> H         -4.32862       -2.13922        2.19810
| 10> H         -4.26158       -0.59740        1.35725
| 11> H         -3.36057       -1.71407       -0.66008
| 12> H         -3.38775       -3.24919        0.17403
| 13> H         -2.32559       -1.97514        0.72329
| 14> *
| 15> %MaxCore 64000
| 16>
| 17> %pal nprocs 4
| 18> end
| 19>
| 20> %scf
| 21>   MaxIter 150
| 22> end
| 23>
| 24>                          ****END OF INPUT****

CARTESIAN COORDINATES (ANGSTROEM)
---------------------------------
  C     -4.382620   -1.670890    1.216200
  N     -5.763540   -1.915170    0.705010
  C     -3.281730   -2.191270    0.294360
  H     -5.840810   -2.115200   -0.300650
  H     -6.408820   -1.148660    0.936120
  H     -6.174780   -2.790610    1.051430
  H     -4.328620   -2.139220    2.198100
  H     -4.261580   -0.597400    1.357250
  H     -3.360570   -1.714070   -0.660080
  H     -3.387750   -3.249190    0.174030
  H     -2.325590   -1.975140    0.723290

 Total Charge           Charge          ....    1
 Multiplicity           Mult            ....    1
 Number of Electrons    NEL             ....   26
 Basis Dimension        Dim             ....  141

ORBITAL ENERGIES
----------------

  NO   OCC          E(Eh)            E(eV)
   0   2.0000     -14.758408      -401.5967
   1   2.0000     -10.529353      -286.5182
   2   2.0000     -10.446893      -284.2744
   3   2.0000      -1.332913       -36.2704
   4   2.0000      -1.082210       -29.4484
   5   2.0000      -0.959564       -26.1111
   6   2.0000      -0.899744       -24.4833
   7   2.0000      -0.878333       -23.9007
   8   2.0000      -0.802390       -21.8341
   9   2.0000      -0.739970       -20.1356
  10   2.0000      -0.679172       -18.4812
  11   2.0000      -0.661412       -17.9979
  12   2.0000      -0.642980       -17.4964
  13   0.0000      -0.108529        -2.9532
  14   0.0000      -0.051690        -1.4066
  15   0.0000      -0.047136        -1.2826
  16   0.0000      -0.027331        -0.7437
  17   0.0000       0.008676         0.2361

MULLIKEN ATOMIC CHARGES
-----------------------
   0 C :   -0.181832
   1 N :   -0.322090
   2 C :   -0.381762
   3 H :    0.331557
   4 H :    0.347363
   5 H :    0.335615
   6 H :    0.190645
   7 H :    0.189498
   8 H :    0.155965
   9 H :    0.151982
  10 H :    0.183060
Sum of atomic charges:    1.0000000

LOEWDIN ATOMIC CHARGES
----------------------
   0 C :   -0.270625
   1 N :    0.164680
   2 C :   -0.276568
   3 H :    0.221965
   4 H :    0.225900
   5 H :    0.223677
   6 H :    0.152016
   7 H :    0.152861
   8 H :    0.129856
   9 H :    0.129228
  10 H :    0.147011

  Mayer bond orders larger than 0.100000
B(  0-C ,  1-N ) :   0.8449 B(  0-C ,  2-C ) :   0.9931 B(  0-C ,  6-H ) :   0.9586
B(  0-C ,  7-H ) :   0.9588 B(  1-N ,  3-H ) :   0.8737 B(  1-N ,  4-H ) :   0.8706
B(  1-N ,  5-H ) :   0.8773 B(  2-C ,  8-H ) :   0.9610 B(  2-C ,  9-H ) :   0.9638
B(  2-C , 10-H ) :   0.9563

Dispersion correction           -0.001548224
FINAL SINGLE POINT ENERGY      -135.546417959581

DIPOLE MOMENT
-------------
                                X             Y             Z
Electronic contribution:     -1.83061       0.24010       0.30569
Nuclear contribution   :      0.19437      -0.25358      -0.32106
                        -----------------------------------------
Total Dipole Moment    :     -1.63625      -0.01348      -0.01538
                        -----------------------------------------
Magnitude (a.u.)       :      1.63637
Magnitude (Debye)      :      4.15933

Rotational constants in cm-1:     1.030014     0.272489     0.242697
Rotational constants in MHz : 30879.030706  8169.007780  7275.865152

                             ****ORCA TERMINATED NORMALLY****
TOTAL RUN TIME: 0 days 0 hours 0 minutes 17 seconds 790 msec
