                         Program Version 5.0.0 -  RELEASE  -
|  1> !wB97X-D3 RIJCOSX def2-TZVP def2/J TightSCF xyzfile
|  2>
|  3> *xyzfile 0 1 B.xyz
|  4>
|  5> %MaxCore 64000
|  6>
|  7> %pal nprocs 18
|  8> end
|  9>
| 10> %scf
| 11>   MaxIter 150
| 12> end
| 13>
| 14>
| 15>                          ****END OF INPUT****

CARTESIAN COORDINATES (ANGSTROEM)
---------------------------------
  C     -4.382623   -1.670889    1.216201
  N     -5.763539   -1.915170    0.705012
  C     -3.281728   -2.191272    0.294361
  C     -5.572364   -5.807798   -0.816445
  S     -6.903179   -4.619033   -0.528458
  H     -5.840812   -2.115205   -0.300646
  H     -6.408823   -1.148656    0.936124
  H     -6.174781   -2.790606    1.051433
  O     -8.114853   -5.250932   -0.957007
  O     -6.532715   -3.426838   -1.314848
  H     -4.328618   -2.139223    2.198103
  H     -4.261583   -0.597399    1.357248
  O     -6.865632   -4.294957    0.914118
  C     -3.474641   -3.605898   -0.259608
  H     -2.354548   -2.127602    0.871433
  H     -3.166611   -1.499693   -0.545037
  C     -3.827078   -4.661097    0.786174
  H     -2.560559   -3.889391   -0.788050
  H     -4.255932   -3.570040   -1.019300
  C     -4.457800   -5.941875    0.229195
  H     -5.177347   -5.542575   -1.797714
  H     -6.074202   -6.768894   -0.921272
  H     -4.530506   -4.253640    1.511979
  H     -2.933400   -4.932302    1.356825
  H     -3.681064   -6.562236   -0.229885
  H     -4.843942   -6.512728    1.075805

 Total Charge           Charge          ....    0
 Multiplicity           Mult            ....    1
 Number of Electrons    NEL             ....   98
 Basis Dimension        Dim             ....  437

ORBITAL ENERGIES
----------------

  NO   OCC          E(Eh)            E(eV)
   0   2.0000     -89.103090     -2424.6183
   1   2.0000     -19.183743      -522.0162
   2   2.0000     -19.179657      -521.9050
   3   2.0000     -19.166881      -521.5574
   4   2.0000     -14.530071      -395.3833
   5   2.0000     -10.364174      -282.0235
   6   2.0000     -10.310307      -280.5577
   7   2.0000     -10.284176      -279.8467
   8   2.0000     -10.280357      -279.7427
   9   2.0000     -10.279134      -279.7095
  10   2.0000     -10.278111      -279.6816
  11   2.0000      -8.166410      -222.2193
  12   2.0000      -6.120478      -166.5467
  13   2.0000      -6.119994      -166.5335
  14   2.0000      -6.118501      -166.4929
  15   2.0000      -1.211601       -32.9693
  16   2.0000      -1.125368       -30.6228
  17   2.0000      -1.071862       -29.1669
  18   2.0000      -1.068956       -29.0878
  19   2.0000      -0.950089       -25.8532
  20   2.0000      -0.908614       -24.7246
  21   2.0000      -0.857126       -23.3236
  22   2.0000      -0.804476       -21.8909
  23   2.0000      -0.748537       -20.3687
  24   2.0000      -0.706192       -19.2165
  25   2.0000      -0.695968       -18.9383
  26   2.0000      -0.679997       -18.5037
  27   2.0000      -0.643843       -17.5199
  28   2.0000      -0.614096       -16.7104
  29   2.0000      -0.592507       -16.1229
  30   2.0000      -0.586518       -15.9600
  31   2.0000      -0.570347       -15.5199
  32   2.0000      -0.548720       -14.9314
  33   2.0000      -0.539810       -14.6890
  34   2.0000      -0.530888       -14.4462
  35   2.0000      -0.518687       -14.1142
  36   2.0000      -0.515821       -14.0362
  37   2.0000      -0.483375       -13.1533
  38   2.0000      -0.472076       -12.8458
  39   2.0000      -0.467682       -12.7263
  40   2.0000      -0.439617       -11.9626
  41   2.0000      -0.433244       -11.7892
  42   2.0000      -0.425910       -11.5896
  43   2.0000      -0.416303       -11.3282
  44   2.0000      -0.412779       -11.2323
  45   2.0000      -0.375104       -10.2071
  46   2.0000      -0.368277       -10.0213
  47   2.0000      -0.358855        -9.7649
  48   2.0000      -0.336251        -9.1498
  49   0.0000       0.069470         1.8904
  50   0.0000       0.108155         2.9430
  51   0.0000       0.118250         3.2178
  52   0.0000       0.120631         3.2825
  53   0.0000       0.136703         3.7199

MULLIKEN ATOMIC CHARGES
-----------------------
   0 C :   -0.226075
   1 N :   -0.277342
   2 C :   -0.189600
   3 C :   -0.328714
   4 S :    0.919277
   5 H :    0.305023
   6 H :    0.286292
   7 H :    0.298064
   8 O :   -0.490670
   9 O :   -0.613023
  10 H :    0.174588
  11 H :    0.149347
  12 O :   -0.599284
  13 C :   -0.289393
  14 H :    0.120663
  15 H :    0.132141
  16 C :   -0.245969
  17 H :    0.113945
  18 H :    0.164889
  19 C :   -0.157811
  20 H :    0.143961
  21 H :    0.155894
  22 H :    0.119762
  23 H :    0.105900
  24 H :    0.106723
  25 H :    0.121413
Sum of atomic charges:   -0.0000000

LOEWDIN ATOMIC CHARGES
----------------------
   0 C :   -0.273250
   1 N :    0.139412
   2 C :   -0.269084
   3 C :   -0.380376
   4 S :    0.463316
   5 H :    0.186354
   6 H :    0.199232
   7 H :    0.165836
   8 O :   -0.305295
   9 O :   -0.394862
  10 H :    0.140225
  11 H :    0.136203
  12 O :   -0.376460
  13 C :   -0.271143
  14 H :    0.147429
  15 H :    0.142585
  16 C :   -0.275476
  17 H :    0.140244
  18 H :    0.143313
  19 C :   -0.281821
  20 H :    0.133490
  21 H :    0.139385
  22 H :    0.132687
  23 H :    0.135178
  24 H :    0.139322
  25 H :    0.143555

  Mayer bond orders larger than 0.100000
B(  0-C ,  1-N ) :   0.8897 B(  0-C ,  2-C ) :   0.9638 B(  0-C , 10-H ) :   0.9794
B(  0-C , 11-H ) :   0.9729 B(  1-N ,  5-H ) :   0.8245 B(  1-N ,  6-H ) :   0.8988
B(  1-N ,  7-H ) :   0.7914 B(  2-C , 13-C ) :   0.9744 B(  2-C , 14-H ) :   0.9715
B(  2-C , 15-H ) :   0.9759 B(  3-C ,  4-S ) :   0.8999 B(  3-C , 19-C ) :   0.9633
B(  3-C , 20-H ) :   0.9614 B(  3-C , 21-H ) :   0.9567 B(  4-S ,  8-O ) :   1.9371
B(  4-S ,  9-O ) :   1.5823 B(  4-S , 12-O ) :   1.5454 B(  5-H ,  9-O ) :   0.1041
B(  7-H , 12-O ) :   0.1753 B( 13-C , 16-C ) :   0.9265 B( 13-C , 17-H ) :   0.9727
B( 13-C , 18-H ) :   0.9812 B( 16-C , 19-C ) :   0.9772 B( 16-C , 22-H ) :   0.9764
B( 16-C , 23-H ) :   0.9638 B( 19-C , 24-H ) :   0.9663 B( 19-C , 25-H ) :   0.9757

Dispersion correction           -0.013284279
FINAL SINGLE POINT ENERGY      -916.381276532998

DIPOLE MOMENT
-------------
                                X             Y             Z
Electronic contribution:    -13.53767      -2.88861      -3.66042
Nuclear contribution   :     16.18863       5.15617       4.97370
                        -----------------------------------------
Total Dipole Moment    :      2.65096       2.26756       1.31328
                        -----------------------------------------
Magnitude (a.u.)       :      3.72748
Magnitude (Debye)      :      9.47451

Rotational constants in cm-1:     0.048546     0.025588     0.020102
Rotational constants in MHz :  1455.374030   767.095631   602.645620

                             ****ORCA TERMINATED NORMALLY****
TOTAL RUN TIME: 0 days 0 hours 1 minutes 1 seconds 265 msec
