                         Program Version 5.0.0 -  RELEASE  -
|  1> !wB97X-D3 RIJCOSX def2-TZVP def2/J TightSCF
|  2> *xyz 0 1
|  3> C         -5.57236       -5.80780       -0.81644
|  4> S         -6.90318       -4.61903       -0.52846
|  5> F         -8.11485       -5.25093       -0.95701
|  6> O         -6.53271       -3.42684       -1.31485
|  7> O         -6.86563       -4.29496        0.91412
|  8> C         -4.45780       -5.94187        0.22919
|  9> H         -5.17735       -5.54257       -1.79771
| 10> H         -6.07420       -6.76889       -0.92127
| 11> H         -3.75515       -6.68239       -0.09144
| 12> H         -4.88182       -6.23486        1.16689
| 13> H         -3.95908       -5.00189        0.34143
| 14> *
| 15> %MaxCore 64000
| 16>
| 17> %pal nprocs 4
| 18> end
| 19>
| 20> %scf
| 21>   MaxIter 150
| 22> end
| 23>
| 24>                          ****END OF INPUT****

CARTESIAN COORDINATES (ANGSTROEM)
---------------------------------
  C     -5.572360   -5.807800   -0.816440
  S     -6.903180   -4.619030   -0.528460
  F     -8.114850   -5.250930   -0.957010
  O     -6.532710   -3.426840   -1.314850
  O     -6.865630   -4.294960    0.914120
  C     -4.457800   -5.941870    0.229190
  H     -5.177350   -5.542570   -1.797710
  H     -6.074200   -6.768890   -0.921270
  H     -3.755150   -6.682390   -0.091440
  H     -4.881820   -6.234860    1.166890
  H     -3.959080   -5.001890    0.341430

 Total Charge           Charge          ....    0
 Multiplicity           Mult            ....    1
 Number of Electrons    NEL             ....   58
 Basis Dimension        Dim             ....  222

ORBITAL ENERGIES
----------------

  NO   OCC          E(Eh)            E(eV)
   0   2.0000     -89.196924     -2427.1717
   1   2.0000     -24.913234      -677.9236
   2   2.0000     -19.232523      -523.3436
   3   2.0000     -19.232298      -523.3374
   4   2.0000     -10.340079      -281.3679
   5   2.0000     -10.294483      -280.1271
   6   2.0000      -8.260057      -224.7676
   7   2.0000      -6.217356      -169.1829
   8   2.0000      -6.211142      -169.0138
   9   2.0000      -6.210605      -168.9991
  10   2.0000      -1.510295       -41.0972
  11   2.0000      -1.208220       -32.8773
  12   2.0000      -1.109580       -30.1932
  13   2.0000      -0.938384       -25.5347
  14   2.0000      -0.852130       -23.1876
  15   2.0000      -0.790008       -21.4972
  16   2.0000      -0.700074       -19.0500
  17   2.0000      -0.697744       -18.9866
  18   2.0000      -0.659450       -17.9445
  19   2.0000      -0.595415       -16.2021
  20   2.0000      -0.579990       -15.7823
  21   2.0000      -0.541852       -14.7445
  22   2.0000      -0.525841       -14.3088
  23   2.0000      -0.502704       -13.6793
  24   2.0000      -0.486970       -13.2511
  25   2.0000      -0.476607       -12.9691
  26   2.0000      -0.418600       -11.3907
  27   2.0000      -0.416473       -11.3328
  28   2.0000      -0.394532       -10.7357
  29   0.0000       0.101275         2.7558
  30   0.0000       0.107536         2.9262
  31   0.0000       0.135786         3.6949
  32   0.0000       0.155864         4.2413
  33   0.0000       0.156546         4.2598

MULLIKEN ATOMIC CHARGES
-----------------------
   0 C :   -0.267407
   1 S :    0.886757
   2 F :   -0.091971
   3 O :   -0.448498
   4 O :   -0.452853
   5 C :   -0.333437
   6 H :    0.162741
   7 H :    0.130193
   8 H :    0.131675
   9 H :    0.138942
  10 H :    0.143858
Sum of atomic charges:   -0.0000000

LOEWDIN ATOMIC CHARGES
----------------------
   0 C :   -0.391800
   1 S :    0.543639
   2 F :    0.110352
   3 O :   -0.307728
   4 O :   -0.306911
   5 C :   -0.298769
   6 H :    0.142838
   7 H :    0.132146
   8 H :    0.124291
   9 H :    0.125034
  10 H :    0.126907

  Mayer bond orders larger than 0.100000
B(  0-C ,  1-S ) :   0.9087 B(  0-C ,  5-C ) :   0.9830 B(  0-C ,  6-H ) :   0.9419
B(  0-C ,  7-H ) :   0.9447 B(  1-S ,  2-F ) :   1.1586 B(  1-S ,  3-O ) :   1.8933
B(  1-S ,  4-O ) :   1.8805 B(  5-C ,  8-H ) :   0.9601 B(  5-C ,  9-H ) :   0.9689
B(  5-C , 10-H ) :   0.9709

Dispersion correction           -0.002828600
FINAL SINGLE POINT ENERGY      -727.728416095710

DIPOLE MOMENT
-------------
                                X             Y             Z
Electronic contribution:     -9.42542       3.55924      -1.87563
Nuclear contribution   :      9.80704      -5.24335       1.35017
                        -----------------------------------------
Total Dipole Moment    :      0.38162      -1.68411      -0.52546
                        -----------------------------------------
Magnitude (a.u.)       :      1.80499
Magnitude (Debye)      :      4.58791

Rotational constants in cm-1:     0.156316     0.078308     0.076228
Rotational constants in MHz :  4686.224999  2347.601204  2285.245115

                             ****ORCA TERMINATED NORMALLY****
TOTAL RUN TIME: 0 days 0 hours 0 minutes 38 seconds 613 msec
