                         Program Version 5.0.0 -  RELEASE  -
|  1> !wB97X-D3 RIJCOSX def2-TZVP def2/J TightSCF
|  2> *xyz 0 1
|  3> C         -4.38262       -1.67089        1.21620
|  4> C         -5.76354       -1.91517        0.70501
|  5> C         -3.28173       -2.19127        0.29436
|  6> H         -5.84081       -2.11520       -0.30065
|  7> H         -6.40882       -1.14866        0.93612
|  8> H         -6.17478       -2.79061        1.05143
|  9> H         -4.32862       -2.13922        2.19810
| 10> H         -4.26158       -0.59740        1.35725
| 11> H         -3.36057       -1.71407       -0.66008
| 12> H         -3.38775       -3.24919        0.17403
| 13> H         -2.32559       -1.97514        0.72329
| 14> *
| 15> %MaxCore 64000
| 16>
| 17> %pal nprocs 4
| 18> end
| 19>
| 20> %scf
| 21>   MaxIter 150
| 22> end
| 23>
| 24>                          ****END OF INPUT****

CARTESIAN COORDINATES (ANGSTROEM)
---------------------------------
  C     -4.382620   -1.670890    1.216200
  C     -5.763540   -1.915170    0.705010
  C     -3.281730   -2.191270    0.294360
  H     -5.840810   -2.115200   -0.300650
  H     -6.408820   -1.148660    0.936120
  H     -6.174780   -2.790610    1.051430
  H     -4.328620   -2.139220    2.198100
  H     -4.261580   -0.597400    1.357250
  H     -3.360570   -1.714070   -0.660080
  H     -3.387750   -3.249190    0.174030
  H     -2.325590   -1.975140    0.723290

 Total Charge           Charge          ....    0
 Multiplicity           Mult            ....    1
 Number of Electrons    NEL             ....   26
 Basis Dimension        Dim             ....  141

ORBITAL ENERGIES
----------------

  NO   OCC          E(Eh)            E(eV)
   0   2.0000     -10.261384      -279.2265
   1   2.0000     -10.251094      -278.9465
   2   2.0000     -10.231286      -278.4074
   3   2.0000      -0.905038       -24.6273
   4   2.0000      -0.805892       -21.9294
   5   2.0000      -0.699888       -19.0449
   6   2.0000      -0.564385       -15.3577
   7   2.0000      -0.542290       -14.7565
   8   2.0000      -0.507692       -13.8150
   9   2.0000      -0.482233       -13.1222
  10   2.0000      -0.434146       -11.8137
  11   2.0000      -0.426828       -11.6146
  12   2.0000      -0.414399       -11.2764
  13   0.0000       0.121860         3.3160
  14   0.0000       0.164608         4.4792
  15   0.0000       0.167641         4.5617
  16   0.0000       0.176732         4.8091
  17   0.0000       0.201813         5.4916

MULLIKEN ATOMIC CHARGES
-----------------------
   0 C :   -0.131241
   1 C :   -0.355698
   2 C :   -0.345154
   3 H :    0.109254
   4 H :    0.112215
   5 H :    0.111874
   6 H :    0.086503
   7 H :    0.085856
   8 H :    0.109965
   9 H :    0.105874
  10 H :    0.110552
Sum of atomic charges:    0.0000000

LOEWDIN ATOMIC CHARGES
----------------------
   0 C :   -0.316401
   1 C :   -0.308458
   2 C :   -0.304922
   3 H :    0.108802
   4 H :    0.108186
   5 H :    0.108927
   6 H :    0.131420
   7 H :    0.130685
   8 H :    0.114270
   9 H :    0.114049
  10 H :    0.113440

  Mayer bond orders larger than 0.100000
B(  0-C ,  1-C ) :   0.9548 B(  0-C ,  2-C ) :   0.9804 B(  0-C ,  6-H ) :   0.9777
B(  0-C ,  7-H ) :   0.9804 B(  1-C ,  3-H ) :   0.9847 B(  1-C ,  4-H ) :   0.9836
B(  1-C ,  5-H ) :   0.9833 B(  2-C ,  8-H ) :   0.9800 B(  2-C ,  9-H ) :   0.9798
B(  2-C , 10-H ) :   0.9827

Dispersion correction           -0.001494968
FINAL SINGLE POINT ENERGY      -119.135312923718

DIPOLE MOMENT
-------------
                                X             Y             Z
Electronic contribution:      0.18501       0.23847       0.33888
Nuclear contribution   :     -0.21528      -0.24783      -0.32864
                        -----------------------------------------
Total Dipole Moment    :     -0.03027      -0.00936       0.01024
                        -----------------------------------------
Magnitude (a.u.)       :      0.03329
Magnitude (Debye)      :      0.08462

Rotational constants in cm-1:     1.037566     0.286459     0.254172
Rotational constants in MHz : 31105.431429  8587.814531  7619.871198

                             ****ORCA TERMINATED NORMALLY****
TOTAL RUN TIME: 0 days 0 hours 0 minutes 16 seconds 966 msec
