                         Program Version 5.0.0 -  RELEASE  -
|  1> !wB97X-D3 RIJCOSX def2-TZVP def2/J TightSCF
|  2> *xyz 0 1
|  3> C         -5.57236       -5.80780       -0.81644
|  4> S         -6.90318       -4.61903       -0.52846
|  5> O         -8.11485       -5.25093       -0.95701
|  6> F         -6.53271       -3.42684       -1.31485
|  7> O         -6.86563       -4.29496        0.91412
|  8> C         -4.45780       -5.94187        0.22919
|  9> H         -5.17735       -5.54257       -1.79771
| 10> H         -6.07420       -6.76889       -0.92127
| 11> H         -3.75515       -6.68239       -0.09144
| 12> H         -4.88182       -6.23486        1.16689
| 13> H         -3.95908       -5.00189        0.34143
| 14> *
| 15> %MaxCore 64000
| 16>
| 17> %pal nprocs 4
| 18> end
| 19>
| 20> %scf
| 21>   MaxIter 150
| 22> end
| 23>
| 24>                          ****END OF INPUT****

CARTESIAN COORDINATES (ANGSTROEM)
---------------------------------
  C     -5.572360   -5.807800   -0.816440
  S     -6.903180   -4.619030   -0.528460
  O     -8.114850   -5.250930   -0.957010
  F     -6.532710   -3.426840   -1.314850
  O     -6.865630   -4.294960    0.914120
  C     -4.457800   -5.941870    0.229190
  H     -5.177350   -5.542570   -1.797710
  H     -6.074200   -6.768890   -0.921270
  H     -3.755150   -6.682390   -0.091440
  H     -4.881820   -6.234860    1.166890
  H     -3.959080   -5.001890    0.341430

 Total Charge           Charge          ....    0
 Multiplicity           Mult            ....    1
 Number of Electrons    NEL             ....   58
 Basis Dimension        Dim             ....  222

ORBITAL ENERGIES
----------------

  NO   OCC          E(Eh)            E(eV)
   0   2.0000     -89.194796     -2427.1138
   1   2.0000     -24.890440      -677.3033
   2   2.0000     -19.247209      -523.7432
   3   2.0000     -19.232302      -523.3376
   4   2.0000     -10.339480      -281.3515
   5   2.0000     -10.294166      -280.1185
   6   2.0000      -8.257939      -224.7100
   7   2.0000      -6.215370      -169.1288
   8   2.0000      -6.209162      -168.9599
   9   2.0000      -6.208367      -168.9383
  10   2.0000      -1.473407       -40.0934
  11   2.0000      -1.225654       -33.3517
  12   2.0000      -1.125263       -30.6200
  13   2.0000      -0.938230       -25.5305
  14   2.0000      -0.838508       -22.8169
  15   2.0000      -0.781871       -21.2758
  16   2.0000      -0.683561       -18.6006
  17   2.0000      -0.671884       -18.2829
  18   2.0000      -0.655053       -17.8249
  19   2.0000      -0.593828       -16.1589
  20   2.0000      -0.581205       -15.8154
  21   2.0000      -0.553779       -15.0691
  22   2.0000      -0.529504       -14.4085
  23   2.0000      -0.499854       -13.6017
  24   2.0000      -0.497546       -13.5389
  25   2.0000      -0.479439       -13.0462
  26   2.0000      -0.432196       -11.7607
  27   2.0000      -0.420235       -11.4352
  28   2.0000      -0.407595       -11.0912
  29   0.0000       0.099697         2.7129
  30   0.0000       0.111780         3.0417
  31   0.0000       0.135507         3.6873
  32   0.0000       0.157882         4.2962
  33   0.0000       0.160414         4.3651

MULLIKEN ATOMIC CHARGES
-----------------------
   0 C :   -0.274067
   1 S :    0.889479
   2 O :   -0.412078
   3 F :   -0.123227
   4 O :   -0.459961
   5 C :   -0.330417
   6 H :    0.138495
   7 H :    0.165787
   8 H :    0.130998
   9 H :    0.148234
  10 H :    0.126759
Sum of atomic charges:    0.0000000

LOEWDIN ATOMIC CHARGES
----------------------
   0 C :   -0.389774
   1 S :    0.550643
   2 O :   -0.255857
   3 F :    0.056155
   4 O :   -0.309994
   5 C :   -0.304726
   6 H :    0.134193
   7 H :    0.147338
   8 H :    0.123545
   9 H :    0.126770
  10 H :    0.121707

  Mayer bond orders larger than 0.100000
B(  0-C ,  1-S ) :   0.9059 B(  0-C ,  5-C ) :   0.9783 B(  0-C ,  6-H ) :   0.9481
B(  0-C ,  7-H ) :   0.9431 B(  1-S ,  2-O ) :   1.9462 B(  1-S ,  3-F ) :   1.1146
B(  1-S ,  4-O ) :   1.8791 B(  5-C ,  8-H ) :   0.9606 B(  5-C ,  9-H ) :   0.9687
B(  5-C , 10-H ) :   0.9732

Dispersion correction           -0.002806319
FINAL SINGLE POINT ENERGY      -727.747236954248

DIPOLE MOMENT
-------------
                                X             Y             Z
Electronic contribution:     -6.71782       6.69301      -2.50701
Nuclear contribution   :      8.15840      -7.14411       1.72305
                        -----------------------------------------
Total Dipole Moment    :      1.44057      -0.45110      -0.78395
                        -----------------------------------------
Magnitude (a.u.)       :      1.70098
Magnitude (Debye)      :      4.32354

Rotational constants in cm-1:     0.153926     0.078297     0.077402
Rotational constants in MHz :  4614.585804  2347.272644  2320.438903

                             ****ORCA TERMINATED NORMALLY****
TOTAL RUN TIME: 0 days 0 hours 0 minutes 38 seconds 594 msec
