                         Program Version 5.0.0 -  RELEASE  -
|  1> !wB97X-D3 RIJCOSX def2-TZVP def2/J TightSCF
|  2> *xyz 0 1
|  3> C         -5.57236       -5.80780       -0.81644
|  4> S         -6.90318       -4.61903       -0.52846
|  5> O         -8.11485       -5.25093       -0.95701
|  6> O         -6.53271       -3.42684       -1.31485
|  7> F         -6.86563       -4.29496        0.91412
|  8> C         -4.45780       -5.94187        0.22919
|  9> H         -5.17735       -5.54257       -1.79771
| 10> H         -6.07420       -6.76889       -0.92127
| 11> H         -3.75515       -6.68239       -0.09144
| 12> H         -4.88182       -6.23486        1.16689
| 13> H         -3.95908       -5.00189        0.34143
| 14> *
| 15> %MaxCore 64000
| 16>
| 17> %pal nprocs 4
| 18> end
| 19>
| 20> %scf
| 21>   MaxIter 150
| 22> end
| 23>
| 24>                          ****END OF INPUT****

CARTESIAN COORDINATES (ANGSTROEM)
---------------------------------
  C     -5.572360   -5.807800   -0.816440
  S     -6.903180   -4.619030   -0.528460
  O     -8.114850   -5.250930   -0.957010
  O     -6.532710   -3.426840   -1.314850
  F     -6.865630   -4.294960    0.914120
  C     -4.457800   -5.941870    0.229190
  H     -5.177350   -5.542570   -1.797710
  H     -6.074200   -6.768890   -0.921270
  H     -3.755150   -6.682390   -0.091440
  H     -4.881820   -6.234860    1.166890
  H     -3.959080   -5.001890    0.341430

 Total Charge           Charge          ....    0
 Multiplicity           Mult            ....    1
 Number of Electrons    NEL             ....   58
 Basis Dimension        Dim             ....  222

ORBITAL ENERGIES
----------------

  NO   OCC          E(Eh)            E(eV)
   0   2.0000     -89.194171     -2427.0968
   1   2.0000     -24.889185      -677.2691
   2   2.0000     -19.246815      -523.7325
   3   2.0000     -19.231390      -523.3127
   4   2.0000     -10.338768      -281.3322
   5   2.0000     -10.301483      -280.3176
   6   2.0000      -8.257356      -224.6941
   7   2.0000      -6.214889      -169.1157
   8   2.0000      -6.208386      -168.9388
   9   2.0000      -6.207885      -168.9251
  10   2.0000      -1.470557       -40.0159
  11   2.0000      -1.226122       -33.3645
  12   2.0000      -1.125817       -30.6350
  13   2.0000      -0.941237       -25.6124
  14   2.0000      -0.835515       -22.7355
  15   2.0000      -0.786547       -21.4030
  16   2.0000      -0.688792       -18.7430
  17   2.0000      -0.670979       -18.2583
  18   2.0000      -0.646955       -17.6045
  19   2.0000      -0.598870       -16.2961
  20   2.0000      -0.574244       -15.6260
  21   2.0000      -0.550558       -14.9814
  22   2.0000      -0.543196       -14.7811
  23   2.0000      -0.510205       -13.8834
  24   2.0000      -0.494363       -13.4523
  25   2.0000      -0.483112       -13.1462
  26   2.0000      -0.432412       -11.7665
  27   2.0000      -0.418805       -11.3963
  28   2.0000      -0.407032       -11.0759
  29   0.0000       0.087827         2.3899
  30   0.0000       0.128975         3.5096
  31   0.0000       0.145559         3.9609
  32   0.0000       0.149330         4.0635
  33   0.0000       0.159453         4.3389

MULLIKEN ATOMIC CHARGES
-----------------------
   0 C :   -0.267126
   1 S :    0.889104
   2 O :   -0.412251
   3 O :   -0.457952
   4 F :   -0.126587
   5 C :   -0.353374
   6 H :    0.168136
   7 H :    0.155219
   8 H :    0.136194
   9 H :    0.129593
  10 H :    0.139044
Sum of atomic charges:   -0.0000000

LOEWDIN ATOMIC CHARGES
----------------------
   0 C :   -0.384170
   1 S :    0.550813
   2 O :   -0.256008
   3 O :   -0.312585
   4 F :    0.055744
   5 C :   -0.311559
   6 H :    0.148049
   7 H :    0.141152
   8 H :    0.125920
   9 H :    0.119676
  10 H :    0.122968

  Mayer bond orders larger than 0.100000
B(  0-C ,  1-S ) :   0.9099 B(  0-C ,  5-C ) :   0.9774 B(  0-C ,  6-H ) :   0.9422
B(  0-C ,  7-H ) :   0.9454 B(  1-S ,  2-O ) :   1.9446 B(  1-S ,  3-O ) :   1.8900
B(  1-S ,  4-F ) :   1.1088 B(  5-C ,  8-H ) :   0.9644 B(  5-C ,  9-H ) :   0.9707
B(  5-C , 10-H ) :   0.9698

Dispersion correction           -0.002793676
FINAL SINGLE POINT ENERGY      -727.747445157804

DIPOLE MOMENT
-------------
                                X             Y             Z
Electronic contribution:     -7.26551       5.17198       1.31928
Nuclear contribution   :      8.50531      -6.23950      -0.59960
                        -----------------------------------------
Total Dipole Moment    :      1.23980      -1.06752       0.71968
                        -----------------------------------------
Magnitude (a.u.)       :      1.78736
Magnitude (Debye)      :      4.54310

Rotational constants in cm-1:     0.152799     0.080212     0.076962
Rotational constants in MHz :  4580.804531  2404.707790  2307.252710

                             ****ORCA TERMINATED NORMALLY****
TOTAL RUN TIME: 0 days 0 hours 0 minutes 38 seconds 916 msec
