                         Program Version 5.0.0 -  RELEASE  -
|  1> !wB97X-D3 RIJCOSX def2-TZVP def2/J TightSCF xyzfile
|  2>
|  3> *xyzfile 0 1 D3.xyz
|  4>
|  5> %MaxCore 64000
|  6>
|  7> %pal nprocs 18
|  8> end
|  9>
| 10> %scf
| 11>   MaxIter 150
| 12> end
| 13>
| 14>
| 15>                          ****END OF INPUT****

CARTESIAN COORDINATES (ANGSTROEM)
---------------------------------
  C     -4.382623   -1.670889    1.216201
  C     -5.763539   -1.915170    0.705012
  C     -3.281728   -2.191272    0.294361
  C     -5.572364   -5.807798   -0.816445
  S     -6.903179   -4.619033   -0.528458
  H     -5.840812   -2.115205   -0.300646
  H     -6.408823   -1.148656    0.936124
  H     -6.174781   -2.790606    1.051433
  O     -8.114853   -5.250932   -0.957007
  O     -6.532715   -3.426838   -1.314848
  H     -4.328618   -2.139223    2.198103
  H     -4.261583   -0.597399    1.357248
  F     -6.865632   -4.294957    0.914118
  C     -3.474641   -3.605898   -0.259608
  H     -2.354548   -2.127602    0.871433
  H     -3.166611   -1.499693   -0.545037
  C     -3.827078   -4.661097    0.786174
  H     -2.560559   -3.889391   -0.788050
  H     -4.255932   -3.570040   -1.019300
  C     -4.457800   -5.941875    0.229195
  H     -5.177347   -5.542575   -1.797714
  H     -6.074202   -6.768894   -0.921272
  H     -4.530506   -4.253640    1.511979
  H     -2.933400   -4.932302    1.356825
  H     -3.681064   -6.562236   -0.229885
  H     -4.843942   -6.512728    1.075805

 Total Charge           Charge          ....    0
 Multiplicity           Mult            ....    1
 Number of Electrons    NEL             ....   98
 Basis Dimension        Dim             ....  437

ORBITAL ENERGIES
----------------

  NO   OCC          E(Eh)            E(eV)
   0   2.0000     -89.199569     -2427.2437
   1   2.0000     -24.895501      -677.4410
   2   2.0000     -19.251562      -523.8616
   3   2.0000     -19.236267      -523.4454
   4   2.0000     -10.339141      -281.3423
   5   2.0000     -10.308418      -280.5063
   6   2.0000     -10.284824      -279.8643
   7   2.0000     -10.269650      -279.4514
   8   2.0000     -10.262703      -279.2624
   9   2.0000     -10.252668      -278.9893
  10   2.0000     -10.202037      -277.6116
  11   2.0000      -8.263104      -224.8505
  12   2.0000      -6.220663      -169.2728
  13   2.0000      -6.214039      -169.0926
  14   2.0000      -6.213566      -169.0797
  15   2.0000      -1.481924       -40.3252
  16   2.0000      -1.232837       -33.5472
  17   2.0000      -1.135321       -30.8937
  18   2.0000      -0.959350       -26.1052
  19   2.0000      -0.920528       -25.0488
  20   2.0000      -0.871774       -23.7222
  21   2.0000      -0.843112       -22.9423
  22   2.0000      -0.806898       -21.9568
  23   2.0000      -0.768869       -20.9220
  24   2.0000      -0.731107       -19.8944
  25   2.0000      -0.692941       -18.8559
  26   2.0000      -0.686737       -18.6871
  27   2.0000      -0.660039       -17.9606
  28   2.0000      -0.650060       -17.6890
  29   2.0000      -0.599712       -16.3190
  30   2.0000      -0.593595       -16.1525
  31   2.0000      -0.576212       -15.6795
  32   2.0000      -0.559729       -15.2310
  33   2.0000      -0.552948       -15.0465
  34   2.0000      -0.546580       -14.8732
  35   2.0000      -0.525636       -14.3033
  36   2.0000      -0.503754       -13.7078
  37   2.0000      -0.491641       -13.3782
  38   2.0000      -0.487474       -13.2648
  39   2.0000      -0.486869       -13.2484
  40   2.0000      -0.456323       -12.4172
  41   2.0000      -0.450155       -12.2493
  42   2.0000      -0.442067       -12.0293
  43   2.0000      -0.426472       -11.6049
  44   2.0000      -0.425941       -11.5904
  45   2.0000      -0.416312       -11.3284
  46   2.0000      -0.398405       -10.8411
  47   2.0000      -0.396163       -10.7801
  48   2.0000      -0.380074       -10.3423
  49   0.0000       0.084710         2.3051
  50   0.0000       0.114789         3.1236
  51   0.0000       0.124360         3.3840
  52   0.0000       0.129481         3.5234
  53   0.0000       0.136757         3.7214

MULLIKEN ATOMIC CHARGES
-----------------------
   0 C :   -0.170430
   1 C :   -0.428641
   2 C :   -0.203716
   3 C :   -0.322137
   4 S :    0.926197
   5 H :    0.170644
   6 H :    0.115687
   7 H :    0.085552
   8 O :   -0.416452
   9 O :   -0.458259
  10 H :    0.093753
  11 H :    0.099115
  12 F :   -0.119396
  13 C :   -0.191336
  14 H :    0.092981
  15 H :    0.107876
  16 C :   -0.287392
  17 H :    0.103210
  18 H :    0.135301
  19 C :   -0.196175
  20 H :    0.182579
  21 H :    0.177205
  22 H :    0.129215
  23 H :    0.118551
  24 H :    0.123101
  25 H :    0.132965
Sum of atomic charges:    0.0000000

LOEWDIN ATOMIC CHARGES
----------------------
   0 C :   -0.303201
   1 C :   -0.333261
   2 C :   -0.267205
   3 C :   -0.358931
   4 S :    0.570360
   5 H :    0.109807
   6 H :    0.105232
   7 H :    0.088651
   8 O :   -0.250303
   9 O :   -0.282567
  10 H :    0.128628
  11 H :    0.134711
  12 F :    0.073410
  13 C :   -0.270087
  14 H :    0.133252
  15 H :    0.138283
  16 C :   -0.269900
  17 H :    0.134888
  18 H :    0.138870
  19 C :   -0.284185
  20 H :    0.151150
  21 H :    0.145771
  22 H :    0.137191
  23 H :    0.140393
  24 H :    0.147227
  25 H :    0.141817

  Mayer bond orders larger than 0.100000
B(  0-C ,  1-C ) :   0.9121 B(  0-C ,  2-C ) :   0.9748 B(  0-C , 10-H ) :   0.9906
B(  0-C , 11-H ) :   0.9768 B(  1-C ,  5-H ) :   0.9826 B(  1-C ,  6-H ) :   0.9788
B(  1-C ,  7-H ) :   0.9982 B(  2-C , 13-C ) :   0.9838 B(  2-C , 14-H ) :   0.9848
B(  2-C , 15-H ) :   0.9756 B(  3-C ,  4-S ) :   0.9148 B(  3-C , 19-C ) :   0.9621
B(  3-C , 20-H ) :   0.9434 B(  3-C , 21-H ) :   0.9484 B(  4-S ,  8-O ) :   1.9771
B(  4-S ,  9-O ) :   1.8118 B(  4-S , 12-F ) :   1.0845 B( 13-C , 16-C ) :   0.9163
B( 13-C , 17-H ) :   0.9707 B( 13-C , 18-H ) :   0.9774 B( 16-C , 19-C ) :   0.9594
B( 16-C , 22-H ) :   1.0008 B( 16-C , 23-H ) :   0.9665 B( 19-C , 24-H ) :   0.9582
B( 19-C , 25-H ) :   0.9848

Dispersion correction           -0.012917554
FINAL SINGLE POINT ENERGY      -924.279417448211

DIPOLE MOMENT
-------------
                                X             Y             Z
Electronic contribution:    -16.54743      -6.86808      -3.43983
Nuclear contribution   :     17.63907       5.79106       3.97609
                        -----------------------------------------
Total Dipole Moment    :      1.09164      -1.07702       0.53626
                        -----------------------------------------
Magnitude (a.u.)       :      1.62457
Magnitude (Debye)      :      4.12932

Rotational constants in cm-1:     0.048663     0.025472     0.020259
Rotational constants in MHz :  1458.892793   763.621130   607.350055

                             ****ORCA TERMINATED NORMALLY****
TOTAL RUN TIME: 0 days 0 hours 1 minutes 9 seconds 445 msec
