                         Program Version 5.0.0 -  RELEASE  -
|  1> !wB97X-D3 RIJCOSX def2-SVP def2/J TightSCF
|  2> *xyz -1 1
|  3> C         -0.90349       -0.87394       -1.98739
|  4> C         -0.96015       -0.52236       -0.48987
|  5> H         -1.69039       -1.20813       -0.02168
|  6> H         -1.41449        0.48633       -0.40668
|  7> O          0.26170       -0.58031        0.13861
|  8> H         -1.88568       -0.80774       -2.40670
|  9> H         -0.53143       -1.87013       -2.10605
| 10> H         -0.25399       -0.18836       -2.49039
| 11> *
| 12>
| 13> %MaxCore 64000
| 14>
| 15> %pal nprocs 4
| 16> end
| 17>
| 18> %scf
| 19>   MaxIter 150
| 20> end
| 21>
| 22>
| 23>                          ****END OF INPUT****

CARTESIAN COORDINATES (ANGSTROEM)
---------------------------------
  C     -0.903490   -0.873940   -1.987390
  C     -0.960150   -0.522360   -0.489870
  H     -1.690390   -1.208130   -0.021680
  H     -1.414490    0.486330   -0.406680
  O      0.261700   -0.580310    0.138610
  H     -1.885680   -0.807740   -2.406700
  H     -0.531430   -1.870130   -2.106050
  H     -0.253990   -0.188360   -2.490390

 Total Charge           Charge          ....   -1
 Multiplicity           Mult            ....    1
 Number of Electrons    NEL             ....   26
 Basis Dimension        Dim             ....   67

ORBITAL ENERGIES
----------------

  NO   OCC          E(Eh)            E(eV)
   0   2.0000     -18.844146      -512.7753
   1   2.0000     -10.076552      -274.1969
   2   2.0000     -10.066430      -273.9215
   3   2.0000      -0.736350       -20.0371
   4   2.0000      -0.613466       -16.6933
   5   2.0000      -0.452996       -12.3266
   6   2.0000      -0.334355        -9.0983
   7   2.0000      -0.310759        -8.4562
   8   2.0000      -0.249388        -6.7862
   9   2.0000      -0.232592        -6.3292
  10   2.0000      -0.160065        -4.3556
  11   2.0000      -0.011398        -0.3101
  12   2.0000      -0.008479        -0.2307
  13   0.0000       0.335136         9.1195
  14   0.0000       0.380964        10.3666
  15   0.0000       0.394374        10.7315
  16   0.0000       0.401637        10.9291
  17   0.0000       0.445095        12.1116

MULLIKEN ATOMIC CHARGES
-----------------------
   0 C :    0.008959
   1 C :    0.244165
   2 H :   -0.160760
   3 H :   -0.162120
   4 O :   -0.738035
   5 H :   -0.099157
   6 H :   -0.046521
   7 H :   -0.046532
Sum of atomic charges:   -1.0000000

LOEWDIN ATOMIC CHARGES
----------------------
   0 C :   -0.113163
   1 C :    0.011160
   2 H :   -0.078555
   3 H :   -0.079282
   4 O :   -0.689077
   5 H :   -0.029761
   6 H :   -0.010649
   7 H :   -0.010673

  Mayer bond orders larger than 0.100000
B(  0-C ,  1-C ) :   0.9912 B(  0-C ,  5-H ) :   0.9344 B(  0-C ,  6-H ) :   0.9644
B(  0-C ,  7-H ) :   0.9644 B(  1-C ,  2-H ) :   0.8838 B(  1-C ,  3-H ) :   0.8822
B(  1-C ,  4-O ) :   1.4906

Dispersion correction           -0.000860276
FINAL SINGLE POINT ENERGY      -154.230097278718

DIPOLE MOMENT
-------------
                                X             Y             Z
Electronic contribution:      2.13570       0.15174       2.22803
Nuclear contribution   :     -2.90669      -0.27617      -3.31210
                        -----------------------------------------
Total Dipole Moment    :     -0.77100      -0.12443      -1.08407
                        -----------------------------------------
Magnitude (a.u.)       :      1.33609
Magnitude (Debye)      :      3.39607

Rotational constants in cm-1:     1.291883     0.321656     0.284469
Rotational constants in MHz : 38729.676116  9643.011620  8528.167295

                             ****ORCA TERMINATED NORMALLY****
TOTAL RUN TIME: 0 days 0 hours 0 minutes 8 seconds 89 msec
