                         Program Version 5.0.0 -  RELEASE  -
|  1> !wB97X-D3 RIJCOSX def2-SVP def2/J TightSCF
|  2> *xyz 1 1
|  3> C          4.36645       -0.13321       -1.41606
|  4> C          4.50829       -0.93187       -2.72425
|  5> C          3.05650       -0.32080       -0.70738
|  6> N          2.38983        0.71129       -0.24391
|  7> N          2.51600       -1.50772       -0.55023
|  8> H          2.96768       -2.32291       -0.95631
|  9> H          1.54987       -1.49063       -0.24988
| 10> H          2.74307        1.64947       -0.41280
| 11> H          1.44036        0.50278        0.03703
| 12> H          4.48784        0.93300       -1.61157
| 13> H          5.16967       -0.41443       -0.72982
| 14> H          5.46700       -0.73824       -3.15818
| 15> H          3.74074       -0.63528       -3.40821
| 16> H          4.41574       -1.97727       -2.51573
| 17> *
| 18>
| 19> %MaxCore 64000
| 20>
| 21> %pal nprocs 4
| 22> end
| 23>
| 24> %scf
| 25>   MaxIter 150
| 26> end
| 27>
| 28>
| 29>                          ****END OF INPUT****

CARTESIAN COORDINATES (ANGSTROEM)
---------------------------------
  C      4.366450   -0.133210   -1.416060
  C      4.508290   -0.931870   -2.724250
  C      3.056500   -0.320800   -0.707380
  N      2.389830    0.711290   -0.243910
  N      2.516000   -1.507720   -0.550230
  H      2.967680   -2.322910   -0.956310
  H      1.549870   -1.490630   -0.249880
  H      2.743070    1.649470   -0.412800
  H      1.440360    0.502780    0.037030
  H      4.487840    0.933000   -1.611570
  H      5.169670   -0.414430   -0.729820
  H      5.467000   -0.738240   -3.158180
  H      3.740740   -0.635280   -3.408210
  H      4.415740   -1.977270   -2.515730

 Total Charge           Charge          ....    1
 Multiplicity           Mult            ....    1
 Number of Electrons    NEL             ....   40
 Basis Dimension        Dim             ....  115

ORBITAL ENERGIES
----------------

  NO   OCC          E(Eh)            E(eV)
   0   2.0000     -14.683835      -399.5675
   1   2.0000     -14.682962      -399.5437
   2   2.0000     -10.613697      -288.8134
   3   2.0000     -10.490633      -285.4646
   4   2.0000     -10.449123      -284.3351
   5   2.0000      -1.324513       -36.0418
   6   2.0000      -1.214608       -33.0512
   7   2.0000      -1.082373       -29.4529
   8   2.0000      -0.967198       -26.3188
   9   2.0000      -0.924994       -25.1704
  10   2.0000      -0.873937       -23.7810
  11   2.0000      -0.859374       -23.3847
  12   2.0000      -0.804961       -21.9041
  13   2.0000      -0.765288       -20.8245
  14   2.0000      -0.728530       -19.8243
  15   2.0000      -0.702419       -19.1138
  16   2.0000      -0.651134       -17.7183
  17   2.0000      -0.636959       -17.3325
  18   2.0000      -0.622058       -16.9271
  19   2.0000      -0.587665       -15.9912
  20   0.0000      -0.124791        -3.3957
  21   0.0000      -0.061298        -1.6680
  22   0.0000      -0.015702        -0.4273
  23   0.0000      -0.011468        -0.3121
  24   0.0000       0.025421         0.6917

MULLIKEN ATOMIC CHARGES
-----------------------
   0 C :   -0.036463
   1 C :   -0.047269
   2 C :   -0.058153
   3 N :   -0.016650
   4 N :   -0.017138
   5 H :    0.196854
   6 H :    0.181856
   7 H :    0.202767
   8 H :    0.179359
   9 H :    0.071527
  10 H :    0.125196
  11 H :    0.095117
  12 H :    0.071588
  13 H :    0.051408
Sum of atomic charges:    1.0000000

LOEWDIN ATOMIC CHARGES
----------------------
   0 C :   -0.040069
   1 C :   -0.028352
   2 C :    0.159195
   3 N :    0.092707
   4 N :    0.089935
   5 H :    0.122013
   6 H :    0.111709
   7 H :    0.125958
   8 H :    0.111030
   9 H :    0.054272
  10 H :    0.075403
  11 H :    0.056656
  12 H :    0.040602
  13 H :    0.028941

  Mayer bond orders larger than 0.100000
B(  0-C ,  1-C ) :   1.0678 B(  0-C ,  2-C ) :   1.0028 B(  0-C ,  9-H ) :   0.9290
B(  0-C , 10-H ) :   0.9164 B(  1-C , 11-H ) :   0.9614 B(  1-C , 12-H ) :   0.9774
B(  1-C , 13-H ) :   0.9716 B(  2-C ,  3-N ) :   1.5184 B(  2-C ,  4-N ) :   1.5042
B(  3-N ,  7-H ) :   0.9127 B(  3-N ,  8-H ) :   0.9264 B(  4-N ,  5-H ) :   0.9190
B(  4-N ,  6-H ) :   0.9253

Dispersion correction           -0.002897595
FINAL SINGLE POINT ENERGY      -228.800798154833

DIPOLE MOMENT
-------------
                                X             Y             Z
Electronic contribution:     -2.70875       0.62624       3.13822
Nuclear contribution   :      1.78847      -0.48174      -2.67127
                        -----------------------------------------
Total Dipole Moment    :     -0.92029       0.14450       0.46694
                        -----------------------------------------
Magnitude (a.u.)       :      1.04204
Magnitude (Debye)      :      2.64865

Rotational constants in cm-1:     0.286883     0.123210     0.094446
Rotational constants in MHz :  8600.540572  3693.747366  2831.415242

                             ****ORCA TERMINATED NORMALLY****
TOTAL RUN TIME: 0 days 0 hours 0 minutes 18 seconds 706 msec
