                         Program Version 5.0.0 -  RELEASE  -
|  1> !wB97X-D3 RIJCOSX def2-SVP def2/J TightSCF
|  2> *xyz 0 1
|  3> C          4.36645       -0.13321       -1.41606
|  4> C          4.50829       -0.93187       -2.72425
|  5> C          3.05650       -0.32080       -0.70738
|  6> C          2.38983        0.71129       -0.24391
|  7> N          2.51600       -1.50772       -0.55023
|  8> H          2.96768       -2.32291       -0.95631
|  9> H          1.54987       -1.49063       -0.24988
| 10> H          2.74307        1.64947       -0.41280
| 11> H          1.44036        0.50278        0.03703
| 12> H          4.48784        0.93300       -1.61157
| 13> H          5.16967       -0.41443       -0.72982
| 14> H          5.46700       -0.73824       -3.15818
| 15> H          3.74074       -0.63528       -3.40821
| 16> H          4.41574       -1.97727       -2.51573
| 17> *
| 18>
| 19> %MaxCore 64000
| 20>
| 21> %pal nprocs 4
| 22> end
| 23>
| 24> %scf
| 25>   MaxIter 150
| 26> end
| 27>
| 28>
| 29>                          ****END OF INPUT****

CARTESIAN COORDINATES (ANGSTROEM)
---------------------------------
  C      4.366450   -0.133210   -1.416060
  C      4.508290   -0.931870   -2.724250
  C      3.056500   -0.320800   -0.707380
  C      2.389830    0.711290   -0.243910
  N      2.516000   -1.507720   -0.550230
  H      2.967680   -2.322910   -0.956310
  H      1.549870   -1.490630   -0.249880
  H      2.743070    1.649470   -0.412800
  H      1.440360    0.502780    0.037030
  H      4.487840    0.933000   -1.611570
  H      5.169670   -0.414430   -0.729820
  H      5.467000   -0.738240   -3.158180
  H      3.740740   -0.635280   -3.408210
  H      4.415740   -1.977270   -2.515730

 Total Charge           Charge          ....    0
 Multiplicity           Mult            ....    1
 Number of Electrons    NEL             ....   40
 Basis Dimension        Dim             ....  115

ORBITAL ENERGIES
----------------

  NO   OCC          E(Eh)            E(eV)
   0   2.0000     -14.427902      -392.6032
   1   2.0000     -10.301454      -280.3168
   2   2.0000     -10.287944      -279.9492
   3   2.0000     -10.281457      -279.7727
   4   2.0000     -10.214197      -277.9424
   5   2.0000      -1.035721       -28.1834
   6   2.0000      -0.885215       -24.0879
   7   2.0000      -0.825762       -22.4701
   8   2.0000      -0.739439       -20.1212
   9   2.0000      -0.660496       -17.9730
  10   2.0000      -0.631612       -17.1870
  11   2.0000      -0.568196       -15.4614
  12   2.0000      -0.537400       -14.6234
  13   2.0000      -0.527133       -14.3440
  14   2.0000      -0.485122       -13.2008
  15   2.0000      -0.475836       -12.9481
  16   2.0000      -0.450567       -12.2606
  17   2.0000      -0.435392       -11.8476
  18   2.0000      -0.416963       -11.3461
  19   2.0000      -0.269908        -7.3446
  20   0.0000       0.132770         3.6129
  21   0.0000       0.141185         3.8418
  22   0.0000       0.181454         4.9376
  23   0.0000       0.186355         5.0710
  24   0.0000       0.207924         5.6579

MULLIKEN ATOMIC CHARGES
-----------------------
   0 C :    0.018888
   1 C :   -0.038031
   2 C :   -0.152014
   3 C :   -0.066577
   4 N :   -0.094234
   5 H :    0.116993
   6 H :    0.129156
   7 H :   -0.023392
   8 H :   -0.041048
   9 H :    0.024882
  10 H :    0.040141
  11 H :    0.033610
  12 H :    0.037289
  13 H :    0.014336
Sum of atomic charges:    0.0000000

LOEWDIN ATOMIC CHARGES
----------------------
   0 C :   -0.034045
   1 C :   -0.052851
   2 C :    0.006762
   3 C :   -0.182130
   4 N :   -0.016652
   5 H :    0.070313
   6 H :    0.080983
   7 H :    0.000136
   8 H :   -0.007479
   9 H :    0.035052
  10 H :    0.031844
  11 H :    0.027211
  12 H :    0.026536
  13 H :    0.014320

  Mayer bond orders larger than 0.100000
B(  0-C ,  1-C ) :   1.0765 B(  0-C ,  2-C ) :   1.0088 B(  0-C ,  9-H ) :   0.9397
B(  0-C , 10-H ) :   0.9398 B(  1-C , 11-H ) :   0.9714 B(  1-C , 12-H ) :   0.9769
B(  1-C , 13-H ) :   0.9738 B(  2-C ,  3-C ) :   1.8643 B(  2-C ,  4-N ) :   1.2614
B(  3-C ,  7-H ) :   0.9527 B(  3-C ,  8-H ) :   0.9544 B(  4-N ,  5-H ) :   0.9525
B(  4-N ,  6-H ) :   0.9429

Dispersion correction           -0.002911663
FINAL SINGLE POINT ENERGY      -212.340910640917

DIPOLE MOMENT
-------------
                                X             Y             Z
Electronic contribution:     -1.48937      -0.50518       2.06323
Nuclear contribution   :      1.56827      -0.21459      -2.46657
                        -----------------------------------------
Total Dipole Moment    :      0.07890      -0.71976      -0.40334
                        -----------------------------------------
Magnitude (a.u.)       :      0.82883
Magnitude (Debye)      :      2.10673

Rotational constants in cm-1:     0.294070     0.127722     0.097792
Rotational constants in MHz :  8815.983970  3829.010547  2931.715816

                             ****ORCA TERMINATED NORMALLY****
TOTAL RUN TIME: 0 days 0 hours 0 minutes 20 seconds 516 msec
