                         Program Version 5.0.0 -  RELEASE  -
|  1> !wB97X-D3 RIJCOSX def2-SVP def2/J TightSCF
|  2> *xyz 0 1
|  3> C          4.36645       -0.13321       -1.41606
|  4> C          4.50829       -0.93187       -2.72425
|  5> C          3.05650       -0.32080       -0.70738
|  6> N          2.38983        0.71129       -0.24391
|  7> C          2.51600       -1.50772       -0.55023
|  8> H          2.96768       -2.32291       -0.95631
|  9> H          1.54987       -1.49063       -0.24988
| 10> H          2.74307        1.64947       -0.41280
| 11> H          1.44036        0.50278        0.03703
| 12> H          4.48784        0.93300       -1.61157
| 13> H          5.16967       -0.41443       -0.72982
| 14> H          5.46700       -0.73824       -3.15818
| 15> H          3.74074       -0.63528       -3.40821
| 16> H          4.41574       -1.97727       -2.51573
| 17> *
| 18>
| 19> %MaxCore 64000
| 20>
| 21> %pal nprocs 4
| 22> end
| 23>
| 24> %scf
| 25>   MaxIter 150
| 26> end
| 27>
| 28>
| 29>                          ****END OF INPUT****

CARTESIAN COORDINATES (ANGSTROEM)
---------------------------------
  C      4.366450   -0.133210   -1.416060
  C      4.508290   -0.931870   -2.724250
  C      3.056500   -0.320800   -0.707380
  N      2.389830    0.711290   -0.243910
  C      2.516000   -1.507720   -0.550230
  H      2.967680   -2.322910   -0.956310
  H      1.549870   -1.490630   -0.249880
  H      2.743070    1.649470   -0.412800
  H      1.440360    0.502780    0.037030
  H      4.487840    0.933000   -1.611570
  H      5.169670   -0.414430   -0.729820
  H      5.467000   -0.738240   -3.158180
  H      3.740740   -0.635280   -3.408210
  H      4.415740   -1.977270   -2.515730

 Total Charge           Charge          ....    0
 Multiplicity           Mult            ....    1
 Number of Electrons    NEL             ....   40
 Basis Dimension        Dim             ....  115

ORBITAL ENERGIES
----------------

  NO   OCC          E(Eh)            E(eV)
   0   2.0000     -14.427910      -392.6034
   1   2.0000     -10.301715      -280.3239
   2   2.0000     -10.289261      -279.9850
   3   2.0000     -10.274425      -279.5813
   4   2.0000     -10.212400      -277.8935
   5   2.0000      -1.035601       -28.1801
   6   2.0000      -0.886443       -24.1213
   7   2.0000      -0.813958       -22.1489
   8   2.0000      -0.749236       -20.3877
   9   2.0000      -0.650479       -17.7004
  10   2.0000      -0.628553       -17.1038
  11   2.0000      -0.575459       -15.6590
  12   2.0000      -0.549044       -14.9403
  13   2.0000      -0.501983       -13.6597
  14   2.0000      -0.483824       -13.1655
  15   2.0000      -0.474430       -12.9099
  16   2.0000      -0.450632       -12.2623
  17   2.0000      -0.433256       -11.7895
  18   2.0000      -0.418187       -11.3795
  19   2.0000      -0.268233        -7.2990
  20   0.0000       0.137683         3.7465
  21   0.0000       0.140993         3.8366
  22   0.0000       0.179996         4.8979
  23   0.0000       0.185502         5.0478
  24   0.0000       0.212338         5.7780

MULLIKEN ATOMIC CHARGES
-----------------------
   0 C :    0.017190
   1 C :   -0.023795
   2 C :   -0.153067
   3 N :   -0.099750
   4 C :   -0.068558
   5 H :   -0.025877
   6 H :   -0.038178
   7 H :    0.120756
   8 H :    0.126565
   9 H :   -0.000097
  10 H :    0.050417
  11 H :    0.024478
  12 H :    0.032040
  13 H :    0.037875
Sum of atomic charges:    0.0000000

LOEWDIN ATOMIC CHARGES
----------------------
   0 C :   -0.036025
   1 C :   -0.043036
   2 C :    0.007790
   3 N :   -0.014569
   4 C :   -0.186795
   5 H :   -0.001773
   6 H :   -0.006760
   7 H :    0.071986
   8 H :    0.080202
   9 H :    0.017675
  10 H :    0.039092
  11 H :    0.022204
  12 H :    0.024995
  13 H :    0.025012

  Mayer bond orders larger than 0.100000
B(  0-C ,  1-C ) :   1.0958 B(  0-C ,  2-C ) :   0.9838 B(  0-C ,  9-H ) :   0.9428
B(  0-C , 10-H ) :   0.9379 B(  1-C , 11-H ) :   0.9703 B(  1-C , 12-H ) :   0.9780
B(  1-C , 13-H ) :   0.9750 B(  2-C ,  3-N ) :   1.2659 B(  2-C ,  4-C ) :   1.8591
B(  3-N ,  7-H ) :   0.9469 B(  3-N ,  8-H ) :   0.9442 B(  4-C ,  5-H ) :   0.9617
B(  4-C ,  6-H ) :   0.9540

Dispersion correction           -0.002887014
FINAL SINGLE POINT ENERGY      -212.339597797778

DIPOLE MOMENT
-------------
                                X             Y             Z
Electronic contribution:     -1.60420       1.51984       2.36112
Nuclear contribution   :      1.59749      -0.72853      -2.53752
                        -----------------------------------------
Total Dipole Moment    :     -0.00671       0.79131      -0.17640
                        -----------------------------------------
Magnitude (a.u.)       :      0.81076
Magnitude (Debye)      :      2.06080

Rotational constants in cm-1:     0.304597     0.124127     0.096828
Rotational constants in MHz :  9131.600925  3721.227051  2902.830760

                             ****ORCA TERMINATED NORMALLY****
TOTAL RUN TIME: 0 days 0 hours 0 minutes 19 seconds 164 msec
