                         Program Version 5.0.0 -  RELEASE  -
|  1> !wB97X-D3 RIJCOSX def2-SVP def2/J TightSCF xyzfile
|  2>
|  3> *xyzfile 0 1 D2.xyz
|  4>
|  5> %MaxCore 64000
|  6>
|  7> %pal nprocs 18
|  8> end
|  9>
| 10> %scf
| 11>   MaxIter 150
| 12> end
| 13>
| 14>
| 15>                          ****END OF INPUT****

CARTESIAN COORDINATES (ANGSTROEM)
---------------------------------
  C      4.366454   -0.133215   -1.416062
  C      4.508292   -0.931872   -2.724249
  H      4.753716   -1.972051   -2.488408
  C      3.294164   -0.918214   -3.656570
  H      5.385637   -0.536236   -3.242640
  H      2.483463   -1.477378   -3.185764
  H      3.553092   -1.478495   -4.560331
  C      2.772335    0.460100   -4.051448
  H      2.608762    1.065107   -3.155194
  C      1.465354    0.410537   -4.853644
  H      3.532940    0.988848   -4.635671
  C      0.326171   -0.375613   -4.192580
  H      1.666704   -0.022269   -5.839323
  H      1.138198    1.439246   -5.035449
  C     -0.017405    0.080588   -2.778406
  H      0.585573   -1.439385   -4.168057
  H     -0.560005   -0.311425   -4.831461
  H      0.902090    0.201296   -2.206729
  C     -0.903495   -0.873945   -1.987388
  H     -0.479549    1.074657   -2.811915
  H     -0.502554   -1.892096   -2.081204
  H     -1.917039   -0.895427   -2.406277
  C     -0.960148   -0.522365   -0.489867
  H     -1.690392   -1.208130   -0.021677
  H     -1.414490    0.486329   -0.406677
  F      0.261703   -0.580307    0.138611
  C      3.056503   -0.320797   -0.707384
  N      2.389825    0.711285   -0.243909
  C      2.515999   -1.507721   -0.550229
  H      2.967683   -2.322915   -0.956305
  H      1.549872   -1.490634   -0.249876
  H      2.743071    1.649471   -0.412802
  H      1.440364    0.502778    0.037031
  H      4.487835    0.932997   -1.611569
  H      5.169672   -0.414432   -0.729817

 Total Charge           Charge          ....    0
 Multiplicity           Mult            ....    1
 Number of Electrons    NEL             ....  104
 Basis Dimension        Dim             ....  292

ORBITAL ENERGIES
----------------

  NO   OCC          E(Eh)            E(eV)
   0   2.0000     -24.810543      -675.1292
   1   2.0000     -14.403811      -391.9476
   2   2.0000     -10.380994      -282.4812
   3   2.0000     -10.298813      -280.2449
   4   2.0000     -10.284901      -279.8664
   5   2.0000     -10.281401      -279.7711
   6   2.0000     -10.280831      -279.7556
   7   2.0000     -10.279207      -279.7114
   8   2.0000     -10.276169      -279.6288
   9   2.0000     -10.275968      -279.6233
  10   2.0000     -10.274062      -279.5714
  11   2.0000     -10.267675      -279.3976
  12   2.0000     -10.187332      -277.2114
  13   2.0000      -1.332524       -36.2598
  14   2.0000      -1.018628       -27.7183
  15   2.0000      -0.929377       -25.2896
  16   2.0000      -0.905593       -24.6424
  17   2.0000      -0.879756       -23.9394
  18   2.0000      -0.835644       -22.7390
  19   2.0000      -0.803316       -21.8593
  20   2.0000      -0.791202       -21.5297
  21   2.0000      -0.746286       -20.3075
  22   2.0000      -0.721293       -19.6274
  23   2.0000      -0.690997       -18.8030
  24   2.0000      -0.656123       -17.8540
  25   2.0000      -0.646951       -17.6044
  26   2.0000      -0.629194       -17.1212
  27   2.0000      -0.623571       -16.9682
  28   2.0000      -0.610797       -16.6206
  29   2.0000      -0.583602       -15.8806
  30   2.0000      -0.576354       -15.6834
  31   2.0000      -0.561476       -15.2785
  32   2.0000      -0.547865       -14.9082
  33   2.0000      -0.534392       -14.5416
  34   2.0000      -0.526931       -14.3385
  35   2.0000      -0.511729       -13.9249
  36   2.0000      -0.494059       -13.4440
  37   2.0000      -0.483365       -13.1530
  38   2.0000      -0.475227       -12.9316
  39   2.0000      -0.460793       -12.5388
  40   2.0000      -0.457936       -12.4611
  41   2.0000      -0.452378       -12.3098
  42   2.0000      -0.444441       -12.0939
  43   2.0000      -0.440441       -11.9850
  44   2.0000      -0.424938       -11.5631
  45   2.0000      -0.418563       -11.3897
  46   2.0000      -0.406289       -11.0557
  47   2.0000      -0.398504       -10.8439
  48   2.0000      -0.397504       -10.8166
  49   2.0000      -0.390741       -10.6326
  50   2.0000      -0.388060       -10.5597
  51   2.0000      -0.250680        -6.8214
  52   0.0000       0.133774         3.6402
  53   0.0000       0.142971         3.8904
  54   0.0000       0.151262         4.1160
  55   0.0000       0.153316         4.1719
  56   0.0000       0.160911         4.3786

MULLIKEN ATOMIC CHARGES
-----------------------
   0 C :    0.084993
   1 C :   -0.027040
   2 H :    0.028195
   3 C :   -0.015464
   4 H :    0.013862
   5 H :    0.006815
   6 H :    0.010163
   7 C :   -0.050666
   8 H :    0.004864
   9 C :    0.003542
  10 H :    0.013904
  11 C :   -0.033886
  12 H :    0.018458
  13 H :    0.014150
  14 C :   -0.058862
  15 H :    0.022374
  16 H :    0.014793
  17 H :    0.006483
  18 C :   -0.101140
  19 H :    0.010625
  20 H :    0.042443
  21 H :    0.036913
  22 C :    0.260142
  23 H :    0.043668
  24 H :    0.031522
  25 F :   -0.237287
  26 C :   -0.187133
  27 N :   -0.107790
  28 C :   -0.076171
  29 H :   -0.039294
  30 H :   -0.005234
  31 H :    0.109050
  32 H :    0.129791
  33 H :   -0.008379
  34 H :    0.041597
Sum of atomic charges:    0.0000000

LOEWDIN ATOMIC CHARGES
----------------------
   0 C :   -0.035484
   1 C :   -0.030202
   2 H :    0.025636
   3 C :   -0.042882
   4 H :    0.021316
   5 H :    0.018621
   6 H :    0.020621
   7 C :   -0.042235
   8 H :    0.012059
   9 C :   -0.035345
  10 H :    0.021117
  11 C :   -0.039098
  12 H :    0.022424
  13 H :    0.020594
  14 C :   -0.048021
  15 H :    0.020317
  16 H :    0.020897
  17 H :    0.022047
  18 C :   -0.057343
  19 H :    0.018830
  20 H :    0.030793
  21 H :    0.032468
  22 C :    0.122367
  23 H :    0.022845
  24 H :    0.017738
  25 F :   -0.051171
  26 C :    0.001375
  27 N :   -0.019144
  28 C :   -0.196856
  29 H :   -0.009996
  30 H :   -0.024105
  31 H :    0.063730
  32 H :    0.041152
  33 H :    0.014724
  34 H :    0.040210

  Mayer bond orders larger than 0.100000
B(  0-C ,  1-C ) :   1.0822 B(  0-C , 26-C ) :   0.9981 B(  0-C , 33-H ) :   0.9305
B(  0-C , 34-H ) :   0.9271 B(  1-C ,  2-H ) :   0.9433 B(  1-C ,  3-C ) :   1.0897
B(  1-C ,  4-H ) :   0.9484 B(  3-C ,  5-H ) :   0.9257 B(  3-C ,  6-H ) :   0.9434
B(  3-C ,  7-C ) :   1.0584 B(  7-C ,  8-H ) :   0.9379 B(  7-C ,  9-C ) :   1.0821
B(  7-C , 10-H ) :   0.9461 B(  9-C , 11-C ) :   1.0781 B(  9-C , 12-H ) :   0.9485
B(  9-C , 13-H ) :   0.9488 B( 11-C , 14-C ) :   1.0630 B( 11-C , 15-H ) :   0.9479
B( 11-C , 16-H ) :   0.9446 B( 14-C , 17-H ) :   0.9377 B( 14-C , 18-C ) :   1.0612
B( 14-C , 19-H ) :   0.9436 B( 18-C , 20-H ) :   0.9446 B( 18-C , 21-H ) :   0.9423
B( 18-C , 22-C ) :   1.0693 B( 22-C , 23-H ) :   0.9616 B( 22-C , 24-H ) :   0.9599
B( 22-C , 25-F ) :   0.8944 B( 26-C , 27-N ) :   1.2450 B( 26-C , 28-C ) :   1.8721
B( 27-N , 31-H ) :   0.9503 B( 27-N , 32-H ) :   0.9098 B( 28-C , 29-H ) :   0.9467
B( 28-C , 30-H ) :   0.9196

Dispersion correction           -0.017787564
FINAL SINGLE POINT ENERGY      -586.389354138639

DIPOLE MOMENT
-------------
                                X             Y             Z
Electronic contribution:     -2.82948       0.06857      10.77409
Nuclear contribution   :      1.85154       0.58682     -11.15333
                        -----------------------------------------
Total Dipole Moment    :     -0.97794       0.65540      -0.37924
                        -----------------------------------------
Magnitude (a.u.)       :      1.23683
Magnitude (Debye)      :      3.14376

Rotational constants in cm-1:     0.028379     0.022321     0.014415
Rotational constants in MHz :   850.785777   669.176075   432.155504

                             ****ORCA TERMINATED NORMALLY****
TOTAL RUN TIME: 0 days 0 hours 0 minutes 47 seconds 532 msec
