                         Program Version 5.0.0 -  RELEASE  -
|  1> !wB97X-D3 RIJCOSX def2-SVP def2/J TightSCF
|  2> *xyz -1 1
|  3> C         -7.33044       -2.67899       -3.20681
|  4> S         -6.01966       -2.92697       -4.41913
|  5> O         -5.64583       -1.58838       -4.91931
|  6> O         -4.88196       -3.50370       -3.66724
|  7> O         -6.54927       -3.80515       -5.42507
|  8> H         -8.18867       -2.26077       -3.68996
|  9> H         -6.98921       -2.01038       -2.44430
| 10> H         -7.59151       -3.61862       -2.76655
| 11> *
| 12> %MaxCore 64000
| 13>
| 14> %pal nprocs 8
| 15> end
| 16>
| 17> %scf
| 18>   MaxIter 150
| 19> end
| 20>
| 21>
| 22>                          ****END OF INPUT****

CARTESIAN COORDINATES (ANGSTROEM)
---------------------------------
  C     -7.330440   -2.678990   -3.206810
  S     -6.019660   -2.926970   -4.419130
  O     -5.645830   -1.588380   -4.919310
  O     -4.881960   -3.503700   -3.667240
  O     -6.549270   -3.805150   -5.425070
  H     -8.188670   -2.260770   -3.689960
  H     -6.989210   -2.010380   -2.444300
  H     -7.591510   -3.618620   -2.766550

 Total Charge           Charge          ....   -1
 Multiplicity           Mult            ....    1
 Number of Electrons    NEL             ....   50
 Basis Dimension        Dim             ....   89

ORBITAL ENERGIES
----------------

  NO   OCC          E(Eh)            E(eV)
   0   2.0000     -88.937077     -2420.1009
   1   2.0000     -18.989331      -516.7260
   2   2.0000     -18.975534      -516.3505
   3   2.0000     -18.972672      -516.2726
   4   2.0000     -10.130830      -275.6739
   5   2.0000      -8.017146      -218.1576
   6   2.0000      -5.976281      -162.6229
   7   2.0000      -5.975961      -162.6142
   8   2.0000      -5.975893      -162.6123
   9   2.0000      -1.011952       -27.5366
  10   2.0000      -0.867340       -23.6015
  11   2.0000      -0.842889       -22.9362
  12   2.0000      -0.683857       -18.6087
  13   2.0000      -0.473026       -12.8717
  14   2.0000      -0.377979       -10.2853
  15   2.0000      -0.377289       -10.2666
  16   2.0000      -0.376761       -10.2522
  17   2.0000      -0.320084        -8.7099
  18   2.0000      -0.319050        -8.6818
  19   2.0000      -0.213879        -5.8199
  20   2.0000      -0.212622        -5.7857
  21   2.0000      -0.179784        -4.8922
  22   2.0000      -0.171893        -4.6774
  23   2.0000      -0.161592        -4.3972
  24   2.0000      -0.122732        -3.3397
  25   0.0000       0.309117         8.4115
  26   0.0000       0.358356         9.7514
  27   0.0000       0.360426         9.8077
  28   0.0000       0.393248        10.7008
  29   0.0000       0.468760        12.7556

MULLIKEN ATOMIC CHARGES
-----------------------
   0 C :   -0.077030
   1 S :    0.867998
   2 O :   -0.624232
   3 O :   -0.630293
   4 O :   -0.582229
   5 H :    0.012668
   6 H :    0.018293
   7 H :    0.014824
Sum of atomic charges:   -1.0000000

LOEWDIN ATOMIC CHARGES
----------------------
   0 C :   -0.210568
   1 S :    1.110682
   2 O :   -0.654977
   3 O :   -0.660727
   4 O :   -0.612536
   5 H :    0.007803
   6 H :    0.011199
   7 H :    0.009125

  Mayer bond orders larger than 0.100000
B(  0-C ,  1-S ) :   0.9004 B(  0-C ,  5-H ) :   0.9641 B(  0-C ,  6-H ) :   0.9668
B(  0-C ,  7-H ) :   0.9647 B(  1-S ,  2-O ) :   1.5983 B(  1-S ,  3-O ) :   1.5926
B(  1-S ,  4-O ) :   1.6426

Dispersion correction           -0.001519896
FINAL SINGLE POINT ENERGY      -663.356665930721

DIPOLE MOMENT
-------------
                                X             Y             Z
Electronic contribution:      3.05634      -0.65631      -2.98150
Nuclear contribution   :     -4.26236       0.77434       3.87117
                        -----------------------------------------
Total Dipole Moment    :     -1.20602       0.11803       0.88967
                        -----------------------------------------
Magnitude (a.u.)       :      1.50330
Magnitude (Debye)      :      3.82109

Rotational constants in cm-1:     0.172427     0.155038     0.152780
Rotational constants in MHz :  5169.225473  4647.928623  4580.233540

                             ****ORCA TERMINATED NORMALLY****
TOTAL RUN TIME: 0 days 0 hours 0 minutes 5 seconds 958 msec
