                         Program Version 5.0.0 -  RELEASE  -
|  1> !wB97X-D3 RIJCOSX def2-SVP def2/J TightSCF
|  2> *xyz 1 1
|  3> C         -2.16038       -1.36949       -3.46710
|  4> N         -3.03011       -1.91086       -4.54107
|  5> H         -3.47744       -2.79151       -4.25710
|  6> H         -2.53801       -2.01786       -5.43808
|  7> H         -3.89159       -1.37604       -4.71437
|  8> H         -1.71294       -0.45536       -3.79734
|  9> H         -1.39344       -2.07939       -3.23742
| 10> H         -2.74775       -1.18344       -2.59230
| 11> *
| 12> %MaxCore 64000
| 13>
| 14> %pal nprocs 8
| 15> end
| 16>
| 17> %scf
| 18>   MaxIter 150
| 19> end
| 20>
| 21>
| 22>                          ****END OF INPUT****

CARTESIAN COORDINATES (ANGSTROEM)
---------------------------------
  C     -2.160380   -1.369490   -3.467100
  N     -3.030110   -1.910860   -4.541070
  H     -3.477440   -2.791510   -4.257100
  H     -2.538010   -2.017860   -5.438080
  H     -3.891590   -1.376040   -4.714370
  H     -1.712940   -0.455360   -3.797340
  H     -1.393440   -2.079390   -3.237420
  H     -2.747750   -1.183440   -2.592300

 Total Charge           Charge          ....    1
 Multiplicity           Mult            ....    1
 Number of Electrons    NEL             ....   18
 Basis Dimension        Dim             ....   58

ORBITAL ENERGIES
----------------

  NO   OCC          E(Eh)            E(eV)
   0   2.0000     -14.789517      -402.4432
   1   2.0000     -10.547551      -287.0135
   2   2.0000      -1.337258       -36.3886
   3   2.0000      -1.051386       -28.6097
   4   2.0000      -0.923608       -25.1326
   5   2.0000      -0.895271       -24.3616
   6   2.0000      -0.819854       -22.3094
   7   2.0000      -0.725809       -19.7503
   8   2.0000      -0.721444       -19.6315
   9   0.0000      -0.102920        -2.8006
  10   0.0000      -0.037058        -1.0084
  11   0.0000      -0.032593        -0.8869
  12   0.0000      -0.002593        -0.0706
  13   0.0000       0.042538         1.1575

MULLIKEN ATOMIC CHARGES
-----------------------
   0 C :    0.006436
   1 N :   -0.055346
   2 H :    0.223482
   3 H :    0.236176
   4 H :    0.221737
   5 H :    0.123431
   6 H :    0.124033
   7 H :    0.120052
Sum of atomic charges:    1.0000000

LOEWDIN ATOMIC CHARGES
----------------------
   0 C :    0.069937
   1 N :    0.287917
   2 H :    0.152077
   3 H :    0.153417
   4 H :    0.152045
   5 H :    0.061487
   6 H :    0.061971
   7 H :    0.061149

  Mayer bond orders larger than 0.100000
B(  0-C ,  1-N ) :   0.9273 B(  0-C ,  5-H ) :   0.9727 B(  0-C ,  6-H ) :   0.9716
B(  0-C ,  7-H ) :   0.9724 B(  1-N ,  2-H ) :   0.9328 B(  1-N ,  3-H ) :   0.9293
B(  1-N ,  4-H ) :   0.9321

Dispersion correction           -0.000522512
FINAL SINGLE POINT ENERGY       -96.116404223883

DIPOLE MOMENT
-------------
                                X             Y             Z
Electronic contribution:     -0.59789      -0.38981      -0.81161
Nuclear contribution   :      0.00575       0.04584       0.17617
                        -----------------------------------------
Total Dipole Moment    :     -0.59214      -0.34396      -0.63544
                        -----------------------------------------
Magnitude (a.u.)       :      0.93419
Magnitude (Debye)      :      2.37453

Rotational constants in cm-1:     2.917716     0.684997     0.676552
Rotational constants in MHz : 87470.913131 20535.702929 20282.512120

                             ****ORCA TERMINATED NORMALLY****
TOTAL RUN TIME: 0 days 0 hours 0 minutes 3 seconds 387 msec
