                         Program Version 5.0.0 -  RELEASE  -
|  1> !wB97X-D3 RIJCOSX def2-SVP def2/J TightSCF xyzfile
|  2>
|  3> *xyzfile 0 1 B.xyz
|  4>
|  5> %MaxCore 64000
|  6>
|  7> %pal nprocs 18
|  8> end
|  9>
| 10> %scf
| 11>   MaxIter 150
| 12> end
| 13>
| 14>
| 15>                          ****END OF INPUT****

CARTESIAN COORDINATES (ANGSTROEM)
---------------------------------
  C     -2.160376   -1.369486   -3.467104
  N     -3.030108   -1.910857   -4.541074
  C     -2.047717    0.146583   -3.511774
  C     -7.330440   -2.678991   -3.206811
  S     -6.019659   -2.926965   -4.419128
  H     -3.477443   -2.791513   -4.257096
  H     -2.538013   -2.017860   -5.438075
  H     -3.891589   -1.376039   -4.714365
  O     -5.645830   -1.588384   -4.919307
  O     -4.881961   -3.503697   -3.667235
  H     -1.184438   -1.843997   -3.566393
  H     -2.598195   -1.708376   -2.528477
  O     -6.549267   -3.805150   -5.425071
  C     -3.328755    0.875037   -3.103669
  H     -1.740034    0.452343   -4.517126
  H     -1.232611    0.434938   -2.842208
  C     -3.628487    0.771601   -1.609363
  H     -4.175106    0.490791   -3.682203
  H     -3.237812    1.928663   -3.381480
  C     -4.975718    1.361432   -1.190644
  H     -2.830700    1.276234   -1.054766
  H     -3.594312   -0.275838   -1.294603
  C     -6.184720    0.784347   -1.926464
  H     -4.956292    2.445725   -1.342200
  H     -5.097256    1.205252   -0.114136
  C     -6.286921   -0.735882   -1.893531
  H     -6.163994    1.100199   -2.974250
  H     -7.094530    1.223459   -1.504509
  C     -7.468999   -1.246153   -2.713833
  H     -6.360641   -1.090347   -0.859176
  H     -5.369848   -1.171853   -2.295982
  H     -7.601914   -0.601349   -3.585329
  H     -8.389791   -1.173436   -2.126922
  H     -7.118254   -3.379818   -2.398055
  H     -8.241838   -3.004745   -3.706513

 Total Charge           Charge          ....    0
 Multiplicity           Mult            ....    1
 Number of Electrons    NEL             ....  122
 Basis Dimension        Dim             ....  305

ORBITAL ENERGIES
----------------

  NO   OCC          E(Eh)            E(eV)
   0   2.0000     -89.119927     -2425.0765
   1   2.0000     -19.181556      -521.9567
   2   2.0000     -19.180286      -521.9221
   3   2.0000     -19.161650      -521.4150
   4   2.0000     -14.541590      -395.6968
   5   2.0000     -10.373667      -282.2818
   6   2.0000     -10.326184      -280.9897
   7   2.0000     -10.305430      -280.4250
   8   2.0000     -10.296954      -280.1944
   9   2.0000     -10.288519      -279.9648
  10   2.0000     -10.284526      -279.8562
  11   2.0000     -10.280573      -279.7486
  12   2.0000     -10.279326      -279.7147
  13   2.0000     -10.276822      -279.6465
  14   2.0000      -8.201476      -223.1735
  15   2.0000      -6.161304      -167.6576
  16   2.0000      -6.160249      -167.6289
  17   2.0000      -6.159042      -167.5960
  18   2.0000      -1.206686       -32.8356
  19   2.0000      -1.115599       -30.3570
  20   2.0000      -1.054522       -28.6950
  21   2.0000      -1.051924       -28.6243
  22   2.0000      -0.949008       -25.8238
  23   2.0000      -0.918725       -24.9998
  24   2.0000      -0.892335       -24.2817
  25   2.0000      -0.847420       -23.0595
  26   2.0000      -0.814155       -22.1543
  27   2.0000      -0.768930       -20.9237
  28   2.0000      -0.730251       -19.8712
  29   2.0000      -0.713723       -19.4214
  30   2.0000      -0.699464       -19.0334
  31   2.0000      -0.675162       -18.3721
  32   2.0000      -0.664107       -18.0713
  33   2.0000      -0.635098       -17.2819
  34   2.0000      -0.615832       -16.7576
  35   2.0000      -0.591004       -16.0820
  36   2.0000      -0.590862       -16.0782
  37   2.0000      -0.573755       -15.6127
  38   2.0000      -0.558323       -15.1927
  39   2.0000      -0.543905       -14.8004
  40   2.0000      -0.538312       -14.6482
  41   2.0000      -0.531116       -14.4524
  42   2.0000      -0.527883       -14.3644
  43   2.0000      -0.511123       -13.9084
  44   2.0000      -0.503308       -13.6957
  45   2.0000      -0.495961       -13.4958
  46   2.0000      -0.482934       -13.1413
  47   2.0000      -0.470334       -12.7984
  48   2.0000      -0.463576       -12.6145
  49   2.0000      -0.447982       -12.1902
  50   2.0000      -0.439140       -11.9496
  51   2.0000      -0.428781       -11.6677
  52   2.0000      -0.414700       -11.2846
  53   2.0000      -0.412574       -11.2267
  54   2.0000      -0.407646       -11.0926
  55   2.0000      -0.401945       -10.9375
  56   2.0000      -0.400420       -10.8960
  57   2.0000      -0.365657        -9.9500
  58   2.0000      -0.358624        -9.7586
  59   2.0000      -0.346807        -9.4371
  60   2.0000      -0.322184        -8.7671
  61   0.0000       0.094508         2.5717
  62   0.0000       0.131605         3.5812
  63   0.0000       0.140408         3.8207
  64   0.0000       0.146383         3.9833
  65   0.0000       0.159909         4.3513

MULLIKEN ATOMIC CHARGES
-----------------------
   0 C :    0.032242
   1 N :   -0.021248
   2 C :   -0.042602
   3 C :   -0.085097
   4 S :    0.907301
   5 H :    0.179866
   6 H :    0.178135
   7 H :    0.167556
   8 O :   -0.589928
   9 O :   -0.601677
  10 H :    0.060904
  11 H :    0.075226
  12 O :   -0.502128
  13 C :   -0.069040
  14 H :    0.034584
  15 H :    0.043938
  16 C :   -0.072809
  17 H :    0.043036
  18 H :    0.034447
  19 C :    0.020810
  20 H :    0.020947
  21 H :    0.023692
  22 C :   -0.066095
  23 H :    0.019166
  24 H :    0.021447
  25 C :   -0.033459
  26 H :    0.032712
  27 H :    0.021975
  28 C :   -0.024130
  29 H :    0.015632
  30 H :   -0.018920
  31 H :    0.038524
  32 H :    0.026468
  33 H :    0.061406
  34 H :    0.067120
Sum of atomic charges:    0.0000000

LOEWDIN ATOMIC CHARGES
----------------------
   0 C :    0.048611
   1 N :    0.261238
   2 C :   -0.045235
   3 C :   -0.160049
   4 S :    1.139110
   5 H :    0.068619
   6 H :    0.118064
   7 H :    0.076988
   8 O :   -0.588920
   9 O :   -0.587798
  10 H :    0.034657
  11 H :    0.040076
  12 O :   -0.545902
  13 C :   -0.043376
  14 H :    0.027761
  15 H :    0.036913
  16 C :   -0.042662
  17 H :    0.024421
  18 H :    0.031353
  19 C :   -0.036316
  20 H :    0.023513
  21 H :    0.016759
  22 C :   -0.041205
  23 H :    0.022953
  24 H :    0.024530
  25 C :   -0.043290
  26 H :    0.022484
  27 H :    0.024393
  28 C :   -0.048339
  29 H :    0.020336
  30 H :    0.002219
  31 H :    0.027042
  32 H :    0.025975
  33 H :    0.030841
  34 H :    0.034235

  Mayer bond orders larger than 0.100000
B(  0-C ,  1-N ) :   0.9681 B(  0-C ,  2-C ) :   1.0644 B(  0-C , 10-H ) :   0.9590
B(  0-C , 11-H ) :   0.9504 B(  1-N ,  5-H ) :   0.8334 B(  1-N ,  6-H ) :   0.9409
B(  1-N ,  7-H ) :   0.8596 B(  2-C , 13-C ) :   1.0694 B(  2-C , 14-H ) :   0.9514
B(  2-C , 15-H ) :   0.9431 B(  3-C ,  4-S ) :   0.8961 B(  3-C , 28-C ) :   1.0604
B(  3-C , 33-H ) :   0.9395 B(  3-C , 34-H ) :   0.9417 B(  4-S ,  8-O ) :   1.4621
B(  4-S ,  9-O ) :   1.4138 B(  4-S , 12-O ) :   1.7452 B(  5-H ,  9-O ) :   0.1970
B(  7-H ,  8-O ) :   0.1663 B( 13-C , 16-C ) :   1.0433 B( 13-C , 17-H ) :   0.9425
B( 13-C , 18-H ) :   0.9438 B( 16-C , 19-C ) :   1.0801 B( 16-C , 20-H ) :   0.9459
B( 16-C , 21-H ) :   0.9491 B( 19-C , 22-C ) :   1.0765 B( 19-C , 23-H ) :   0.9483
B( 19-C , 24-H ) :   0.9462 B( 22-C , 25-C ) :   1.0625 B( 22-C , 26-H ) :   0.9473
B( 22-C , 27-H ) :   0.9460 B( 25-C , 28-C ) :   1.0546 B( 25-C , 29-H ) :   0.9455
B( 25-C , 30-H ) :   0.9396 B( 28-C , 31-H ) :   0.9457 B( 28-C , 32-H ) :   0.9422

Dispersion correction           -0.018858199
FINAL SINGLE POINT ENERGY     -1033.434087778735

DIPOLE MOMENT
-------------
                                X             Y             Z
Electronic contribution:     -5.92114     -15.29726     -11.54084
Nuclear contribution   :      8.59301      16.99497      12.41069
                        -----------------------------------------
Total Dipole Moment    :      2.67188       1.69771       0.86985
                        -----------------------------------------
Magnitude (a.u.)       :      3.28296
Magnitude (Debye)      :      8.34461

Rotational constants in cm-1:     0.025617     0.015295     0.010641
Rotational constants in MHz :   767.991150   458.522408   319.013093

                             ****ORCA TERMINATED NORMALLY****
TOTAL RUN TIME: 0 days 0 hours 0 minutes 33 seconds 20 msec
