                         Program Version 5.0.0 -  RELEASE  -
|  1> !wB97X-D3 RIJCOSX def2-SVP def2/J TightSCF
|  2> *xyz 0 1
|  3> C         -7.33044       -2.67899       -3.20681
|  4> S         -6.01966       -2.92697       -4.41913
|  5> F         -5.64583       -1.58838       -4.91931
|  6> O         -4.88196       -3.50370       -3.66724
|  7> O         -6.54927       -3.80515       -5.42507
|  8> H         -8.18867       -2.26077       -3.68996
|  9> H         -6.98921       -2.01038       -2.44430
| 10> H         -7.59151       -3.61862       -2.76655
| 11> *
| 12> %MaxCore 64000
| 13>
| 14> %pal nprocs 8
| 15> end
| 16>
| 17> %scf
| 18>   MaxIter 150
| 19> end
| 20>
| 21>
| 22>                          ****END OF INPUT****

CARTESIAN COORDINATES (ANGSTROEM)
---------------------------------
  C     -7.330440   -2.678990   -3.206810
  S     -6.019660   -2.926970   -4.419130
  F     -5.645830   -1.588380   -4.919310
  O     -4.881960   -3.503700   -3.667240
  O     -6.549270   -3.805150   -5.425070
  H     -8.188670   -2.260770   -3.689960
  H     -6.989210   -2.010380   -2.444300
  H     -7.591510   -3.618620   -2.766550

 Total Charge           Charge          ....    0
 Multiplicity           Mult            ....    1
 Number of Electrons    NEL             ....   50
 Basis Dimension        Dim             ....   89

ORBITAL ENERGIES
----------------

  NO   OCC          E(Eh)            E(eV)
   0   2.0000     -89.218116     -2427.7484
   1   2.0000     -24.894582      -677.4160
   2   2.0000     -19.248252      -523.7716
   3   2.0000     -19.232212      -523.3351
   4   2.0000     -10.350210      -281.6435
   5   2.0000      -8.300329      -225.8634
   6   2.0000      -6.263316      -170.4335
   7   2.0000      -6.256834      -170.2571
   8   2.0000      -6.256186      -170.2395
   9   2.0000      -1.461920       -39.7809
  10   2.0000      -1.221024       -33.2258
  11   2.0000      -1.113853       -30.3095
  12   2.0000      -0.914522       -24.8854
  13   2.0000      -0.809183       -22.0190
  14   2.0000      -0.697191       -18.9715
  15   2.0000      -0.671267       -18.2661
  16   2.0000      -0.650795       -17.7090
  17   2.0000      -0.580132       -15.7862
  18   2.0000      -0.574037       -15.6203
  19   2.0000      -0.565851       -15.3976
  20   2.0000      -0.529708       -14.4141
  21   2.0000      -0.479243       -13.0409
  22   2.0000      -0.430662       -11.7189
  23   2.0000      -0.415143       -11.2966
  24   2.0000      -0.397318       -10.8116
  25   0.0000       0.108337         2.9480
  26   0.0000       0.145710         3.9650
  27   0.0000       0.164834         4.4854
  28   0.0000       0.172074         4.6824
  29   0.0000       0.184765         5.0277

MULLIKEN ATOMIC CHARGES
-----------------------
   0 C :   -0.096158
   1 S :    0.940974
   2 F :   -0.206822
   3 O :   -0.486867
   4 O :   -0.439021
   5 H :    0.085412
   6 H :    0.087422
   7 H :    0.115060
Sum of atomic charges:   -0.0000000

LOEWDIN ATOMIC CHARGES
----------------------
   0 C :   -0.152031
   1 S :    1.174238
   2 F :   -0.152569
   3 O :   -0.528576
   4 O :   -0.480469
   5 H :    0.039662
   6 H :    0.041501
   7 H :    0.058245

  Mayer bond orders larger than 0.100000
B(  0-C ,  1-S ) :   0.9308 B(  0-C ,  5-H ) :   0.9538 B(  0-C ,  6-H ) :   0.9550
B(  0-C ,  7-H ) :   0.9574 B(  1-S ,  2-F ) :   0.9853 B(  1-S ,  3-O ) :   1.7474
B(  1-S ,  4-O ) :   1.7966

Dispersion correction           -0.001526319
FINAL SINGLE POINT ENERGY      -687.869541255139

DIPOLE MOMENT
-------------
                                X             Y             Z
Electronic contribution:      3.55959       1.60448      -3.75191
Nuclear contribution   :     -4.68608      -0.54182       4.44322
                        -----------------------------------------
Total Dipole Moment    :     -1.12649       1.06266       0.69131
                        -----------------------------------------
Magnitude (a.u.)       :      1.69592
Magnitude (Debye)      :      4.31068

Rotational constants in cm-1:     0.164393     0.151201     0.145518
Rotational constants in MHz :  4928.381777  4532.884356  4362.527209

                             ****ORCA TERMINATED NORMALLY****
TOTAL RUN TIME: 0 days 0 hours 0 minutes 6 seconds 148 msec
