                         Program Version 5.0.0 -  RELEASE  -
|  1> !wB97X-D3 RIJCOSX def2-SVP def2/J TightSCF
|  2> *xyz 0 1
|  3> C         -2.16038       -1.36949       -3.46710
|  4> C         -3.03011       -1.91086       -4.54107
|  5> H         -3.47744       -2.79151       -4.25710
|  6> H         -2.53801       -2.01786       -5.43808
|  7> H         -3.89159       -1.37604       -4.71437
|  8> H         -1.71294       -0.45536       -3.79734
|  9> H         -1.39344       -2.07939       -3.23742
| 10> H         -2.74775       -1.18344       -2.59230
| 11> *
| 12> %MaxCore 64000
| 13>
| 14> %pal nprocs 8
| 15> end
| 16>
| 17> %scf
| 18>   MaxIter 150
| 19> end
| 20>
| 21>
| 22>                          ****END OF INPUT****

CARTESIAN COORDINATES (ANGSTROEM)
---------------------------------
  C     -2.160380   -1.369490   -3.467100
  C     -3.030110   -1.910860   -4.541070
  H     -3.477440   -2.791510   -4.257100
  H     -2.538010   -2.017860   -5.438080
  H     -3.891590   -1.376040   -4.714370
  H     -1.712940   -0.455360   -3.797340
  H     -1.393440   -2.079390   -3.237420
  H     -2.747750   -1.183440   -2.592300

 Total Charge           Charge          ....    0
 Multiplicity           Mult            ....    1
 Number of Electrons    NEL             ....   18
 Basis Dimension        Dim             ....   58

ORBITAL ENERGIES
----------------

  NO   OCC          E(Eh)            E(eV)
   0   2.0000     -10.265955      -279.3508
   1   2.0000     -10.251209      -278.9496
   2   2.0000      -0.876600       -23.8535
   3   2.0000      -0.729304       -19.8454
   4   2.0000      -0.552622       -15.0376
   5   2.0000      -0.536930       -14.6106
   6   2.0000      -0.469568       -12.7776
   7   2.0000      -0.444498       -12.0954
   8   2.0000      -0.427531       -11.6337
   9   0.0000       0.158962         4.3256
  10   0.0000       0.209616         5.7039
  11   0.0000       0.222139         6.0447
  12   0.0000       0.225384         6.1330
  13   0.0000       0.256676         6.9845

MULLIKEN ATOMIC CHARGES
-----------------------
   0 C :   -0.071616
   1 C :   -0.024382
   2 H :    0.001289
   3 H :    0.015450
   4 H :   -0.000094
   5 H :    0.026792
   6 H :    0.027918
   7 H :    0.024643
Sum of atomic charges:    0.0000000

LOEWDIN ATOMIC CHARGES
----------------------
   0 C :   -0.057179
   1 C :   -0.058058
   2 H :    0.016782
   3 H :    0.015579
   4 H :    0.016347
   5 H :    0.021651
   6 H :    0.022449
   7 H :    0.022431

  Mayer bond orders larger than 0.100000
B(  0-C ,  1-C ) :   1.1086 B(  0-C ,  5-H ) :   0.9816 B(  0-C ,  6-H ) :   0.9808
B(  0-C ,  7-H ) :   0.9802 B(  1-C ,  2-H ) :   0.9720 B(  1-C ,  3-H ) :   0.9788
B(  1-C ,  4-H ) :   0.9719

Dispersion correction           -0.000511730
FINAL SINGLE POINT ENERGY       -79.729989675202

DIPOLE MOMENT
-------------
                                X             Y             Z
Electronic contribution:      0.10537       0.03487       0.00221
Nuclear contribution   :     -0.14218      -0.04688      -0.00907
                        -----------------------------------------
Total Dipole Moment    :     -0.03681      -0.01201      -0.00686
                        -----------------------------------------
Magnitude (a.u.)       :      0.03932
Magnitude (Debye)      :      0.09995

Rotational constants in cm-1:     2.917838     0.714537     0.705359
Rotational constants in MHz : 87474.579540 21421.280941 21146.123231

                             ****ORCA TERMINATED NORMALLY****
TOTAL RUN TIME: 0 days 0 hours 0 minutes 3 seconds 361 msec
