                         Program Version 5.0.0 -  RELEASE  -
|  1> !wB97X-D3 RIJCOSX def2-SVP def2/J TightSCF
|  2> *xyz 0 1
|  3> C         -7.33044       -2.67899       -3.20681
|  4> S         -6.01966       -2.92697       -4.41913
|  5> O         -5.64583       -1.58838       -4.91931
|  6> F         -4.88196       -3.50370       -3.66724
|  7> O         -6.54927       -3.80515       -5.42507
|  8> H         -8.18867       -2.26077       -3.68996
|  9> H         -6.98921       -2.01038       -2.44430
| 10> H         -7.59151       -3.61862       -2.76655
| 11> *
| 12> %MaxCore 64000
| 13>
| 14> %pal nprocs 8
| 15> end
| 16>
| 17> %scf
| 18>   MaxIter 150
| 19> end
| 20>
| 21>
| 22>                          ****END OF INPUT****

CARTESIAN COORDINATES (ANGSTROEM)
---------------------------------
  C     -7.330440   -2.678990   -3.206810
  S     -6.019660   -2.926970   -4.419130
  O     -5.645830   -1.588380   -4.919310
  F     -4.881960   -3.503700   -3.667240
  O     -6.549270   -3.805150   -5.425070
  H     -8.188670   -2.260770   -3.689960
  H     -6.989210   -2.010380   -2.444300
  H     -7.591510   -3.618620   -2.766550

 Total Charge           Charge          ....    0
 Multiplicity           Mult            ....    1
 Number of Electrons    NEL             ....   50
 Basis Dimension        Dim             ....   89

ORBITAL ENERGIES
----------------

  NO   OCC          E(Eh)            E(eV)
   0   2.0000     -89.218129     -2427.7487
   1   2.0000     -24.891751      -677.3390
   2   2.0000     -19.248119      -523.7680
   3   2.0000     -19.234956      -523.4098
   4   2.0000     -10.350107      -281.6407
   5   2.0000      -8.300289      -225.8623
   6   2.0000      -6.263268      -170.4322
   7   2.0000      -6.256835      -170.2571
   8   2.0000      -6.256157      -170.2387
   9   2.0000      -1.458316       -39.6828
  10   2.0000      -1.221653       -33.2429
  11   2.0000      -1.116627       -30.3850
  12   2.0000      -0.914867       -24.8948
  13   2.0000      -0.806964       -21.9586
  14   2.0000      -0.695669       -18.9301
  15   2.0000      -0.668755       -18.1978
  16   2.0000      -0.650345       -17.6968
  17   2.0000      -0.579992       -15.7824
  18   2.0000      -0.574514       -15.6333
  19   2.0000      -0.565172       -15.3791
  20   2.0000      -0.530652       -14.4398
  21   2.0000      -0.479881       -13.0582
  22   2.0000      -0.431081       -11.7303
  23   2.0000      -0.418058       -11.3759
  24   2.0000      -0.399558       -10.8725
  25   0.0000       0.111816         3.0427
  26   0.0000       0.145524         3.9599
  27   0.0000       0.163696         4.4544
  28   0.0000       0.172394         4.6911
  29   0.0000       0.184005         5.0070

MULLIKEN ATOMIC CHARGES
-----------------------
   0 C :   -0.097458
   1 S :    0.942579
   2 O :   -0.481441
   3 F :   -0.211513
   4 O :   -0.440125
   5 H :    0.113866
   6 H :    0.088119
   7 H :    0.085973
Sum of atomic charges:    0.0000000

LOEWDIN ATOMIC CHARGES
----------------------
   0 C :   -0.153026
   1 S :    1.175197
   2 O :   -0.523334
   3 F :   -0.156954
   4 O :   -0.481424
   5 H :    0.057419
   6 H :    0.041821
   7 H :    0.040301

  Mayer bond orders larger than 0.100000
B(  0-C ,  1-S ) :   0.9304 B(  0-C ,  5-H ) :   0.9577 B(  0-C ,  6-H ) :   0.9550
B(  0-C ,  7-H ) :   0.9537 B(  1-S ,  2-O ) :   1.7534 B(  1-S ,  3-F ) :   0.9803
B(  1-S ,  4-O ) :   1.7969

Dispersion correction           -0.001526802
FINAL SINGLE POINT ENERGY      -687.872374439599

DIPOLE MOMENT
-------------
                                X             Y             Z
Electronic contribution:      4.85122      -1.62671      -1.63879
Nuclear contribution   :     -5.44924       1.37171       3.19232
                        -----------------------------------------
Total Dipole Moment    :     -0.59802      -0.25500       1.55353
                        -----------------------------------------
Magnitude (a.u.)       :      1.68408
Magnitude (Debye)      :      4.28058

Rotational constants in cm-1:     0.163884     0.151426     0.145804
Rotational constants in MHz :  4913.124213  4539.628058  4371.086672

                             ****ORCA TERMINATED NORMALLY****
TOTAL RUN TIME: 0 days 0 hours 0 minutes 5 seconds 988 msec
