                         Program Version 5.0.0 -  RELEASE  -
|  1> !wB97X-D3 RIJCOSX def2-SVP def2/J TightSCF
|  2> *xyz 0 1
|  3> C         -7.33044       -2.67899       -3.20681
|  4> S         -6.01966       -2.92697       -4.41913
|  5> O         -5.64583       -1.58838       -4.91931
|  6> O         -4.88196       -3.50370       -3.66724
|  7> F         -6.54927       -3.80515       -5.42507
|  8> H         -8.18867       -2.26077       -3.68996
|  9> H         -6.98921       -2.01038       -2.44430
| 10> H         -7.59151       -3.61862       -2.76655
| 11> *
| 12> %MaxCore 64000
| 13>
| 14> %pal nprocs 8
| 15> end
| 16>
| 17> %scf
| 18>   MaxIter 150
| 19> end
| 20>
| 21>
| 22>                          ****END OF INPUT****

CARTESIAN COORDINATES (ANGSTROEM)
---------------------------------
  C     -7.330440   -2.678990   -3.206810
  S     -6.019660   -2.926970   -4.419130
  O     -5.645830   -1.588380   -4.919310
  O     -4.881960   -3.503700   -3.667240
  F     -6.549270   -3.805150   -5.425070
  H     -8.188670   -2.260770   -3.689960
  H     -6.989210   -2.010380   -2.444300
  H     -7.591510   -3.618620   -2.766550

 Total Charge           Charge          ....    0
 Multiplicity           Mult            ....    1
 Number of Electrons    NEL             ....   50
 Basis Dimension        Dim             ....   89

ORBITAL ENERGIES
----------------

  NO   OCC          E(Eh)            E(eV)
   0   2.0000     -89.219507     -2427.7862
   1   2.0000     -24.914197      -677.9498
   2   2.0000     -19.234908      -523.4084
   3   2.0000     -19.232093      -523.3318
   4   2.0000     -10.350701      -281.6569
   5   2.0000      -8.301849      -225.9048
   6   2.0000      -6.265089      -170.4818
   7   2.0000      -6.258109      -170.2918
   8   2.0000      -6.257474      -170.2745
   9   2.0000      -1.496573       -40.7238
  10   2.0000      -1.204925       -32.7877
  11   2.0000      -1.098393       -29.8888
  12   2.0000      -0.916842       -24.9485
  13   2.0000      -0.825940       -22.4750
  14   2.0000      -0.713144       -19.4056
  15   2.0000      -0.695572       -18.9275
  16   2.0000      -0.655131       -17.8270
  17   2.0000      -0.580245       -15.7893
  18   2.0000      -0.572599       -15.5812
  19   2.0000      -0.563638       -15.3374
  20   2.0000      -0.521828       -14.1997
  21   2.0000      -0.470429       -12.8010
  22   2.0000      -0.418784       -11.3957
  23   2.0000      -0.410954       -11.1826
  24   2.0000      -0.385039       -10.4774
  25   0.0000       0.112881         3.0716
  26   0.0000       0.147191         4.0053
  27   0.0000       0.161714         4.4005
  28   0.0000       0.164041         4.4638
  29   0.0000       0.185295         5.0421

MULLIKEN ATOMIC CHARGES
-----------------------
   0 C :   -0.094881
   1 S :    0.931903
   2 O :   -0.475626
   3 O :   -0.482027
   4 F :   -0.167149
   5 H :    0.084657
   6 H :    0.116216
   7 H :    0.086907
Sum of atomic charges:   -0.0000000

LOEWDIN ATOMIC CHARGES
----------------------
   0 C :   -0.152000
   1 S :    1.168998
   2 O :   -0.518871
   3 O :   -0.524901
   4 F :   -0.112544
   5 H :    0.039264
   6 H :    0.059326
   7 H :    0.040728

  Mayer bond orders larger than 0.100000
B(  0-C ,  1-S ) :   0.9287 B(  0-C ,  5-H ) :   0.9536 B(  0-C ,  6-H ) :   0.9578
B(  0-C ,  7-H ) :   0.9536 B(  1-S ,  2-O ) :   1.7495 B(  1-S ,  3-O ) :   1.7437
B(  1-S ,  4-F ) :   1.0305

Dispersion correction           -0.001528595
FINAL SINGLE POINT ENERGY      -687.852507090775

DIPOLE MOMENT
-------------
                                X             Y             Z
Electronic contribution:      2.05053      -2.12277      -4.60016
Nuclear contribution   :     -3.78348       1.67287       4.94851
                        -----------------------------------------
Total Dipole Moment    :     -1.73296      -0.44989       0.34835
                        -----------------------------------------
Magnitude (a.u.)       :      1.82398
Magnitude (Debye)      :      4.63618

Rotational constants in cm-1:     0.163108     0.153882     0.144407
Rotational constants in MHz :  4889.859464  4613.257659  4329.207840

                             ****ORCA TERMINATED NORMALLY****
TOTAL RUN TIME: 0 days 0 hours 0 minutes 6 seconds 152 msec
