                         Program Version 5.0.0 -  RELEASE  -
|  1> !PBE0 D3BJ RIJCOSX def2-TZVPD def2/J TightSCF
|  2> *xyz -1 1
|  3> C         -0.87096        0.24804       -2.66280
|  4> C         -0.47749        0.60819       -4.10105
|  5> H          0.20677        1.45830       -4.11875
|  6> H         -1.36844        0.92942       -4.64785
|  7> C          0.18467       -0.50664       -4.91676
|  8> O         -0.15869       -1.70109       -4.65798
|  9> O          1.05594       -0.17441       -5.74037
| 10> H         -1.54056       -0.58646       -2.67455
| 11> H         -1.35339        1.08600       -2.20455
| 12> H          0.00660       -0.00662       -2.10609
| 13> *
| 14>
| 15> %MaxCore 64000
| 16>
| 17> %pal nprocs 4
| 18> end
| 19>
| 20> %scf
| 21>   MaxIter 150
| 22> end
| 23>
| 24>
| 25>                          ****END OF INPUT****

CARTESIAN COORDINATES (ANGSTROEM)
---------------------------------
  C     -0.870960    0.248040   -2.662800
  C     -0.477490    0.608190   -4.101050
  H      0.206770    1.458300   -4.118750
  H     -1.368440    0.929420   -4.647850
  C      0.184670   -0.506640   -4.916760
  O     -0.158690   -1.701090   -4.657980
  O      1.055940   -0.174410   -5.740370
  H     -1.540560   -0.586460   -2.674550
  H     -1.353390    1.086000   -2.204550
  H      0.006600   -0.006620   -2.106090

 Total Charge           Charge          ....   -1
 Multiplicity           Mult            ....    1
 Number of Electrons    NEL             ....   40
 Basis Dimension        Dim             ....  236

ORBITAL ENERGIES
----------------

  NO   OCC          E(Eh)            E(eV)
   0   2.0000     -18.941362      -515.4207
   1   2.0000     -18.937981      -515.3287
   2   2.0000     -10.100931      -274.8603
   3   2.0000     -10.053663      -273.5741
   4   2.0000     -10.046985      -273.3924
   5   2.0000      -0.848410       -23.0864
   6   2.0000      -0.753404       -20.5012
   7   2.0000      -0.625444       -17.0192
   8   2.0000      -0.494208       -13.4481
   9   2.0000      -0.332988        -9.0611
  10   2.0000      -0.305932        -8.3248
  11   2.0000      -0.275190        -7.4883
  12   2.0000      -0.242665        -6.6033
  13   2.0000      -0.226864        -6.1733
  14   2.0000      -0.220418        -5.9979
  15   2.0000      -0.190935        -5.1956
  16   2.0000      -0.171584        -4.6690
  17   2.0000      -0.060237        -1.6391
  18   2.0000      -0.053592        -1.4583
  19   2.0000      -0.040482        -1.1016
  20   0.0000       0.139592         3.7985
  21   0.0000       0.164186         4.4677
  22   0.0000       0.176709         4.8085
  23   0.0000       0.189442         5.1550
  24   0.0000       0.208025         5.6607

MULLIKEN ATOMIC CHARGES
-----------------------
   0 C :   -0.671408
   1 C :    0.082446
   2 H :    0.132628
   3 H :    0.085957
   4 C :    0.240552
   5 O :   -0.704957
   6 O :   -0.690505
   7 H :    0.172582
   8 H :    0.180325
   9 H :    0.172379
Sum of atomic charges:   -1.0000000

LOEWDIN ATOMIC CHARGES
----------------------
   0 C :   -0.137109
   1 C :   -0.209910
   2 H :    0.087622
   3 H :    0.094741
   4 C :   -0.773260
   5 O :   -0.115868
   6 O :   -0.098513
   7 H :    0.053170
   8 H :    0.040821
   9 H :    0.058306

  Mayer bond orders larger than 0.100000
B(  0-C ,  1-C ) :   0.7794 B(  0-C ,  4-C ) :   0.1203 B(  0-C ,  7-H ) :   1.0138
B(  0-C ,  8-H ) :   0.9894 B(  0-C ,  9-H ) :   0.9913 B(  1-C ,  2-H ) :   0.9906
B(  1-C ,  3-H ) :   0.9308 B(  1-C ,  4-C ) :   0.9875 B(  4-C ,  5-O ) :   1.4911
B(  4-C ,  6-O ) :   1.5091

Dispersion correction           -0.005423886
FINAL SINGLE POINT ENERGY      -267.647935841897

DIPOLE MOMENT
-------------
                                X             Y             Z
Electronic contribution:      2.63844      -2.92633      -4.56998
Nuclear contribution   :     -3.54611       4.15440       5.90446
                        -----------------------------------------
Total Dipole Moment    :     -0.90767       1.22807       1.33449
                        -----------------------------------------
Magnitude (a.u.)       :      2.02802
Magnitude (Debye)      :      5.15482

Rotational constants in cm-1:     0.332789     0.132085     0.101080
Rotational constants in MHz :  9976.755824  3959.803182  3030.288811

                             ****ORCA TERMINATED NORMALLY****
TOTAL RUN TIME: 0 days 0 hours 0 minutes 33 seconds 320 msec
