                         Program Version 5.0.0 -  RELEASE  -
|  1> !PBE0 D3BJ RIJCOSX def2-TZVPD def2/J TightSCF
|  2> *xyz 1 1
|  3> C          2.48645       -2.67712       -2.56345
|  4> C          3.03764       -2.36672       -3.92351
|  5> N          2.28036       -2.45441       -4.96769
|  6> N          4.32174       -2.01793       -4.01664
|  7> H          4.87994       -1.91167       -3.17382
|  8> H          4.71015       -1.67088       -4.88356
|  9> H          1.27042       -2.41265       -4.86614
| 10> H          2.58183       -2.05528       -5.84688
| 11> C          2.49799       -1.46946       -1.61030
| 12> H          1.47259       -3.05153       -2.69437
| 13> H          3.08320       -3.49064       -2.14147
| 14> H          1.91240       -0.67831       -2.02991
| 15> H          3.50450       -1.13364       -1.47227
| 16> H          2.08509       -1.75655       -0.66585
| 17> *
| 18>
| 19> %MaxCore 64000
| 20>
| 21> %pal nprocs 4
| 22> end
| 23>
| 24> %scf
| 25>   MaxIter 150
| 26> end
| 27>
| 28>
| 29>                          ****END OF INPUT****

CARTESIAN COORDINATES (ANGSTROEM)
---------------------------------
  C      2.486450   -2.677120   -2.563450
  C      3.037640   -2.366720   -3.923510
  N      2.280360   -2.454410   -4.967690
  N      4.321740   -2.017930   -4.016640
  H      4.879940   -1.911670   -3.173820
  H      4.710150   -1.670880   -4.883560
  H      1.270420   -2.412650   -4.866140
  H      2.581830   -2.055280   -5.846880
  C      2.497990   -1.469460   -1.610300
  H      1.472590   -3.051530   -2.694370
  H      3.083200   -3.490640   -2.141470
  H      1.912400   -0.678310   -2.029910
  H      3.504500   -1.133640   -1.472270
  H      2.085090   -1.756550   -0.665850

 Total Charge           Charge          ....    1
 Multiplicity           Mult            ....    1
 Number of Electrons    NEL             ....   40
 Basis Dimension        Dim             ....  266

ORBITAL ENERGIES
----------------

  NO   OCC          E(Eh)            E(eV)
   0   2.0000     -14.632502      -398.1706
   1   2.0000     -14.627446      -398.0330
   2   2.0000     -10.545904      -286.9686
   3   2.0000     -10.421049      -283.5712
   4   2.0000     -10.377429      -282.3842
   5   2.0000      -1.235482       -33.6192
   6   2.0000      -1.137194       -30.9446
   7   2.0000      -0.992921       -27.0187
   8   2.0000      -0.886524       -24.1235
   9   2.0000      -0.834215       -22.7001
  10   2.0000      -0.791166       -21.5287
  11   2.0000      -0.766625       -20.8609
  12   2.0000      -0.715950       -19.4820
  13   2.0000      -0.666621       -18.1397
  14   2.0000      -0.637334       -17.3427
  15   2.0000      -0.622723       -16.9452
  16   2.0000      -0.562361       -15.3026
  17   2.0000      -0.551156       -14.9977
  18   2.0000      -0.541050       -14.7227
  19   2.0000      -0.509007       -13.8508
  20   0.0000      -0.210896        -5.7388
  21   0.0000      -0.160397        -4.3646
  22   0.0000      -0.119796        -3.2598
  23   0.0000      -0.115543        -3.1441
  24   0.0000      -0.088051        -2.3960

MULLIKEN ATOMIC CHARGES
-----------------------
   0 C :   -0.090194
   1 C :    0.401657
   2 N :   -0.195307
   3 N :   -0.240796
   4 H :    0.220003
   5 H :    0.193359
   6 H :    0.254289
   7 H :    0.206131
   8 C :   -0.824004
   9 H :    0.168077
  10 H :    0.188970
  11 H :    0.248791
  12 H :    0.269384
  13 H :    0.199639
Sum of atomic charges:    1.0000000

LOEWDIN ATOMIC CHARGES
----------------------
   0 C :   -0.144605
   1 C :   -0.363161
   2 N :    0.232230
   3 N :    0.227408
   4 H :    0.146048
   5 H :    0.144501
   6 H :    0.156251
   7 H :    0.149567
   8 C :   -0.054286
   9 H :    0.124316
  10 H :    0.139382
  11 H :    0.084242
  12 H :    0.070784
  13 H :    0.087325

  Mayer bond orders larger than 0.100000
B(  0-C ,  1-C ) :   0.9056 B(  0-C ,  8-C ) :   0.7929 B(  0-C ,  9-H ) :   0.9609
B(  0-C , 10-H ) :   0.9291 B(  1-C ,  2-N ) :   1.4059 B(  1-C ,  3-N ) :   1.2815
B(  1-C ,  8-C ) :   0.1407 B(  2-N ,  6-H ) :   0.9117 B(  2-N ,  7-H ) :   0.9673
B(  3-N ,  4-H ) :   0.9431 B(  3-N ,  5-H ) :   0.9951 B(  8-C , 11-H ) :   0.9771
B(  8-C , 12-H ) :   0.9040 B(  8-C , 13-H ) :   1.0164

Dispersion correction           -0.008508074
FINAL SINGLE POINT ENERGY      -228.851424973335

DIPOLE MOMENT
-------------
                                X             Y             Z
Electronic contribution:      1.05346      -1.07299      -3.89880
Nuclear contribution   :     -0.84604       1.34287       2.92710
                        -----------------------------------------
Total Dipole Moment    :      0.20742       0.26989      -0.97170
                        -----------------------------------------
Magnitude (a.u.)       :      1.02959
Magnitude (Debye)      :      2.61702

Rotational constants in cm-1:     0.265816     0.126189     0.097583
Rotational constants in MHz :  7968.948902  3783.040103  2925.457702

                             ****ORCA TERMINATED NORMALLY****
TOTAL RUN TIME: 0 days 0 hours 0 minutes 40 seconds 336 msec
