                         Program Version 5.0.0 -  RELEASE  -
|  1> !PBE0 D3BJ RIJCOSX def2-TZVPD def2/J TightSCF xyzfile
|  2>
|  3> *xyzfile 0 1 B.xyz
|  4>
|  5> %MaxCore 64000
|  6>
|  7> %pal nprocs 4
|  8> end
|  9>
| 10> %scf
| 11>   MaxIter 150
| 12> end
| 13>
| 14>
| 15>                          ****END OF INPUT****

CARTESIAN COORDINATES (ANGSTROEM)
---------------------------------
  C      2.486452   -2.677121   -2.563447
  C     -0.870963    0.248043   -2.662804
  C     -0.477492    0.608191   -4.101052
  H      0.206773    1.458299   -4.118748
  H     -1.368442    0.929419   -4.647855
  C      0.184673   -0.506640   -4.916760
  C      3.037640   -2.366715   -3.923509
  N      2.280360   -2.454408   -4.967692
  N      4.321736   -2.017932   -4.016641
  H      4.879940   -1.911668   -3.173823
  H      4.710148   -1.670882   -4.883561
  H      1.270423   -2.412650   -4.866143
  H      2.581829   -2.055282   -5.846878
  O     -0.158685   -1.701088   -4.657981
  O      1.055938   -0.174410   -5.740373
  C      2.497991   -1.469464   -1.610303
  C      1.582841   -0.321986   -2.042619
  H      2.193083   -1.833912   -0.625420
  H      3.523356   -1.103982   -1.490392
  C      0.100160   -0.673551   -1.915815
  H      1.822311   -0.040361   -3.072834
  H      1.813180    0.557019   -1.433266
  H     -0.063284   -1.679120   -2.301112
  H     -0.168820   -0.691680   -0.853831
  H     -1.001048    1.181040   -2.104071
  H     -1.844645   -0.246592   -2.663281
  H      1.472592   -3.051527   -2.694366
  H      3.083201   -3.490638   -2.141472

 Total Charge           Charge          ....    0
 Multiplicity           Mult            ....    1
 Number of Electrons    NEL             ....   94
 Basis Dimension        Dim             ....  594

ORBITAL ENERGIES
----------------

  NO   OCC          E(Eh)            E(eV)
   0   2.0000     -19.117745      -520.2203
   1   2.0000     -19.110301      -520.0177
   2   2.0000     -14.466025      -393.6406
   3   2.0000     -14.429401      -392.6440
   4   2.0000     -10.370008      -282.1823
   5   2.0000     -10.269282      -279.4414
   6   2.0000     -10.266627      -279.3691
   7   2.0000     -10.248988      -278.8891
   8   2.0000     -10.218340      -278.0552
   9   2.0000     -10.200378      -277.5664
  10   2.0000     -10.195855      -277.4433
  11   2.0000     -10.183507      -277.1073
  12   2.0000      -1.059792       -28.8384
  13   2.0000      -1.027856       -27.9694
  14   2.0000      -0.959741       -26.1159
  15   2.0000      -0.932295       -25.3690
  16   2.0000      -0.855272       -23.2731
  17   2.0000      -0.801243       -21.8029
  18   2.0000      -0.755882       -20.5686
  19   2.0000      -0.699828       -19.0433
  20   2.0000      -0.679044       -18.4777
  21   2.0000      -0.634756       -17.2726
  22   2.0000      -0.623085       -16.9550
  23   2.0000      -0.596266       -16.2252
  24   2.0000      -0.573871       -15.6158
  25   2.0000      -0.538581       -14.6555
  26   2.0000      -0.513827       -13.9819
  27   2.0000      -0.494788       -13.4639
  28   2.0000      -0.473780       -12.8922
  29   2.0000      -0.466846       -12.7035
  30   2.0000      -0.459736       -12.5101
  31   2.0000      -0.436513       -11.8781
  32   2.0000      -0.425679       -11.5833
  33   2.0000      -0.422198       -11.4886
  34   2.0000      -0.405644       -11.0381
  35   2.0000      -0.394275       -10.7288
  36   2.0000      -0.382194       -10.4000
  37   2.0000      -0.369661       -10.0590
  38   2.0000      -0.363696        -9.8967
  39   2.0000      -0.347518        -9.4564
  40   2.0000      -0.335094        -9.1184
  41   2.0000      -0.325593        -8.8598
  42   2.0000      -0.317334        -8.6351
  43   2.0000      -0.307851        -8.3771
  44   2.0000      -0.239190        -6.5087
  45   2.0000      -0.226071        -6.1517
  46   2.0000      -0.214608        -5.8398
  47   0.0000      -0.041898        -1.1401
  48   0.0000      -0.022870        -0.6223
  49   0.0000       0.011123         0.3027
  50   0.0000       0.021922         0.5965
  51   0.0000       0.028310         0.7704

MULLIKEN ATOMIC CHARGES
-----------------------
   0 C :   -0.188240
   1 C :   -0.225444
   2 C :   -0.237768
   3 H :    0.181186
   4 H :    0.120100
   5 C :    0.509951
   6 C :    0.151612
   7 N :   -0.079288
   8 N :   -0.277413
   9 H :    0.198456
  10 H :    0.185567
  11 H :    0.165720
  12 H :    0.201136
  13 O :   -0.805237
  14 O :   -0.719874
  15 C :   -0.131841
  16 C :   -0.196058
  17 H :    0.124136
  18 H :    0.164908
  19 C :   -0.368088
  20 H :    0.161757
  21 H :    0.118341
  22 H :    0.173773
  23 H :    0.167604
  24 H :    0.105340
  25 H :    0.178003
  26 H :    0.154682
  27 H :    0.166979
Sum of atomic charges:   -0.0000000

LOEWDIN ATOMIC CHARGES
----------------------
   0 C :   -0.104323
   1 C :   -0.198344
   2 C :   -0.129566
   3 H :    0.108109
   4 H :    0.116558
   5 C :   -0.696899
   6 C :   -0.369226
   7 N :    0.234469
   8 N :    0.191539
   9 H :    0.126057
  10 H :    0.131196
  11 H :    0.050478
  12 H :    0.134718
  13 O :   -0.070988
  14 O :   -0.041054
  15 C :   -0.188971
  16 C :   -0.194194
  17 H :    0.117804
  18 H :    0.102044
  19 C :   -0.214447
  20 H :    0.107617
  21 H :    0.119070
  22 H :    0.091290
  23 H :    0.113356
  24 H :    0.105555
  25 H :    0.109262
  26 H :    0.120305
  27 H :    0.128585

  Mayer bond orders larger than 0.100000
B(  0-C ,  6-C ) :   0.8509 B(  0-C ,  8-N ) :   0.1133 B(  0-C , 15-C ) :   0.9273
B(  0-C , 19-C ) :   0.1392 B(  0-C , 26-H ) :   0.9830 B(  0-C , 27-H ) :   0.9019
B(  1-C ,  2-C ) :   0.9438 B(  1-C , 16-C ) :   0.1655 B(  1-C , 19-C ) :   1.2354
B(  1-C , 22-H ) :   0.1558 B(  1-C , 24-H ) :   0.9298 B(  1-C , 25-H ) :   0.8974
B(  2-C ,  3-H ) :   0.9820 B(  2-C ,  4-H ) :   0.8971 B(  2-C ,  5-C ) :   1.0197
B(  2-C , 16-C ) :   0.1111 B(  5-C , 13-O ) :   1.2371 B(  5-C , 14-O ) :   1.3919
B(  6-C ,  7-N ) :   1.5284 B(  6-C ,  8-N ) :   1.1594 B(  6-C , 15-C ) :   0.2787
B(  7-N , 11-H ) :   0.7681 B(  7-N , 12-H ) :   0.9027 B(  7-N , 13-O ) :  -0.1041
B(  8-N ,  9-H ) :   0.9773 B(  8-N , 10-H ) :   0.9531 B( 11-H , 13-O ) :   0.2516
B( 13-O , 14-O ) :   0.1054 B( 15-C , 16-C ) :   1.1185 B( 15-C , 17-H ) :   0.9276
B( 15-C , 18-H ) :   0.8318 B( 15-C , 19-C ) :   0.3117 B( 16-C , 19-C ) :   0.6922
B( 16-C , 20-H ) :   0.9567 B( 16-C , 21-H ) :   0.9398 B( 19-C , 22-H ) :   0.9280
B( 19-C , 23-H ) :   0.9018

Dispersion correction           -0.027346108
FINAL SINGLE POINT ENERGY      -574.042637160192

DIPOLE MOMENT
-------------
                                X             Y             Z
Electronic contribution:      1.69486      -2.90950      -8.81178
Nuclear contribution   :      1.39386       1.90489      10.36520
                        -----------------------------------------
Total Dipole Moment    :      3.08872      -1.00460       1.55342
                        -----------------------------------------
Magnitude (a.u.)       :      3.60035
Magnitude (Debye)      :      9.15137

Rotational constants in cm-1:     0.041165     0.025922     0.019001
Rotational constants in MHz :  1234.086888   777.109255   569.639629

                             ****ORCA TERMINATED NORMALLY****
TOTAL RUN TIME: 0 days 0 hours 5 minutes 20 seconds 416 msec
