                         Program Version 5.0.0 -  RELEASE  -
|  1> !PBE0 D3BJ RIJCOSX def2-TZVPD def2/J TightSCF
|  2> *xyz 0 1
|  3> C         -0.87096        0.24804       -2.66280
|  4> C         -0.47749        0.60819       -4.10105
|  5> H          0.20677        1.45830       -4.11875
|  6> H         -1.36844        0.92942       -4.64785
|  7> C          0.18467       -0.50664       -4.91676
|  8> F         -0.15869       -1.70109       -4.65798
|  9> O          1.05594       -0.17441       -5.74037
| 10> H         -1.54056       -0.58646       -2.67455
| 11> H         -1.35339        1.08600       -2.20455
| 12> H          0.00660       -0.00662       -2.10609
| 13> *
| 14>
| 15> %MaxCore 64000
| 16>
| 17> %pal nprocs 4
| 18> end
| 19>
| 20> %scf
| 21>   MaxIter 150
| 22> end
| 23>
| 24>
| 25>                          ****END OF INPUT****

CARTESIAN COORDINATES (ANGSTROEM)
---------------------------------
  C     -0.870960    0.248040   -2.662800
  C     -0.477490    0.608190   -4.101050
  H      0.206770    1.458300   -4.118750
  H     -1.368440    0.929420   -4.647850
  C      0.184670   -0.506640   -4.916760
  F     -0.158690   -1.701090   -4.657980
  O      1.055940   -0.174410   -5.740370
  H     -1.540560   -0.586460   -2.674550
  H     -1.353390    1.086000   -2.204550
  H      0.006600   -0.006620   -2.106090

 Total Charge           Charge          ....    0
 Multiplicity           Mult            ....    1
 Number of Electrons    NEL             ....   40
 Basis Dimension        Dim             ....  236

ORBITAL ENERGIES
----------------

  NO   OCC          E(Eh)            E(eV)
   0   2.0000     -24.837919      -675.8741
   1   2.0000     -19.213413      -522.8235
   2   2.0000     -10.398574      -282.9596
   3   2.0000     -10.254672      -279.0438
   4   2.0000     -10.227613      -278.3075
   5   2.0000      -1.343113       -36.5480
   6   2.0000      -1.069260       -29.0961
   7   2.0000      -0.826267       -22.4839
   8   2.0000      -0.706845       -19.2342
   9   2.0000      -0.661937       -18.0122
  10   2.0000      -0.562985       -15.3196
  11   2.0000      -0.556227       -15.1357
  12   2.0000      -0.514934       -14.0121
  13   2.0000      -0.482057       -13.1174
  14   2.0000      -0.448389       -12.2013
  15   2.0000      -0.417277       -11.3547
  16   2.0000      -0.401574       -10.9274
  17   2.0000      -0.391898       -10.6641
  18   2.0000      -0.363628        -9.8948
  19   2.0000      -0.307330        -8.3629
  20   0.0000      -0.023503        -0.6395
  21   0.0000       0.005133         0.1397
  22   0.0000       0.035361         0.9622
  23   0.0000       0.042976         1.1694
  24   0.0000       0.055575         1.5123

MULLIKEN ATOMIC CHARGES
-----------------------
   0 C :   -0.754332
   1 C :    0.108357
   2 H :    0.158520
   3 H :    0.159514
   4 C :    0.328857
   5 F :   -0.177371
   6 O :   -0.451500
   7 H :    0.219607
   8 H :    0.181031
   9 H :    0.227319
Sum of atomic charges:   -0.0000000

LOEWDIN ATOMIC CHARGES
----------------------
   0 C :   -0.095239
   1 C :   -0.150999
   2 H :    0.118473
   3 H :    0.122219
   4 C :   -0.483529
   5 F :    0.192422
   6 O :    0.087397
   7 H :    0.067694
   8 H :    0.068603
   9 H :    0.072958

  Mayer bond orders larger than 0.100000
B(  0-C ,  1-C ) :   0.8078 B(  0-C ,  4-C ) :   0.1006 B(  0-C ,  7-H ) :   0.9759
B(  0-C ,  8-H ) :   1.0058 B(  0-C ,  9-H ) :   0.9739 B(  1-C ,  2-H ) :   0.9671
B(  1-C ,  3-H ) :   0.9029 B(  1-C ,  4-C ) :   0.9572 B(  4-C ,  5-F ) :   1.0588
B(  4-C ,  6-O ) :   1.8217

Dispersion correction           -0.005105651
FINAL SINGLE POINT ENERGY      -292.205796639504

DIPOLE MOMENT
-------------
                                X             Y             Z
Electronic contribution:      2.60808      -5.35270      -5.29171
Nuclear contribution   :     -3.42837       5.66737       6.17046
                        -----------------------------------------
Total Dipole Moment    :     -0.82029       0.31467       0.87875
                        -----------------------------------------
Magnitude (a.u.)       :      1.24261
Magnitude (Debye)      :      3.15847

Rotational constants in cm-1:     0.304660     0.130969     0.097716
Rotational constants in MHz :  9133.464515  3926.366384  2929.457090

                             ****ORCA TERMINATED NORMALLY****
TOTAL RUN TIME: 0 days 0 hours 0 minutes 31 seconds 179 msec
