                         Program Version 5.0.0 -  RELEASE  -
|  1> !PBE0 D3BJ RIJCOSX def2-TZVPD def2/J TightSCF
|  2> *xyz 0 1
|  3> C          2.48645       -2.67712       -2.56345
|  4> C          3.03764       -2.36672       -3.92351
|  5> C          2.28036       -2.45441       -4.96769
|  6> N          4.32174       -2.01793       -4.01664
|  7> H          4.87994       -1.91167       -3.17382
|  8> H          4.71015       -1.67088       -4.88356
|  9> H          1.27042       -2.41265       -4.86614
| 10> H          2.58183       -2.05528       -5.84688
| 11> C          2.49799       -1.46946       -1.61030
| 12> H          1.47259       -3.05153       -2.69437
| 13> H          3.08320       -3.49064       -2.14147
| 14> H          1.91240       -0.67831       -2.02991
| 15> H          3.50450       -1.13364       -1.47227
| 16> H          2.08509       -1.75655       -0.66585
| 17> *
| 18>
| 19> %MaxCore 64000
| 20>
| 21> %pal nprocs 4
| 22> end
| 23>
| 24> %scf
| 25>   MaxIter 150
| 26> end
| 27>
| 28>
| 29>                          ****END OF INPUT****

CARTESIAN COORDINATES (ANGSTROEM)
---------------------------------
  C      2.486450   -2.677120   -2.563450
  C      3.037640   -2.366720   -3.923510
  C      2.280360   -2.454410   -4.967690
  N      4.321740   -2.017930   -4.016640
  H      4.879940   -1.911670   -3.173820
  H      4.710150   -1.670880   -4.883560
  H      1.270420   -2.412650   -4.866140
  H      2.581830   -2.055280   -5.846880
  C      2.497990   -1.469460   -1.610300
  H      1.472590   -3.051530   -2.694370
  H      3.083200   -3.490640   -2.141470
  H      1.912400   -0.678310   -2.029910
  H      3.504500   -1.133640   -1.472270
  H      2.085090   -1.756550   -0.665850

 Total Charge           Charge          ....    0
 Multiplicity           Mult            ....    1
 Number of Electrons    NEL             ....   40
 Basis Dimension        Dim             ....  266

ORBITAL ENERGIES
----------------

  NO   OCC          E(Eh)            E(eV)
   0   2.0000     -14.384654      -391.4263
   1   2.0000     -10.241832      -278.6944
   2   2.0000     -10.220714      -278.1198
   3   2.0000     -10.208075      -277.7759
   4   2.0000     -10.149435      -276.1802
   5   2.0000      -0.952060       -25.9069
   6   2.0000      -0.803016       -21.8512
   7   2.0000      -0.747895       -20.3512
   8   2.0000      -0.655567       -17.8389
   9   2.0000      -0.584670       -15.9097
  10   2.0000      -0.540076       -14.6962
  11   2.0000      -0.492600       -13.4043
  12   2.0000      -0.450316       -12.2537
  13   2.0000      -0.445123       -12.1124
  14   2.0000      -0.401646       -10.9293
  15   2.0000      -0.395494       -10.7619
  16   2.0000      -0.366295        -9.9674
  17   2.0000      -0.346000        -9.4151
  18   2.0000      -0.337764        -9.1910
  19   2.0000      -0.208069        -5.6619
  20   0.0000       0.008036         0.2187
  21   0.0000       0.032349         0.8803
  22   0.0000       0.041827         1.1382
  23   0.0000       0.047024         1.2796
  24   0.0000       0.058644         1.5958

MULLIKEN ATOMIC CHARGES
-----------------------
   0 C :   -0.132693
   1 C :    0.584955
   2 C :   -0.994704
   3 N :   -0.346758
   4 H :    0.153074
   5 H :    0.155736
   6 H :    0.219062
   7 H :    0.215779
   8 C :   -0.777883
   9 H :    0.116884
  10 H :    0.174913
  11 H :    0.228940
  12 H :    0.222335
  13 H :    0.180359
Sum of atomic charges:    0.0000000

LOEWDIN ATOMIC CHARGES
----------------------
   0 C :   -0.197836
   1 C :   -0.500309
   2 C :    0.007038
   3 N :    0.103043
   4 H :    0.103554
   5 H :    0.110146
   6 H :    0.028665
   7 H :    0.024590
   8 C :   -0.092625
   9 H :    0.108457
  10 H :    0.113850
  11 H :    0.072527
  12 H :    0.055577
  13 H :    0.063324

  Mayer bond orders larger than 0.100000
B(  0-C ,  1-C ) :   0.8948 B(  0-C ,  8-C ) :   0.7830 B(  0-C ,  9-H ) :   0.9733
B(  0-C , 10-H ) :   0.9333 B(  1-C ,  2-C ) :   1.4725 B(  1-C ,  3-N ) :   1.0720
B(  1-C ,  7-H ) :  -0.1062 B(  2-C ,  3-N ) :   0.1129 B(  2-C ,  6-H ) :   0.9670
B(  2-C ,  7-H ) :   1.0838 B(  3-N ,  4-H ) :   1.0062 B(  3-N ,  5-H ) :   0.9978
B(  8-C , 11-H ) :   1.0113 B(  8-C , 12-H ) :   0.9423 B(  8-C , 13-H ) :   1.0177

Dispersion correction           -0.008847865
FINAL SINGLE POINT ENERGY      -212.387726201418

DIPOLE MOMENT
-------------
                                X             Y             Z
Electronic contribution:      1.52693      -0.87909      -2.12908
Nuclear contribution   :     -0.99743       1.27863       2.57190
                        -----------------------------------------
Total Dipole Moment    :      0.52949       0.39954       0.44282
                        -----------------------------------------
Magnitude (a.u.)       :      0.79754
Magnitude (Debye)      :      2.02720

Rotational constants in cm-1:     0.274050     0.130114     0.100964
Rotational constants in MHz :  8215.815505  3900.722919  3026.834930

                             ****ORCA TERMINATED NORMALLY****
TOTAL RUN TIME: 0 days 0 hours 0 minutes 42 seconds 27 msec
