                         Program Version 5.0.0 -  RELEASE  -
|  1> !PBE0 D3BJ RIJCOSX def2-TZVPD def2/J TightSCF
|  2> *xyz 0 1
|  3> C         -0.87096        0.24804       -2.66280
|  4> C         -0.47749        0.60819       -4.10105
|  5> H          0.20677        1.45830       -4.11875
|  6> H         -1.36844        0.92942       -4.64785
|  7> C          0.18467       -0.50664       -4.91676
|  8> O         -0.15869       -1.70109       -4.65798
|  9> F          1.05594       -0.17441       -5.74037
| 10> H         -1.54056       -0.58646       -2.67455
| 11> H         -1.35339        1.08600       -2.20455
| 12> H          0.00660       -0.00662       -2.10609
| 13> *
| 14>
| 15> %MaxCore 64000
| 16>
| 17> %pal nprocs 4
| 18> end
| 19>
| 20> %scf
| 21>   MaxIter 150
| 22> end
| 23>
| 24>
| 25>                          ****END OF INPUT****

CARTESIAN COORDINATES (ANGSTROEM)
---------------------------------
  C     -0.870960    0.248040   -2.662800
  C     -0.477490    0.608190   -4.101050
  H      0.206770    1.458300   -4.118750
  H     -1.368440    0.929420   -4.647850
  C      0.184670   -0.506640   -4.916760
  O     -0.158690   -1.701090   -4.657980
  F      1.055940   -0.174410   -5.740370
  H     -1.540560   -0.586460   -2.674550
  H     -1.353390    1.086000   -2.204550
  H      0.006600   -0.006620   -2.106090

 Total Charge           Charge          ....    0
 Multiplicity           Mult            ....    1
 Number of Electrons    NEL             ....   40
 Basis Dimension        Dim             ....  236

ORBITAL ENERGIES
----------------

  NO   OCC          E(Eh)            E(eV)
   0   2.0000     -24.847397      -676.1320
   1   2.0000     -19.210222      -522.7367
   2   2.0000     -10.400958      -283.0244
   3   2.0000     -10.255870      -279.0764
   4   2.0000     -10.221822      -278.1499
   5   2.0000      -1.362005       -37.0621
   6   2.0000      -1.053830       -28.6762
   7   2.0000      -0.822480       -22.3808
   8   2.0000      -0.716959       -19.5095
   9   2.0000      -0.660743       -17.9797
  10   2.0000      -0.571382       -15.5481
  11   2.0000      -0.557256       -15.1637
  12   2.0000      -0.526206       -14.3188
  13   2.0000      -0.480836       -13.0842
  14   2.0000      -0.446896       -12.1607
  15   2.0000      -0.409069       -11.1313
  16   2.0000      -0.389069       -10.5871
  17   2.0000      -0.387298       -10.5389
  18   2.0000      -0.358925        -9.7669
  19   2.0000      -0.304735        -8.2923
  20   0.0000      -0.026051        -0.7089
  21   0.0000       0.007568         0.2059
  22   0.0000       0.033680         0.9165
  23   0.0000       0.045078         1.2266
  24   0.0000       0.055146         1.5006

MULLIKEN ATOMIC CHARGES
-----------------------
   0 C :   -0.724884
   1 C :    0.038399
   2 H :    0.183924
   3 H :    0.154998
   4 C :    0.379381
   5 O :   -0.468210
   6 F :   -0.174093
   7 H :    0.211351
   8 H :    0.187037
   9 H :    0.212096
Sum of atomic charges:   -0.0000000

LOEWDIN ATOMIC CHARGES
----------------------
   0 C :   -0.089138
   1 C :   -0.157925
   2 H :    0.109845
   3 H :    0.122145
   4 C :   -0.484661
   5 O :    0.067166
   6 F :    0.218751
   7 H :    0.071173
   8 H :    0.068381
   9 H :    0.074263

  Mayer bond orders larger than 0.100000
B(  0-C ,  1-C ) :   0.8602 B(  0-C ,  4-C ) :   0.1223 B(  0-C ,  7-H ) :   0.9884
B(  0-C ,  8-H ) :   0.9908 B(  0-C ,  9-H ) :   0.9626 B(  1-C ,  2-H ) :   0.9484
B(  1-C ,  3-H ) :   0.9078 B(  1-C ,  4-C ) :   0.9666 B(  4-C ,  5-O ) :   1.7897
B(  4-C ,  6-F ) :   1.0690

Dispersion correction           -0.005147260
FINAL SINGLE POINT ENERGY      -292.199032495100

DIPOLE MOMENT
-------------
                                X             Y             Z
Electronic contribution:      4.64277      -2.83394      -7.11380
Nuclear contribution   :     -4.75269       4.00281       7.35060
                        -----------------------------------------
Total Dipole Moment    :     -0.10992       1.16887       0.23680
                        -----------------------------------------
Magnitude (a.u.)       :      1.19767
Magnitude (Debye)      :      3.04424

Rotational constants in cm-1:     0.323805     0.124913     0.096140
Rotational constants in MHz :  9707.430323  3744.789513  2882.191141

                             ****ORCA TERMINATED NORMALLY****
TOTAL RUN TIME: 0 days 0 hours 0 minutes 31 seconds 362 msec
