                         Program Version 5.0.0 -  RELEASE  -
|  1> !PBE0 D3BJ RIJCOSX def2-TZVPD def2/J TightSCF
|  2> *xyz 0 1
|  3> C          2.48645       -2.67712       -2.56345
|  4> C          3.03764       -2.36672       -3.92351
|  5> N          2.28036       -2.45441       -4.96769
|  6> C          4.32174       -2.01793       -4.01664
|  7> H          4.87994       -1.91167       -3.17382
|  8> H          4.71015       -1.67088       -4.88356
|  9> H          1.27042       -2.41265       -4.86614
| 10> H          2.58183       -2.05528       -5.84688
| 11> C          2.49799       -1.46946       -1.61030
| 12> H          1.47259       -3.05153       -2.69437
| 13> H          3.08320       -3.49064       -2.14147
| 14> H          1.91240       -0.67831       -2.02991
| 15> H          3.50450       -1.13364       -1.47227
| 16> H          2.08509       -1.75655       -0.66585
| 17> *
| 18>
| 19> %MaxCore 64000
| 20>
| 21> %pal nprocs 4
| 22> end
| 23>
| 24> %scf
| 25>   MaxIter 150
| 26> end
| 27>
| 28>
| 29>                          ****END OF INPUT****

CARTESIAN COORDINATES (ANGSTROEM)
---------------------------------
  C      2.486450   -2.677120   -2.563450
  C      3.037640   -2.366720   -3.923510
  N      2.280360   -2.454410   -4.967690
  C      4.321740   -2.017930   -4.016640
  H      4.879940   -1.911670   -3.173820
  H      4.710150   -1.670880   -4.883560
  H      1.270420   -2.412650   -4.866140
  H      2.581830   -2.055280   -5.846880
  C      2.497990   -1.469460   -1.610300
  H      1.472590   -3.051530   -2.694370
  H      3.083200   -3.490640   -2.141470
  H      1.912400   -0.678310   -2.029910
  H      3.504500   -1.133640   -1.472270
  H      2.085090   -1.756550   -0.665850

 Total Charge           Charge          ....    0
 Multiplicity           Mult            ....    1
 Number of Electrons    NEL             ....   40
 Basis Dimension        Dim             ....  266

ORBITAL ENERGIES
----------------

  NO   OCC          E(Eh)            E(eV)
   0   2.0000     -14.388311      -391.5258
   1   2.0000     -10.242059      -278.7006
   2   2.0000     -10.221376      -278.1378
   3   2.0000     -10.204167      -277.6695
   4   2.0000     -10.150766      -276.2164
   5   2.0000      -0.967841       -26.3363
   6   2.0000      -0.804166       -21.8825
   7   2.0000      -0.731805       -19.9134
   8   2.0000      -0.660675       -17.9779
   9   2.0000      -0.588495       -16.0138
  10   2.0000      -0.536941       -14.6109
  11   2.0000      -0.497174       -13.5288
  12   2.0000      -0.458855       -12.4861
  13   2.0000      -0.422073       -11.4852
  14   2.0000      -0.408041       -11.1033
  15   2.0000      -0.391604       -10.6561
  16   2.0000      -0.364585        -9.9209
  17   2.0000      -0.348654        -9.4874
  18   2.0000      -0.346889        -9.4393
  19   2.0000      -0.198619        -5.4047
  20   0.0000       0.009183         0.2499
  21   0.0000       0.028904         0.7865
  22   0.0000       0.041751         1.1361
  23   0.0000       0.046050         1.2531
  24   0.0000       0.059836         1.6282

MULLIKEN ATOMIC CHARGES
-----------------------
   0 C :   -0.068000
   1 C :    0.647801
   2 N :   -0.288560
   3 C :   -1.173371
   4 H :    0.214949
   5 H :    0.184447
   6 H :    0.191228
   7 H :    0.165249
   8 C :   -0.786530
   9 H :    0.144530
  10 H :    0.149337
  11 H :    0.204543
  12 H :    0.232439
  13 H :    0.181939
Sum of atomic charges:   -0.0000000

LOEWDIN ATOMIC CHARGES
----------------------
   0 C :   -0.198100
   1 C :   -0.507014
   2 N :    0.100888
   3 C :    0.019146
   4 H :    0.021205
   5 H :    0.017120
   6 H :    0.110494
   7 H :    0.115005
   8 C :   -0.091839
   9 H :    0.101758
  10 H :    0.116760
  11 H :    0.070512
  12 H :    0.061789
  13 H :    0.062275

  Mayer bond orders larger than 0.100000
B(  0-C ,  1-C ) :   0.8208 B(  0-C ,  8-C ) :   0.7260 B(  0-C ,  9-H ) :   1.0401
B(  0-C , 10-H ) :   0.9271 B(  1-C ,  2-N ) :   1.1889 B(  1-C ,  3-C ) :   1.2409
B(  1-C ,  8-C ) :   0.1609 B(  2-N ,  3-C ) :   0.1025 B(  2-N ,  6-H ) :   0.9654
B(  2-N ,  7-H ) :   0.9697 B(  3-C ,  4-H ) :   0.9698 B(  3-C ,  5-H ) :   1.0880
B(  8-C , 11-H ) :   0.9910 B(  8-C , 12-H ) :   0.9691 B(  8-C , 13-H ) :   1.0011

Dispersion correction           -0.008866055
FINAL SINGLE POINT ENERGY      -212.388460541981

DIPOLE MOMENT
-------------
                                X             Y             Z
Electronic contribution:     -0.25275      -1.19658      -2.96841
Nuclear contribution   :     -0.52463       1.37972       2.79217
                        -----------------------------------------
Total Dipole Moment    :     -0.77738       0.18314      -0.17623
                        -----------------------------------------
Magnitude (a.u.)       :      0.81787
Magnitude (Debye)      :      2.07887

Rotational constants in cm-1:     0.281086     0.127387     0.100311
Rotational constants in MHz :  8426.743103  3818.969834  3007.238026

                             ****ORCA TERMINATED NORMALLY****
TOTAL RUN TIME: 0 days 0 hours 0 minutes 41 seconds 269 msec
