                         Program Version 5.0.0 -  RELEASE  -
|  1> !PBE0 D3BJ RIJCOSX def2-TZVPD def2/J TightSCF xyzfile
|  2>
|  3> *xyzfile 0 1 D1.xyz
|  4>
|  5> %MaxCore 64000
|  6>
|  7> %pal nprocs 4
|  8> end
|  9>
| 10> %scf
| 11>   MaxIter 150
| 12> end
| 13>
| 14>
| 15>                          ****END OF INPUT****

CARTESIAN COORDINATES (ANGSTROEM)
---------------------------------
  C      2.486452   -2.677121   -2.563447
  C     -0.870963    0.248043   -2.662804
  C     -0.477492    0.608191   -4.101052
  H      0.206773    1.458299   -4.118748
  H     -1.368442    0.929419   -4.647855
  C      0.184673   -0.506640   -4.916760
  C      3.037640   -2.366715   -3.923509
  C      2.280360   -2.454408   -4.967692
  N      4.321736   -2.017932   -4.016641
  H      4.879940   -1.911668   -3.173823
  H      4.710148   -1.670882   -4.883561
  H      1.270423   -2.412650   -4.866143
  H      2.581829   -2.055282   -5.846878
  F     -0.158685   -1.701088   -4.657981
  O      1.055938   -0.174410   -5.740373
  C      2.497991   -1.469464   -1.610303
  C      1.582841   -0.321986   -2.042619
  H      2.193083   -1.833912   -0.625420
  H      3.523356   -1.103982   -1.490392
  C      0.100160   -0.673551   -1.915815
  H      1.822311   -0.040361   -3.072834
  H      1.813180    0.557019   -1.433266
  H     -0.063284   -1.679120   -2.301112
  H     -0.168820   -0.691680   -0.853831
  H     -1.001048    1.181040   -2.104071
  H     -1.844645   -0.246592   -2.663281
  H      1.472592   -3.051527   -2.694366
  H      3.083201   -3.490638   -2.141472

 Total Charge           Charge          ....    0
 Multiplicity           Mult            ....    1
 Number of Electrons    NEL             ....   94
 Basis Dimension        Dim             ....  594

ORBITAL ENERGIES
----------------

  NO   OCC          E(Eh)            E(eV)
   0   2.0000     -24.838847      -675.8994
   1   2.0000     -19.209967      -522.7298
   2   2.0000     -14.372463      -391.0946
   3   2.0000     -10.397188      -282.9219
   4   2.0000     -10.250490      -278.9300
   5   2.0000     -10.235614      -278.5252
   6   2.0000     -10.226649      -278.2813
   7   2.0000     -10.223602      -278.1984
   8   2.0000     -10.221002      -278.1276
   9   2.0000     -10.219247      -278.0799
  10   2.0000     -10.214823      -277.9595
  11   2.0000     -10.128238      -275.6034
  12   2.0000      -1.350465       -36.7480
  13   2.0000      -1.068157       -29.0660
  14   2.0000      -0.940332       -25.5877
  15   2.0000      -0.851068       -23.1587
  16   2.0000      -0.815841       -22.2002
  17   2.0000      -0.766851       -20.8671
  18   2.0000      -0.743314       -20.2266
  19   2.0000      -0.698095       -18.9961
  20   2.0000      -0.677031       -18.4229
  21   2.0000      -0.636344       -17.3158
  22   2.0000      -0.597996       -16.2723
  23   2.0000      -0.589494       -16.0409
  24   2.0000      -0.564860       -15.3706
  25   2.0000      -0.553755       -15.0685
  26   2.0000      -0.524886       -14.2829
  27   2.0000      -0.511682       -13.9236
  28   2.0000      -0.494385       -13.4529
  29   2.0000      -0.484843       -13.1933
  30   2.0000      -0.472442       -12.8558
  31   2.0000      -0.455954       -12.4071
  32   2.0000      -0.444680       -12.1003
  33   2.0000      -0.425222       -11.5709
  34   2.0000      -0.416941       -11.3455
  35   2.0000      -0.401009       -10.9120
  36   2.0000      -0.388011       -10.5583
  37   2.0000      -0.385727       -10.4962
  38   2.0000      -0.369736       -10.0610
  39   2.0000      -0.363708        -9.8970
  40   2.0000      -0.351652        -9.5689
  41   2.0000      -0.346494        -9.4286
  42   2.0000      -0.330562        -8.9951
  43   2.0000      -0.325174        -8.8484
  44   2.0000      -0.321254        -8.7418
  45   2.0000      -0.301152        -8.1948
  46   2.0000      -0.192976        -5.2511
  47   0.0000      -0.023403        -0.6368
  48   0.0000       0.005775         0.1571
  49   0.0000       0.015144         0.4121
  50   0.0000       0.024427         0.6647
  51   0.0000       0.029107         0.7920

MULLIKEN ATOMIC CHARGES
-----------------------
   0 C :   -0.277063
   1 C :   -0.238473
   2 C :   -0.136120
   3 H :    0.199755
   4 H :    0.135616
   5 C :    0.332773
   6 C :    0.383231
   7 C :   -1.049858
   8 N :   -0.349114
   9 H :    0.147492
  10 H :    0.155943
  11 H :    0.527661
  12 H :    0.189466
  13 F :   -0.255832
  14 O :   -0.496510
  15 C :   -0.190141
  16 C :   -0.177730
  17 H :    0.119212
  18 H :    0.196593
  19 C :   -0.363252
  20 H :    0.185496
  21 H :    0.114347
  22 H :    0.146318
  23 H :    0.179667
  24 H :    0.113894
  25 H :    0.184414
  26 H :    0.053603
  27 H :    0.168610
Sum of atomic charges:    0.0000000

LOEWDIN ATOMIC CHARGES
----------------------
   0 C :   -0.142305
   1 C :   -0.194392
   2 C :   -0.096654
   3 H :    0.124964
   4 H :    0.126396
   5 C :   -0.477399
   6 C :   -0.473298
   7 C :    0.011425
   8 N :    0.108122
   9 H :    0.100676
  10 H :    0.110968
  11 H :    0.001680
  12 H :    0.040066
  13 F :    0.161103
  14 O :    0.095449
  15 C :   -0.195535
  16 C :   -0.195842
  17 H :    0.110835
  18 H :    0.102475
  19 C :   -0.209142
  20 H :    0.107212
  21 H :    0.117858
  22 H :    0.095742
  23 H :    0.119118
  24 H :    0.113642
  25 H :    0.110605
  26 H :    0.107184
  27 H :    0.119044

  Mayer bond orders larger than 0.100000
B(  0-C ,  6-C ) :   0.8581 B(  0-C ,  8-N ) :   0.1521 B(  0-C , 15-C ) :   0.9689
B(  0-C , 19-C ) :   0.1116 B(  0-C , 26-H ) :   0.9698 B(  0-C , 27-H ) :   0.9285
B(  1-C ,  2-C ) :   0.9520 B(  1-C , 16-C ) :   0.1245 B(  1-C , 19-C ) :   1.1594
B(  1-C , 22-H ) :   0.1214 B(  1-C , 24-H ) :   0.9180 B(  1-C , 25-H ) :   0.9358
B(  2-C ,  3-H ) :   0.9602 B(  2-C ,  4-H ) :   0.8971 B(  2-C ,  5-C ) :   0.9495
B(  2-C , 16-C ) :   0.1002 B(  5-C , 13-F ) :   1.0237 B(  5-C , 14-O ) :   1.7518
B(  6-C ,  7-C ) :   1.6382 B(  6-C ,  8-N ) :   1.0141 B(  6-C , 11-H ) :  -0.1404
B(  6-C , 15-C ) :   0.1649 B(  7-C , 11-H ) :   0.7836 B(  7-C , 12-H ) :   1.0399
B(  8-N ,  9-H ) :   1.0259 B(  8-N , 10-H ) :   0.9685 B( 15-C , 16-C ) :   1.1650
B( 15-C , 17-H ) :   0.9322 B( 15-C , 18-H ) :   0.8299 B( 15-C , 19-C ) :   0.3402
B( 16-C , 19-C ) :   0.6668 B( 16-C , 20-H ) :   0.9598 B( 16-C , 21-H ) :   0.9370
B( 19-C , 22-H ) :   0.9828 B( 19-C , 23-H ) :   0.8845

Dispersion correction           -0.027206894
FINAL SINGLE POINT ENERGY      -581.933419547689

DIPOLE MOMENT
-------------
                                X             Y             Z
Electronic contribution:     -3.69712      -1.62803     -10.24500
Nuclear contribution   :      3.32973       2.37270      11.37738
                        -----------------------------------------
Total Dipole Moment    :     -0.36739       0.74467       1.13238
                        -----------------------------------------
Magnitude (a.u.)       :      1.40420
Magnitude (Debye)      :      3.56920

Rotational constants in cm-1:     0.040902     0.025807     0.019036
Rotational constants in MHz :  1226.202138   773.670450   570.681201

                             ****ORCA TERMINATED NORMALLY****
TOTAL RUN TIME: 0 days 0 hours 4 minutes 24 seconds 650 msec
