                         Program Version 5.0.0 -  RELEASE  -
|  1> !PBE0 D3BJ RIJCOSX def2-TZVPD def2/J TightSCF xyzfile
|  2>
|  3> *xyzfile 0 1 D2.xyz
|  4>
|  5> %MaxCore 64000
|  6>
|  7> %pal nprocs 4
|  8> end
|  9>
| 10> %scf
| 11>   MaxIter 150
| 12> end
| 13>
| 14>
| 15>                          ****END OF INPUT****

CARTESIAN COORDINATES (ANGSTROEM)
---------------------------------
  C      2.486452   -2.677121   -2.563447
  C     -0.870963    0.248043   -2.662804
  C     -0.477492    0.608191   -4.101052
  H      0.206773    1.458299   -4.118748
  H     -1.368442    0.929419   -4.647855
  C      0.184673   -0.506640   -4.916760
  C      3.037640   -2.366715   -3.923509
  N      2.280360   -2.454408   -4.967692
  C      4.321736   -2.017932   -4.016641
  H      4.879940   -1.911668   -3.173823
  H      4.710148   -1.670882   -4.883561
  H      1.270423   -2.412650   -4.866143
  H      2.581829   -2.055282   -5.846878
  F     -0.158685   -1.701088   -4.657981
  O      1.055938   -0.174410   -5.740373
  C      2.497991   -1.469464   -1.610303
  C      1.582841   -0.321986   -2.042619
  H      2.193083   -1.833912   -0.625420
  H      3.523356   -1.103982   -1.490392
  C      0.100160   -0.673551   -1.915815
  H      1.822311   -0.040361   -3.072834
  H      1.813180    0.557019   -1.433266
  H     -0.063284   -1.679120   -2.301112
  H     -0.168820   -0.691680   -0.853831
  H     -1.001048    1.181040   -2.104071
  H     -1.844645   -0.246592   -2.663281
  H      1.472592   -3.051527   -2.694366
  H      3.083201   -3.490638   -2.141472

 Total Charge           Charge          ....    0
 Multiplicity           Mult            ....    1
 Number of Electrons    NEL             ....   94
 Basis Dimension        Dim             ....  594

ORBITAL ENERGIES
----------------

  NO   OCC          E(Eh)            E(eV)
   0   2.0000     -24.867053      -676.6669
   1   2.0000     -19.229840      -523.2706
   2   2.0000     -14.361157      -390.7869
   3   2.0000     -10.416174      -283.4385
   4   2.0000     -10.262047      -279.2445
   5   2.0000     -10.243124      -278.7296
   6   2.0000     -10.230054      -278.3739
   7   2.0000     -10.228792      -278.3396
   8   2.0000     -10.221548      -278.1425
   9   2.0000     -10.218549      -278.0609
  10   2.0000     -10.215794      -277.9859
  11   2.0000     -10.137847      -275.8648
  12   2.0000      -1.377445       -37.4822
  13   2.0000      -1.087989       -29.6057
  14   2.0000      -0.950795       -25.8724
  15   2.0000      -0.858876       -23.3712
  16   2.0000      -0.818444       -22.2710
  17   2.0000      -0.776699       -21.1351
  18   2.0000      -0.731191       -19.8967
  19   2.0000      -0.711630       -19.3644
  20   2.0000      -0.687590       -18.7103
  21   2.0000      -0.645427       -17.5630
  22   2.0000      -0.610516       -16.6130
  23   2.0000      -0.603075       -16.4105
  24   2.0000      -0.585041       -15.9198
  25   2.0000      -0.557202       -15.1622
  26   2.0000      -0.529049       -14.3962
  27   2.0000      -0.512989       -13.9591
  28   2.0000      -0.497296       -13.5321
  29   2.0000      -0.491687       -13.3795
  30   2.0000      -0.486071       -13.2267
  31   2.0000      -0.458957       -12.4889
  32   2.0000      -0.442579       -12.0432
  33   2.0000      -0.434421       -11.8212
  34   2.0000      -0.422474       -11.4961
  35   2.0000      -0.406004       -11.0479
  36   2.0000      -0.399741       -10.8775
  37   2.0000      -0.390091       -10.6149
  38   2.0000      -0.379399       -10.3240
  39   2.0000      -0.369291       -10.0489
  40   2.0000      -0.357648        -9.7321
  41   2.0000      -0.350860        -9.5474
  42   2.0000      -0.336602        -9.1594
  43   2.0000      -0.334968        -9.1149
  44   2.0000      -0.326303        -8.8792
  45   2.0000      -0.315327        -8.5805
  46   2.0000      -0.183362        -4.9895
  47   0.0000      -0.041071        -1.1176
  48   0.0000      -0.000296        -0.0080
  49   0.0000       0.019910         0.5418
  50   0.0000       0.022533         0.6132
  51   0.0000       0.026285         0.7153

MULLIKEN ATOMIC CHARGES
-----------------------
   0 C :   -0.120659
   1 C :   -0.232481
   2 C :   -0.120842
   3 H :    0.204165
   4 H :    0.134569
   5 C :    0.407143
   6 C :    0.397997
   7 N :   -0.304182
   8 C :   -1.241724
   9 H :    0.255954
  10 H :    0.188061
  11 H :    0.301524
  12 H :    0.169971
  13 F :   -0.290612
  14 O :   -0.494344
  15 C :   -0.176986
  16 C :   -0.298282
  17 H :    0.121980
  18 H :    0.211242
  19 C :   -0.317739
  20 H :    0.205952
  21 H :    0.108133
  22 H :    0.129197
  23 H :    0.181357
  24 H :    0.120860
  25 H :    0.187887
  26 H :    0.141381
  27 H :    0.130481
Sum of atomic charges:    0.0000000

LOEWDIN ATOMIC CHARGES
----------------------
   0 C :   -0.142007
   1 C :   -0.193926
   2 C :   -0.095683
   3 H :    0.127263
   4 H :    0.128009
   5 C :   -0.471866
   6 C :   -0.487261
   7 N :    0.118601
   8 C :    0.023036
   9 H :    0.018635
  10 H :    0.018351
  11 H :    0.060509
  12 H :    0.116493
  13 F :    0.171101
  14 O :    0.099480
  15 C :   -0.191626
  16 C :   -0.195491
  17 H :    0.111120
  18 H :    0.108808
  19 C :   -0.211547
  20 H :    0.105733
  21 H :    0.119419
  22 H :    0.092846
  23 H :    0.120156
  24 H :    0.115305
  25 H :    0.110874
  26 H :    0.101120
  27 H :    0.122548

  Mayer bond orders larger than 0.100000
B(  0-C ,  6-C ) :   0.8089 B(  0-C , 15-C ) :   0.8714 B(  0-C , 19-C ) :   0.1235
B(  0-C , 26-H ) :   0.9850 B(  0-C , 27-H ) :   0.9081 B(  1-C ,  2-C ) :   0.9480
B(  1-C , 16-C ) :   0.1137 B(  1-C , 19-C ) :   1.1117 B(  1-C , 22-H ) :   0.1077
B(  1-C , 24-H ) :   0.9106 B(  1-C , 25-H ) :   0.9393 B(  2-C ,  3-H ) :   0.9450
B(  2-C ,  4-H ) :   0.9005 B(  2-C ,  5-C ) :   0.9597 B(  2-C , 16-C ) :   0.1055
B(  5-C , 13-F ) :   0.9044 B(  5-C , 14-O ) :   1.7765 B(  6-C ,  7-N ) :   1.1513
B(  6-C ,  8-C ) :   1.2821 B(  6-C , 15-C ) :   0.2530 B(  6-C , 16-C ) :   0.1057
B(  7-N ,  8-C ) :   0.1630 B(  7-N , 11-H ) :   0.7654 B(  7-N , 12-H ) :   0.8883
B(  8-C ,  9-H ) :   0.9607 B(  8-C , 10-H ) :   1.0409 B( 15-C , 16-C ) :   1.1600
B( 15-C , 17-H ) :   0.9167 B( 15-C , 18-H ) :   0.8620 B( 15-C , 19-C ) :   0.3144
B( 16-C , 19-C ) :   0.6630 B( 16-C , 20-H ) :   0.9595 B( 16-C , 21-H ) :   0.9433
B( 19-C , 22-H ) :   1.0072 B( 19-C , 23-H ) :   0.8799

Dispersion correction           -0.027109474
FINAL SINGLE POINT ENERGY      -581.945177337971

DIPOLE MOMENT
-------------
                                X             Y             Z
Electronic contribution:     -5.34147      -1.78729     -10.87795
Nuclear contribution   :      3.65024       2.44123      11.52670
                        -----------------------------------------
Total Dipole Moment    :     -1.69123       0.65394       0.64875
                        -----------------------------------------
Magnitude (a.u.)       :      1.92581
Magnitude (Debye)      :      4.89503

Rotational constants in cm-1:     0.040600     0.026409     0.019262
Rotational constants in MHz :  1217.142957   791.712481   577.449390

                             ****ORCA TERMINATED NORMALLY****
TOTAL RUN TIME: 0 days 0 hours 4 minutes 29 seconds 49 msec
