                         Program Version 5.0.0 -  RELEASE  -
|  1> !PBE0 D3BJ RIJCOSX def2-TZVPD def2/J TightSCF xyzfile
|  2>
|  3> *xyzfile 0 1 D3.xyz
|  4>
|  5> %MaxCore 64000
|  6>
|  7> %pal nprocs 4
|  8> end
|  9>
| 10> %scf
| 11>   MaxIter 150
| 12> end
| 13>
| 14>
| 15>                          ****END OF INPUT****

CARTESIAN COORDINATES (ANGSTROEM)
---------------------------------
  C      2.486452   -2.677121   -2.563447
  C     -0.870963    0.248043   -2.662804
  C     -0.477492    0.608191   -4.101052
  H      0.206773    1.458299   -4.118748
  H     -1.368442    0.929419   -4.647855
  C      0.184673   -0.506640   -4.916760
  C      3.037640   -2.366715   -3.923509
  C      2.280360   -2.454408   -4.967692
  N      4.321736   -2.017932   -4.016641
  H      4.879940   -1.911668   -3.173823
  H      4.710148   -1.670882   -4.883561
  H      1.270423   -2.412650   -4.866143
  H      2.581829   -2.055282   -5.846878
  O     -0.158685   -1.701088   -4.657981
  F      1.055938   -0.174410   -5.740373
  C      2.497991   -1.469464   -1.610303
  C      1.582841   -0.321986   -2.042619
  H      2.193083   -1.833912   -0.625420
  H      3.523356   -1.103982   -1.490392
  C      0.100160   -0.673551   -1.915815
  H      1.822311   -0.040361   -3.072834
  H      1.813180    0.557019   -1.433266
  H     -0.063284   -1.679120   -2.301112
  H     -0.168820   -0.691680   -0.853831
  H     -1.001048    1.181040   -2.104071
  H     -1.844645   -0.246592   -2.663281
  H      1.472592   -3.051527   -2.694366
  H      3.083201   -3.490638   -2.141472

 Total Charge           Charge          ....    0
 Multiplicity           Mult            ....    1
 Number of Electrons    NEL             ....   94
 Basis Dimension        Dim             ....  594

ORBITAL ENERGIES
----------------

  NO   OCC          E(Eh)            E(eV)
   0   2.0000     -24.845855      -676.0901
   1   2.0000     -19.209344      -522.7128
   2   2.0000     -14.371309      -391.0632
   3   2.0000     -10.402505      -283.0666
   4   2.0000     -10.253083      -279.0006
   5   2.0000     -10.232890      -278.4511
   6   2.0000     -10.224196      -278.2145
   7   2.0000     -10.218001      -278.0459
   8   2.0000     -10.217477      -278.0317
   9   2.0000     -10.214910      -277.9618
  10   2.0000     -10.209704      -277.8202
  11   2.0000     -10.120788      -275.4006
  12   2.0000      -1.361436       -37.0466
  13   2.0000      -1.062852       -28.9217
  14   2.0000      -0.938916       -25.5492
  15   2.0000      -0.845802       -23.0154
  16   2.0000      -0.813255       -22.1298
  17   2.0000      -0.765037       -20.8177
  18   2.0000      -0.741311       -20.1721
  19   2.0000      -0.701032       -19.0760
  20   2.0000      -0.673955       -18.3393
  21   2.0000      -0.632408       -17.2087
  22   2.0000      -0.593917       -16.1613
  23   2.0000      -0.580138       -15.7864
  24   2.0000      -0.566821       -15.4240
  25   2.0000      -0.547434       -14.8964
  26   2.0000      -0.536104       -14.5881
  27   2.0000      -0.523007       -14.2317
  28   2.0000      -0.491626       -13.3778
  29   2.0000      -0.483850       -13.1662
  30   2.0000      -0.468450       -12.7472
  31   2.0000      -0.453493       -12.3402
  32   2.0000      -0.446240       -12.1428
  33   2.0000      -0.416467       -11.3327
  34   2.0000      -0.410284       -11.1644
  35   2.0000      -0.408538       -11.1169
  36   2.0000      -0.390651       -10.6301
  37   2.0000      -0.378451       -10.2982
  38   2.0000      -0.369333       -10.0501
  39   2.0000      -0.365938        -9.9577
  40   2.0000      -0.347300        -9.4505
  41   2.0000      -0.340188        -9.2570
  42   2.0000      -0.328026        -8.9261
  43   2.0000      -0.322399        -8.7729
  44   2.0000      -0.321214        -8.7407
  45   2.0000      -0.279951        -7.6179
  46   2.0000      -0.191703        -5.2165
  47   0.0000      -0.028635        -0.7792
  48   0.0000       0.006568         0.1787
  49   0.0000       0.016818         0.4577
  50   0.0000       0.023599         0.6422
  51   0.0000       0.031298         0.8517

MULLIKEN ATOMIC CHARGES
-----------------------
   0 C :   -0.272410
   1 C :   -0.253122
   2 C :   -0.222224
   3 H :    0.271938
   4 H :    0.129481
   5 C :    0.401040
   6 C :    0.391378
   7 C :   -1.224329
   8 N :   -0.351233
   9 H :    0.146723
  10 H :    0.151833
  11 H :    0.692707
  12 H :    0.180449
  13 O :   -0.529512
  14 F :   -0.235392
  15 C :   -0.198712
  16 C :   -0.138294
  17 H :    0.117458
  18 H :    0.189856
  19 C :   -0.402703
  20 H :    0.127073
  21 H :    0.118303
  22 H :    0.177858
  23 H :    0.182833
  24 H :    0.115386
  25 H :    0.191992
  26 H :    0.070348
  27 H :    0.171271
Sum of atomic charges:   -0.0000000

LOEWDIN ATOMIC CHARGES
----------------------
   0 C :   -0.139040
   1 C :   -0.186147
   2 C :   -0.101438
   3 H :    0.117230
   4 H :    0.126841
   5 C :   -0.463448
   6 C :   -0.475316
   7 C :    0.008702
   8 N :    0.102717
   9 H :    0.099623
  10 H :    0.107971
  11 H :   -0.019662
  12 H :    0.038365
  13 O :    0.051187
  14 F :    0.227966
  15 C :   -0.194980
  16 C :   -0.197633
  17 H :    0.111444
  18 H :    0.101281
  19 C :   -0.208310
  20 H :    0.103939
  21 H :    0.116364
  22 H :    0.096151
  23 H :    0.118828
  24 H :    0.113794
  25 H :    0.113908
  26 H :    0.110841
  27 H :    0.118819

  Mayer bond orders larger than 0.100000
B(  0-C ,  6-C ) :   0.8618 B(  0-C ,  8-N ) :   0.1478 B(  0-C , 15-C ) :   0.9576
B(  0-C , 19-C ) :   0.1098 B(  0-C , 26-H ) :   0.9637 B(  0-C , 27-H ) :   0.9288
B(  1-C ,  2-C ) :   1.0104 B(  1-C , 16-C ) :   0.1436 B(  1-C , 19-C ) :   1.2322
B(  1-C , 22-H ) :   0.1351 B(  1-C , 24-H ) :   0.9317 B(  1-C , 25-H ) :   0.8940
B(  2-C ,  3-H ) :   0.9066 B(  2-C ,  4-H ) :   0.8923 B(  2-C ,  5-C ) :   0.9893
B(  2-C , 16-C ) :   0.1038 B(  5-C , 13-O ) :   1.8036 B(  5-C , 14-F ) :   0.9762
B(  6-C ,  7-C ) :   1.5687 B(  6-C ,  8-N ) :   1.0176 B(  6-C , 11-H ) :  -0.1261
B(  6-C , 12-H ) :  -0.1299 B(  6-C , 15-C ) :   0.1783 B(  7-C , 11-H ) :   0.7111
B(  7-C , 12-H ) :   1.1344 B(  8-N ,  9-H ) :   1.0297 B(  8-N , 10-H ) :   0.9737
B( 11-H , 13-O ) :  -0.2204 B( 15-C , 16-C ) :   1.1903 B( 15-C , 17-H ) :   0.9243
B( 15-C , 18-H ) :   0.8324 B( 15-C , 19-C ) :   0.3342 B( 16-C , 19-C ) :   0.6785
B( 16-C , 20-H ) :   0.9646 B( 16-C , 21-H ) :   0.9341 B( 19-C , 22-H ) :   0.9720
B( 19-C , 23-H ) :   0.8754

Dispersion correction           -0.027327490
FINAL SINGLE POINT ENERGY      -581.928581616364

DIPOLE MOMENT
-------------
                                X             Y             Z
Electronic contribution:     -1.75890       0.90523     -12.10090
Nuclear contribution   :      1.88979       0.56282      12.66056
                        -----------------------------------------
Total Dipole Moment    :      0.13089       1.46805       0.55966
                        -----------------------------------------
Magnitude (a.u.)       :      1.57655
Magnitude (Debye)      :      4.00727

Rotational constants in cm-1:     0.040271     0.025954     0.018866
Rotational constants in MHz :  1207.302496   778.083475   565.600538

                             ****ORCA TERMINATED NORMALLY****
TOTAL RUN TIME: 0 days 0 hours 4 minutes 47 seconds 522 msec
