                         Program Version 5.0.0 -  RELEASE  -
|  1> !PBE0 D3BJ RIJCOSX def2-TZVPD def2/J TightSCF xyzfile
|  2>
|  3> *xyzfile 0 1 D4.xyz
|  4>
|  5> %MaxCore 64000
|  6>
|  7> %pal nprocs 4
|  8> end
|  9>
| 10> %scf
| 11>   MaxIter 150
| 12> end
| 13>
| 14>
| 15>                          ****END OF INPUT****

CARTESIAN COORDINATES (ANGSTROEM)
---------------------------------
  C      2.486452   -2.677121   -2.563447
  C     -0.870963    0.248043   -2.662804
  C     -0.477492    0.608191   -4.101052
  H      0.206773    1.458299   -4.118748
  H     -1.368442    0.929419   -4.647855
  C      0.184673   -0.506640   -4.916760
  C      3.037640   -2.366715   -3.923509
  N      2.280360   -2.454408   -4.967692
  C      4.321736   -2.017932   -4.016641
  H      4.879940   -1.911668   -3.173823
  H      4.710148   -1.670882   -4.883561
  H      1.270423   -2.412650   -4.866143
  H      2.581829   -2.055282   -5.846878
  O     -0.158685   -1.701088   -4.657981
  F      1.055938   -0.174410   -5.740373
  C      2.497991   -1.469464   -1.610303
  C      1.582841   -0.321986   -2.042619
  H      2.193083   -1.833912   -0.625420
  H      3.523356   -1.103982   -1.490392
  C      0.100160   -0.673551   -1.915815
  H      1.822311   -0.040361   -3.072834
  H      1.813180    0.557019   -1.433266
  H     -0.063284   -1.679120   -2.301112
  H     -0.168820   -0.691680   -0.853831
  H     -1.001048    1.181040   -2.104071
  H     -1.844645   -0.246592   -2.663281
  H      1.472592   -3.051527   -2.694366
  H      3.083201   -3.490638   -2.141472

 Total Charge           Charge          ....    0
 Multiplicity           Mult            ....    1
 Number of Electrons    NEL             ....   94
 Basis Dimension        Dim             ....  594

ORBITAL ENERGIES
----------------

  NO   OCC          E(Eh)            E(eV)
   0   2.0000     -24.867749      -676.6859
   1   2.0000     -19.235764      -523.4318
   2   2.0000     -14.352198      -390.5432
   3   2.0000     -10.425769      -283.6996
   4   2.0000     -10.266181      -279.3570
   5   2.0000     -10.241343      -278.6811
   6   2.0000     -10.227016      -278.2913
   7   2.0000     -10.220551      -278.1153
   8   2.0000     -10.220080      -278.1025
   9   2.0000     -10.215219      -277.9702
  10   2.0000     -10.209921      -277.8261
  11   2.0000     -10.135501      -275.8010
  12   2.0000      -1.383266       -37.6406
  13   2.0000      -1.088762       -29.6267
  14   2.0000      -0.944933       -25.7129
  15   2.0000      -0.854849       -23.2616
  16   2.0000      -0.816229       -22.2107
  17   2.0000      -0.774905       -21.0862
  18   2.0000      -0.733532       -19.9604
  19   2.0000      -0.706547       -19.2261
  20   2.0000      -0.684788       -18.6340
  21   2.0000      -0.641202       -17.4480
  22   2.0000      -0.602735       -16.4013
  23   2.0000      -0.594861       -16.1870
  24   2.0000      -0.575805       -15.6684
  25   2.0000      -0.566683       -15.4202
  26   2.0000      -0.545200       -14.8356
  27   2.0000      -0.513029       -13.9602
  28   2.0000      -0.496953       -13.5228
  29   2.0000      -0.491646       -13.3784
  30   2.0000      -0.485946       -13.2233
  31   2.0000      -0.458366       -12.4728
  32   2.0000      -0.439510       -11.9597
  33   2.0000      -0.426549       -11.6070
  34   2.0000      -0.419489       -11.4149
  35   2.0000      -0.407223       -11.0811
  36   2.0000      -0.393993       -10.7211
  37   2.0000      -0.385832       -10.4990
  38   2.0000      -0.373547       -10.1647
  39   2.0000      -0.372136       -10.1263
  40   2.0000      -0.352395        -9.5892
  41   2.0000      -0.347670        -9.4606
  42   2.0000      -0.334265        -9.0958
  43   2.0000      -0.332579        -9.0499
  44   2.0000      -0.326020        -8.8715
  45   2.0000      -0.311241        -8.4693
  46   2.0000      -0.180804        -4.9199
  47   0.0000      -0.049598        -1.3496
  48   0.0000       0.001041         0.0283
  49   0.0000       0.019123         0.5204
  50   0.0000       0.025700         0.6993
  51   0.0000       0.025805         0.7022

MULLIKEN ATOMIC CHARGES
-----------------------
   0 C :   -0.101097
   1 C :   -0.244174
   2 C :   -0.205281
   3 H :    0.274503
   4 H :    0.126813
   5 C :    0.508508
   6 C :    0.359662
   7 N :   -0.310286
   8 C :   -1.229140
   9 H :    0.256319
  10 H :    0.188424
  11 H :    0.301820
  12 H :    0.154680
  13 O :   -0.580712
  14 F :   -0.234457
  15 C :   -0.194168
  16 C :   -0.259904
  17 H :    0.119606
  18 H :    0.208299
  19 C :   -0.345679
  20 H :    0.143289
  21 H :    0.111852
  22 H :    0.158279
  23 H :    0.186954
  24 H :    0.121454
  25 H :    0.196811
  26 H :    0.151463
  27 H :    0.136159
Sum of atomic charges:    0.0000000

LOEWDIN ATOMIC CHARGES
----------------------
   0 C :   -0.139381
   1 C :   -0.185160
   2 C :   -0.098760
   3 H :    0.120312
   4 H :    0.129151
   5 C :   -0.452573
   6 C :   -0.489439
   7 N :    0.113875
   8 C :    0.016086
   9 H :    0.017046
  10 H :    0.014616
  11 H :    0.035455
  12 H :    0.114920
  13 O :    0.058919
  14 F :    0.232949
  15 C :   -0.191220
  16 C :   -0.197018
  17 H :    0.111649
  18 H :    0.107606
  19 C :   -0.210177
  20 H :    0.102389
  21 H :    0.117969
  22 H :    0.093742
  23 H :    0.120025
  24 H :    0.115666
  25 H :    0.114407
  26 H :    0.104631
  27 H :    0.122315

  Mayer bond orders larger than 0.100000
B(  0-C ,  6-C ) :   0.8180 B(  0-C , 15-C ) :   0.8554 B(  0-C , 19-C ) :   0.1277
B(  0-C , 26-H ) :   0.9893 B(  0-C , 27-H ) :   0.9072 B(  1-C ,  2-C ) :   1.0072
B(  1-C , 16-C ) :   0.1366 B(  1-C , 19-C ) :   1.1779 B(  1-C , 22-H ) :   0.1231
B(  1-C , 24-H ) :   0.9218 B(  1-C , 25-H ) :   0.8986 B(  2-C ,  3-H ) :   0.8983
B(  2-C ,  4-H ) :   0.8907 B(  2-C ,  5-C ) :   1.0048 B(  2-C , 16-C ) :   0.1005
B(  5-C , 13-O ) :   1.6406 B(  5-C , 14-F ) :   0.9900 B(  6-C ,  7-N ) :   1.1533
B(  6-C ,  8-C ) :   1.3099 B(  6-C , 15-C ) :   0.2670 B(  6-C , 16-C ) :   0.1066
B(  7-N ,  8-C ) :   0.1637 B(  7-N , 11-H ) :   0.7423 B(  7-N , 12-H ) :   0.9053
B(  8-C ,  9-H ) :   0.9673 B(  8-C , 10-H ) :   1.0419 B( 11-H , 13-O ) :   0.1035
B( 15-C , 16-C ) :   1.1853 B( 15-C , 17-H ) :   0.9071 B( 15-C , 18-H ) :   0.8679
B( 15-C , 19-C ) :   0.3079 B( 16-C , 19-C ) :   0.6687 B( 16-C , 20-H ) :   0.9723
B( 16-C , 21-H ) :   0.9344 B( 19-C , 22-H ) :   0.9983 B( 19-C , 23-H ) :   0.8665

Dispersion correction           -0.027227985
FINAL SINGLE POINT ENERGY      -581.947382901180

DIPOLE MOMENT
-------------
                                X             Y             Z
Electronic contribution:     -3.44773       0.79333     -12.73359
Nuclear contribution   :      2.21030       0.63135      12.80988
                        -----------------------------------------
Total Dipole Moment    :     -1.23743       1.42468       0.07630
                        -----------------------------------------
Magnitude (a.u.)       :      1.88859
Magnitude (Debye)      :      4.80042

Rotational constants in cm-1:     0.039980     0.026547     0.019089
Rotational constants in MHz :  1198.568620   795.867393   572.288555

                             ****ORCA TERMINATED NORMALLY****
TOTAL RUN TIME: 0 days 0 hours 5 minutes 35 seconds 925 msec
