                         Program Version 5.0.0 -  RELEASE  -
|  1> !wB97X-D3 RIJCOSX def2-SVPD def2/J TightSCF
|  2> *xyz -1 1
|  3> C          4.08422        1.74208       -2.11472
|  4> C          4.26524        2.50052       -0.79589
|  5> H          4.86853        3.39267       -0.98113
|  6> H          3.30764        2.82457       -0.38781
|  7> C          4.98224        1.65026        0.24742
|  8> O          4.36806        1.38927        1.31371
|  9> O          6.12892        1.23351       -0.04562
| 10> C          3.41275        0.37689       -1.96550
| 11> H          5.06847        1.59850       -2.56573
| 12> H          3.50336        2.36394       -2.80457
| 13> H          3.32456       -0.08422       -2.92701
| 14> H          2.43923        0.50287       -1.53972
| 15> H          4.00446       -0.24355       -1.32531
| 16> *
| 17> %MaxCore 64000
| 18> %pal nprocs 8
| 19> end
| 20> %scf
| 21>   MaxIter 150
| 22> end
| 23>
| 24>
| 25>                          ****END OF INPUT****

CARTESIAN COORDINATES (ANGSTROEM)
---------------------------------
  C      4.084220    1.742080   -2.114720
  C      4.265240    2.500520   -0.795890
  H      4.868530    3.392670   -0.981130
  H      3.307640    2.824570   -0.387810
  C      4.982240    1.650260    0.247420
  O      4.368060    1.389270    1.313710
  O      6.128920    1.233510   -0.045620
  C      3.412750    0.376890   -1.965500
  H      5.068470    1.598500   -2.565730
  H      3.503360    2.363940   -2.804570
  H      3.324560   -0.084220   -2.927010
  H      2.439230    0.502870   -1.539720
  H      4.004460   -0.243550   -1.325310

 Total Charge           Charge          ....   -1
 Multiplicity           Mult            ....    1
 Number of Electrons    NEL             ....   48
 Basis Dimension        Dim             ....  182

ORBITAL ENERGIES
----------------

  NO   OCC          E(Eh)            E(eV)
   0   2.0000     -18.984187      -516.5860
   1   2.0000     -18.984112      -516.5839
   2   2.0000     -10.178631      -276.9746
   3   2.0000     -10.142932      -276.0032
   4   2.0000     -10.134350      -275.7697
   5   2.0000     -10.116800      -275.2921
   6   2.0000      -0.930936       -25.3321
   7   2.0000      -0.834148       -22.6983
   8   2.0000      -0.749637       -20.3986
   9   2.0000      -0.651670       -17.7329
  10   2.0000      -0.551734       -15.0135
  11   2.0000      -0.432846       -11.7783
  12   2.0000      -0.407150       -11.0791
  13   2.0000      -0.391001       -10.6397
  14   2.0000      -0.355366        -9.6700
  15   2.0000      -0.336317        -9.1516
  16   2.0000      -0.312365        -8.4999
  17   2.0000      -0.306329        -8.3356
  18   2.0000      -0.293306        -7.9813
  19   2.0000      -0.270357        -7.3568
  20   2.0000      -0.261245        -7.1088
  21   2.0000      -0.146232        -3.9792
  22   2.0000      -0.140027        -3.8103
  23   2.0000      -0.127316        -3.4644
  24   0.0000       0.215583         5.8663
  25   0.0000       0.238402         6.4873
  26   0.0000       0.254222         6.9177
  27   0.0000       0.265515         7.2250
  28   0.0000       0.292720         7.9653

MULLIKEN ATOMIC CHARGES
-----------------------
   0 C :   -0.430974
   1 C :    0.137924
   2 H :   -0.012513
   3 H :   -0.029791
   4 C :    0.411684
   5 O :   -0.685958
   6 O :   -0.727421
   7 C :    0.585290
   8 H :    0.012225
   9 H :   -0.164569
  10 H :   -0.068054
  11 H :   -0.016662
  12 H :   -0.011180
Sum of atomic charges:   -1.0000000

LOEWDIN ATOMIC CHARGES
----------------------
   0 C :   -0.090264
   1 C :   -0.007107
   2 H :    0.011300
   3 H :    0.004388
   4 C :   -0.312790
   5 O :   -0.331921
   6 O :   -0.325832
   7 C :    0.111806
   8 H :    0.012257
   9 H :   -0.000464
  10 H :   -0.035004
  11 H :   -0.020754
  12 H :   -0.015614

  Mayer bond orders larger than 0.100000
B(  0-C ,  1-C ) :   1.1741 B(  0-C ,  2-H ) :   0.1243 B(  0-C ,  3-H ) :   0.1355
B(  0-C ,  7-C ) :   1.3023 B(  0-C ,  8-H ) :   0.9186 B(  0-C ,  9-H ) :   0.9962
B(  0-C , 10-H ) :   0.1988 B(  0-C , 11-H ) :   0.1917 B(  0-C , 12-H ) :   0.2058
B(  1-C ,  2-H ) :   0.8378 B(  1-C ,  3-H ) :   0.8938 B(  1-C ,  4-C ) :   1.0179
B(  1-C ,  8-H ) :   0.1140 B(  2-H ,  4-C ) :   0.1176 B(  3-H ,  4-C ) :   0.2021
B(  4-C ,  5-O ) :   1.5052 B(  4-C ,  6-O ) :   1.5301 B(  7-C , 10-H ) :   0.7814
B(  7-C , 11-H ) :   0.8049 B(  7-C , 12-H ) :   0.8470

Dispersion correction           -0.003443983
FINAL SINGLE POINT ENERGY      -306.863935398396

DIPOLE MOMENT
-------------
                                X             Y             Z
Electronic contribution:      3.70832       0.40359       5.97883
Nuclear contribution   :     -4.94481       0.08097      -8.10693
                        -----------------------------------------
Total Dipole Moment    :     -1.23649       0.48456      -2.12810
                        -----------------------------------------
Magnitude (a.u.)       :      2.50849
Magnitude (Debye)      :      6.37606

Rotational constants in cm-1:     0.192263     0.082741     0.079730
Rotational constants in MHz :  5763.914333  2480.509926  2390.233107

                             ****ORCA TERMINATED NORMALLY****
TOTAL RUN TIME: 0 days 0 hours 0 minutes 18 seconds 260 msec
