                         Program Version 5.0.0 -  RELEASE  -
|  1> !wB97X-D3 RIJCOSX def2-SVPD def2/J TightSCF
|  2> *xyz 0 1
|  3> C          4.08422        1.74208       -2.11472
|  4> C          4.26524        2.50052       -0.79589
|  5> H          4.86853        3.39267       -0.98113
|  6> H          3.30764        2.82457       -0.38781
|  7> C          4.98224        1.65026        0.24742
|  8> O          4.36806        1.38927        1.31371
|  9> F          6.12892        1.23351       -0.04562
| 10> C          3.41275        0.37689       -1.96550
| 11> H          5.06847        1.59850       -2.56573
| 12> H          3.50336        2.36394       -2.80457
| 13> H          3.32456       -0.08422       -2.92701
| 14> H          2.43923        0.50287       -1.53972
| 15> H          4.00446       -0.24355       -1.32531
| 16> *
| 17> %MaxCore 64000
| 18> %pal nprocs 8
| 19> end
| 20> %scf
| 21>   MaxIter 150
| 22> end
| 23>
| 24>
| 25>                          ****END OF INPUT****

CARTESIAN COORDINATES (ANGSTROEM)
---------------------------------
  C      4.084220    1.742080   -2.114720
  C      4.265240    2.500520   -0.795890
  H      4.868530    3.392670   -0.981130
  H      3.307640    2.824570   -0.387810
  C      4.982240    1.650260    0.247420
  O      4.368060    1.389270    1.313710
  F      6.128920    1.233510   -0.045620
  C      3.412750    0.376890   -1.965500
  H      5.068470    1.598500   -2.565730
  H      3.503360    2.363940   -2.804570
  H      3.324560   -0.084220   -2.927010
  H      2.439230    0.502870   -1.539720
  H      4.004460   -0.243550   -1.325310

 Total Charge           Charge          ....    0
 Multiplicity           Mult            ....    1
 Number of Electrons    NEL             ....   48
 Basis Dimension        Dim             ....  182

ORBITAL ENERGIES
----------------

  NO   OCC          E(Eh)            E(eV)
   0   2.0000     -24.875858      -676.9065
   1   2.0000     -19.254509      -523.9418
   2   2.0000     -10.474612      -285.0287
   3   2.0000     -10.320939      -280.8470
   4   2.0000     -10.310577      -280.5651
   5   2.0000     -10.286156      -279.9005
   6   2.0000      -1.426046       -38.8047
   7   2.0000      -1.139871       -31.0175
   8   2.0000      -0.931850       -25.3569
   9   2.0000      -0.840754       -22.8781
  10   2.0000      -0.771498       -20.9935
  11   2.0000      -0.723592       -19.6899
  12   2.0000      -0.661896       -18.0111
  13   2.0000      -0.649235       -17.6666
  14   2.0000      -0.600126       -16.3303
  15   2.0000      -0.575404       -15.6575
  16   2.0000      -0.561063       -15.2673
  17   2.0000      -0.520860       -14.1733
  18   2.0000      -0.501513       -13.6469
  19   2.0000      -0.473639       -12.8884
  20   2.0000      -0.463610       -12.6155
  21   2.0000      -0.447162       -12.1679
  22   2.0000      -0.444208       -12.0875
  23   2.0000      -0.387741       -10.5510
  24   0.0000       0.052459         1.4275
  25   0.0000       0.084159         2.2901
  26   0.0000       0.113179         3.0798
  27   0.0000       0.117938         3.2093
  28   0.0000       0.125674         3.4198

MULLIKEN ATOMIC CHARGES
-----------------------
   0 C :   -0.419451
   1 C :    0.038109
   2 H :    0.056065
   3 H :    0.005787
   4 C :    0.808392
   5 O :   -0.497353
   6 F :   -0.414877
   7 C :    0.583962
   8 H :    0.006717
   9 H :   -0.115244
  10 H :   -0.030393
  11 H :    0.008938
  12 H :   -0.030650
Sum of atomic charges:   -0.0000000

LOEWDIN ATOMIC CHARGES
----------------------
   0 C :   -0.069999
   1 C :    0.040514
   2 H :    0.036629
   3 H :    0.037418
   4 C :   -0.012130
   5 O :   -0.141184
   6 F :   -0.033109
   7 C :    0.129318
   8 H :    0.022842
   9 H :    0.025929
  10 H :   -0.012960
  11 H :   -0.006627
  12 H :   -0.016641

  Mayer bond orders larger than 0.100000
B(  0-C ,  1-C ) :   1.1706 B(  0-C ,  2-H ) :   0.1158 B(  0-C ,  3-H ) :   0.1231
B(  0-C ,  7-C ) :   1.3231 B(  0-C ,  8-H ) :   0.9203 B(  0-C ,  9-H ) :   1.0012
B(  0-C , 10-H ) :   0.1890 B(  0-C , 11-H ) :   0.1844 B(  0-C , 12-H ) :   0.1878
B(  1-C ,  2-H ) :   0.8510 B(  1-C ,  3-H ) :   0.9412 B(  1-C ,  4-C ) :   1.0455
B(  3-H ,  4-C ) :   0.1287 B(  4-C ,  5-O ) :   1.8228 B(  4-C ,  6-F ) :   0.6892
B(  5-O ,  6-F ) :   0.1042 B(  7-C , 10-H ) :   0.7941 B(  7-C , 11-H ) :   0.8128
B(  7-C , 12-H ) :   0.8497

Dispersion correction           -0.003364086
FINAL SINGLE POINT ENERGY      -331.394575218080

DIPOLE MOMENT
-------------
                                X             Y             Z
Electronic contribution:      6.75184       0.11106       7.45691
Nuclear contribution   :     -6.73491       0.34384      -8.67711
                        -----------------------------------------
Total Dipole Moment    :      0.01693       0.45490      -1.22020
                        -----------------------------------------
Magnitude (a.u.)       :      1.30235
Magnitude (Debye)      :      3.31031

Rotational constants in cm-1:     0.183378     0.080817     0.077085
Rotational constants in MHz :  5497.543257  2422.830825  2310.936171

                             ****ORCA TERMINATED NORMALLY****
TOTAL RUN TIME: 0 days 0 hours 0 minutes 19 seconds 791 msec
