                         Program Version 5.0.0 -  RELEASE  -
|  1> !B3LYP D3BJ RIJCOSX def2-SVPD def2/J TightSCF
|  2> *xyz -1 1
|  3> C          2.49556        1.81615       -2.13636
|  4> C          1.87218        0.42790       -2.07750
|  5> H          2.61427       -0.36583       -2.19889
|  6> H          1.38995        0.27309       -1.11236
|  7> S          0.57902        0.14047       -3.29794
|  8> O          0.22886       -1.24687       -3.12787
|  9> O         -0.43927        1.11897       -3.01455
| 10> O          1.24788        0.40347       -4.59565
| 11> H          2.96535        1.95613       -3.08747
| 12> H          3.22581        1.91242       -1.36024
| 13> H          1.73350        2.55528       -2.00274
| 14> *
| 15>
| 16> %MaxCore 64000
| 17>
| 18> %pal nprocs 4
| 19> end
| 20>
| 21> %scf
| 22>   MaxIter 150
| 23> end
| 24>
| 25>
| 26>                          ****END OF INPUT****

CARTESIAN COORDINATES (ANGSTROEM)
---------------------------------
  C      2.495560    1.816150   -2.136360
  C      1.872180    0.427900   -2.077500
  H      2.614270   -0.365830   -2.198890
  H      1.389950    0.273090   -1.112360
  S      0.579020    0.140470   -3.297940
  O      0.228860   -1.246870   -3.127870
  O     -0.439270    1.118970   -3.014550
  O      1.247880    0.403470   -4.595650
  H      2.965350    1.956130   -3.087470
  H      3.225810    1.912420   -1.360240
  H      1.733500    2.555280   -2.002740

 Total Charge           Charge          ....   -1
 Multiplicity           Mult            ....    1
 Number of Electrons    NEL             ....   58
 Basis Dimension        Dim             ....  176

ORBITAL ENERGIES
----------------

  NO   OCC          E(Eh)            E(eV)
   0   2.0000     -88.880334     -2418.5569
   1   2.0000     -18.921396      -514.8774
   2   2.0000     -18.921326      -514.8755
   3   2.0000     -18.907031      -514.4865
   4   2.0000     -10.043623      -273.3009
   5   2.0000     -10.038808      -273.1698
   6   2.0000      -7.934240      -215.9017
   7   2.0000      -5.903202      -160.6343
   8   2.0000      -5.903035      -160.6297
   9   2.0000      -5.902485      -160.6148
  10   2.0000      -0.933072       -25.3902
  11   2.0000      -0.796379       -21.6706
  12   2.0000      -0.769193       -20.9308
  13   2.0000      -0.626246       -17.0410
  14   2.0000      -0.501294       -13.6409
  15   2.0000      -0.380078       -10.3424
  16   2.0000      -0.318089        -8.6556
  17   2.0000      -0.316925        -8.6240
  18   2.0000      -0.278128        -7.5683
  19   2.0000      -0.265858        -7.2344
  20   2.0000      -0.257459        -7.0058
  21   2.0000      -0.232769        -6.3340
  22   2.0000      -0.214144        -5.8272
  23   2.0000      -0.154206        -4.1962
  24   2.0000      -0.153420        -4.1748
  25   2.0000      -0.120046        -3.2666
  26   2.0000      -0.110203        -2.9988
  27   2.0000      -0.100898        -2.7456
  28   2.0000      -0.067320        -1.8319
  29   0.0000       0.142175         3.8688
  30   0.0000       0.169219         4.6047
  31   0.0000       0.179028         4.8716
  32   0.0000       0.184199         5.0123
  33   0.0000       0.205822         5.6007

MULLIKEN ATOMIC CHARGES
-----------------------
   0 C :    0.989558
   1 C :   -0.176098
   2 H :   -0.168793
   3 H :   -0.129267
   4 S :    1.365300
   5 O :   -0.799096
   6 O :   -0.798913
   7 O :   -0.842430
   8 H :   -0.130837
   9 H :   -0.186055
  10 H :   -0.123370
Sum of atomic charges:   -1.0000000

LOEWDIN ATOMIC CHARGES
----------------------
   0 C :    0.108437
   1 C :   -0.133008
   2 H :    0.001503
   3 H :   -0.003485
   4 S :    0.856363
   5 O :   -0.576235
   6 O :   -0.573374
   7 O :   -0.595380
   8 H :   -0.024343
   9 H :   -0.038183
  10 H :   -0.022295

  Mayer bond orders larger than 0.100000
B(  0-C ,  1-C ) :   1.2620 B(  0-C ,  3-H ) :   0.1017 B(  0-C ,  8-H ) :   0.7835
B(  0-C ,  9-H ) :   0.6758 B(  0-C , 10-H ) :   0.7659 B(  1-C ,  2-H ) :   0.9755
B(  1-C ,  3-H ) :   0.9430 B(  1-C ,  4-S ) :   0.9118 B(  1-C ,  8-H ) :   0.2147
B(  1-C ,  9-H ) :   0.2526 B(  1-C , 10-H ) :   0.2235 B(  4-S ,  5-O ) :   1.3292
B(  4-S ,  6-O ) :   1.2921 B(  4-S ,  7-O ) :   1.2563

Dispersion correction           -0.016774163
FINAL SINGLE POINT ENERGY      -702.588893706196

DIPOLE MOMENT
-------------
                                X             Y             Z
Electronic contribution:     -5.63890      -3.57289      -4.04239
Nuclear contribution   :      6.89220       4.11756       5.35566
                        -----------------------------------------
Total Dipole Moment    :      1.25330       0.54467       1.31327
                        -----------------------------------------
Magnitude (a.u.)       :      1.89529
Magnitude (Debye)      :      4.81743

Rotational constants in cm-1:     0.162183     0.084017     0.082390
Rotational constants in MHz :  4862.117324  2518.774315  2469.980309

                             ****ORCA TERMINATED NORMALLY****
TOTAL RUN TIME: 0 days 0 hours 0 minutes 16 seconds 108 msec
