                         Program Version 5.0.0 -  RELEASE  -
|  1> !B3LYP D3BJ RIJCOSX def2-SVPD def2/J TightSCF
|  2> *xyz 1 1
|  3> C          3.38093        2.08304       -3.35013
|  4> N          4.53592        1.18245       -3.42852
|  5> C          2.49556        1.81615       -2.13636
|  6> C          4.67196        0.12227       -4.22060
|  7> N          5.86602       -0.50785       -4.22428
|  8> N          3.69888       -0.31284       -4.98699
|  9> H          2.73141       -0.05009       -4.84900
| 10> H          3.89005       -1.05517       -5.64373
| 11> H          5.25193        1.30346       -2.72101
| 12> H          6.69516       -0.06232       -3.85160
| 13> H          5.97538       -1.39688       -4.69141
| 14> H          2.80646        1.98651       -4.26848
| 15> H          3.77871        3.09828       -3.30738
| 16> H          2.11090        0.81901       -2.18783
| 17> H          1.68276        2.51198       -2.12786
| 18> H          3.07216        1.93031       -1.24227
| 19> *
| 20>
| 21> %MaxCore 64000
| 22>
| 23> %pal nprocs 4
| 24> end
| 25>
| 26> %scf
| 27>   MaxIter 150
| 28> end
| 29>
| 30>
| 31>                          ****END OF INPUT****

CARTESIAN COORDINATES (ANGSTROEM)
---------------------------------
  C      3.380930    2.083040   -3.350130
  N      4.535920    1.182450   -3.428520
  C      2.495560    1.816150   -2.136360
  C      4.671960    0.122270   -4.220600
  N      5.866020   -0.507850   -4.224280
  N      3.698880   -0.312840   -4.986990
  H      2.731410   -0.050090   -4.849000
  H      3.890050   -1.055170   -5.643730
  H      5.251930    1.303460   -2.721010
  H      6.695160   -0.062320   -3.851600
  H      5.975380   -1.396880   -4.691410
  H      2.806460    1.986510   -4.268480
  H      3.778710    3.098280   -3.307380
  H      2.110900    0.819010   -2.187830
  H      1.682760    2.511980   -2.127860
  H      3.072160    1.930310   -1.242270

 Total Charge           Charge          ....    1
 Multiplicity           Mult            ....    1
 Number of Electrons    NEL             ....   48
 Basis Dimension        Dim             ....  200

ORBITAL ENERGIES
----------------

  NO   OCC          E(Eh)            E(eV)
   0   2.0000     -14.557029      -396.1169
   1   2.0000     -14.551370      -395.9629
   2   2.0000     -14.548929      -395.8965
   3   2.0000     -10.518642      -286.2268
   4   2.0000     -10.389286      -282.7069
   5   2.0000     -10.319451      -280.8065
   6   2.0000      -1.204780       -32.7837
   7   2.0000      -1.096264       -29.8309
   8   2.0000      -1.080933       -29.4137
   9   2.0000      -0.924098       -25.1460
  10   2.0000      -0.838156       -22.8074
  11   2.0000      -0.799863       -21.7654
  12   2.0000      -0.787027       -21.4161
  13   2.0000      -0.741877       -20.1875
  14   2.0000      -0.697777       -18.9875
  15   2.0000      -0.694354       -18.8943
  16   2.0000      -0.643304       -17.5052
  17   2.0000      -0.630755       -17.1637
  18   2.0000      -0.603927       -16.4337
  19   2.0000      -0.558588       -15.1999
  20   2.0000      -0.530981       -14.4487
  21   2.0000      -0.515196       -14.0192
  22   2.0000      -0.479072       -13.0362
  23   2.0000      -0.448647       -12.2083
  24   0.0000      -0.171016        -4.6536
  25   0.0000      -0.154719        -4.2101
  26   0.0000      -0.122270        -3.3271
  27   0.0000      -0.113543        -3.0897
  28   0.0000      -0.093986        -2.5575

MULLIKEN ATOMIC CHARGES
-----------------------
   0 C :    0.520386
   1 N :   -0.385727
   2 C :    0.876332
   3 C :    1.337121
   4 N :    0.044059
   5 N :    0.092236
   6 H :   -0.101707
   7 H :   -0.117329
   8 H :   -0.282939
   9 H :   -0.112316
  10 H :   -0.065048
  11 H :   -0.203522
  12 H :   -0.287597
  13 H :   -0.150917
  14 H :   -0.044662
  15 H :   -0.118369
Sum of atomic charges:    1.0000000

LOEWDIN ATOMIC CHARGES
----------------------
   0 C :    0.050148
   1 N :    0.045903
   2 C :    0.167012
   3 C :   -0.037588
   4 N :    0.264119
   5 N :    0.283004
   6 H :    0.031621
   7 H :    0.040343
   8 H :    0.058622
   9 H :    0.034055
  10 H :    0.030861
  11 H :    0.018416
  12 H :    0.037901
  13 H :   -0.015932
  14 H :    0.000574
  15 H :   -0.009060

  Mayer bond orders larger than 0.100000
B(  0-C ,  1-N ) :   0.9243 B(  0-C ,  2-C ) :   1.2571 B(  0-C ,  8-H ) :  -0.2144
B(  0-C , 11-H ) :   0.8312 B(  0-C , 12-H ) :   0.8425 B(  0-C , 13-H ) :   0.2179
B(  0-C , 14-H ) :   0.1884 B(  0-C , 15-H ) :   0.2398 B(  1-N ,  3-C ) :   1.0087
B(  1-N ,  4-N ) :   0.2464 B(  1-N ,  5-N ) :   0.2476 B(  1-N ,  8-H ) :   1.3379
B(  1-N , 11-H ) :   0.1633 B(  1-N , 12-H ) :   0.1799 B(  2-C , 13-H ) :   0.7812
B(  2-C , 14-H ) :   0.7632 B(  2-C , 15-H ) :   0.7598 B(  3-C ,  4-N ) :   0.8408
B(  3-C ,  5-N ) :   0.9712 B(  3-C ,  6-H ) :  -0.1849 B(  3-C ,  7-H ) :  -0.1576
B(  3-C ,  8-H ) :  -0.2697 B(  3-C ,  9-H ) :  -0.1854 B(  3-C , 10-H ) :  -0.1093
B(  4-N ,  5-N ) :   0.1745 B(  4-N ,  9-H ) :   1.2201 B(  4-N , 10-H ) :   1.1842
B(  5-N ,  6-H ) :   1.1923 B(  5-N ,  7-H ) :   1.2454 B(  6-H ,  7-H ) :  -0.2003
B(  9-H , 10-H ) :  -0.1776

Dispersion correction           -0.019882208
FINAL SINGLE POINT ENERGY      -284.058703576596

DIPOLE MOMENT
-------------
                                X             Y             Z
Electronic contribution:      3.56010      -2.64707      -2.82075
Nuclear contribution   :     -2.93277       1.85779       2.25966
                        -----------------------------------------
Total Dipole Moment    :      0.62733      -0.78928      -0.56109
                        -----------------------------------------
Magnitude (a.u.)       :      1.15384
Magnitude (Debye)      :      2.93282

Rotational constants in cm-1:     0.245511     0.068839     0.059711
Rotational constants in MHz :  7360.233487  2063.743353  1790.088408

                             ****ORCA TERMINATED NORMALLY****
TOTAL RUN TIME: 0 days 0 hours 0 minutes 20 seconds 860 msec
