                         Program Version 5.0.0 -  RELEASE  -
|  1> !B3LYP D3BJ RIJCOSX def2-SVPD def2/J TightSCF
|  2> *xyz 0 1
|  3> C          2.49556        1.81615       -2.13636
|  4> C          1.87218        0.42790       -2.07750
|  5> H          2.61427       -0.36583       -2.19889
|  6> H          1.38995        0.27309       -1.11236
|  7> S          0.57902        0.14047       -3.29794
|  8> F          0.22886       -1.24687       -3.12787
|  9> O         -0.43927        1.11897       -3.01455
| 10> O          1.24788        0.40347       -4.59565
| 11> H          2.96535        1.95613       -3.08747
| 12> H          3.22581        1.91242       -1.36024
| 13> H          1.73350        2.55528       -2.00274
| 14> *
| 15>
| 16> %MaxCore 64000
| 17>
| 18> %pal nprocs 4
| 19> end
| 20>
| 21> %scf
| 22>   MaxIter 150
| 23> end
| 24>
| 25>
| 26>                          ****END OF INPUT****

CARTESIAN COORDINATES (ANGSTROEM)
---------------------------------
  C      2.495560    1.816150   -2.136360
  C      1.872180    0.427900   -2.077500
  H      2.614270   -0.365830   -2.198890
  H      1.389950    0.273090   -1.112360
  S      0.579020    0.140470   -3.297940
  F      0.228860   -1.246870   -3.127870
  O     -0.439270    1.118970   -3.014550
  O      1.247880    0.403470   -4.595650
  H      2.965350    1.956130   -3.087470
  H      3.225810    1.912420   -1.360240
  H      1.733500    2.555280   -2.002740

 Total Charge           Charge          ....    0
 Multiplicity           Mult            ....    1
 Number of Electrons    NEL             ....   58
 Basis Dimension        Dim             ....  176

ORBITAL ENERGIES
----------------

  NO   OCC          E(Eh)            E(eV)
   0   2.0000     -89.139571     -2425.6111
   1   2.0000     -24.818644      -675.3496
   2   2.0000     -19.155459      -521.2465
   3   2.0000     -19.140607      -520.8424
   4   2.0000     -10.246512      -278.8218
   5   2.0000     -10.203050      -277.6391
   6   2.0000      -8.194406      -222.9811
   7   2.0000      -6.167391      -167.8232
   8   2.0000      -6.161042      -167.6505
   9   2.0000      -6.159549      -167.6098
  10   2.0000      -1.380698       -37.5707
  11   2.0000      -1.111213       -30.2377
  12   2.0000      -1.004501       -27.3339
  13   2.0000      -0.818903       -22.2835
  14   2.0000      -0.740339       -20.1456
  15   2.0000      -0.676431       -18.4066
  16   2.0000      -0.593548       -16.1513
  17   2.0000      -0.591265       -16.0892
  18   2.0000      -0.558590       -15.2000
  19   2.0000      -0.496525       -13.5111
  20   2.0000      -0.487629       -13.2690
  21   2.0000      -0.448460       -12.2032
  22   2.0000      -0.434092       -11.8122
  23   2.0000      -0.412592       -11.2272
  24   2.0000      -0.390551       -10.6274
  25   2.0000      -0.389220       -10.5912
  26   2.0000      -0.338575        -9.2131
  27   2.0000      -0.324444        -8.8286
  28   2.0000      -0.308575        -8.3967
  29   0.0000      -0.007426        -0.2021
  30   0.0000       0.017930         0.4879
  31   0.0000       0.032958         0.8968
  32   0.0000       0.039054         1.0627
  33   0.0000       0.051365         1.3977

MULLIKEN ATOMIC CHARGES
-----------------------
   0 C :    0.979704
   1 C :   -0.219396
   2 H :   -0.108982
   3 H :   -0.067810
   4 S :    1.537511
   5 F :   -0.417982
   6 O :   -0.652477
   7 O :   -0.692906
   8 H :   -0.108329
   9 H :   -0.147318
  10 H :   -0.102015
Sum of atomic charges:    0.0000000

LOEWDIN ATOMIC CHARGES
----------------------
   0 C :    0.153069
   1 C :   -0.096791
   2 H :    0.020278
   3 H :    0.015530
   4 S :    1.122680
   5 F :   -0.256156
   6 O :   -0.460881
   7 O :   -0.481915
   8 H :   -0.005795
   9 H :   -0.005796
  10 H :   -0.004223

  Mayer bond orders larger than 0.100000
B(  0-C ,  1-C ) :   1.3335 B(  0-C ,  3-H ) :   0.1004 B(  0-C ,  8-H ) :   0.7831
B(  0-C ,  9-H ) :   0.6911 B(  0-C , 10-H ) :   0.7652 B(  1-C ,  2-H ) :   0.9607
B(  1-C ,  3-H ) :   0.9288 B(  1-C ,  4-S ) :   0.9528 B(  1-C ,  8-H ) :   0.2089
B(  1-C ,  9-H ) :   0.2410 B(  1-C , 10-H ) :   0.2161 B(  4-S ,  5-F ) :   0.6844
B(  4-S ,  6-O ) :   1.5053 B(  4-S ,  7-O ) :   1.4677

Dispersion correction           -0.016029955
FINAL SINGLE POINT ENERGY      -727.071735178870

DIPOLE MOMENT
-------------
                                X             Y             Z
Electronic contribution:     -6.78088      -6.38634      -4.05697
Nuclear contribution   :      7.60530       5.82028       5.38743
                        -----------------------------------------
Total Dipole Moment    :      0.82441      -0.56606       1.33046
                        -----------------------------------------
Magnitude (a.u.)       :      1.66439
Magnitude (Debye)      :      4.23055

Rotational constants in cm-1:     0.157861     0.081452     0.078859
Rotational constants in MHz :  4732.562506  2441.865430  2364.129821

                             ****ORCA TERMINATED NORMALLY****
TOTAL RUN TIME: 0 days 0 hours 0 minutes 15 seconds 521 msec
