                         Program Version 5.0.0 -  RELEASE  -
|  1> !B3LYP D3BJ RIJCOSX def2-SVPD def2/J TightSCF
|  2> *xyz 0 1
|  3> C          3.38093        2.08304       -3.35013
|  4> C          4.53592        1.18245       -3.42852
|  5> C          2.49556        1.81615       -2.13636
|  6> C          4.67196        0.12227       -4.22060
|  7> N          5.86602       -0.50785       -4.22428
|  8> N          3.69888       -0.31284       -4.98699
|  9> H          2.73141       -0.05009       -4.84900
| 10> H          3.89005       -1.05517       -5.64373
| 11> H          5.25193        1.30346       -2.72101
| 12> H          6.69516       -0.06232       -3.85160
| 13> H          5.97538       -1.39688       -4.69141
| 14> H          2.80646        1.98651       -4.26848
| 15> H          3.77871        3.09828       -3.30738
| 16> H          2.11090        0.81901       -2.18783
| 17> H          1.68276        2.51198       -2.12786
| 18> H          3.07216        1.93031       -1.24227
| 19> *
| 20>
| 21> %MaxCore 64000
| 22>
| 23> %pal nprocs 4
| 24> end
| 25>
| 26> %scf
| 27>   MaxIter 150
| 28> end
| 29>
| 30>
| 31>                          ****END OF INPUT****

CARTESIAN COORDINATES (ANGSTROEM)
---------------------------------
  C      3.380930    2.083040   -3.350130
  C      4.535920    1.182450   -3.428520
  C      2.495560    1.816150   -2.136360
  C      4.671960    0.122270   -4.220600
  N      5.866020   -0.507850   -4.224280
  N      3.698880   -0.312840   -4.986990
  H      2.731410   -0.050090   -4.849000
  H      3.890050   -1.055170   -5.643730
  H      5.251930    1.303460   -2.721010
  H      6.695160   -0.062320   -3.851600
  H      5.975380   -1.396880   -4.691410
  H      2.806460    1.986510   -4.268480
  H      3.778710    3.098280   -3.307380
  H      2.110900    0.819010   -2.187830
  H      1.682760    2.511980   -2.127860
  H      3.072160    1.930310   -1.242270

 Total Charge           Charge          ....    0
 Multiplicity           Mult            ....    1
 Number of Electrons    NEL             ....   48
 Basis Dimension        Dim             ....  200

ORBITAL ENERGIES
----------------

  NO   OCC          E(Eh)            E(eV)
   0   2.0000     -14.334011      -390.0483
   1   2.0000     -14.326296      -389.8383
   2   2.0000     -10.225479      -278.2494
   3   2.0000     -10.155912      -276.3564
   4   2.0000     -10.148519      -276.1553
   5   2.0000     -10.104854      -274.9671
   6   2.0000      -0.952063       -25.9069
   7   2.0000      -0.860344       -23.4111
   8   2.0000      -0.762897       -20.7595
   9   2.0000      -0.687463       -18.7068
  10   2.0000      -0.612018       -16.6539
  11   2.0000      -0.575583       -15.6624
  12   2.0000      -0.544225       -14.8091
  13   2.0000      -0.504755       -13.7351
  14   2.0000      -0.481418       -13.1000
  15   2.0000      -0.441323       -12.0090
  16   2.0000      -0.414820       -11.2878
  17   2.0000      -0.392274       -10.6743
  18   2.0000      -0.377829       -10.2812
  19   2.0000      -0.350390        -9.5346
  20   2.0000      -0.327202        -8.9036
  21   2.0000      -0.320750        -8.7280
  22   2.0000      -0.264827        -7.2063
  23   2.0000      -0.158205        -4.3050
  24   0.0000       0.011148         0.3033
  25   0.0000       0.035686         0.9711
  26   0.0000       0.050316         1.3692
  27   0.0000       0.061903         1.6845
  28   0.0000       0.076569         2.0836

MULLIKEN ATOMIC CHARGES
-----------------------
   0 C :    0.073071
   1 C :   -0.300129
   2 C :    0.846916
   3 C :    0.967978
   4 N :    0.093843
   5 N :    0.151273
   6 H :   -0.133302
   7 H :   -0.274157
   8 H :   -0.399356
   9 H :   -0.128133
  10 H :   -0.182428
  11 H :   -0.209482
  12 H :   -0.142700
  13 H :   -0.167033
  14 H :   -0.084064
  15 H :   -0.112294
Sum of atomic charges:   -0.0000000

LOEWDIN ATOMIC CHARGES
----------------------
   0 C :   -0.091263
   1 C :   -0.030050
   2 C :    0.121789
   3 C :   -0.224442
   4 N :    0.183292
   5 N :    0.199054
   6 H :   -0.000318
   7 H :   -0.009631
   8 H :   -0.051955
   9 H :    0.000001
  10 H :   -0.020493
  11 H :   -0.004088
  12 H :    0.008966
  13 H :   -0.027322
  14 H :   -0.030514
  15 H :   -0.023026

  Mayer bond orders larger than 0.100000
B(  0-C ,  1-C ) :   1.1626 B(  0-C ,  2-C ) :   1.2074 B(  0-C ,  8-H ) :   0.2702
B(  0-C , 11-H ) :   0.8169 B(  0-C , 12-H ) :   0.8052 B(  0-C , 13-H ) :   0.2167
B(  0-C , 14-H ) :   0.1898 B(  0-C , 15-H ) :   0.2366 B(  1-C ,  3-C ) :   1.5549
B(  1-C ,  4-N ) :   0.4611 B(  1-C ,  5-N ) :   0.2895 B(  1-C ,  8-H ) :   0.7968
B(  1-C , 11-H ) :   0.3066 B(  1-C , 12-H ) :   0.1731 B(  2-C , 13-H ) :   0.8069
B(  2-C , 14-H ) :   0.7720 B(  2-C , 15-H ) :   0.7617 B(  3-C ,  4-N ) :   0.7320
B(  3-C ,  5-N ) :   1.0082 B(  3-C ,  7-H ) :  -0.1814 B(  3-C ,  8-H ) :   0.1187
B(  3-C ,  9-H ) :  -0.1519 B(  3-C , 11-H ) :  -0.1261 B(  4-N ,  5-N ) :   0.1102
B(  4-N ,  9-H ) :   1.2261 B(  4-N , 10-H ) :   1.1674 B(  5-N ,  6-H ) :   1.1710
B(  5-N ,  7-H ) :   1.3190 B(  6-H ,  7-H ) :  -0.1916 B(  9-H , 10-H ) :  -0.1669

Dispersion correction           -0.020813658
FINAL SINGLE POINT ENERGY      -267.588556379070

DIPOLE MOMENT
-------------
                                X             Y             Z
Electronic contribution:      3.00175      -2.78500      -2.89231
Nuclear contribution   :     -2.84307       1.95814       2.32378
                        -----------------------------------------
Total Dipole Moment    :      0.15868      -0.82687      -0.56853
                        -----------------------------------------
Magnitude (a.u.)       :      1.01593
Magnitude (Debye)      :      2.58229

Rotational constants in cm-1:     0.248902     0.068887     0.059904
Rotational constants in MHz :  7461.898926  2065.183281  1795.882140

                             ****ORCA TERMINATED NORMALLY****
TOTAL RUN TIME: 0 days 0 hours 0 minutes 21 seconds 226 msec
