                         Program Version 5.0.0 -  RELEASE  -
|  1> !B3LYP D3BJ RIJCOSX def2-SVPD def2/J TightSCF
|  2> *xyz 0 1
|  3> C          2.49556        1.81615       -2.13636
|  4> C          1.87218        0.42790       -2.07750
|  5> H          2.61427       -0.36583       -2.19889
|  6> H          1.38995        0.27309       -1.11236
|  7> S          0.57902        0.14047       -3.29794
|  8> O          0.22886       -1.24687       -3.12787
|  9> F         -0.43927        1.11897       -3.01455
| 10> O          1.24788        0.40347       -4.59565
| 11> H          2.96535        1.95613       -3.08747
| 12> H          3.22581        1.91242       -1.36024
| 13> H          1.73350        2.55528       -2.00274
| 14> *
| 15>
| 16> %MaxCore 64000
| 17>
| 18> %pal nprocs 4
| 19> end
| 20>
| 21> %scf
| 22>   MaxIter 150
| 23> end
| 24>
| 25>
| 26>                          ****END OF INPUT****

CARTESIAN COORDINATES (ANGSTROEM)
---------------------------------
  C      2.495560    1.816150   -2.136360
  C      1.872180    0.427900   -2.077500
  H      2.614270   -0.365830   -2.198890
  H      1.389950    0.273090   -1.112360
  S      0.579020    0.140470   -3.297940
  O      0.228860   -1.246870   -3.127870
  F     -0.439270    1.118970   -3.014550
  O      1.247880    0.403470   -4.595650
  H      2.965350    1.956130   -3.087470
  H      3.225810    1.912420   -1.360240
  H      1.733500    2.555280   -2.002740

 Total Charge           Charge          ....    0
 Multiplicity           Mult            ....    1
 Number of Electrons    NEL             ....   58
 Basis Dimension        Dim             ....  176

ORBITAL ENERGIES
----------------

  NO   OCC          E(Eh)            E(eV)
   0   2.0000     -89.139765     -2425.6163
   1   2.0000     -24.818858      -675.3555
   2   2.0000     -19.155739      -521.2542
   3   2.0000     -19.141211      -520.8588
   4   2.0000     -10.246489      -278.8211
   5   2.0000     -10.206109      -277.7224
   6   2.0000      -8.194563      -222.9854
   7   2.0000      -6.167642      -167.8301
   8   2.0000      -6.161129      -167.6528
   9   2.0000      -6.159696      -167.6138
  10   2.0000      -1.381334       -37.5880
  11   2.0000      -1.110614       -30.2213
  12   2.0000      -1.005546       -27.3623
  13   2.0000      -0.821764       -22.3613
  14   2.0000      -0.737085       -20.0571
  15   2.0000      -0.679991       -18.5035
  16   2.0000      -0.602236       -16.3877
  17   2.0000      -0.592381       -16.1195
  18   2.0000      -0.551754       -15.0140
  19   2.0000      -0.496506       -13.5106
  20   2.0000      -0.484356       -13.1800
  21   2.0000      -0.457573       -12.4512
  22   2.0000      -0.437913       -11.9162
  23   2.0000      -0.412199       -11.2165
  24   2.0000      -0.401363       -10.9216
  25   2.0000      -0.382527       -10.4091
  26   2.0000      -0.337973        -9.1967
  27   2.0000      -0.324421        -8.8280
  28   2.0000      -0.310533        -8.4500
  29   0.0000      -0.011457        -0.3118
  30   0.0000       0.022866         0.6222
  31   0.0000       0.034121         0.9285
  32   0.0000       0.035822         0.9748
  33   0.0000       0.046380         1.2621

MULLIKEN ATOMIC CHARGES
-----------------------
   0 C :    1.008894
   1 C :   -0.195359
   2 H :   -0.115863
   3 H :   -0.082349
   4 S :    1.507180
   5 O :   -0.646317
   6 F :   -0.404198
   7 O :   -0.695451
   8 H :   -0.104026
   9 H :   -0.148339
  10 H :   -0.124173
Sum of atomic charges:   -0.0000000

LOEWDIN ATOMIC CHARGES
----------------------
   0 C :    0.138323
   1 C :   -0.085542
   2 H :    0.034790
   3 H :    0.015931
   4 S :    1.120201
   5 O :   -0.461292
   6 F :   -0.254387
   7 O :   -0.479848
   8 H :   -0.008213
   9 H :   -0.008086
  10 H :   -0.011876

  Mayer bond orders larger than 0.100000
B(  0-C ,  1-C ) :   1.2886 B(  0-C ,  8-H ) :   0.7909 B(  0-C ,  9-H ) :   0.6826
B(  0-C , 10-H ) :   0.7578 B(  1-C ,  2-H ) :   0.9762 B(  1-C ,  3-H ) :   0.9418
B(  1-C ,  4-S ) :   0.9790 B(  1-C ,  8-H ) :   0.2103 B(  1-C ,  9-H ) :   0.2398
B(  1-C , 10-H ) :   0.2134 B(  4-S ,  5-O ) :   1.5473 B(  4-S ,  6-F ) :   0.6681
B(  4-S ,  7-O ) :   1.4824

Dispersion correction           -0.015948362
FINAL SINGLE POINT ENERGY      -727.071595100367

DIPOLE MOMENT
-------------
                                X             Y             Z
Electronic contribution:     -7.89569      -2.39807      -3.86068
Nuclear contribution   :      8.30151       3.35500       5.26935
                        -----------------------------------------
Total Dipole Moment    :      0.40582       0.95693       1.40867
                        -----------------------------------------
Magnitude (a.u.)       :      1.75065
Magnitude (Debye)      :      4.44979

Rotational constants in cm-1:     0.152913     0.083043     0.080351
Rotational constants in MHz :  4584.227971  2489.580280  2408.872860

                             ****ORCA TERMINATED NORMALLY****
TOTAL RUN TIME: 0 days 0 hours 0 minutes 15 seconds 719 msec
