                         Program Version 5.0.0 -  RELEASE  -
|  1> !B3LYP D3BJ RIJCOSX def2-SVPD def2/J TightSCF
|  2> *xyz 0 1
|  3> C          3.38093        2.08304       -3.35013
|  4> N          4.53592        1.18245       -3.42852
|  5> C          2.49556        1.81615       -2.13636
|  6> C          4.67196        0.12227       -4.22060
|  7> C          5.86602       -0.50785       -4.22428
|  8> N          3.69888       -0.31284       -4.98699
|  9> H          2.73141       -0.05009       -4.84900
| 10> H          3.89005       -1.05517       -5.64373
| 11> H          5.25193        1.30346       -2.72101
| 12> H          6.69516       -0.06232       -3.85160
| 13> H          5.97538       -1.39688       -4.69141
| 14> H          2.80646        1.98651       -4.26848
| 15> H          3.77871        3.09828       -3.30738
| 16> H          2.11090        0.81901       -2.18783
| 17> H          1.68276        2.51198       -2.12786
| 18> H          3.07216        1.93031       -1.24227
| 19> *
| 20>
| 21> %MaxCore 64000
| 22>
| 23> %pal nprocs 4
| 24> end
| 25>
| 26> %scf
| 27>   MaxIter 150
| 28> end
| 29>
| 30>
| 31>                          ****END OF INPUT****

CARTESIAN COORDINATES (ANGSTROEM)
---------------------------------
  C      3.380930    2.083040   -3.350130
  N      4.535920    1.182450   -3.428520
  C      2.495560    1.816150   -2.136360
  C      4.671960    0.122270   -4.220600
  C      5.866020   -0.507850   -4.224280
  N      3.698880   -0.312840   -4.986990
  H      2.731410   -0.050090   -4.849000
  H      3.890050   -1.055170   -5.643730
  H      5.251930    1.303460   -2.721010
  H      6.695160   -0.062320   -3.851600
  H      5.975380   -1.396880   -4.691410
  H      2.806460    1.986510   -4.268480
  H      3.778710    3.098280   -3.307380
  H      2.110900    0.819010   -2.187830
  H      1.682760    2.511980   -2.127860
  H      3.072160    1.930310   -1.242270

 Total Charge           Charge          ....    0
 Multiplicity           Mult            ....    1
 Number of Electrons    NEL             ....   48
 Basis Dimension        Dim             ....  200

ORBITAL ENERGIES
----------------

  NO   OCC          E(Eh)            E(eV)
   0   2.0000     -14.333158      -390.0251
   1   2.0000     -14.328534      -389.8992
   2   2.0000     -10.228934      -278.3434
   3   2.0000     -10.222990      -278.1817
   4   2.0000     -10.177156      -276.9345
   5   2.0000     -10.091591      -274.6061
   6   2.0000      -0.958942       -26.0941
   7   2.0000      -0.878660       -23.9096
   8   2.0000      -0.764336       -20.7986
   9   2.0000      -0.689979       -18.7753
  10   2.0000      -0.622067       -16.9273
  11   2.0000      -0.600972       -16.3533
  12   2.0000      -0.543650       -14.7935
  13   2.0000      -0.497774       -13.5451
  14   2.0000      -0.481235       -13.0951
  15   2.0000      -0.446009       -12.1365
  16   2.0000      -0.428146       -11.6505
  17   2.0000      -0.402193       -10.9442
  18   2.0000      -0.388272       -10.5654
  19   2.0000      -0.369630       -10.0581
  20   2.0000      -0.363855        -9.9010
  21   2.0000      -0.352485        -9.5916
  22   2.0000      -0.254140        -6.9155
  23   2.0000      -0.156639        -4.2624
  24   0.0000       0.008290         0.2256
  25   0.0000       0.038895         1.0584
  26   0.0000       0.043732         1.1900
  27   0.0000       0.051933         1.4132
  28   0.0000       0.074522         2.0278

MULLIKEN ATOMIC CHARGES
-----------------------
   0 C :    0.517419
   1 N :   -0.266851
   2 C :    0.882139
   3 C :    0.705409
   4 C :    0.590088
   5 N :    0.213347
   6 H :   -0.220851
   7 H :   -0.142285
   8 H :   -0.332906
   9 H :   -0.491606
  10 H :   -0.471671
  11 H :   -0.237609
  12 H :   -0.352871
  13 H :   -0.173982
  14 H :   -0.071500
  15 H :   -0.146270
Sum of atomic charges:   -0.0000000

LOEWDIN ATOMIC CHARGES
----------------------
   0 C :    0.019465
   1 N :   -0.009230
   2 C :    0.137422
   3 C :   -0.239272
   4 C :    0.148189
   5 N :    0.197942
   6 H :   -0.015756
   7 H :    0.009110
   8 H :    0.033597
   9 H :   -0.112293
  10 H :   -0.116267
  11 H :    0.003681
  12 H :    0.012358
  13 H :   -0.023793
  14 H :   -0.022672
  15 H :   -0.022482

  Mayer bond orders larger than 0.100000
B(  0-C ,  1-N ) :   0.9258 B(  0-C ,  2-C ) :   1.2307 B(  0-C ,  8-H ) :  -0.2254
B(  0-C , 11-H ) :   0.8411 B(  0-C , 12-H ) :   0.8343 B(  0-C , 13-H ) :   0.2347
B(  0-C , 14-H ) :   0.2057 B(  0-C , 15-H ) :   0.2540 B(  1-N ,  3-C ) :   1.0262
B(  1-N ,  4-C ) :   0.2291 B(  1-N ,  5-N ) :   0.1884 B(  1-N ,  8-H ) :   1.2800
B(  1-N , 11-H ) :   0.1787 B(  1-N , 12-H ) :   0.1813 B(  2-C , 13-H ) :   0.7863
B(  2-C , 14-H ) :   0.7498 B(  2-C , 15-H ) :   0.7531 B(  3-C ,  4-C ) :   1.3393
B(  3-C ,  5-N ) :   1.0505 B(  3-C ,  6-H ) :  -0.1171 B(  3-C ,  8-H ) :  -0.2424
B(  3-C , 10-H ) :   0.2170 B(  4-C ,  5-N ) :   0.2087 B(  4-C ,  9-H ) :   0.8277
B(  4-C , 10-H ) :   0.6823 B(  5-N ,  6-H ) :   1.1939 B(  5-N ,  7-H ) :   1.2086
B(  6-H ,  7-H ) :  -0.1907

Dispersion correction           -0.020550625
FINAL SINGLE POINT ENERGY      -267.577800532675

DIPOLE MOMENT
-------------
                                X             Y             Z
Electronic contribution:      1.51763      -1.10653      -2.04731
Nuclear contribution   :     -2.56090       1.59955       2.15496
                        -----------------------------------------
Total Dipole Moment    :     -1.04327       0.49302       0.10766
                        -----------------------------------------
Magnitude (a.u.)       :      1.15891
Magnitude (Debye)      :      2.94572

Rotational constants in cm-1:     0.249834     0.071381     0.061833
Rotational constants in MHz :  7489.842787  2139.945635  1853.706310

                             ****ORCA TERMINATED NORMALLY****
TOTAL RUN TIME: 0 days 0 hours 0 minutes 21 seconds 140 msec
