                         Program Version 5.0.0 -  RELEASE  -
|  1> !B3LYP D3BJ RIJCOSX def2-SVPD def2/J TightSCF
|  2> *xyz 0 1
|  3> C          2.49556        1.81615       -2.13636
|  4> C          1.87218        0.42790       -2.07750
|  5> H          2.61427       -0.36583       -2.19889
|  6> H          1.38995        0.27309       -1.11236
|  7> S          0.57902        0.14047       -3.29794
|  8> O          0.22886       -1.24687       -3.12787
|  9> O         -0.43927        1.11897       -3.01455
| 10> F          1.24788        0.40347       -4.59565
| 11> H          2.96535        1.95613       -3.08747
| 12> H          3.22581        1.91242       -1.36024
| 13> H          1.73350        2.55528       -2.00274
| 14> *
| 15>
| 16> %MaxCore 64000
| 17>
| 18> %pal nprocs 4
| 19> end
| 20>
| 21> %scf
| 22>   MaxIter 150
| 23> end
| 24>
| 25>
| 26>                          ****END OF INPUT****

CARTESIAN COORDINATES (ANGSTROEM)
---------------------------------
  C      2.495560    1.816150   -2.136360
  C      1.872180    0.427900   -2.077500
  H      2.614270   -0.365830   -2.198890
  H      1.389950    0.273090   -1.112360
  S      0.579020    0.140470   -3.297940
  O      0.228860   -1.246870   -3.127870
  O     -0.439270    1.118970   -3.014550
  F      1.247880    0.403470   -4.595650
  H      2.965350    1.956130   -3.087470
  H      3.225810    1.912420   -1.360240
  H      1.733500    2.555280   -2.002740

 Total Charge           Charge          ....    0
 Multiplicity           Mult            ....    1
 Number of Electrons    NEL             ....   58
 Basis Dimension        Dim             ....  176

ORBITAL ENERGIES
----------------

  NO   OCC          E(Eh)            E(eV)
   0   2.0000     -89.137614     -2425.5578
   1   2.0000     -24.796913      -674.7583
   2   2.0000     -19.155453      -521.2464
   3   2.0000     -19.155165      -521.2385
   4   2.0000     -10.245242      -278.7872
   5   2.0000     -10.206550      -277.7344
   6   2.0000      -8.192333      -222.9247
   7   2.0000      -6.165166      -167.7627
   8   2.0000      -6.159189      -167.6000
   9   2.0000      -6.157655      -167.5583
  10   2.0000      -1.344545       -36.5869
  11   2.0000      -1.121098       -30.5066
  12   2.0000      -1.027191       -27.9513
  13   2.0000      -0.820785       -22.3347
  14   2.0000      -0.722322       -19.6554
  15   2.0000      -0.673372       -18.3234
  16   2.0000      -0.584886       -15.9155
  17   2.0000      -0.567371       -15.4389
  18   2.0000      -0.549389       -14.9496
  19   2.0000      -0.497947       -13.5498
  20   2.0000      -0.481399       -13.0995
  21   2.0000      -0.461152       -12.5486
  22   2.0000      -0.441688       -12.0189
  23   2.0000      -0.412909       -11.2358
  24   2.0000      -0.406570       -11.0633
  25   2.0000      -0.385129       -10.4799
  26   2.0000      -0.346125        -9.4185
  27   2.0000      -0.334687        -9.1073
  28   2.0000      -0.325643        -8.8612
  29   0.0000      -0.009251        -0.2517
  30   0.0000       0.025754         0.7008
  31   0.0000       0.034847         0.9482
  32   0.0000       0.038124         1.0374
  33   0.0000       0.047831         1.3016

MULLIKEN ATOMIC CHARGES
-----------------------
   0 C :    1.004688
   1 C :   -0.195001
   2 H :   -0.122217
   3 H :   -0.074428
   4 S :    1.513791
   5 O :   -0.658693
   6 O :   -0.667980
   7 F :   -0.423871
   8 H :   -0.129975
   9 H :   -0.150081
  10 H :   -0.096234
Sum of atomic charges:    0.0000000

LOEWDIN ATOMIC CHARGES
----------------------
   0 C :    0.138099
   1 C :   -0.084944
   2 H :    0.022183
   3 H :    0.029782
   4 S :    1.117567
   5 O :   -0.461714
   6 O :   -0.459668
   7 F :   -0.272838
   8 H :   -0.012857
   9 H :   -0.008076
  10 H :   -0.007534

  Mayer bond orders larger than 0.100000
B(  0-C ,  1-C ) :   1.2873 B(  0-C ,  8-H ) :   0.7759 B(  0-C ,  9-H ) :   0.6837
B(  0-C , 10-H ) :   0.7739 B(  1-C ,  2-H ) :   0.9792 B(  1-C ,  3-H ) :   0.9419
B(  1-C ,  4-S ) :   0.9794 B(  1-C ,  8-H ) :   0.2033 B(  1-C ,  9-H ) :   0.2414
B(  1-C , 10-H ) :   0.2171 B(  4-S ,  5-O ) :   1.5427 B(  4-S ,  6-O ) :   1.5138
B(  4-S ,  7-F ) :   0.6236 B(  5-O ,  6-O ) :   0.1031

Dispersion correction           -0.015943738
FINAL SINGLE POINT ENERGY      -727.090464976655

DIPOLE MOMENT
-------------
                                X             Y             Z
Electronic contribution:     -5.04375      -3.59628      -6.54081
Nuclear contribution   :      6.54345       4.10057       6.91691
                        -----------------------------------------
Total Dipole Moment    :      1.49970       0.50430       0.37609
                        -----------------------------------------
Magnitude (a.u.)       :      1.62630
Magnitude (Debye)      :      4.13373

Rotational constants in cm-1:     0.152835     0.082826     0.080611
Rotational constants in MHz :  4581.878371  2483.049050  2416.647141

                             ****ORCA TERMINATED NORMALLY****
TOTAL RUN TIME: 0 days 0 hours 0 minutes 15 seconds 664 msec
