                         Program Version 5.0.0 -  RELEASE  -
|  1> !B3LYP D3BJ RIJCOSX def2-SVPD def2/J TightSCF
|  2> *xyz 0 1
|  3> C          3.38093        2.08304       -3.35013
|  4> N          4.53592        1.18245       -3.42852
|  5> C          2.49556        1.81615       -2.13636
|  6> C          4.67196        0.12227       -4.22060
|  7> N          5.86602       -0.50785       -4.22428
|  8> C          3.69888       -0.31284       -4.98699
|  9> H          2.73141       -0.05009       -4.84900
| 10> H          3.89005       -1.05517       -5.64373
| 11> H          5.25193        1.30346       -2.72101
| 12> H          6.69516       -0.06232       -3.85160
| 13> H          5.97538       -1.39688       -4.69141
| 14> H          2.80646        1.98651       -4.26848
| 15> H          3.77871        3.09828       -3.30738
| 16> H          2.11090        0.81901       -2.18783
| 17> H          1.68276        2.51198       -2.12786
| 18> H          3.07216        1.93031       -1.24227
| 19> *
| 20>
| 21> %MaxCore 64000
| 22>
| 23> %pal nprocs 4
| 24> end
| 25>
| 26> %scf
| 27>   MaxIter 150
| 28> end
| 29>
| 30>
| 31>                          ****END OF INPUT****

CARTESIAN COORDINATES (ANGSTROEM)
---------------------------------
  C      3.380930    2.083040   -3.350130
  N      4.535920    1.182450   -3.428520
  C      2.495560    1.816150   -2.136360
  C      4.671960    0.122270   -4.220600
  N      5.866020   -0.507850   -4.224280
  C      3.698880   -0.312840   -4.986990
  H      2.731410   -0.050090   -4.849000
  H      3.890050   -1.055170   -5.643730
  H      5.251930    1.303460   -2.721010
  H      6.695160   -0.062320   -3.851600
  H      5.975380   -1.396880   -4.691410
  H      2.806460    1.986510   -4.268480
  H      3.778710    3.098280   -3.307380
  H      2.110900    0.819010   -2.187830
  H      1.682760    2.511980   -2.127860
  H      3.072160    1.930310   -1.242270

 Total Charge           Charge          ....    0
 Multiplicity           Mult            ....    1
 Number of Electrons    NEL             ....   48
 Basis Dimension        Dim             ....  200

ORBITAL ENERGIES
----------------

  NO   OCC          E(Eh)            E(eV)
   0   2.0000     -14.329105      -389.9148
   1   2.0000     -14.326535      -389.8448
   2   2.0000     -10.226631      -278.2808
   3   2.0000     -10.214892      -277.9614
   4   2.0000     -10.169841      -276.7354
   5   2.0000     -10.096458      -274.7386
   6   2.0000      -0.952584       -25.9211
   7   2.0000      -0.869486       -23.6599
   8   2.0000      -0.749618       -20.3981
   9   2.0000      -0.704964       -19.1830
  10   2.0000      -0.634074       -17.2540
  11   2.0000      -0.562040       -15.2939
  12   2.0000      -0.544033       -14.8039
  13   2.0000      -0.513500       -13.9731
  14   2.0000      -0.458940       -12.4884
  15   2.0000      -0.448389       -12.2013
  16   2.0000      -0.419600       -11.4179
  17   2.0000      -0.403628       -10.9833
  18   2.0000      -0.380060       -10.3420
  19   2.0000      -0.376180       -10.2364
  20   2.0000      -0.354271        -9.6402
  21   2.0000      -0.349198        -9.5022
  22   2.0000      -0.246791        -6.7155
  23   2.0000      -0.169252        -4.6056
  24   0.0000       0.014570         0.3965
  25   0.0000       0.034935         0.9506
  26   0.0000       0.049359         1.3431
  27   0.0000       0.055872         1.5203
  28   0.0000       0.078706         2.1417

MULLIKEN ATOMIC CHARGES
-----------------------
   0 C :    0.489201
   1 N :   -0.332439
   2 C :    0.862119
   3 C :    0.924282
   4 N :    0.146339
   5 C :    0.294763
   6 H :   -0.289188
   7 H :   -0.513898
   8 H :   -0.408132
   9 H :   -0.240743
  10 H :   -0.078964
  11 H :   -0.125773
  12 H :   -0.344308
  13 H :   -0.165790
  14 H :   -0.082082
  15 H :   -0.135386
Sum of atomic charges:   -0.0000000

LOEWDIN ATOMIC CHARGES
----------------------
   0 C :    0.028361
   1 N :   -0.018805
   2 C :    0.140863
   3 C :   -0.238795
   4 N :    0.186189
   5 C :    0.157263
   6 H :   -0.106229
   7 H :   -0.102847
   8 H :    0.018287
   9 H :   -0.017034
  10 H :   -0.001703
  11 H :    0.010001
  12 H :    0.012711
  13 H :   -0.020262
  14 H :   -0.022051
  15 H :   -0.025950

  Mayer bond orders larger than 0.100000
B(  0-C ,  1-N ) :   0.9101 B(  0-C ,  2-C ) :   1.2310 B(  0-C ,  8-H ) :  -0.2049
B(  0-C , 11-H ) :   0.8453 B(  0-C , 12-H ) :   0.8472 B(  0-C , 13-H ) :   0.2231
B(  0-C , 14-H ) :   0.2058 B(  0-C , 15-H ) :   0.2309 B(  1-N ,  3-C ) :   0.9115
B(  1-N ,  4-N ) :   0.1672 B(  1-N ,  5-C ) :   0.3819 B(  1-N ,  8-H ) :   1.3678
B(  1-N , 11-H ) :   0.1437 B(  1-N , 12-H ) :   0.1767 B(  2-C , 13-H ) :   0.8019
B(  2-C , 14-H ) :   0.7558 B(  2-C , 15-H ) :   0.7695 B(  3-C ,  4-N ) :   0.9152
B(  3-C ,  5-C ) :   1.4328 B(  3-C ,  6-H ) :   0.1280 B(  3-C ,  7-H ) :   0.1710
B(  3-C ,  8-H ) :  -0.2980 B(  3-C ,  9-H ) :  -0.1315 B(  4-N ,  5-C ) :   0.2972
B(  4-N ,  9-H ) :   1.2326 B(  4-N , 10-H ) :   1.1526 B(  5-C ,  6-H ) :   0.6826
B(  5-C ,  7-H ) :   0.8234 B(  9-H , 10-H ) :  -0.1745

Dispersion correction           -0.020679111
FINAL SINGLE POINT ENERGY      -267.582641606668

DIPOLE MOMENT
-------------
                                X             Y             Z
Electronic contribution:      3.65718      -1.32648      -1.36376
Nuclear contribution   :     -3.02065       1.64092       1.99316
                        -----------------------------------------
Total Dipole Moment    :      0.63654       0.31444       0.62939
                        -----------------------------------------
Magnitude (a.u.)       :      0.94878
Magnitude (Debye)      :      2.41162

Rotational constants in cm-1:     0.259304     0.069422     0.060943
Rotational constants in MHz :  7773.747720  2081.225169  1827.013389

                             ****ORCA TERMINATED NORMALLY****
TOTAL RUN TIME: 0 days 0 hours 0 minutes 21 seconds 312 msec
