                         Program Version 5.0.0 -  RELEASE  -
|  1> !B3LYP D3BJ RIJCOSX def2-SVPD def2/J TightSCF xyzfile
|  2>
|  3> *xyzfile 0 1 D3.xyz
|  4>
|  5> %MaxCore 64000
|  6>
|  7> %pal nprocs 4
|  8> end
|  9>
| 10> %scf
| 11>   MaxIter 150
| 12> end
| 13>
| 14>
| 15>                          ****END OF INPUT****

CARTESIAN COORDINATES (ANGSTROEM)
---------------------------------
  C      3.380928    2.083045   -3.350127
  N      4.535924    1.182447   -3.428518
  C      2.495557    1.816150   -2.136364
  C      1.872181    0.427903   -2.077497
  H      2.614270   -0.365825   -2.198894
  H      1.389953    0.273087   -1.112360
  S      0.579024    0.140472   -3.297943
  C      4.671956    0.122273   -4.220598
  N      5.866023   -0.507849   -4.224284
  C      3.698881   -0.312844   -4.986988
  H      2.731405   -0.050091   -4.849000
  H      3.890046   -1.055172   -5.643730
  H      5.251933    1.303459   -2.721014
  H      6.695165   -0.062322   -3.851596
  H      5.975383   -1.396884   -4.691414
  F      0.228860   -1.246868   -3.127871
  O     -0.439269    1.118966   -3.014550
  O      1.247881    0.403474   -4.595647
  H      1.697003    2.561969   -2.141109
  H      3.080787    1.987436   -1.225838
  H      2.806463    1.986511   -4.268484
  H      3.778714    3.098282   -3.307383

 Total Charge           Charge          ....    0
 Multiplicity           Mult            ....    1
 Number of Electrons    NEL             ....   96
 Basis Dimension        Dim             ....  324

ORBITAL ENERGIES
----------------

  NO   OCC          E(Eh)            E(eV)
   0   2.0000     -89.141524     -2425.6642
   1   2.0000     -24.817835      -675.3276
   2   2.0000     -19.155479      -521.2471
   3   2.0000     -19.139723      -520.8183
   4   2.0000     -14.331976      -389.9929
   5   2.0000     -14.323008      -389.7489
   6   2.0000     -10.242359      -278.7088
   7   2.0000     -10.220347      -278.1098
   8   2.0000     -10.219934      -278.0985
   9   2.0000     -10.213185      -277.9149
  10   2.0000     -10.074910      -274.1522
  11   2.0000      -8.195451      -223.0095
  12   2.0000      -6.168460      -167.8523
  13   2.0000      -6.162316      -167.6851
  14   2.0000      -6.160540      -167.6368
  15   2.0000      -1.379436       -37.5364
  16   2.0000      -1.113086       -30.2886
  17   2.0000      -1.010083       -27.4858
  18   2.0000      -0.952761       -25.9259
  19   2.0000      -0.871812       -23.7232
  20   2.0000      -0.819833       -22.3088
  21   2.0000      -0.753160       -20.4945
  22   2.0000      -0.714982       -19.4557
  23   2.0000      -0.692521       -18.8444
  24   2.0000      -0.643200       -17.5024
  25   2.0000      -0.593451       -16.1486
  26   2.0000      -0.588448       -16.0125
  27   2.0000      -0.573176       -15.5969
  28   2.0000      -0.555603       -15.1187
  29   2.0000      -0.538034       -14.6406
  30   2.0000      -0.517344       -14.0776
  31   2.0000      -0.495470       -13.4824
  32   2.0000      -0.492749       -13.4084
  33   2.0000      -0.459088       -12.4924
  34   2.0000      -0.455120       -12.3844
  35   2.0000      -0.450128       -12.2486
  36   2.0000      -0.408724       -11.1220
  37   2.0000      -0.399993       -10.8844
  38   2.0000      -0.392583       -10.6827
  39   2.0000      -0.384754       -10.4697
  40   2.0000      -0.379987       -10.3400
  41   2.0000      -0.370924       -10.0934
  42   2.0000      -0.350899        -9.5484
  43   2.0000      -0.337814        -9.1924
  44   2.0000      -0.320855        -8.7309
  45   2.0000      -0.283607        -7.7173
  46   2.0000      -0.248848        -6.7715
  47   2.0000      -0.163142        -4.4393
  48   0.0000      -0.003322        -0.0904
  49   0.0000       0.007632         0.2077
  50   0.0000       0.024732         0.6730
  51   0.0000       0.032047         0.8720
  52   0.0000       0.048886         1.3303

MULLIKEN ATOMIC CHARGES
-----------------------
   0 C :    1.130014
   1 N :   -0.473387
   2 C :    0.295034
   3 C :    0.304492
   4 H :    0.026850
   5 H :   -0.232169
   6 S :    1.587450
   7 C :    0.920061
   8 N :    0.148833
   9 C :    0.858345
  10 H :   -0.820754
  11 H :   -0.467987
  12 H :   -0.347154
  13 H :   -0.207159
  14 H :   -0.069006
  15 F :   -0.426648
  16 O :   -0.702213
  17 O :   -0.848624
  18 H :   -0.095455
  19 H :   -0.120580
  20 H :   -0.040100
  21 H :   -0.419843
Sum of atomic charges:    0.0000000

LOEWDIN ATOMIC CHARGES
----------------------
   0 C :    0.088789
   1 N :   -0.011307
   2 C :   -0.001193
   3 C :   -0.035279
   4 H :    0.016113
   5 H :    0.015645
   6 S :    1.167213
   7 C :   -0.233695
   8 N :    0.182805
   9 C :    0.192669
  10 H :   -0.213691
  11 H :   -0.089430
  12 H :    0.017262
  13 H :   -0.020707
  14 H :   -0.002969
  15 F :   -0.245195
  16 O :   -0.453997
  17 O :   -0.463192
  18 H :    0.028969
  19 H :    0.030259
  20 H :    0.009008
  21 H :    0.021924

  Mayer bond orders larger than 0.100000
B(  0-C ,  1-N ) :   0.8939 B(  0-C ,  2-C ) :   1.0584 B(  0-C , 12-H ) :  -0.1821
B(  0-C , 18-H ) :   0.1547 B(  0-C , 19-H ) :   0.1329 B(  0-C , 20-H ) :   0.6822
B(  0-C , 21-H ) :   0.7665 B(  1-N ,  2-C ) :   0.1029 B(  1-N ,  7-C ) :   0.8823
B(  1-N ,  8-N ) :   0.1869 B(  1-N ,  9-C ) :   0.3095 B(  1-N , 12-H ) :   1.4015
B(  1-N , 20-H ) :   0.1992 B(  1-N , 21-H ) :   0.1627 B(  2-C ,  3-C ) :   1.2576
B(  2-C ,  4-H ) :   0.1620 B(  2-C ,  5-H ) :   0.2082 B(  2-C , 18-H ) :   0.8109
B(  2-C , 19-H ) :   0.7427 B(  2-C , 20-H ) :   0.1519 B(  3-C ,  4-H ) :   0.9184
B(  3-C ,  5-H ) :   0.6880 B(  3-C ,  6-S ) :   0.9413 B(  3-C , 17-O ) :   0.1581
B(  3-C , 18-H ) :   0.1501 B(  3-C , 19-H ) :   0.1481 B(  6-S , 15-F ) :   0.6296
B(  6-S , 16-O ) :   1.4960 B(  6-S , 17-O ) :   1.3963 B(  7-C ,  8-N ) :   0.9035
B(  7-C ,  9-C ) :   1.6830 B(  7-C , 10-H ) :  -0.1444 B(  7-C , 11-H ) :   0.4012
B(  7-C , 12-H ) :  -0.3097 B(  7-C , 20-H ) :  -0.1092 B(  8-N ,  9-C ) :   0.3837
B(  8-N , 11-H ) :   0.1132 B(  8-N , 13-H ) :   1.1845 B(  8-N , 14-H ) :   1.1523
B(  9-C , 11-H ) :   0.6267 B( 10-H , 17-O ) :   0.1435 B( 10-H , 20-H ) :   0.1074
B( 13-H , 14-H ) :  -0.1778 B( 17-O , 20-H ) :   0.1005 B( 20-H , 21-H ) :  -0.1987

Dispersion correction           -0.042328389
FINAL SINGLE POINT ENERGY      -954.182918721106

DIPOLE MOMENT
-------------
                                X             Y             Z
Electronic contribution:    -14.65464      -5.46965       0.05367
Nuclear contribution   :     15.84345       5.19593       1.66752
                        -----------------------------------------
Total Dipole Moment    :      1.18881      -0.27371       1.72119
                        -----------------------------------------
Magnitude (a.u.)       :      2.10967
Magnitude (Debye)      :      5.36235

Rotational constants in cm-1:     0.059060     0.020573     0.017713
Rotational constants in MHz :  1770.576058   616.749938   531.036486

                             ****ORCA TERMINATED NORMALLY****
TOTAL RUN TIME: 0 days 0 hours 1 minutes 32 seconds 591 msec
