                         Program Version 5.0.0 -  RELEASE  -
|  1> !B3LYP D3BJ RIJCOSX def2-SVPD def2/J TightSCF xyzfile
|  2>
|  3> *xyzfile 0 1 D4.xyz
|  4>
|  5> %MaxCore 64000
|  6>
|  7> %pal nprocs 4
|  8> end
|  9>
| 10> %scf
| 11>   MaxIter 150
| 12> end
| 13>
| 14>
| 15>                          ****END OF INPUT****

CARTESIAN COORDINATES (ANGSTROEM)
---------------------------------
  C      3.380928    2.083045   -3.350127
  C      4.535924    1.182447   -3.428518
  C      2.495557    1.816150   -2.136364
  C      1.872181    0.427903   -2.077497
  H      2.614270   -0.365825   -2.198894
  H      1.389953    0.273087   -1.112360
  S      0.579024    0.140472   -3.297943
  C      4.671956    0.122273   -4.220598
  N      5.866023   -0.507849   -4.224284
  N      3.698881   -0.312844   -4.986988
  H      2.731405   -0.050091   -4.849000
  H      3.890046   -1.055172   -5.643730
  H      5.251933    1.303459   -2.721014
  H      6.695165   -0.062322   -3.851596
  H      5.975383   -1.396884   -4.691414
  O      0.228860   -1.246868   -3.127871
  F     -0.439269    1.118966   -3.014550
  O      1.247881    0.403474   -4.595647
  H      1.697003    2.561969   -2.141109
  H      3.080787    1.987436   -1.225838
  H      2.806463    1.986511   -4.268484
  H      3.778714    3.098282   -3.307383

 Total Charge           Charge          ....    0
 Multiplicity           Mult            ....    1
 Number of Electrons    NEL             ....   96
 Basis Dimension        Dim             ....  324

ORBITAL ENERGIES
----------------

  NO   OCC          E(Eh)            E(eV)
   0   2.0000     -89.149990     -2425.8946
   1   2.0000     -24.825128      -675.5261
   2   2.0000     -19.163045      -521.4530
   3   2.0000     -19.156353      -521.2709
   4   2.0000     -14.323854      -389.7719
   5   2.0000     -14.306638      -389.3034
   6   2.0000     -10.237531      -278.5774
   7   2.0000     -10.223581      -278.1978
   8   2.0000     -10.196215      -277.4531
   9   2.0000     -10.161914      -276.5197
  10   2.0000     -10.105070      -274.9729
  11   2.0000      -8.204021      -223.2428
  12   2.0000      -6.177088      -168.0871
  13   2.0000      -6.171059      -167.9231
  14   2.0000      -6.168817      -167.8620
  15   2.0000      -1.387008       -37.7424
  16   2.0000      -1.122216       -30.5371
  17   2.0000      -1.023088       -27.8396
  18   2.0000      -0.942812       -25.6552
  19   2.0000      -0.850949       -23.1555
  20   2.0000      -0.824355       -22.4318
  21   2.0000      -0.760751       -20.7011
  22   2.0000      -0.726700       -19.7745
  23   2.0000      -0.681388       -18.5415
  24   2.0000      -0.626683       -17.0529
  25   2.0000      -0.606274       -16.4976
  26   2.0000      -0.594399       -16.1744
  27   2.0000      -0.581970       -15.8362
  28   2.0000      -0.549956       -14.9651
  29   2.0000      -0.533586       -14.5196
  30   2.0000      -0.515962       -14.0400
  31   2.0000      -0.489389       -13.3170
  32   2.0000      -0.484274       -13.1778
  33   2.0000      -0.477818       -13.0021
  34   2.0000      -0.456554       -12.4235
  35   2.0000      -0.443189       -12.0598
  36   2.0000      -0.413964       -11.2645
  37   2.0000      -0.403435       -10.9780
  38   2.0000      -0.400189       -10.8897
  39   2.0000      -0.380664       -10.3584
  40   2.0000      -0.360394        -9.8068
  41   2.0000      -0.351227        -9.5574
  42   2.0000      -0.343585        -9.3494
  43   2.0000      -0.337397        -9.1810
  44   2.0000      -0.327891        -8.9224
  45   2.0000      -0.310770        -8.4565
  46   2.0000      -0.254383        -6.9221
  47   2.0000      -0.159420        -4.3380
  48   0.0000      -0.009803        -0.2668
  49   0.0000       0.021749         0.5918
  50   0.0000       0.022943         0.6243
  51   0.0000       0.036956         1.0056
  52   0.0000       0.039136         1.0649

MULLIKEN ATOMIC CHARGES
-----------------------
   0 C :    0.605302
   1 C :   -0.124495
   2 C :    0.390666
   3 C :    0.240955
   4 H :    0.003705
   5 H :   -0.184238
   6 S :    1.633897
   7 C :    0.864451
   8 N :    0.086920
   9 N :    0.628890
  10 H :   -0.402379
  11 H :   -0.309456
  12 H :   -0.456755
  13 H :   -0.155479
  14 H :   -0.173678
  15 O :   -0.654450
  16 F :   -0.480057
  17 O :   -0.868721
  18 H :   -0.099362
  19 H :   -0.119213
  20 H :   -0.187937
  21 H :   -0.238567
Sum of atomic charges:    0.0000000

LOEWDIN ATOMIC CHARGES
----------------------
   0 C :   -0.035518
   1 C :   -0.023320
   2 C :   -0.027818
   3 C :   -0.027823
   4 H :    0.029515
   5 H :    0.016660
   6 S :    1.171023
   7 C :   -0.212625
   8 N :    0.186292
   9 N :    0.237140
  10 H :   -0.137851
  11 H :   -0.001210
  12 H :   -0.055885
  13 H :   -0.002027
  14 H :   -0.018375
  15 O :   -0.447897
  16 F :   -0.243338
  17 O :   -0.460372
  18 H :    0.015796
  19 H :    0.031606
  20 H :   -0.008794
  21 H :    0.014821

  Mayer bond orders larger than 0.100000
B(  0-C ,  1-C ) :   1.0772 B(  0-C ,  2-C ) :   1.1189 B(  0-C , 12-H ) :   0.2554
B(  0-C , 18-H ) :   0.1899 B(  0-C , 19-H ) :   0.1785 B(  0-C , 20-H ) :   0.7359
B(  0-C , 21-H ) :   0.6699 B(  1-C ,  2-C ) :   0.1469 B(  1-C ,  7-C ) :   1.5225
B(  1-C ,  8-N ) :   0.4118 B(  1-C ,  9-N ) :   0.2174 B(  1-C , 10-H ) :  -0.1186
B(  1-C , 12-H ) :   0.7377 B(  1-C , 20-H ) :   0.3323 B(  1-C , 21-H ) :   0.1472
B(  2-C ,  3-C ) :   1.2269 B(  2-C ,  4-H ) :   0.1566 B(  2-C ,  5-H ) :   0.1804
B(  2-C , 18-H ) :   0.7350 B(  2-C , 19-H ) :   0.7078 B(  2-C , 20-H ) :   0.1747
B(  2-C , 21-H ) :   0.1246 B(  3-C ,  4-H ) :   0.9428 B(  3-C ,  5-H ) :   0.7286
B(  3-C ,  6-S ) :   0.9531 B(  3-C , 17-O ) :   0.1391 B(  3-C , 18-H ) :   0.1641
B(  3-C , 19-H ) :   0.1517 B(  5-H ,  6-S ) :   0.1091 B(  6-S , 15-O ) :   1.5249
B(  6-S , 16-F ) :   0.5995 B(  6-S , 17-O ) :   1.3417 B(  7-C ,  8-N ) :   0.7610
B(  7-C ,  9-N ) :   1.0759 B(  7-C , 10-H ) :  -0.1167 B(  7-C , 11-H ) :  -0.2014
B(  7-C , 12-H ) :   0.1286 B(  7-C , 13-H ) :  -0.1890 B(  7-C , 20-H ) :  -0.1539
B(  8-N ,  9-N ) :   0.1010 B(  8-N , 12-H ) :   0.1166 B(  8-N , 13-H ) :   1.2572
B(  8-N , 14-H ) :   1.1657 B(  9-N , 10-H ) :   1.0842 B(  9-N , 11-H ) :   1.2027
B( 10-H , 11-H ) :  -0.2069 B( 10-H , 17-O ) :   0.1479 B( 13-H , 14-H ) :  -0.1697

Dispersion correction           -0.042312235
FINAL SINGLE POINT ENERGY      -954.215659266011

DIPOLE MOMENT
-------------
                                X             Y             Z
Electronic contribution:    -16.35603      -2.64609      -0.95618
Nuclear contribution   :     16.65743       2.74852       1.69529
                        -----------------------------------------
Total Dipole Moment    :      0.30140       0.10243       0.73910
                        -----------------------------------------
Magnitude (a.u.)       :      0.80474
Magnitude (Debye)      :      2.04549

Rotational constants in cm-1:     0.059907     0.020458     0.017675
Rotational constants in MHz :  1795.978106   613.328205   529.885290

                             ****ORCA TERMINATED NORMALLY****
TOTAL RUN TIME: 0 days 0 hours 1 minutes 33 seconds 392 msec
