                         Program Version 5.0.0 -  RELEASE  -
|  1> !B3LYP D3BJ RIJCOSX def2-SVPD def2/J TightSCF xyzfile
|  2>
|  3> *xyzfile 0 1 D6.xyz
|  4>
|  5> %MaxCore 64000
|  6>
|  7> %pal nprocs 4
|  8> end
|  9>
| 10> %scf
| 11>   MaxIter 150
| 12> end
| 13>
| 14>
| 15>                          ****END OF INPUT****

CARTESIAN COORDINATES (ANGSTROEM)
---------------------------------
  C      3.380928    2.083045   -3.350127
  N      4.535924    1.182447   -3.428518
  C      2.495557    1.816150   -2.136364
  C      1.872181    0.427903   -2.077497
  H      2.614270   -0.365825   -2.198894
  H      1.389953    0.273087   -1.112360
  S      0.579024    0.140472   -3.297943
  C      4.671956    0.122273   -4.220598
  N      5.866023   -0.507849   -4.224284
  C      3.698881   -0.312844   -4.986988
  H      2.731405   -0.050091   -4.849000
  H      3.890046   -1.055172   -5.643730
  H      5.251933    1.303459   -2.721014
  H      6.695165   -0.062322   -3.851596
  H      5.975383   -1.396884   -4.691414
  O      0.228860   -1.246868   -3.127871
  F     -0.439269    1.118966   -3.014550
  O      1.247881    0.403474   -4.595647
  H      1.697003    2.561969   -2.141109
  H      3.080787    1.987436   -1.225838
  H      2.806463    1.986511   -4.268484
  H      3.778714    3.098282   -3.307383

 Total Charge           Charge          ....    0
 Multiplicity           Mult            ....    1
 Number of Electrons    NEL             ....   96
 Basis Dimension        Dim             ....  324

ORBITAL ENERGIES
----------------

  NO   OCC          E(Eh)            E(eV)
   0   2.0000     -89.140434     -2425.6345
   1   2.0000     -24.817788      -675.3263
   2   2.0000     -19.154783      -521.2281
   3   2.0000     -19.141211      -520.8588
   4   2.0000     -14.332345      -390.0029
   5   2.0000     -14.321478      -389.7072
   6   2.0000     -10.242239      -278.7055
   7   2.0000     -10.222474      -278.1676
   8   2.0000     -10.218427      -278.0575
   9   2.0000     -10.215801      -277.9861
  10   2.0000     -10.074532      -274.1420
  11   2.0000      -8.194432      -222.9818
  12   2.0000      -6.167560      -167.8278
  13   2.0000      -6.161206      -167.6549
  14   2.0000      -6.159499      -167.6085
  15   2.0000      -1.380060       -37.5534
  16   2.0000      -1.111627       -30.2489
  17   2.0000      -1.010407       -27.4946
  18   2.0000      -0.952340       -25.9145
  19   2.0000      -0.871551       -23.7161
  20   2.0000      -0.822415       -22.3791
  21   2.0000      -0.750048       -20.4098
  22   2.0000      -0.717074       -19.5126
  23   2.0000      -0.692332       -18.8393
  24   2.0000      -0.643185       -17.5020
  25   2.0000      -0.601140       -16.3579
  26   2.0000      -0.593261       -16.1435
  27   2.0000      -0.568085       -15.4584
  28   2.0000      -0.554837       -15.0979
  29   2.0000      -0.534512       -14.5448
  30   2.0000      -0.515628       -14.0309
  31   2.0000      -0.495848       -13.4927
  32   2.0000      -0.489387       -13.3169
  33   2.0000      -0.466709       -12.6998
  34   2.0000      -0.454203       -12.3595
  35   2.0000      -0.448117       -12.1939
  36   2.0000      -0.417140       -11.3509
  37   2.0000      -0.401172       -10.9164
  38   2.0000      -0.396210       -10.7814
  39   2.0000      -0.387478       -10.5438
  40   2.0000      -0.377929       -10.2840
  41   2.0000      -0.368228       -10.0200
  42   2.0000      -0.351961        -9.5773
  43   2.0000      -0.326548        -8.8858
  44   2.0000      -0.311992        -8.4897
  45   2.0000      -0.297989        -8.1087
  46   2.0000      -0.248624        -6.7654
  47   2.0000      -0.161574        -4.3967
  48   0.0000      -0.007900        -0.2150
  49   0.0000       0.011102         0.3021
  50   0.0000       0.024348         0.6626
  51   0.0000       0.032140         0.8746
  52   0.0000       0.038908         1.0587

MULLIKEN ATOMIC CHARGES
-----------------------
   0 C :    1.133030
   1 N :   -0.473270
   2 C :    0.339458
   3 C :    0.333011
   4 H :    0.006780
   5 H :   -0.236787
   6 S :    1.604869
   7 C :    0.925704
   8 N :    0.150242
   9 C :    0.850185
  10 H :   -0.811512
  11 H :   -0.476424
  12 H :   -0.345517
  13 H :   -0.207900
  14 H :   -0.068264
  15 O :   -0.650446
  16 F :   -0.480237
  17 O :   -0.876137
  18 H :   -0.119865
  19 H :   -0.140955
  20 H :   -0.032266
  21 H :   -0.423701
Sum of atomic charges:    0.0000000

LOEWDIN ATOMIC CHARGES
----------------------
   0 C :    0.084399
   1 N :   -0.011005
   2 C :   -0.016660
   3 C :   -0.025719
   4 H :    0.030323
   5 H :    0.016161
   6 S :    1.163639
   7 C :   -0.232281
   8 N :    0.183346
   9 C :    0.197910
  10 H :   -0.205134
  11 H :   -0.085936
  12 H :    0.017109
  13 H :   -0.021023
  14 H :   -0.002061
  15 O :   -0.447709
  16 F :   -0.251473
  17 O :   -0.468254
  18 H :    0.021587
  19 H :    0.027054
  20 H :    0.005164
  21 H :    0.020562

  Mayer bond orders larger than 0.100000
B(  0-C ,  1-N ) :   0.8961 B(  0-C ,  2-C ) :   1.0678 B(  0-C , 12-H ) :  -0.1810
B(  0-C , 18-H ) :   0.1552 B(  0-C , 19-H ) :   0.1309 B(  0-C , 20-H ) :   0.6796
B(  0-C , 21-H ) :   0.7656 B(  1-N ,  2-C ) :   0.1084 B(  1-N ,  7-C ) :   0.8785
B(  1-N ,  8-N ) :   0.1873 B(  1-N ,  9-C ) :   0.3099 B(  1-N , 12-H ) :   1.3989
B(  1-N , 20-H ) :   0.1965 B(  1-N , 21-H ) :   0.1650 B(  2-C ,  3-C ) :   1.2035
B(  2-C ,  4-H ) :   0.1528 B(  2-C ,  5-H ) :   0.1903 B(  2-C , 18-H ) :   0.7920
B(  2-C , 19-H ) :   0.7472 B(  2-C , 20-H ) :   0.1515 B(  3-C ,  4-H ) :   0.9431
B(  3-C ,  5-H ) :   0.6982 B(  3-C ,  6-S ) :   0.9657 B(  3-C , 17-O ) :   0.1396
B(  3-C , 18-H ) :   0.1435 B(  3-C , 19-H ) :   0.1382 B(  6-S , 15-O ) :   1.5129
B(  6-S , 16-F ) :   0.5941 B(  6-S , 17-O ) :   1.3877 B(  7-C ,  8-N ) :   0.9048
B(  7-C ,  9-C ) :   1.6803 B(  7-C , 10-H ) :  -0.1448 B(  7-C , 11-H ) :   0.4022
B(  7-C , 12-H ) :  -0.3089 B(  7-C , 20-H ) :  -0.1067 B(  8-N ,  9-C ) :   0.3824
B(  8-N , 11-H ) :   0.1102 B(  8-N , 13-H ) :   1.1845 B(  8-N , 14-H ) :   1.1517
B(  9-C , 11-H ) :   0.6248 B( 10-H , 17-O ) :   0.1688 B( 10-H , 20-H ) :   0.1116
B( 13-H , 14-H ) :  -0.1779 B( 20-H , 21-H ) :  -0.1971

Dispersion correction           -0.042278460
FINAL SINGLE POINT ENERGY      -954.182457340129

DIPOLE MOMENT
-------------
                                X             Y             Z
Electronic contribution:    -15.78325      -1.42263       0.23724
Nuclear contribution   :     16.57580       2.60270       1.54331
                        -----------------------------------------
Total Dipole Moment    :      0.79256       1.18007       1.78055
                        -----------------------------------------
Magnitude (a.u.)       :      2.27839
Magnitude (Debye)      :      5.79121

Rotational constants in cm-1:     0.060402     0.020377     0.017632
Rotational constants in MHz :  1810.792194   610.900365   528.582827

                             ****ORCA TERMINATED NORMALLY****
TOTAL RUN TIME: 0 days 0 hours 1 minutes 32 seconds 452 msec
