                         Program Version 5.0.0 -  RELEASE  -
|  1> !B3LYP D3BJ RIJCOSX def2-SVPD def2/J TightSCF xyzfile
|  2>
|  3> *xyzfile 0 1 D7.xyz
|  4>
|  5> %MaxCore 64000
|  6>
|  7> %pal nprocs 4
|  8> end
|  9>
| 10> %scf
| 11>   MaxIter 150
| 12> end
| 13>
| 14>
| 15>                          ****END OF INPUT****

CARTESIAN COORDINATES (ANGSTROEM)
---------------------------------
  C      3.380928    2.083045   -3.350127
  C      4.535924    1.182447   -3.428518
  C      2.495557    1.816150   -2.136364
  C      1.872181    0.427903   -2.077497
  H      2.614270   -0.365825   -2.198894
  H      1.389953    0.273087   -1.112360
  S      0.579024    0.140472   -3.297943
  C      4.671956    0.122273   -4.220598
  N      5.866023   -0.507849   -4.224284
  N      3.698881   -0.312844   -4.986988
  H      2.731405   -0.050091   -4.849000
  H      3.890046   -1.055172   -5.643730
  H      5.251933    1.303459   -2.721014
  H      6.695165   -0.062322   -3.851596
  H      5.975383   -1.396884   -4.691414
  O      0.228860   -1.246868   -3.127871
  O     -0.439269    1.118966   -3.014550
  F      1.247881    0.403474   -4.595647
  H      1.697003    2.561969   -2.141109
  H      3.080787    1.987436   -1.225838
  H      2.806463    1.986511   -4.268484
  H      3.778714    3.098282   -3.307383

 Total Charge           Charge          ....    0
 Multiplicity           Mult            ....    1
 Number of Electrons    NEL             ....   96
 Basis Dimension        Dim             ....  324

ORBITAL ENERGIES
----------------

  NO   OCC          E(Eh)            E(eV)
   0   2.0000     -89.139932     -2425.6209
   1   2.0000     -24.813357      -675.2058
   2   2.0000     -19.157712      -521.3078
   3   2.0000     -19.157132      -521.2921
   4   2.0000     -14.337192      -390.1348
   5   2.0000     -14.336383      -390.1128
   6   2.0000     -10.239480      -278.6304
   7   2.0000     -10.234024      -278.4819
   8   2.0000     -10.195764      -277.4408
   9   2.0000     -10.176576      -276.9187
  10   2.0000     -10.119851      -275.3751
  11   2.0000      -8.194388      -222.9806
  12   2.0000      -6.167651      -167.8303
  13   2.0000      -6.161132      -167.6529
  14   2.0000      -6.159269      -167.6022
  15   2.0000      -1.364299       -37.1245
  16   2.0000      -1.124658       -30.6035
  17   2.0000      -1.028841       -27.9962
  18   2.0000      -0.962811       -26.1994
  19   2.0000      -0.871335       -23.7102
  20   2.0000      -0.824659       -22.4401
  21   2.0000      -0.764044       -20.7907
  22   2.0000      -0.732254       -19.9256
  23   2.0000      -0.686551       -18.6820
  24   2.0000      -0.644303       -17.5324
  25   2.0000      -0.600061       -16.3285
  26   2.0000      -0.588988       -16.0272
  27   2.0000      -0.575596       -15.6628
  28   2.0000      -0.555035       -15.1033
  29   2.0000      -0.548909       -14.9366
  30   2.0000      -0.514923       -14.0118
  31   2.0000      -0.496621       -13.5137
  32   2.0000      -0.481878       -13.1126
  33   2.0000      -0.475587       -12.9414
  34   2.0000      -0.463368       -12.6089
  35   2.0000      -0.457541       -12.4503
  36   2.0000      -0.417318       -11.3558
  37   2.0000      -0.410236       -11.1631
  38   2.0000      -0.408059       -11.1039
  39   2.0000      -0.388551       -10.5730
  40   2.0000      -0.367388        -9.9971
  41   2.0000      -0.354802        -9.6546
  42   2.0000      -0.345989        -9.4148
  43   2.0000      -0.341410        -9.2902
  44   2.0000      -0.330348        -8.9892
  45   2.0000      -0.324540        -8.8312
  46   2.0000      -0.274122        -7.4592
  47   2.0000      -0.174194        -4.7401
  48   0.0000      -0.004327        -0.1178
  49   0.0000       0.013230         0.3600
  50   0.0000       0.024959         0.6792
  51   0.0000       0.038050         1.0354
  52   0.0000       0.043489         1.1834

MULLIKEN ATOMIC CHARGES
-----------------------
   0 C :    0.593038
   1 C :   -0.094785
   2 C :    0.383868
   3 C :    0.292808
   4 H :   -0.009957
   5 H :   -0.186007
   6 S :    1.482423
   7 C :    0.884358
   8 N :    0.084702
   9 N :    0.611513
  10 H :   -0.357527
  11 H :   -0.299594
  12 H :   -0.439082
  13 H :   -0.154102
  14 H :   -0.169692
  15 O :   -0.674897
  16 O :   -0.707131
  17 F :   -0.566928
  18 H :   -0.073957
  19 H :   -0.100106
  20 H :   -0.263212
  21 H :   -0.235733
Sum of atomic charges:    0.0000000

LOEWDIN ATOMIC CHARGES
----------------------
   0 C :   -0.035414
   1 C :   -0.019675
   2 C :   -0.025213
   3 C :   -0.028872
   4 H :    0.017308
   5 H :    0.029940
   6 S :    1.129655
   7 C :   -0.212559
   8 N :    0.189320
   9 N :    0.232258
  10 H :   -0.099198
  11 H :    0.002486
  12 H :   -0.049904
  13 H :    0.001569
  14 H :   -0.016327
  15 O :   -0.453541
  16 O :   -0.447877
  17 F :   -0.280452
  18 H :    0.021256
  19 H :    0.032822
  20 H :   -0.006272
  21 H :    0.018690

  Mayer bond orders larger than 0.100000
B(  0-C ,  1-C ) :   1.0801 B(  0-C ,  2-C ) :   1.1268 B(  0-C , 12-H ) :   0.2492
B(  0-C , 18-H ) :   0.1798 B(  0-C , 19-H ) :   0.1869 B(  0-C , 20-H ) :   0.7185
B(  0-C , 21-H ) :   0.6934 B(  1-C ,  2-C ) :   0.1155 B(  1-C ,  7-C ) :   1.5443
B(  1-C ,  8-N ) :   0.4127 B(  1-C ,  9-N ) :   0.2230 B(  1-C , 10-H ) :  -0.1218
B(  1-C , 12-H ) :   0.7291 B(  1-C , 20-H ) :   0.3234 B(  1-C , 21-H ) :   0.1445
B(  2-C ,  3-C ) :   1.2483 B(  2-C ,  4-H ) :   0.1673 B(  2-C ,  5-H ) :   0.1896
B(  2-C , 18-H ) :   0.7610 B(  2-C , 19-H ) :   0.6911 B(  2-C , 20-H ) :   0.1684
B(  2-C , 21-H ) :   0.1176 B(  3-C ,  4-H ) :   0.9283 B(  3-C ,  5-H ) :   0.7065
B(  3-C ,  6-S ) :   0.9811 B(  3-C , 17-F ) :   0.1139 B(  3-C , 18-H ) :   0.1822
B(  3-C , 19-H ) :   0.1618 B(  5-H ,  6-S ) :   0.1269 B(  6-S , 15-O ) :   1.5146
B(  6-S , 16-O ) :   1.5045 B(  6-S , 17-F ) :   0.6177 B(  7-C ,  8-N ) :   0.7571
B(  7-C ,  9-N ) :   1.0500 B(  7-C , 11-H ) :  -0.2145 B(  7-C , 12-H ) :   0.1359
B(  7-C , 13-H ) :  -0.1920 B(  7-C , 20-H ) :  -0.1640 B(  8-N ,  9-N ) :   0.1019
B(  8-N , 12-H ) :   0.1074 B(  8-N , 13-H ) :   1.2551 B(  8-N , 14-H ) :   1.1655
B(  9-N , 10-H ) :   1.0944 B(  9-N , 11-H ) :   1.2232 B( 10-H , 11-H ) :  -0.1843
B( 13-H , 14-H ) :  -0.1700 B( 15-O , 16-O ) :   0.1058 B( 18-H , 19-H ) :  -0.1020

Dispersion correction           -0.041912823
FINAL SINGLE POINT ENERGY      -954.221768792106

DIPOLE MOMENT
-------------
                                X             Y             Z
Electronic contribution:    -13.17171      -3.82873      -3.63306
Nuclear contribution   :     14.80811       3.53278       3.42836
                        -----------------------------------------
Total Dipole Moment    :      1.63640      -0.29595      -0.20471
                        -----------------------------------------
Magnitude (a.u.)       :      1.67550
Magnitude (Debye)      :      4.25879

Rotational constants in cm-1:     0.059173     0.020923     0.018056
Rotational constants in MHz :  1773.956621   627.264018   541.303397

                             ****ORCA TERMINATED NORMALLY****
TOTAL RUN TIME: 0 days 0 hours 1 minutes 23 seconds 156 msec
