                         Program Version 5.0.0 -  RELEASE  -
|  1> !B3LYP D3BJ RIJCOSX def2-SVPD def2/J TightSCF xyzfile
|  2>
|  3> *xyzfile 0 1 D9.xyz
|  4>
|  5> %MaxCore 64000
|  6>
|  7> %pal nprocs 4
|  8> end
|  9>
| 10> %scf
| 11>   MaxIter 150
| 12> end
| 13>
| 14>
| 15>                          ****END OF INPUT****

CARTESIAN COORDINATES (ANGSTROEM)
---------------------------------
  C      3.380928    2.083045   -3.350127
  N      4.535924    1.182447   -3.428518
  C      2.495557    1.816150   -2.136364
  C      1.872181    0.427903   -2.077497
  H      2.614270   -0.365825   -2.198894
  H      1.389953    0.273087   -1.112360
  S      0.579024    0.140472   -3.297943
  C      4.671956    0.122273   -4.220598
  N      5.866023   -0.507849   -4.224284
  C      3.698881   -0.312844   -4.986988
  H      2.731405   -0.050091   -4.849000
  H      3.890046   -1.055172   -5.643730
  H      5.251933    1.303459   -2.721014
  H      6.695165   -0.062322   -3.851596
  H      5.975383   -1.396884   -4.691414
  O      0.228860   -1.246868   -3.127871
  O     -0.439269    1.118966   -3.014550
  F      1.247881    0.403474   -4.595647
  H      1.697003    2.561969   -2.141109
  H      3.080787    1.987436   -1.225838
  H      2.806463    1.986511   -4.268484
  H      3.778714    3.098282   -3.307383

 Total Charge           Charge          ....    0
 Multiplicity           Mult            ....    1
 Number of Electrons    NEL             ....   96
 Basis Dimension        Dim             ....  324

ORBITAL ENERGIES
----------------

  NO   OCC          E(Eh)            E(eV)
   0   2.0000     -89.135587     -2425.5026
   1   2.0000     -24.794304      -674.6873
   2   2.0000     -19.152819      -521.1747
   3   2.0000     -19.151211      -521.1309
   4   2.0000     -14.346333      -390.3836
   5   2.0000     -14.336863      -390.1259
   6   2.0000     -10.238866      -278.6137
   7   2.0000     -10.238561      -278.6054
   8   2.0000     -10.236048      -278.5370
   9   2.0000     -10.215024      -277.9649
  10   2.0000     -10.100177      -274.8398
  11   2.0000      -8.189480      -222.8471
  12   2.0000      -6.162480      -167.6896
  13   2.0000      -6.156323      -167.5221
  14   2.0000      -6.154798      -167.4806
  15   2.0000      -1.347197       -36.6591
  16   2.0000      -1.118404       -30.4333
  17   2.0000      -1.023548       -27.8522
  18   2.0000      -0.967884       -26.3374
  19   2.0000      -0.885521       -24.0962
  20   2.0000      -0.822168       -22.3723
  21   2.0000      -0.748089       -20.3566
  22   2.0000      -0.729040       -19.8382
  23   2.0000      -0.694845       -18.9077
  24   2.0000      -0.652076       -17.7439
  25   2.0000      -0.590086       -16.0570
  26   2.0000      -0.584349       -15.9009
  27   2.0000      -0.565946       -15.4002
  28   2.0000      -0.557411       -15.1679
  29   2.0000      -0.544924       -14.8281
  30   2.0000      -0.518847       -14.1185
  31   2.0000      -0.498602       -13.5677
  32   2.0000      -0.483477       -13.1561
  33   2.0000      -0.470728       -12.8091
  34   2.0000      -0.466668       -12.6987
  35   2.0000      -0.450622       -12.2620
  36   2.0000      -0.420057       -11.4303
  37   2.0000      -0.413527       -11.2526
  38   2.0000      -0.400104       -10.8874
  39   2.0000      -0.389263       -10.5924
  40   2.0000      -0.383772       -10.4430
  41   2.0000      -0.374862       -10.2005
  42   2.0000      -0.358095        -9.7443
  43   2.0000      -0.341540        -9.2938
  44   2.0000      -0.329903        -8.9771
  45   2.0000      -0.321246        -8.7416
  46   2.0000      -0.262023        -7.1300
  47   2.0000      -0.181599        -4.9416
  48   0.0000      -0.002401        -0.0653
  49   0.0000       0.010202         0.2776
  50   0.0000       0.023134         0.6295
  51   0.0000       0.031539         0.8582
  52   0.0000       0.047236         1.2854

MULLIKEN ATOMIC CHARGES
-----------------------
   0 C :    1.117489
   1 N :   -0.458147
   2 C :    0.330081
   3 C :    0.379793
   4 H :    0.001357
   5 H :   -0.248638
   6 S :    1.500061
   7 C :    0.951409
   8 N :    0.155494
   9 C :    0.893353
  10 H :   -0.802070
  11 H :   -0.495023
  12 H :   -0.345323
  13 H :   -0.202839
  14 H :   -0.064048
  15 O :   -0.677593
  16 O :   -0.721565
  17 F :   -0.605191
  18 H :   -0.086129
  19 H :   -0.120276
  20 H :   -0.082214
  21 H :   -0.419982
Sum of atomic charges:   -0.0000000

LOEWDIN ATOMIC CHARGES
----------------------
   0 C :    0.083627
   1 N :   -0.008401
   2 C :   -0.014875
   3 C :   -0.027467
   4 H :    0.018422
   5 H :    0.029322
   6 S :    1.129432
   7 C :   -0.226504
   8 N :    0.190135
   9 C :    0.192051
  10 H :   -0.176113
  11 H :   -0.085500
  12 H :    0.022076
  13 H :   -0.015423
  14 H :    0.001236
  15 O :   -0.450604
  16 O :   -0.454568
  17 F :   -0.292623
  18 H :    0.026122
  19 H :    0.028096
  20 H :    0.008009
  21 H :    0.023552

  Mayer bond orders larger than 0.100000
B(  0-C ,  1-N ) :   0.9039 B(  0-C ,  2-C ) :   1.0628 B(  0-C , 12-H ) :  -0.1881
B(  0-C , 18-H ) :   0.1481 B(  0-C , 19-H ) :   0.1407 B(  0-C , 20-H ) :   0.6849
B(  0-C , 21-H ) :   0.7753 B(  1-N ,  7-C ) :   0.8996 B(  1-N ,  8-N ) :   0.1856
B(  1-N ,  9-C ) :   0.3139 B(  1-N , 12-H ) :   1.3974 B(  1-N , 20-H ) :   0.1960
B(  1-N , 21-H ) :   0.1638 B(  2-C ,  3-C ) :   1.2136 B(  2-C ,  4-H ) :   0.1621
B(  2-C ,  5-H ) :   0.1969 B(  2-C , 18-H ) :   0.8148 B(  2-C , 19-H ) :   0.7354
B(  2-C , 20-H ) :   0.1497 B(  3-C ,  4-H ) :   0.9322 B(  3-C ,  5-H ) :   0.6697
B(  3-C ,  6-S ) :   0.9832 B(  3-C , 17-F ) :   0.1212 B(  3-C , 18-H ) :   0.1596
B(  3-C , 19-H ) :   0.1484 B(  5-H ,  6-S ) :   0.1192 B(  6-S , 15-O ) :   1.5065
B(  6-S , 16-O ) :   1.4828 B(  6-S , 17-F ) :   0.6365 B(  7-C ,  8-N ) :   0.9183
B(  7-C ,  9-C ) :   1.6647 B(  7-C , 10-H ) :  -0.1242 B(  7-C , 11-H ) :   0.3999
B(  7-C , 12-H ) :  -0.3155 B(  7-C , 20-H ) :  -0.1006 B(  8-N ,  9-C ) :   0.3675
B(  8-N , 11-H ) :   0.1061 B(  8-N , 13-H ) :   1.1793 B(  8-N , 14-H ) :   1.1463
B(  9-C , 10-H ) :  -0.1781 B(  9-C , 11-H ) :   0.6598 B( 10-H , 11-H ) :  -0.1544
B( 10-H , 17-F ) :   0.1890 B( 10-H , 20-H ) :   0.1042 B( 13-H , 14-H ) :  -0.1780
B( 15-O , 16-O ) :   0.1026 B( 20-H , 21-H ) :  -0.2039

Dispersion correction           -0.041869844
FINAL SINGLE POINT ENERGY      -954.202390925748

DIPOLE MOMENT
-------------
                                X             Y             Z
Electronic contribution:    -12.60363      -2.62975      -2.41666
Nuclear contribution   :     14.72648       3.38697       3.27638
                        -----------------------------------------
Total Dipole Moment    :      2.12285       0.75721       0.85971
                        -----------------------------------------
Magnitude (a.u.)       :      2.41226
Magnitude (Debye)      :      6.13147

Rotational constants in cm-1:     0.059651     0.020833     0.018010
Rotational constants in MHz :  1788.283887   624.555661   539.921162

                             ****ORCA TERMINATED NORMALLY****
TOTAL RUN TIME: 0 days 0 hours 1 minutes 28 seconds 88 msec
