                         Program Version 5.0.0 -  RELEASE  -
|  1> !LC-PBE RIJCOSX def2-SVPD def2/J TightSCF
|  2> *xyz -1 1
|  3> C          3.90595        2.81985       -3.75292
|  4> C          3.80351        1.37472       -3.26081
|  5> C          3.93993        0.32036       -4.36773
|  6> H          4.10504       -0.65508       -3.90773
|  7> H          3.02280        0.28052       -4.95712
|  8> C          5.10585        0.66802       -5.30546
|  9> H          4.57483        1.21516       -2.50044
| 10> H          2.84351        1.26085       -2.75146
| 11> O          4.80913        1.15019       -6.41436
| 12> O          6.26737        0.56500       -4.81948
| 13> H          3.15892        2.99660       -4.49832
| 14> H          4.87575        2.98549       -4.17357
| 15> H          3.75481        3.48808       -2.93101
| 16> *
| 17>
| 18> %MaxCore 64000
| 19>
| 20> %pal nprocs 4
| 21> end
| 22>
| 23> %scf
| 24>   MaxIter 150
| 25> end
| 26>
| 27>
| 28>                          ****END OF INPUT****

CARTESIAN COORDINATES (ANGSTROEM)
---------------------------------
  C      3.905950    2.819850   -3.752920
  C      3.803510    1.374720   -3.260810
  C      3.939930    0.320360   -4.367730
  H      4.105040   -0.655080   -3.907730
  H      3.022800    0.280520   -4.957120
  C      5.105850    0.668020   -5.305460
  H      4.574830    1.215160   -2.500440
  H      2.843510    1.260850   -2.751460
  O      4.809130    1.150190   -6.414360
  O      6.267370    0.565000   -4.819480
  H      3.158920    2.996600   -4.498320
  H      4.875750    2.985490   -4.173570
  H      3.754810    3.488080   -2.931010

 Total Charge           Charge          ....   -1
 Multiplicity           Mult            ....    1
 Number of Electrons    NEL             ....   48
 Basis Dimension        Dim             ....  182

ORBITAL ENERGIES
----------------

  NO   OCC          E(Eh)            E(eV)
   0   2.0000     -18.733392      -509.7615
   1   2.0000     -18.729284      -509.6497
   2   2.0000     -10.021901      -272.7098
   3   2.0000      -9.981837      -271.6196
   4   2.0000      -9.966281      -271.1963
   5   2.0000      -9.954670      -270.8804
   6   2.0000      -0.985878       -26.8271
   7   2.0000      -0.882667       -24.0186
   8   2.0000      -0.810238       -22.0477
   9   2.0000      -0.704655       -19.1746
  10   2.0000      -0.600069       -16.3287
  11   2.0000      -0.476230       -12.9589
  12   2.0000      -0.450393       -12.2558
  13   2.0000      -0.435874       -11.8607
  14   2.0000      -0.392202       -10.6724
  15   2.0000      -0.380467       -10.3530
  16   2.0000      -0.351291        -9.5591
  17   2.0000      -0.345572        -9.4035
  18   2.0000      -0.330979        -9.0064
  19   2.0000      -0.304414        -8.2835
  20   2.0000      -0.304266        -8.2795
  21   2.0000      -0.183965        -5.0059
  22   2.0000      -0.175293        -4.7700
  23   2.0000      -0.168853        -4.5947
  24   0.0000       0.214616         5.8400
  25   0.0000       0.237263         6.4563
  26   0.0000       0.251746         6.8503
  27   0.0000       0.266107         7.2411
  28   0.0000       0.291307         7.9269

MULLIKEN ATOMIC CHARGES
-----------------------
   0 C :    0.411630
   1 C :   -0.539400
   2 C :    0.064606
   3 H :    0.035631
   4 H :    0.074351
   5 C :    0.219738
   6 H :    0.046835
   7 H :   -0.084497
   8 O :   -0.593976
   9 O :   -0.658809
  10 H :    0.010573
  11 H :    0.061651
  12 H :   -0.048334
Sum of atomic charges:   -1.0000000

LOEWDIN ATOMIC CHARGES
----------------------
   0 C :    0.080920
   1 C :   -0.108718
   2 C :   -0.026317
   3 H :    0.017701
   4 H :    0.016136
   5 C :   -0.337463
   6 H :    0.025451
   7 H :    0.008732
   8 O :   -0.311316
   9 O :   -0.325929
  10 H :   -0.007247
  11 H :   -0.005965
  12 H :   -0.025985

  Mayer bond orders larger than 0.100000
B(  0-C ,  1-C ) :   1.3367 B(  0-C , 10-H ) :   0.8259 B(  0-C , 11-H ) :   0.8502
B(  0-C , 12-H ) :   0.8202 B(  1-C ,  2-C ) :   1.1917 B(  1-C ,  3-H ) :   0.1149
B(  1-C ,  4-H ) :   0.1232 B(  1-C ,  6-H ) :   0.9536 B(  1-C ,  7-H ) :   0.9984
B(  1-C , 10-H ) :   0.1693 B(  1-C , 11-H ) :   0.1739 B(  1-C , 12-H ) :   0.1753
B(  2-C ,  3-H ) :   0.8699 B(  2-C ,  4-H ) :   0.8887 B(  2-C ,  5-C ) :   1.0035
B(  3-H ,  5-C ) :   0.1092 B(  4-H ,  5-C ) :   0.1550 B(  5-C ,  8-O ) :   1.6057
B(  5-C ,  9-O ) :   1.5829

FINAL SINGLE POINT ENERGY      -306.023775101280

DIPOLE MOMENT
-------------
                                X             Y             Z
Electronic contribution:      4.08386      -2.85340      -4.75913
Nuclear contribution   :     -5.80393       3.20473       6.46101
                        -----------------------------------------
Total Dipole Moment    :     -1.72007       0.35132       1.70187
                        -----------------------------------------
Magnitude (a.u.)       :      2.44509
Magnitude (Debye)      :      6.21492

Rotational constants in cm-1:     0.184459     0.088019     0.082330
Rotational constants in MHz :  5529.929668  2638.753248  2468.201746

                             ****ORCA TERMINATED NORMALLY****
TOTAL RUN TIME: 0 days 0 hours 0 minutes 19 seconds 866 msec
