                         Program Version 5.0.0 -  RELEASE  -
|  1> !LC-PBE RIJCOSX def2-SVPD def2/J TightSCF
|  2> *xyz 1 1
|  3> C          3.90595        2.81985       -3.75292
|  4> N          5.29562        3.13151       -4.10533
|  5> C          3.80351        1.37472       -3.26081
|  6> C          3.93993        0.32036       -4.36773
|  7> C          5.70862        3.46889       -5.32419
|  8> N          6.90470        3.03895       -5.71708
|  9> N          4.98188        4.29357       -6.09746
| 10> H          5.00055        4.10131       -7.08776
| 11> H          4.08469        4.59690       -5.73965
| 12> H          5.96336        2.52611       -3.64239
| 13> H          7.04716        2.06686       -5.47360
| 14> H          7.19815        3.30799       -6.64523
| 15> H          3.28202        2.94919       -4.64026
| 16> H          3.56525        3.51457       -2.98252
| 17> H          4.57483        1.21516       -2.50044
| 18> H          2.84351        1.26085       -2.75146
| 19> H          3.18417        0.48061       -5.10803
| 20> H          3.82485       -0.65632       -3.94614
| 21> H          4.90589        0.40174       -4.82073
| 22> *
| 23>
| 24> %MaxCore 64000
| 25>
| 26> %pal nprocs 4
| 27> end
| 28>
| 29> %scf
| 30>   MaxIter 150
| 31> end
| 32>
| 33>
| 34>                          ****END OF INPUT****

CARTESIAN COORDINATES (ANGSTROEM)
---------------------------------
  C      3.905950    2.819850   -3.752920
  N      5.295620    3.131510   -4.105330
  C      3.803510    1.374720   -3.260810
  C      3.939930    0.320360   -4.367730
  C      5.708620    3.468890   -5.324190
  N      6.904700    3.038950   -5.717080
  N      4.981880    4.293570   -6.097460
  H      5.000550    4.101310   -7.087760
  H      4.084690    4.596900   -5.739650
  H      5.963360    2.526110   -3.642390
  H      7.047160    2.066860   -5.473600
  H      7.198150    3.307990   -6.645230
  H      3.282020    2.949190   -4.640260
  H      3.565250    3.514570   -2.982520
  H      4.574830    1.215160   -2.500440
  H      2.843510    1.260850   -2.751460
  H      3.184170    0.480610   -5.108030
  H      3.824850   -0.656320   -3.946140
  H      4.905890    0.401740   -4.820730

 Total Charge           Charge          ....    1
 Multiplicity           Mult            ....    1
 Number of Electrons    NEL             ....   56
 Basis Dimension        Dim             ....  236

ORBITAL ENERGIES
----------------

  NO   OCC          E(Eh)            E(eV)
   0   2.0000     -14.457426      -393.4066
   1   2.0000     -14.456736      -393.3878
   2   2.0000     -14.455646      -393.3581
   3   2.0000     -10.474443      -285.0241
   4   2.0000     -10.334297      -281.2105
   5   2.0000     -10.279698      -279.7248
   6   2.0000     -10.252774      -278.9922
   7   2.0000      -1.394902       -37.9572
   8   2.0000      -1.273524       -34.6543
   9   2.0000      -1.262718       -34.3603
  10   2.0000      -1.116837       -30.3907
  11   2.0000      -1.029424       -28.0120
  12   2.0000      -0.975885       -26.5552
  13   2.0000      -0.937496       -25.5106
  14   2.0000      -0.918620       -24.9969
  15   2.0000      -0.888163       -24.1681
  16   2.0000      -0.847629       -23.0652
  17   2.0000      -0.829047       -22.5595
  18   2.0000      -0.795176       -21.6378
  19   2.0000      -0.775330       -21.0978
  20   2.0000      -0.736031       -20.0284
  21   2.0000      -0.725406       -19.7393
  22   2.0000      -0.695592       -18.9280
  23   2.0000      -0.648035       -17.6339
  24   2.0000      -0.627954       -17.0875
  25   2.0000      -0.625103       -17.0099
  26   2.0000      -0.616852       -16.7854
  27   2.0000      -0.582739       -15.8571
  28   0.0000      -0.101330        -2.7573
  29   0.0000      -0.072641        -1.9767
  30   0.0000      -0.043269        -1.1774
  31   0.0000      -0.028712        -0.7813
  32   0.0000      -0.012561        -0.3418

MULLIKEN ATOMIC CHARGES
-----------------------
   0 C :    0.545783
   1 N :   -0.380497
   2 C :   -0.463215
   3 C :    0.580326
   4 C :    0.790093
   5 N :   -0.040574
   6 N :   -0.053742
   7 H :    0.036274
   8 H :    0.067278
   9 H :   -0.028800
  10 H :    0.035937
  11 H :    0.062882
  12 H :    0.039969
  13 H :   -0.193333
  14 H :    0.037197
  15 H :    0.012546
  16 H :    0.093681
  17 H :    0.057980
  18 H :   -0.199786
Sum of atomic charges:    1.0000000

LOEWDIN ATOMIC CHARGES
----------------------
   0 C :    0.049633
   1 N :    0.052280
   2 C :   -0.071399
   3 C :    0.112929
   4 C :   -0.052024
   5 N :    0.257783
   6 N :    0.267472
   7 H :    0.047053
   8 H :    0.033172
   9 H :    0.052735
  10 H :    0.040865
  11 H :    0.046371
  12 H :    0.035646
  13 H :    0.048615
  14 H :    0.039749
  15 H :    0.049469
  16 H :    0.002580
  17 H :    0.010130
  18 H :   -0.023059

  Mayer bond orders larger than 0.100000
B(  0-C ,  1-N ) :   0.8964 B(  0-C ,  2-C ) :   1.1449 B(  0-C , 12-H ) :   0.7902
B(  0-C , 13-H ) :   1.0205 B(  0-C , 15-H ) :   0.1155 B(  1-N ,  2-C ) :   0.1002
B(  1-N ,  4-C ) :   1.2049 B(  1-N ,  5-N ) :   0.1751 B(  1-N ,  9-H ) :   1.1056
B(  1-N , 12-H ) :   0.1031 B(  2-C ,  3-C ) :   1.2457 B(  2-C , 14-H ) :   0.9585
B(  2-C , 15-H ) :   0.9990 B(  2-C , 16-H ) :   0.1616 B(  2-C , 17-H ) :   0.1625
B(  2-C , 18-H ) :   0.1839 B(  3-C , 16-H ) :   0.7835 B(  3-C , 17-H ) :   0.8102
B(  3-C , 18-H ) :   0.8702 B(  4-C ,  5-N ) :   0.9931 B(  4-C ,  6-N ) :   1.0200
B(  4-C ,  9-H ) :  -0.1647 B(  5-N ,  6-N ) :   0.1008 B(  5-N , 10-H ) :   1.0105
B(  5-N , 11-H ) :   0.9757 B(  6-N ,  7-H ) :   1.1113 B(  6-N ,  8-H ) :   0.9472
B(  7-H ,  8-H ) :  -0.1096 B( 16-H , 18-H ) :   0.1071

FINAL SINGLE POINT ENERGY      -322.451948465499

DIPOLE MOMENT
-------------
                                X             Y             Z
Electronic contribution:      4.01942       5.68590      -2.07493
Nuclear contribution   :     -3.60155      -5.39511       0.90505
                        -----------------------------------------
Total Dipole Moment    :      0.41787       0.29079      -1.16988
                        -----------------------------------------
Magnitude (a.u.)       :      1.27585
Magnitude (Debye)      :      3.24295

Rotational constants in cm-1:     0.145371     0.050507     0.045444
Rotational constants in MHz :  4358.114605  1514.164418  1362.368391

                             ****ORCA TERMINATED NORMALLY****
TOTAL RUN TIME: 0 days 0 hours 0 minutes 38 seconds 212 msec
