                         Program Version 5.0.0 -  RELEASE  -
|  1> !LC-PBE RIJCOSX def2-SVPD def2/J TightSCF
|  2> *xyz 0 1
|  3> C          3.90595        2.81985       -3.75292
|  4> C          3.80351        1.37472       -3.26081
|  5> C          3.93993        0.32036       -4.36773
|  6> H          4.10504       -0.65508       -3.90773
|  7> H          3.02280        0.28052       -4.95712
|  8> C          5.10585        0.66802       -5.30546
|  9> H          4.57483        1.21516       -2.50044
| 10> H          2.84351        1.26085       -2.75146
| 11> F          4.80913        1.15019       -6.41436
| 12> O          6.26737        0.56500       -4.81948
| 13> H          3.15892        2.99660       -4.49832
| 14> H          4.87575        2.98549       -4.17357
| 15> H          3.75481        3.48808       -2.93101
| 16> *
| 17>
| 18> %MaxCore 64000
| 19>
| 20> %pal nprocs 4
| 21> end
| 22>
| 23> %scf
| 24>   MaxIter 150
| 25> end
| 26>
| 27>
| 28>                          ****END OF INPUT****

CARTESIAN COORDINATES (ANGSTROEM)
---------------------------------
  C      3.905950    2.819850   -3.752920
  C      3.803510    1.374720   -3.260810
  C      3.939930    0.320360   -4.367730
  H      4.105040   -0.655080   -3.907730
  H      3.022800    0.280520   -4.957120
  C      5.105850    0.668020   -5.305460
  H      4.574830    1.215160   -2.500440
  H      2.843510    1.260850   -2.751460
  F      4.809130    1.150190   -6.414360
  O      6.267370    0.565000   -4.819480
  H      3.158920    2.996600   -4.498320
  H      4.875750    2.985490   -4.173570
  H      3.754810    3.488080   -2.931010

 Total Charge           Charge          ....    0
 Multiplicity           Mult            ....    1
 Number of Electrons    NEL             ....   48
 Basis Dimension        Dim             ....  182

ORBITAL ENERGIES
----------------

  NO   OCC          E(Eh)            E(eV)
   0   2.0000     -24.587126      -669.0497
   1   2.0000     -19.003142      -517.1018
   2   2.0000     -10.321014      -280.8491
   3   2.0000     -10.160184      -276.4727
   4   2.0000     -10.146343      -276.0960
   5   2.0000     -10.121735      -275.4264
   6   2.0000      -1.476570       -40.1795
   7   2.0000      -1.189418       -32.3657
   8   2.0000      -0.991456       -26.9789
   9   2.0000      -0.896465       -24.3941
  10   2.0000      -0.826533       -22.4911
  11   2.0000      -0.772895       -21.0315
  12   2.0000      -0.716432       -19.4951
  13   2.0000      -0.692699       -18.8493
  14   2.0000      -0.661087       -17.9891
  15   2.0000      -0.613574       -16.6962
  16   2.0000      -0.603254       -16.4154
  17   2.0000      -0.559243       -15.2178
  18   2.0000      -0.546615       -14.8742
  19   2.0000      -0.512169       -13.9368
  20   2.0000      -0.490904       -13.3582
  21   2.0000      -0.479561       -13.0495
  22   2.0000      -0.477793       -13.0014
  23   2.0000      -0.429928       -11.6989
  24   0.0000       0.060743         1.6529
  25   0.0000       0.083814         2.2807
  26   0.0000       0.110589         3.0093
  27   0.0000       0.115120         3.1326
  28   0.0000       0.130099         3.5402

MULLIKEN ATOMIC CHARGES
-----------------------
   0 C :    0.404243
   1 C :   -0.483197
   2 C :   -0.033237
   3 H :    0.091467
   4 H :    0.112506
   5 C :    0.619843
   6 H :    0.063149
   7 H :   -0.038504
   8 F :   -0.305411
   9 O :   -0.462791
  10 H :    0.008130
  11 H :    0.030026
  12 H :   -0.006224
Sum of atomic charges:   -0.0000000

LOEWDIN ATOMIC CHARGES
----------------------
   0 C :    0.096267
   1 C :   -0.082700
   2 C :    0.020022
   3 H :    0.048267
   4 H :    0.036874
   5 C :   -0.038401
   6 H :    0.041663
   7 H :    0.033709
   8 F :   -0.011143
   9 O :   -0.134669
  10 H :   -0.000651
  11 H :   -0.006766
  12 H :   -0.002473

  Mayer bond orders larger than 0.100000
B(  0-C ,  1-C ) :   1.3466 B(  0-C , 10-H ) :   0.8363 B(  0-C , 11-H ) :   0.8623
B(  0-C , 12-H ) :   0.8338 B(  1-C ,  2-C ) :   1.2055 B(  1-C ,  3-H ) :   0.1082
B(  1-C ,  4-H ) :   0.1144 B(  1-C ,  6-H ) :   0.9549 B(  1-C ,  7-H ) :   0.9983
B(  1-C , 10-H ) :   0.1539 B(  1-C , 11-H ) :   0.1578 B(  1-C , 12-H ) :   0.1623
B(  2-C ,  3-H ) :   0.8778 B(  2-C ,  4-H ) :   0.8948 B(  2-C ,  5-C ) :   1.0717
B(  5-C ,  8-F ) :   0.8042 B(  5-C ,  9-O ) :   1.8882

FINAL SINGLE POINT ENERGY      -330.523814341621

DIPOLE MOMENT
-------------
                                X             Y             Z
Electronic contribution:      4.75571      -3.20188      -8.23022
Nuclear contribution   :     -5.98367       3.22001       8.44002
                        -----------------------------------------
Total Dipole Moment    :     -1.22797       0.01813       0.20981
                        -----------------------------------------
Magnitude (a.u.)       :      1.24589
Magnitude (Debye)      :      3.16681

Rotational constants in cm-1:     0.177409     0.085514     0.078973
Rotational constants in MHz :  5318.577687  2563.657993  2367.557452

                             ****ORCA TERMINATED NORMALLY****
TOTAL RUN TIME: 0 days 0 hours 0 minutes 20 seconds 142 msec
