                         Program Version 5.0.0 -  RELEASE  -
|  1> !LC-PBE RIJCOSX def2-SVPD def2/J TightSCF
|  2> *xyz 0 1
|  3> C          3.90595        2.81985       -3.75292
|  4> C          5.29562        3.13151       -4.10533
|  5> C          3.80351        1.37472       -3.26081
|  6> C          3.93993        0.32036       -4.36773
|  7> C          5.70862        3.46889       -5.32419
|  8> N          6.90470        3.03895       -5.71708
|  9> N          4.98188        4.29357       -6.09746
| 10> H          5.00055        4.10131       -7.08776
| 11> H          4.08469        4.59690       -5.73965
| 12> H          5.96336        2.52611       -3.64239
| 13> H          7.04716        2.06686       -5.47360
| 14> H          7.19815        3.30799       -6.64523
| 15> H          3.28202        2.94919       -4.64026
| 16> H          3.56525        3.51457       -2.98252
| 17> H          4.57483        1.21516       -2.50044
| 18> H          2.84351        1.26085       -2.75146
| 19> H          3.18417        0.48061       -5.10803
| 20> H          3.82485       -0.65632       -3.94614
| 21> H          4.90589        0.40174       -4.82073
| 22> *
| 23>
| 24> %MaxCore 64000
| 25>
| 26> %pal nprocs 4
| 27> end
| 28>
| 29> %scf
| 30>   MaxIter 150
| 31> end
| 32>
| 33>
| 34>                          ****END OF INPUT****

CARTESIAN COORDINATES (ANGSTROEM)
---------------------------------
  C      3.905950    2.819850   -3.752920
  C      5.295620    3.131510   -4.105330
  C      3.803510    1.374720   -3.260810
  C      3.939930    0.320360   -4.367730
  C      5.708620    3.468890   -5.324190
  N      6.904700    3.038950   -5.717080
  N      4.981880    4.293570   -6.097460
  H      5.000550    4.101310   -7.087760
  H      4.084690    4.596900   -5.739650
  H      5.963360    2.526110   -3.642390
  H      7.047160    2.066860   -5.473600
  H      7.198150    3.307990   -6.645230
  H      3.282020    2.949190   -4.640260
  H      3.565250    3.514570   -2.982520
  H      4.574830    1.215160   -2.500440
  H      2.843510    1.260850   -2.751460
  H      3.184170    0.480610   -5.108030
  H      3.824850   -0.656320   -3.946140
  H      4.905890    0.401740   -4.820730

 Total Charge           Charge          ....    0
 Multiplicity           Mult            ....    1
 Number of Electrons    NEL             ....   56
 Basis Dimension        Dim             ....  236

ORBITAL ENERGIES
----------------

  NO   OCC          E(Eh)            E(eV)
   0   2.0000     -14.233883      -387.3236
   1   2.0000     -14.230256      -387.2250
   2   2.0000     -10.176487      -276.9163
   3   2.0000     -10.111783      -275.1556
   4   2.0000     -10.105182      -274.9760
   5   2.0000     -10.103124      -274.9200
   6   2.0000     -10.054644      -273.6008
   7   2.0000      -1.137006       -30.9395
   8   2.0000      -1.038550       -28.2604
   9   2.0000      -0.966034       -26.2871
  10   2.0000      -0.890605       -24.2346
  11   2.0000      -0.822321       -22.3765
  12   2.0000      -0.747880       -20.3509
  13   2.0000      -0.723475       -19.6867
  14   2.0000      -0.684544       -18.6274
  15   2.0000      -0.660899       -17.9840
  16   2.0000      -0.621618       -16.9151
  17   2.0000      -0.590910       -16.0795
  18   2.0000      -0.583885       -15.8883
  19   2.0000      -0.557353       -15.1663
  20   2.0000      -0.524462       -14.2713
  21   2.0000      -0.512726       -13.9520
  22   2.0000      -0.484449       -13.1825
  23   2.0000      -0.464443       -12.6381
  24   2.0000      -0.447591       -12.1796
  25   2.0000      -0.443287       -12.0625
  26   2.0000      -0.409784       -11.1508
  27   2.0000      -0.287394        -7.8204
  28   0.0000       0.085157         2.3172
  29   0.0000       0.109610         2.9826
  30   0.0000       0.114623         3.1190
  31   0.0000       0.127224         3.4619
  32   0.0000       0.134391         3.6570

MULLIKEN ATOMIC CHARGES
-----------------------
   0 C :    0.179472
   1 C :   -0.051505
   2 C :   -0.366790
   3 C :    0.612625
   4 C :    0.170402
   5 N :    0.023021
   6 N :   -0.056903
   7 H :   -0.046307
   8 H :    0.064275
   9 H :   -0.184735
  10 H :    0.032620
  11 H :   -0.047057
  12 H :   -0.107095
  13 H :   -0.108433
  14 H :    0.011799
  15 H :   -0.041454
  16 H :    0.067966
  17 H :    0.041707
  18 H :   -0.193608
Sum of atomic charges:    0.0000000

LOEWDIN ATOMIC CHARGES
----------------------
   0 C :   -0.090017
   1 C :   -0.035011
   2 C :   -0.101488
   3 C :    0.096986
   4 C :   -0.247989
   5 N :    0.173613
   6 N :    0.182880
   7 H :    0.000357
   8 H :    0.002990
   9 H :   -0.043329
  10 H :    0.007645
  11 H :    0.000190
  12 H :    0.015428
  13 H :    0.021812
  14 H :    0.029986
  15 H :    0.025062
  16 H :   -0.007991
  17 H :   -0.010360
  18 H :   -0.020766

  Mayer bond orders larger than 0.100000
B(  0-C ,  1-C ) :   0.9660 B(  0-C ,  2-C ) :   1.2032 B(  0-C ,  9-H ) :   0.1870
B(  0-C , 12-H ) :   0.8287 B(  0-C , 13-H ) :   0.9287 B(  0-C , 14-H ) :   0.1169
B(  0-C , 15-H ) :   0.1507 B(  1-C ,  4-C ) :   1.9871 B(  1-C ,  5-N ) :   0.2865
B(  1-C ,  6-N ) :   0.1433 B(  1-C ,  9-H ) :   0.5893 B(  1-C , 13-H ) :   0.1161
B(  2-C ,  3-C ) :   1.2242 B(  2-C , 14-H ) :   0.9551 B(  2-C , 15-H ) :   0.9583
B(  2-C , 16-H ) :   0.1678 B(  2-C , 17-H ) :   0.1596 B(  2-C , 18-H ) :   0.2071
B(  3-C , 16-H ) :   0.7859 B(  3-C , 17-H ) :   0.7853 B(  3-C , 18-H ) :   0.8814
B(  4-C ,  5-N ) :   0.9646 B(  4-C ,  6-N ) :   1.0052 B(  4-C ,  9-H ) :   0.3070
B(  5-N , 10-H ) :   0.9941 B(  5-N , 11-H ) :   0.9381 B(  6-N ,  7-H ) :   1.0881
B(  6-N ,  8-H ) :   0.9614 B( 16-H , 18-H ) :   0.1006

FINAL SINGLE POINT ENERGY      -306.003431567017

DIPOLE MOMENT
-------------
                                X             Y             Z
Electronic contribution:      3.37835       4.90826      -2.13274
Nuclear contribution   :     -3.52450      -5.28471       1.03374
                        -----------------------------------------
Total Dipole Moment    :     -0.14615      -0.37645      -1.09900
                        -----------------------------------------
Magnitude (a.u.)       :      1.17085
Magnitude (Debye)      :      2.97605

Rotational constants in cm-1:     0.147126     0.050704     0.045476
Rotational constants in MHz :  4410.719889  1520.080198  1363.327077

                             ****ORCA TERMINATED NORMALLY****
TOTAL RUN TIME: 0 days 0 hours 0 minutes 38 seconds 866 msec
