                         Program Version 5.0.0 -  RELEASE  -
|  1> !LC-PBE RIJCOSX def2-SVPD def2/J TightSCF
|  2> *xyz 0 1
|  3> C          3.90595        2.81985       -3.75292
|  4> C          3.80351        1.37472       -3.26081
|  5> C          3.93993        0.32036       -4.36773
|  6> H          4.10504       -0.65508       -3.90773
|  7> H          3.02280        0.28052       -4.95712
|  8> C          5.10585        0.66802       -5.30546
|  9> H          4.57483        1.21516       -2.50044
| 10> H          2.84351        1.26085       -2.75146
| 11> O          4.80913        1.15019       -6.41436
| 12> F          6.26737        0.56500       -4.81948
| 13> H          3.15892        2.99660       -4.49832
| 14> H          4.87575        2.98549       -4.17357
| 15> H          3.75481        3.48808       -2.93101
| 16> *
| 17>
| 18> %MaxCore 64000
| 19>
| 20> %pal nprocs 4
| 21> end
| 22>
| 23> %scf
| 24>   MaxIter 150
| 25> end
| 26>
| 27>
| 28>                          ****END OF INPUT****

CARTESIAN COORDINATES (ANGSTROEM)
---------------------------------
  C      3.905950    2.819850   -3.752920
  C      3.803510    1.374720   -3.260810
  C      3.939930    0.320360   -4.367730
  H      4.105040   -0.655080   -3.907730
  H      3.022800    0.280520   -4.957120
  C      5.105850    0.668020   -5.305460
  H      4.574830    1.215160   -2.500440
  H      2.843510    1.260850   -2.751460
  O      4.809130    1.150190   -6.414360
  F      6.267370    0.565000   -4.819480
  H      3.158920    2.996600   -4.498320
  H      4.875750    2.985490   -4.173570
  H      3.754810    3.488080   -2.931010

 Total Charge           Charge          ....    0
 Multiplicity           Mult            ....    1
 Number of Electrons    NEL             ....   48
 Basis Dimension        Dim             ....  182

ORBITAL ENERGIES
----------------

  NO   OCC          E(Eh)            E(eV)
   0   2.0000     -24.580363      -668.8657
   1   2.0000     -19.006233      -517.1859
   2   2.0000     -10.318808      -280.7890
   3   2.0000     -10.159496      -276.4539
   4   2.0000     -10.148581      -276.1569
   5   2.0000     -10.120150      -275.3833
   6   2.0000      -1.463009       -39.8105
   7   2.0000      -1.200190       -32.6588
   8   2.0000      -0.992720       -27.0133
   9   2.0000      -0.894797       -24.3487
  10   2.0000      -0.818248       -22.2657
  11   2.0000      -0.772397       -21.0180
  12   2.0000      -0.710489       -19.3334
  13   2.0000      -0.693368       -18.8675
  14   2.0000      -0.647875       -17.6296
  15   2.0000      -0.621585       -16.9142
  16   2.0000      -0.603190       -16.4136
  17   2.0000      -0.561968       -15.2919
  18   2.0000      -0.540515       -14.7082
  19   2.0000      -0.512522       -13.9464
  20   2.0000      -0.500765       -13.6265
  21   2.0000      -0.486799       -13.2465
  22   2.0000      -0.476622       -12.9695
  23   2.0000      -0.429377       -11.6839
  24   0.0000       0.064976         1.7681
  25   0.0000       0.082616         2.2481
  26   0.0000       0.111418         3.0318
  27   0.0000       0.117671         3.2020
  28   0.0000       0.125188         3.4065

MULLIKEN ATOMIC CHARGES
-----------------------
   0 C :    0.422388
   1 C :   -0.517260
   2 C :   -0.010419
   3 H :    0.083210
   4 H :    0.107889
   5 C :    0.624834
   6 H :    0.040729
   7 H :   -0.038086
   8 O :   -0.410151
   9 F :   -0.355650
  10 H :    0.030844
  11 H :    0.038880
  12 H :   -0.017209
Sum of atomic charges:    0.0000000

LOEWDIN ATOMIC CHARGES
----------------------
   0 C :    0.097780
   1 C :   -0.088105
   2 C :    0.022474
   3 H :    0.040794
   4 H :    0.047532
   5 C :   -0.038741
   6 H :    0.035689
   7 H :    0.034412
   8 O :   -0.123610
   9 F :   -0.022174
  10 H :    0.004992
  11 H :   -0.007378
  12 H :   -0.003664

  Mayer bond orders larger than 0.100000
B(  0-C ,  1-C ) :   1.3504 B(  0-C , 10-H ) :   0.8324 B(  0-C , 11-H ) :   0.8567
B(  0-C , 12-H ) :   0.8265 B(  1-C ,  2-C ) :   1.1817 B(  1-C ,  3-H ) :   0.1111
B(  1-C ,  4-H ) :   0.1116 B(  1-C ,  6-H ) :   0.9605 B(  1-C ,  7-H ) :   0.9951
B(  1-C , 10-H ) :   0.1608 B(  1-C , 11-H ) :   0.1557 B(  1-C , 12-H ) :   0.1689
B(  2-C ,  3-H ) :   0.8784 B(  2-C ,  4-H ) :   0.9169 B(  2-C ,  5-C ) :   1.0414
B(  4-H ,  5-C ) :   0.1007 B(  5-C ,  8-O ) :   1.9180 B(  5-C ,  9-F ) :   0.7646

FINAL SINGLE POINT ENERGY      -330.529296275806

DIPOLE MOMENT
-------------
                                X             Y             Z
Electronic contribution:      7.24230      -4.20319      -5.50433
Nuclear contribution   :     -7.63086       3.88103       6.63849
                        -----------------------------------------
Total Dipole Moment    :     -0.38856      -0.32217       1.13416
                        -----------------------------------------
Magnitude (a.u.)       :      1.24140
Magnitude (Debye)      :      3.15539

Rotational constants in cm-1:     0.177064     0.085023     0.079676
Rotational constants in MHz :  5308.232158  2548.918275  2388.614336

                             ****ORCA TERMINATED NORMALLY****
TOTAL RUN TIME: 0 days 0 hours 0 minutes 21 seconds 519 msec
