                         Program Version 5.0.0 -  RELEASE  -
|  1> !LC-PBE RIJCOSX def2-SVPD def2/J TightSCF
|  2> *xyz 0 1
|  3> C          3.90595        2.81985       -3.75292
|  4> N          5.29562        3.13151       -4.10533
|  5> C          3.80351        1.37472       -3.26081
|  6> C          3.93993        0.32036       -4.36773
|  7> C          5.70862        3.46889       -5.32419
|  8> C          6.90470        3.03895       -5.71708
|  9> N          4.98188        4.29357       -6.09746
| 10> H          5.00055        4.10131       -7.08776
| 11> H          4.08469        4.59690       -5.73965
| 12> H          5.96336        2.52611       -3.64239
| 13> H          7.04716        2.06686       -5.47360
| 14> H          7.19815        3.30799       -6.64523
| 15> H          3.28202        2.94919       -4.64026
| 16> H          3.56525        3.51457       -2.98252
| 17> H          4.57483        1.21516       -2.50044
| 18> H          2.84351        1.26085       -2.75146
| 19> H          3.18417        0.48061       -5.10803
| 20> H          3.82485       -0.65632       -3.94614
| 21> H          4.90589        0.40174       -4.82073
| 22> *
| 23>
| 24> %MaxCore 64000
| 25>
| 26> %pal nprocs 4
| 27> end
| 28>
| 29> %scf
| 30>   MaxIter 150
| 31> end
| 32>
| 33>
| 34>                          ****END OF INPUT****

CARTESIAN COORDINATES (ANGSTROEM)
---------------------------------
  C      3.905950    2.819850   -3.752920
  N      5.295620    3.131510   -4.105330
  C      3.803510    1.374720   -3.260810
  C      3.939930    0.320360   -4.367730
  C      5.708620    3.468890   -5.324190
  C      6.904700    3.038950   -5.717080
  N      4.981880    4.293570   -6.097460
  H      5.000550    4.101310   -7.087760
  H      4.084690    4.596900   -5.739650
  H      5.963360    2.526110   -3.642390
  H      7.047160    2.066860   -5.473600
  H      7.198150    3.307990   -6.645230
  H      3.282020    2.949190   -4.640260
  H      3.565250    3.514570   -2.982520
  H      4.574830    1.215160   -2.500440
  H      2.843510    1.260850   -2.751460
  H      3.184170    0.480610   -5.108030
  H      3.824850   -0.656320   -3.946140
  H      4.905890    0.401740   -4.820730

 Total Charge           Charge          ....    0
 Multiplicity           Mult            ....    1
 Number of Electrons    NEL             ....   56
 Basis Dimension        Dim             ....  236

ORBITAL ENERGIES
----------------

  NO   OCC          E(Eh)            E(eV)
   0   2.0000     -14.233482      -387.3127
   1   2.0000     -14.232915      -387.2973
   2   2.0000     -10.182483      -277.0794
   3   2.0000     -10.166759      -276.6516
   4   2.0000     -10.138891      -275.8932
   5   2.0000     -10.119220      -275.3580
   6   2.0000     -10.038439      -273.1598
   7   2.0000      -1.143251       -31.1094
   8   2.0000      -1.053894       -28.6779
   9   2.0000      -0.964144       -26.2357
  10   2.0000      -0.895792       -24.3757
  11   2.0000      -0.836399       -22.7596
  12   2.0000      -0.760867       -20.7042
  13   2.0000      -0.749325       -20.3902
  14   2.0000      -0.685333       -18.6489
  15   2.0000      -0.644356       -17.5338
  16   2.0000      -0.627056       -17.0631
  17   2.0000      -0.608256       -16.5515
  18   2.0000      -0.589202       -16.0330
  19   2.0000      -0.545526       -14.8445
  20   2.0000      -0.541874       -14.7451
  21   2.0000      -0.524072       -14.2607
  22   2.0000      -0.500755       -13.6262
  23   2.0000      -0.486386       -13.2352
  24   2.0000      -0.480918       -13.0864
  25   2.0000      -0.469955       -12.7881
  26   2.0000      -0.392352       -10.6765
  27   2.0000      -0.293117        -7.9761
  28   0.0000       0.084029         2.2865
  29   0.0000       0.103271         2.8102
  30   0.0000       0.109488         2.9793
  31   0.0000       0.121662         3.3106
  32   0.0000       0.134838         3.6691

MULLIKEN ATOMIC CHARGES
-----------------------
   0 C :    0.533379
   1 N :   -0.391878
   2 C :   -0.466320
   3 C :    0.588969
   4 C :    0.163971
   5 C :    0.363434
   6 N :   -0.006337
   7 H :    0.016760
   8 H :   -0.015731
   9 H :    0.002360
  10 H :   -0.253723
  11 H :   -0.230884
  12 H :    0.007814
  13 H :   -0.235298
  14 H :    0.019542
  15 H :   -0.032033
  16 H :    0.083454
  17 H :    0.034798
  18 H :   -0.182278
Sum of atomic charges:   -0.0000000

LOEWDIN ATOMIC CHARGES
----------------------
   0 C :    0.018703
   1 N :   -0.010519
   2 C :   -0.091509
   3 C :    0.102716
   4 C :   -0.252180
   5 C :    0.114947
   6 N :    0.187213
   7 H :    0.014615
   8 H :   -0.008673
   9 H :    0.027085
  10 H :   -0.094661
  11 H :   -0.090527
  12 H :    0.023329
  13 H :    0.025364
  14 H :    0.030391
  15 H :    0.029972
  16 H :   -0.005567
  17 H :   -0.006523
  18 H :   -0.014173

  Mayer bond orders larger than 0.100000
B(  0-C ,  1-N ) :   0.9083 B(  0-C ,  2-C ) :   1.1454 B(  0-C , 12-H ) :   0.7912
B(  0-C , 13-H ) :   1.0067 B(  0-C , 15-H ) :   0.1204 B(  1-N ,  4-C ) :   1.1630
B(  1-N ,  5-C ) :   0.2140 B(  1-N ,  9-H ) :   1.0438 B(  1-N , 12-H ) :   0.1130
B(  2-C ,  3-C ) :   1.2486 B(  2-C , 14-H ) :   0.9505 B(  2-C , 15-H ) :   1.0036
B(  2-C , 16-H ) :   0.1660 B(  2-C , 17-H ) :   0.1711 B(  2-C , 18-H ) :   0.1992
B(  3-C , 16-H ) :   0.7664 B(  3-C , 17-H ) :   0.7898 B(  3-C , 18-H ) :   0.8855
B(  4-C ,  5-C ) :   1.8908 B(  4-C ,  6-N ) :   0.9556 B(  4-C ,  9-H ) :  -0.1381
B(  4-C , 10-H ) :   0.1617 B(  4-C , 11-H ) :   0.3204 B(  5-C ,  6-N ) :   0.2245
B(  5-C , 10-H ) :   0.9117 B(  5-C , 11-H ) :   0.5846 B(  6-N ,  7-H ) :   1.0757
B(  6-N ,  8-H ) :   0.9092 B(  7-H ,  8-H ) :  -0.1099 B( 10-H , 11-H ) :   0.1279
B( 16-H , 18-H ) :   0.1344

FINAL SINGLE POINT ENERGY      -305.990339663001

DIPOLE MOMENT
-------------
                                X             Y             Z
Electronic contribution:      1.73841       4.84782      -0.59432
Nuclear contribution   :     -3.17203      -5.30499       0.68068
                        -----------------------------------------
Total Dipole Moment    :     -1.43362      -0.45717       0.08637
                        -----------------------------------------
Magnitude (a.u.)       :      1.50722
Magnitude (Debye)      :      3.83105

Rotational constants in cm-1:     0.149640     0.051631     0.046708
Rotational constants in MHz :  4486.107270  1547.846261  1400.277765

                             ****ORCA TERMINATED NORMALLY****
TOTAL RUN TIME: 0 days 0 hours 0 minutes 39 seconds 58 msec
