                         Program Version 5.0.0 -  RELEASE  -
|  1> !LC-PBE RIJCOSX def2-SVPD def2/J TightSCF
|  2> *xyz 0 1
|  3> C          3.90595        2.81985       -3.75292
|  4> N          5.29562        3.13151       -4.10533
|  5> C          3.80351        1.37472       -3.26081
|  6> C          3.93993        0.32036       -4.36773
|  7> C          5.70862        3.46889       -5.32419
|  8> N          6.90470        3.03895       -5.71708
|  9> C          4.98188        4.29357       -6.09746
| 10> H          5.00055        4.10131       -7.08776
| 11> H          4.08469        4.59690       -5.73965
| 12> H          5.96336        2.52611       -3.64239
| 13> H          7.04716        2.06686       -5.47360
| 14> H          7.19815        3.30799       -6.64523
| 15> H          3.28202        2.94919       -4.64026
| 16> H          3.56525        3.51457       -2.98252
| 17> H          4.57483        1.21516       -2.50044
| 18> H          2.84351        1.26085       -2.75146
| 19> H          3.18417        0.48061       -5.10803
| 20> H          3.82485       -0.65632       -3.94614
| 21> H          4.90589        0.40174       -4.82073
| 22> *
| 23>
| 24> %MaxCore 64000
| 25>
| 26> %pal nprocs 4
| 27> end
| 28>
| 29> %scf
| 30>   MaxIter 150
| 31> end
| 32>
| 33>
| 34>                          ****END OF INPUT****

CARTESIAN COORDINATES (ANGSTROEM)
---------------------------------
  C      3.905950    2.819850   -3.752920
  N      5.295620    3.131510   -4.105330
  C      3.803510    1.374720   -3.260810
  C      3.939930    0.320360   -4.367730
  C      5.708620    3.468890   -5.324190
  N      6.904700    3.038950   -5.717080
  C      4.981880    4.293570   -6.097460
  H      5.000550    4.101310   -7.087760
  H      4.084690    4.596900   -5.739650
  H      5.963360    2.526110   -3.642390
  H      7.047160    2.066860   -5.473600
  H      7.198150    3.307990   -6.645230
  H      3.282020    2.949190   -4.640260
  H      3.565250    3.514570   -2.982520
  H      4.574830    1.215160   -2.500440
  H      2.843510    1.260850   -2.751460
  H      3.184170    0.480610   -5.108030
  H      3.824850   -0.656320   -3.946140
  H      4.905890    0.401740   -4.820730

 Total Charge           Charge          ....    0
 Multiplicity           Mult            ....    1
 Number of Electrons    NEL             ....   56
 Basis Dimension        Dim             ....  236

ORBITAL ENERGIES
----------------

  NO   OCC          E(Eh)            E(eV)
   0   2.0000     -14.234993      -387.3539
   1   2.0000     -14.232649      -387.2901
   2   2.0000     -10.181397      -277.0499
   3   2.0000     -10.160439      -276.4796
   4   2.0000     -10.137092      -275.8443
   5   2.0000     -10.120992      -275.4062
   6   2.0000     -10.043638      -273.3013
   7   2.0000      -1.147859       -31.2348
   8   2.0000      -1.056615       -28.7519
   9   2.0000      -0.958655       -26.0863
  10   2.0000      -0.879760       -23.9395
  11   2.0000      -0.856884       -23.3170
  12   2.0000      -0.766933       -20.8693
  13   2.0000      -0.720169       -19.5968
  14   2.0000      -0.685885       -18.6639
  15   2.0000      -0.664543       -18.0831
  16   2.0000      -0.622223       -16.9315
  17   2.0000      -0.613002       -16.6806
  18   2.0000      -0.575553       -15.6616
  19   2.0000      -0.555150       -15.1064
  20   2.0000      -0.539433       -14.6787
  21   2.0000      -0.518721       -14.1151
  22   2.0000      -0.502873       -13.6839
  23   2.0000      -0.487141       -13.2558
  24   2.0000      -0.479409       -13.0454
  25   2.0000      -0.469323       -12.7709
  26   2.0000      -0.389870       -10.6089
  27   2.0000      -0.295658        -8.0453
  28   0.0000       0.081904         2.2287
  29   0.0000       0.106219         2.8904
  30   0.0000       0.114528         3.1165
  31   0.0000       0.117907         3.2084
  32   0.0000       0.135937         3.6990

MULLIKEN ATOMIC CHARGES
-----------------------
   0 C :    0.546486
   1 N :   -0.303366
   2 C :   -0.417499
   3 C :    0.582953
   4 C :    0.071107
   5 N :   -0.064151
   6 C :    0.309864
   7 H :   -0.298585
   8 H :   -0.039626
   9 H :   -0.120670
  10 H :   -0.023980
  11 H :    0.067859
  12 H :    0.068994
  13 H :   -0.284181
  14 H :   -0.004304
  15 H :   -0.019910
  16 H :    0.077853
  17 H :    0.036077
  18 H :   -0.184920
Sum of atomic charges:   -0.0000000

LOEWDIN ATOMIC CHARGES
----------------------
   0 C :    0.030041
   1 N :   -0.009564
   2 C :   -0.092475
   3 C :    0.100008
   4 C :   -0.264369
   5 N :    0.176316
   6 C :    0.131463
   7 H :   -0.089852
   8 H :   -0.096372
   9 H :    0.017991
  10 H :   -0.003207
  11 H :    0.014102
  12 H :    0.028409
  13 H :    0.029787
  14 H :    0.027114
  15 H :    0.031097
  16 H :   -0.003320
  17 H :   -0.007080
  18 H :   -0.020089

  Mayer bond orders larger than 0.100000
B(  0-C ,  1-N ) :   0.9478 B(  0-C ,  2-C ) :   1.1306 B(  0-C , 12-H ) :   0.8032
B(  0-C , 13-H ) :   1.0235 B(  0-C , 15-H ) :   0.1280 B(  1-N ,  4-C ) :   1.1599
B(  1-N ,  5-N ) :   0.1470 B(  1-N ,  6-C ) :   0.1775 B(  1-N ,  9-H ) :   1.0119
B(  1-N , 12-H ) :   0.1144 B(  2-C ,  3-C ) :   1.2423 B(  2-C , 14-H ) :   0.9584
B(  2-C , 15-H ) :   0.9873 B(  2-C , 16-H ) :   0.1684 B(  2-C , 17-H ) :   0.1680
B(  2-C , 18-H ) :   0.1930 B(  3-C , 16-H ) :   0.7855 B(  3-C , 17-H ) :   0.7938
B(  3-C , 18-H ) :   0.8807 B(  4-C ,  5-N ) :   1.0159 B(  4-C ,  6-C ) :   2.0029
B(  4-C ,  7-H ) :   0.1698 B(  4-C ,  8-H ) :   0.2644 B(  5-N ,  6-C ) :   0.1260
B(  5-N , 10-H ) :   0.9448 B(  5-N , 11-H ) :   0.9662 B(  6-C ,  7-H ) :   0.8831
B(  6-C ,  8-H ) :   0.5618 B(  7-H ,  8-H ) :   0.2500 B( 16-H , 18-H ) :   0.1092

FINAL SINGLE POINT ENERGY      -305.994358455578

DIPOLE MOMENT
-------------
                                X             Y             Z
Electronic contribution:      3.60398       3.66571      -0.29966
Nuclear contribution   :     -3.59323      -5.03016       0.59736
                        -----------------------------------------
Total Dipole Moment    :      0.01074      -1.36445       0.29769
                        -----------------------------------------
Magnitude (a.u.)       :      1.39658
Magnitude (Debye)      :      3.54984

Rotational constants in cm-1:     0.148888     0.051791     0.046487
Rotational constants in MHz :  4463.542717  1552.665696  1393.643356

                             ****ORCA TERMINATED NORMALLY****
TOTAL RUN TIME: 0 days 0 hours 0 minutes 39 seconds 11 msec
