                         Program Version 5.0.0 -  RELEASE  -
|  1> !LC-PBE RIJCOSX def2-SVPD def2/J TightSCF xyzfile
|  2>
|  3> *xyzfile 0 1 D6.xyz
|  4>
|  5> %MaxCore 64000
|  6>
|  7> %pal nprocs 4
|  8> end
|  9>
| 10> %scf
| 11>   MaxIter 150
| 12> end
| 13>
| 14>
| 15>                          ****END OF INPUT****

CARTESIAN COORDINATES (ANGSTROEM)
---------------------------------
  C      3.905947    2.819855   -3.752920
  N      5.295615    3.131515   -4.105334
  C      3.803511    1.374716   -3.260807
  C      3.939934    0.320362   -4.367729
  H      4.105043   -0.655085   -3.907733
  H      3.022801    0.280517   -4.957117
  C      5.105846    0.668022   -5.305463
  C      5.708619    3.468885   -5.324190
  N      6.904696    3.038954   -5.717084
  C      4.981884    4.293570   -6.097457
  H      5.000546    4.101311   -7.087761
  H      4.084693    4.596899   -5.739652
  H      5.963358    2.526112   -3.642391
  H      7.047164    2.066861   -5.473604
  H      7.198145    3.307994   -6.645225
  H      3.282025    2.949187   -4.640259
  H      3.565254    3.514574   -2.982523
  H      4.574833    1.215157   -2.500443
  H      2.843514    1.260845   -2.751465
  O      4.809132    1.150187   -6.414361
  F      6.267366    0.564999   -4.819481

 Total Charge           Charge          ....    0
 Multiplicity           Mult            ....    1
 Number of Electrons    NEL             ....   78
 Basis Dimension        Dim             ....  294

ORBITAL ENERGIES
----------------

  NO   OCC          E(Eh)            E(eV)
   0   2.0000     -24.605526      -669.5504
   1   2.0000     -19.019152      -517.5374
   2   2.0000     -14.240908      -387.5148
   3   2.0000     -14.218022      -386.8920
   4   2.0000     -10.332565      -281.1634
   5   2.0000     -10.176133      -276.9067
   6   2.0000     -10.173347      -276.8309
   7   2.0000     -10.172740      -276.8143
   8   2.0000     -10.163212      -276.5550
   9   2.0000     -10.036764      -273.1142
  10   2.0000      -1.490232       -40.5513
  11   2.0000      -1.214604       -33.0511
  12   2.0000      -1.147141       -31.2153
  13   2.0000      -1.058294       -28.7976
  14   2.0000      -0.991438       -26.9784
  15   2.0000      -0.905416       -24.6376
  16   2.0000      -0.868314       -23.6280
  17   2.0000      -0.841599       -22.9011
  18   2.0000      -0.796188       -21.6654
  19   2.0000      -0.742364       -20.2007
  20   2.0000      -0.732940       -19.9443
  21   2.0000      -0.718322       -19.5465
  22   2.0000      -0.675392       -18.3783
  23   2.0000      -0.661526       -18.0010
  24   2.0000      -0.650056       -17.6889
  25   2.0000      -0.634356       -17.2617
  26   2.0000      -0.628447       -17.1009
  27   2.0000      -0.575875       -15.6704
  28   2.0000      -0.570092       -15.5130
  29   2.0000      -0.548345       -14.9212
  30   2.0000      -0.536525       -14.5996
  31   2.0000      -0.528031       -14.3685
  32   2.0000      -0.518595       -14.1117
  33   2.0000      -0.502286       -13.6679
  34   2.0000      -0.493664       -13.4333
  35   2.0000      -0.469783       -12.7835
  36   2.0000      -0.439747       -11.9661
  37   2.0000      -0.388563       -10.5733
  38   2.0000      -0.290055        -7.8928
  39   0.0000       0.051866         1.4114
  40   0.0000       0.075406         2.0519
  41   0.0000       0.101818         2.7706
  42   0.0000       0.107118         2.9148
  43   0.0000       0.114403         3.1131

MULLIKEN ATOMIC CHARGES
-----------------------
   0 C :    0.616104
   1 N :   -0.265569
   2 C :   -0.037083
   3 C :    0.111870
   4 H :    0.032130
   5 H :    0.108332
   6 C :    0.490438
   7 C :   -0.017527
   8 N :    0.086546
   9 C :    0.296557
  10 H :   -0.320479
  11 H :   -0.100849
  12 H :   -0.119632
  13 H :   -0.093222
  14 H :    0.115425
  15 H :    0.083377
  16 H :   -0.298915
  17 H :    0.069415
  18 H :   -0.037932
  19 O :   -0.333841
  20 F :   -0.385147
Sum of atomic charges:   -0.0000000

LOEWDIN ATOMIC CHARGES
----------------------
   0 C :    0.049840
   1 N :    0.002492
   2 C :   -0.033391
   3 C :    0.042679
   4 H :    0.043947
   5 H :    0.051388
   6 C :   -0.028964
   7 C :   -0.280141
   8 N :    0.202464
   9 C :    0.137969
  10 H :   -0.081075
  11 H :   -0.094993
  12 H :    0.013185
  13 H :   -0.056464
  14 H :    0.025026
  15 H :    0.037238
  16 H :    0.033322
  17 H :    0.036659
  18 H :    0.039479
  19 O :   -0.103245
  20 F :   -0.037415

  Mayer bond orders larger than 0.100000
B(  0-C ,  1-N ) :   0.8719 B(  0-C ,  2-C ) :   1.1377 B(  0-C , 15-H ) :   0.7792
B(  0-C , 16-H ) :   0.9940 B(  0-C , 18-H ) :   0.1517 B(  1-N ,  2-C ) :   0.1542
B(  1-N ,  7-C ) :   1.2132 B(  1-N ,  9-C ) :   0.2037 B(  1-N , 12-H ) :   0.9785
B(  1-N , 15-H ) :   0.1291 B(  2-C ,  3-C ) :   1.1889 B(  2-C ,  4-H ) :   0.1506
B(  2-C , 17-H ) :   0.8763 B(  2-C , 18-H ) :   0.9501 B(  3-C ,  4-H ) :   0.8468
B(  3-C ,  5-H ) :   0.8704 B(  3-C ,  6-C ) :   1.1260 B(  5-H ,  6-C ) :   0.1891
B(  6-C , 19-O ) :   1.9256 B(  6-C , 20-F ) :   0.6817 B(  7-C ,  8-N ) :   1.0208
B(  7-C ,  9-C ) :   2.0772 B(  7-C , 10-H ) :   0.2059 B(  7-C , 11-H ) :   0.2682
B(  7-C , 12-H ) :  -0.1315 B(  7-C , 13-H ) :   0.1363 B(  8-N ,  9-C ) :   0.1334
B(  8-N , 13-H ) :   0.8497 B(  8-N , 14-H ) :   0.8849 B(  9-C , 10-H ) :   0.8613
B(  9-C , 11-H ) :   0.6168 B( 10-H , 11-H ) :   0.1510

FINAL SINGLE POINT ENERGY      -517.889186662363

DIPOLE MOMENT
-------------
                                X             Y             Z
Electronic contribution:      5.91876      -5.75641      -2.29013
Nuclear contribution   :     -6.29470       4.03423       3.50525
                        -----------------------------------------
Total Dipole Moment    :     -0.37594      -1.72218       1.21513
                        -----------------------------------------
Magnitude (a.u.)       :      2.14097
Magnitude (Debye)      :      5.44192

Rotational constants in cm-1:     0.061094     0.043661     0.033867
Rotational constants in MHz :  1831.559881  1308.929520  1015.295167

                             ****ORCA TERMINATED NORMALLY****
TOTAL RUN TIME: 0 days 0 hours 1 minutes 23 seconds 190 msec
