                         Program Version 5.0.0 -  RELEASE  -
|  1> !M062X D3Zero RIJCOSX def2-SVP def2/J TightSCF
|  2> *xyz -1 1
|  3> C         -1.91658       -2.48508       -3.64367
|  4> C         -1.36353       -1.98134       -2.29361
|  5> O         -0.35039       -2.74969       -1.79601
|  6> H         -2.22622       -1.90839       -1.60204
|  7> H         -1.05135       -0.91567       -2.44333
|  8> H         -1.11522       -2.57167       -4.34739
|  9> H         -2.64227       -1.79099       -4.01314
| 10> H         -2.37564       -3.44180       -3.50640
| 11> *
| 12>
| 13> %MaxCore 64000
| 14> %pal nprocs 4
| 15> end
| 16>
| 17> %scf
| 18>   MaxIter 150
| 19> end
| 20>
| 21>
| 22>                          ****END OF INPUT****

CARTESIAN COORDINATES (ANGSTROEM)
---------------------------------
  C     -1.916580   -2.485080   -3.643670
  C     -1.363530   -1.981340   -2.293610
  O     -0.350390   -2.749690   -1.796010
  H     -2.226220   -1.908390   -1.602040
  H     -1.051350   -0.915670   -2.443330
  H     -1.115220   -2.571670   -4.347390
  H     -2.642270   -1.790990   -4.013140
  H     -2.375640   -3.441800   -3.506400

 Total Charge           Charge          ....   -1
 Multiplicity           Mult            ....    1
 Number of Electrons    NEL             ....   26
 Basis Dimension        Dim             ....   67

ORBITAL ENERGIES
----------------

  NO   OCC          E(Eh)            E(eV)
   0   2.0000     -19.240360      -523.5568
   1   2.0000     -10.341142      -281.3968
   2   2.0000     -10.328099      -281.0419
   3   2.0000      -0.738250       -20.0888
   4   2.0000      -0.593221       -16.1424
   5   2.0000      -0.426809       -11.6141
   6   2.0000      -0.301484        -8.2038
   7   2.0000      -0.278823        -7.5872
   8   2.0000      -0.217352        -5.9145
   9   2.0000      -0.200744        -5.4625
  10   2.0000      -0.138478        -3.7682
  11   2.0000       0.008826         0.2402
  12   2.0000       0.011135         0.3030
  13   0.0000       0.291161         7.9229
  14   0.0000       0.335968         9.1421
  15   0.0000       0.349188         9.5019
  16   0.0000       0.358324         9.7505
  17   0.0000       0.399506        10.8711

MULLIKEN ATOMIC CHARGES
-----------------------
   0 C :   -0.026192
   1 C :    0.238404
   2 O :   -0.741292
   3 H :   -0.153495
   4 H :   -0.158060
   5 H :   -0.035643
   6 H :   -0.086981
   7 H :   -0.036741
Sum of atomic charges:   -1.0000000

LOEWDIN ATOMIC CHARGES
----------------------
   0 C :   -0.118927
   1 C :    0.011708
   2 O :   -0.685217
   3 H :   -0.078877
   4 H :   -0.082174
   5 H :   -0.009159
   6 H :   -0.027757
   7 H :   -0.009597

  Mayer bond orders larger than 0.100000
B(  0-C ,  1-C ) :   0.9914 B(  0-C ,  5-H ) :   0.9636 B(  0-C ,  6-H ) :   0.9371
B(  0-C ,  7-H ) :   0.9657 B(  1-C ,  2-O ) :   1.4816 B(  1-C ,  3-H ) :   0.8807
B(  1-C ,  4-H ) :   0.8800

Dispersion correction           -0.000015225
FINAL SINGLE POINT ENERGY      -154.194160642826

DIPOLE MOMENT
-------------
                                X             Y             Z
Electronic contribution:      2.24100      -1.05989       1.91621
Nuclear contribution   :     -3.14382       1.30299      -2.83231
                        -----------------------------------------
Total Dipole Moment    :     -0.90282       0.24310      -0.91609
                        -----------------------------------------
Magnitude (a.u.)       :      1.30897
Magnitude (Debye)      :      3.32714

Rotational constants in cm-1:     1.288206     0.322942     0.285188
Rotational constants in MHz : 38619.437223  9681.562038  8549.712012

                             ****ORCA TERMINATED NORMALLY****
TOTAL RUN TIME: 0 days 0 hours 0 minutes 8 seconds 97 msec
