                         Program Version 5.0.0 -  RELEASE  -
|  1> !M062X D3Zero RIJCOSX def2-SVP def2/J TightSCF
|  2> *xyz 1 1
|  3> C          1.64703       -2.34528       -5.02041
|  4> C          2.20996       -2.81239       -3.66571
|  5> C          2.48901       -1.66851       -2.73754
|  6> N          3.59631       -0.94761       -2.95225
|  7> N          1.66394       -1.41369       -1.77781
|  8> H          0.81164       -1.96318       -1.70275
|  9> H          1.84550       -0.63508       -1.15875
| 10> H          4.20535       -1.17600       -3.73383
| 11> H          3.81723       -0.12585       -2.40604
| 12> H          3.14311       -3.36280       -3.81152
| 13> H          1.48768       -3.45893       -3.16521
| 14> H          1.46566       -3.19589       -5.64368
| 15> H          2.35406       -1.69850       -5.49654
| 16> H          0.73014       -1.81680       -4.86253
| 17> *
| 18>
| 19> %MaxCore 64000
| 20> %pal nprocs 4
| 21> end
| 22>
| 23> %scf
| 24>   MaxIter 150
| 25> end
| 26>
| 27>
| 28>                          ****END OF INPUT****

CARTESIAN COORDINATES (ANGSTROEM)
---------------------------------
  C      1.647030   -2.345280   -5.020410
  C      2.209960   -2.812390   -3.665710
  C      2.489010   -1.668510   -2.737540
  N      3.596310   -0.947610   -2.952250
  N      1.663940   -1.413690   -1.777810
  H      0.811640   -1.963180   -1.702750
  H      1.845500   -0.635080   -1.158750
  H      4.205350   -1.176000   -3.733830
  H      3.817230   -0.125850   -2.406040
  H      3.143110   -3.362800   -3.811520
  H      1.487680   -3.458930   -3.165210
  H      1.465660   -3.195890   -5.643680
  H      2.354060   -1.698500   -5.496540
  H      0.730140   -1.816800   -4.862530

 Total Charge           Charge          ....    1
 Multiplicity           Mult            ....    1
 Number of Electrons    NEL             ....   40
 Basis Dimension        Dim             ....  115

ORBITAL ENERGIES
----------------

  NO   OCC          E(Eh)            E(eV)
   0   2.0000     -15.014117      -408.5549
   1   2.0000     -15.003884      -408.2764
   2   2.0000     -10.875953      -295.9497
   3   2.0000     -10.748841      -292.4908
   4   2.0000     -10.707264      -291.3595
   5   2.0000      -1.306434       -35.5499
   6   2.0000      -1.201895       -32.7052
   7   2.0000      -1.057836       -28.7852
   8   2.0000      -0.941720       -25.6255
   9   2.0000      -0.896524       -24.3957
  10   2.0000      -0.851088       -23.1593
  11   2.0000      -0.825881       -22.4734
  12   2.0000      -0.774464       -21.0742
  13   2.0000      -0.721650       -19.6371
  14   2.0000      -0.691007       -18.8033
  15   2.0000      -0.681568       -18.5464
  16   2.0000      -0.606193       -16.4953
  17   2.0000      -0.597498       -16.2587
  18   2.0000      -0.592480       -16.1222
  19   2.0000      -0.553583       -15.0638
  20   0.0000      -0.159750        -4.3470
  21   0.0000      -0.110446        -3.0054
  22   0.0000      -0.064357        -1.7512
  23   0.0000      -0.062444        -1.6992
  24   0.0000      -0.030651        -0.8341

MULLIKEN ATOMIC CHARGES
-----------------------
   0 C :   -0.028003
   1 C :   -0.075828
   2 C :   -0.042899
   3 N :   -0.062472
   4 N :    0.005108
   5 H :    0.205796
   6 H :    0.190841
   7 H :    0.200063
   8 H :    0.187744
   9 H :    0.109136
  10 H :    0.080679
  11 H :    0.103459
  12 H :    0.060026
  13 H :    0.066349
Sum of atomic charges:    1.0000000

LOEWDIN ATOMIC CHARGES
----------------------
   0 C :   -0.024871
   1 C :   -0.037726
   2 C :    0.156836
   3 N :    0.066966
   4 N :    0.106433
   5 H :    0.130831
   6 H :    0.118952
   7 H :    0.124730
   8 H :    0.113435
   9 H :    0.064079
  10 H :    0.052930
  11 H :    0.055353
  12 H :    0.033482
  13 H :    0.038572

  Mayer bond orders larger than 0.100000
B(  0-C ,  1-C ) :   1.0609 B(  0-C , 11-H ) :   0.9645 B(  0-C , 12-H ) :   0.9729
B(  0-C , 13-H ) :   0.9691 B(  1-C ,  2-C ) :   1.0124 B(  1-C ,  9-H ) :   0.9246
B(  1-C , 10-H ) :   0.9277 B(  2-C ,  3-N ) :   1.4790 B(  2-C ,  4-N ) :   1.5593
B(  3-N ,  7-H ) :   0.9163 B(  3-N ,  8-H ) :   0.9260 B(  4-N ,  5-H ) :   0.9048
B(  4-N ,  6-H ) :   0.9192

Dispersion correction           -0.000201902
FINAL SINGLE POINT ENERGY      -228.741963371125

DIPOLE MOMENT
-------------
                                X             Y             Z
Electronic contribution:      1.19551       1.68136       3.64580
Nuclear contribution   :     -0.98617      -1.03178      -2.77619
                        -----------------------------------------
Total Dipole Moment    :      0.20934       0.64958       0.86961
                        -----------------------------------------
Magnitude (a.u.)       :      1.10544
Magnitude (Debye)      :      2.80981

Rotational constants in cm-1:     0.257311     0.127495     0.099037
Rotational constants in MHz :  7713.982239  3822.189706  2969.039713

                             ****ORCA TERMINATED NORMALLY****
TOTAL RUN TIME: 0 days 0 hours 0 minutes 14 seconds 690 msec
