                         Program Version 5.0.0 -  RELEASE  -
|  1> !M062X D3Zero RIJCOSX def2-SVP def2/J TightSCF
|  2> *xyz 0 1
|  3> C         -1.91658       -2.48508       -3.64367
|  4> C         -1.36353       -1.98134       -2.29361
|  5> F         -0.35039       -2.74969       -1.79601
|  6> H         -2.22622       -1.90839       -1.60204
|  7> H         -1.05135       -0.91567       -2.44333
|  8> H         -1.11522       -2.57167       -4.34739
|  9> H         -2.64227       -1.79099       -4.01314
| 10> H         -2.37564       -3.44180       -3.50640
| 11> *
| 12>
| 13> %MaxCore 64000
| 14> %pal nprocs 4
| 15> end
| 16>
| 17> %scf
| 18>   MaxIter 150
| 19> end
| 20>
| 21>
| 22>                          ****END OF INPUT****

CARTESIAN COORDINATES (ANGSTROEM)
---------------------------------
  C     -1.916580   -2.485080   -3.643670
  C     -1.363530   -1.981340   -2.293610
  F     -0.350390   -2.749690   -1.796010
  H     -2.226220   -1.908390   -1.602040
  H     -1.051350   -0.915670   -2.443330
  H     -1.115220   -2.571670   -4.347390
  H     -2.642270   -1.790990   -4.013140
  H     -2.375640   -3.441800   -3.506400

 Total Charge           Charge          ....    0
 Multiplicity           Mult            ....    1
 Number of Electrons    NEL             ....   26
 Basis Dimension        Dim             ....   67

ORBITAL ENERGIES
----------------

  NO   OCC          E(Eh)            E(eV)
   0   2.0000     -25.225538      -686.4218
   1   2.0000     -10.626559      -289.1634
   2   2.0000     -10.545135      -286.9477
   3   2.0000      -1.308726       -35.6123
   4   2.0000      -0.849686       -23.1211
   5   2.0000      -0.710162       -19.3245
   6   2.0000      -0.582474       -15.8499
   7   2.0000      -0.573009       -15.5924
   8   2.0000      -0.536711       -14.6046
   9   2.0000      -0.476359       -12.9624
  10   2.0000      -0.465482       -12.6664
  11   2.0000      -0.399214       -10.8632
  12   2.0000      -0.392760       -10.6876
  13   0.0000       0.103507         2.8166
  14   0.0000       0.150235         4.0881
  15   0.0000       0.157649         4.2899
  16   0.0000       0.176689         4.8080
  17   0.0000       0.193796         5.2735

MULLIKEN ATOMIC CHARGES
-----------------------
   0 C :   -0.115359
   1 C :    0.194969
   2 F :   -0.282303
   3 H :    0.029816
   4 H :    0.030550
   5 H :    0.051769
   6 H :    0.040477
   7 H :    0.050081
Sum of atomic charges:   -0.0000000

LOEWDIN ATOMIC CHARGES
----------------------
   0 C :   -0.079876
   1 C :    0.108380
   2 F :   -0.142070
   3 H :    0.011995
   4 H :    0.013117
   5 H :    0.028630
   6 H :    0.032425
   7 H :    0.027399

  Mayer bond orders larger than 0.100000
B(  0-C ,  1-C ) :   1.0870 B(  0-C ,  5-H ) :   0.9717 B(  0-C ,  6-H ) :   0.9644
B(  0-C ,  7-H ) :   0.9729 B(  1-C ,  2-F ) :   0.9716 B(  1-C ,  3-H ) :   0.9614
B(  1-C ,  4-H ) :   0.9627

Dispersion correction           -0.000019349
FINAL SINGLE POINT ENERGY      -178.833145455910

DIPOLE MOMENT
-------------
                                X             Y             Z
Electronic contribution:      3.62486      -1.35698       3.44075
Nuclear contribution   :     -4.15401       1.70894      -3.75000
                        -----------------------------------------
Total Dipole Moment    :     -0.52916       0.35195      -0.30925
                        -----------------------------------------
Magnitude (a.u.)       :      0.70676
Magnitude (Debye)      :      1.79645

Rotational constants in cm-1:     1.266842     0.300492     0.266603
Rotational constants in MHz : 37978.968232  9008.526876  7992.551454

                             ****ORCA TERMINATED NORMALLY****
TOTAL RUN TIME: 0 days 0 hours 0 minutes 7 seconds 697 msec
