                         Program Version 5.0.0 -  RELEASE  -
|  1> !M062X D3Zero RIJCOSX def2-SVP def2/J TightSCF
|  2> *xyz 0 1
|  3> C          1.64703       -2.34528       -5.02041
|  4> C          2.20996       -2.81239       -3.66571
|  5> C          2.48901       -1.66851       -2.73754
|  6> C          3.59631       -0.94761       -2.95225
|  7> N          1.66394       -1.41369       -1.77781
|  8> H          0.81164       -1.96318       -1.70275
|  9> H          1.84550       -0.63508       -1.15875
| 10> H          4.20535       -1.17600       -3.73383
| 11> H          3.81723       -0.12585       -2.40604
| 12> H          3.14311       -3.36280       -3.81152
| 13> H          1.48768       -3.45893       -3.16521
| 14> H          1.46566       -3.19589       -5.64368
| 15> H          2.35406       -1.69850       -5.49654
| 16> H          0.73014       -1.81680       -4.86253
| 17> *
| 18>
| 19> %MaxCore 64000
| 20> %pal nprocs 4
| 21> end
| 22>
| 23> %scf
| 24>   MaxIter 150
| 25> end
| 26>
| 27>
| 28>                          ****END OF INPUT****

CARTESIAN COORDINATES (ANGSTROEM)
---------------------------------
  C      1.647030   -2.345280   -5.020410
  C      2.209960   -2.812390   -3.665710
  C      2.489010   -1.668510   -2.737540
  C      3.596310   -0.947610   -2.952250
  N      1.663940   -1.413690   -1.777810
  H      0.811640   -1.963180   -1.702750
  H      1.845500   -0.635080   -1.158750
  H      4.205350   -1.176000   -3.733830
  H      3.817230   -0.125850   -2.406040
  H      3.143110   -3.362800   -3.811520
  H      1.487680   -3.458930   -3.165210
  H      1.465660   -3.195890   -5.643680
  H      2.354060   -1.698500   -5.496540
  H      0.730140   -1.816800   -4.862530

 Total Charge           Charge          ....    0
 Multiplicity           Mult            ....    1
 Number of Electrons    NEL             ....   40
 Basis Dimension        Dim             ....  115

ORBITAL ENERGIES
----------------

  NO   OCC          E(Eh)            E(eV)
   0   2.0000     -14.759346      -401.6222
   1   2.0000     -10.565106      -287.4912
   2   2.0000     -10.547266      -287.0057
   3   2.0000     -10.534485      -286.6579
   4   2.0000     -10.476146      -285.0704
   5   2.0000      -1.030351       -28.0373
   6   2.0000      -0.864431       -23.5224
   7   2.0000      -0.787971       -21.4418
   8   2.0000      -0.715335       -19.4652
   9   2.0000      -0.638091       -17.3633
  10   2.0000      -0.600069       -16.3287
  11   2.0000      -0.546538       -14.8721
  12   2.0000      -0.507209       -13.8019
  13   2.0000      -0.474291       -12.9061
  14   2.0000      -0.455503       -12.3949
  15   2.0000      -0.442468       -12.0402
  16   2.0000      -0.410447       -11.1688
  17   2.0000      -0.395089       -10.7509
  18   2.0000      -0.390525       -10.6267
  19   2.0000      -0.228605        -6.2206
  20   0.0000       0.083555         2.2736
  21   0.0000       0.103873         2.8265
  22   0.0000       0.133098         3.6218
  23   0.0000       0.138027         3.7559
  24   0.0000       0.160728         4.3736

MULLIKEN ATOMIC CHARGES
-----------------------
   0 C :   -0.015047
   1 C :   -0.033129
   2 C :   -0.157113
   3 C :   -0.073679
   4 N :   -0.092401
   5 H :    0.128762
   6 H :    0.133495
   7 H :   -0.020364
   8 H :   -0.035147
   9 H :    0.053796
  10 H :    0.008840
  11 H :    0.035231
  12 H :    0.039297
  13 H :    0.027459
Sum of atomic charges:    0.0000000

LOEWDIN ATOMIC CHARGES
----------------------
   0 C :   -0.046296
   1 C :   -0.034996
   2 C :   -0.001505
   3 C :   -0.194898
   4 N :   -0.001945
   5 H :    0.077641
   6 H :    0.083881
   7 H :   -0.000205
   8 H :   -0.007856
   9 H :    0.039276
  10 H :    0.016353
  11 H :    0.022188
  12 H :    0.026205
  13 H :    0.022157

  Mayer bond orders larger than 0.100000
B(  0-C ,  1-C ) :   1.0890 B(  0-C , 11-H ) :   0.9712 B(  0-C , 12-H ) :   0.9745
B(  0-C , 13-H ) :   0.9703 B(  1-C ,  2-C ) :   0.9989 B(  1-C ,  9-H ) :   0.9429
B(  1-C , 10-H ) :   0.9409 B(  2-C ,  3-C ) :   1.8428 B(  2-C ,  4-N ) :   1.2969
B(  3-C ,  7-H ) :   0.9467 B(  3-C ,  8-H ) :   0.9547 B(  4-N ,  5-H ) :   0.9395
B(  4-N ,  6-H ) :   0.9402

Dispersion correction           -0.000198648
FINAL SINGLE POINT ENERGY      -212.284915982942

DIPOLE MOMENT
-------------
                                X             Y             Z
Electronic contribution:     -0.09046       0.65356       3.05377
Nuclear contribution   :     -0.69146      -0.83112      -2.71336
                        -----------------------------------------
Total Dipole Moment    :     -0.78192      -0.17756       0.34040
                        -----------------------------------------
Magnitude (a.u.)       :      0.87109
Magnitude (Debye)      :      2.21415

Rotational constants in cm-1:     0.270661     0.129240     0.102040
Rotational constants in MHz :  8114.202941  3874.518141  3059.074383

                             ****ORCA TERMINATED NORMALLY****
TOTAL RUN TIME: 0 days 0 hours 0 minutes 14 seconds 830 msec
