                         Program Version 5.0.0 -  RELEASE  -
|  1> !M062X D3Zero RIJCOSX def2-SVP def2/J TightSCF
|  2> *xyz 0 1
|  3> C          1.64703       -2.34528       -5.02041
|  4> C          2.20996       -2.81239       -3.66571
|  5> C          2.48901       -1.66851       -2.73754
|  6> N          3.59631       -0.94761       -2.95225
|  7> C          1.66394       -1.41369       -1.77781
|  8> H          0.81164       -1.96318       -1.70275
|  9> H          1.84550       -0.63508       -1.15875
| 10> H          4.20535       -1.17600       -3.73383
| 11> H          3.81723       -0.12585       -2.40604
| 12> H          3.14311       -3.36280       -3.81152
| 13> H          1.48768       -3.45893       -3.16521
| 14> H          1.46566       -3.19589       -5.64368
| 15> H          2.35406       -1.69850       -5.49654
| 16> H          0.73014       -1.81680       -4.86253
| 17> *
| 18>
| 19> %MaxCore 64000
| 20> %pal nprocs 4
| 21> end
| 22>
| 23> %scf
| 24>   MaxIter 150
| 25> end
| 26>
| 27>
| 28>                          ****END OF INPUT****

CARTESIAN COORDINATES (ANGSTROEM)
---------------------------------
  C      1.647030   -2.345280   -5.020410
  C      2.209960   -2.812390   -3.665710
  C      2.489010   -1.668510   -2.737540
  N      3.596310   -0.947610   -2.952250
  C      1.663940   -1.413690   -1.777810
  H      0.811640   -1.963180   -1.702750
  H      1.845500   -0.635080   -1.158750
  H      4.205350   -1.176000   -3.733830
  H      3.817230   -0.125850   -2.406040
  H      3.143110   -3.362800   -3.811520
  H      1.487680   -3.458930   -3.165210
  H      1.465660   -3.195890   -5.643680
  H      2.354060   -1.698500   -5.496540
  H      0.730140   -1.816800   -4.862530

 Total Charge           Charge          ....    0
 Multiplicity           Mult            ....    1
 Number of Electrons    NEL             ....   40
 Basis Dimension        Dim             ....  115

ORBITAL ENERGIES
----------------

  NO   OCC          E(Eh)            E(eV)
   0   2.0000     -14.752160      -401.4267
   1   2.0000     -10.562200      -287.4121
   2   2.0000     -10.545778      -286.9652
   3   2.0000     -10.535867      -286.6955
   4   2.0000     -10.480074      -285.1773
   5   2.0000      -1.010997       -27.5106
   6   2.0000      -0.864573       -23.5262
   7   2.0000      -0.803537       -21.8654
   8   2.0000      -0.710780       -19.3413
   9   2.0000      -0.633891       -17.2491
  10   2.0000      -0.587669       -15.9913
  11   2.0000      -0.547000       -14.8846
  12   2.0000      -0.499448       -13.5907
  13   2.0000      -0.486499       -13.2383
  14   2.0000      -0.457900       -12.4601
  15   2.0000      -0.445700       -12.1281
  16   2.0000      -0.410558       -11.1719
  17   2.0000      -0.390112       -10.6155
  18   2.0000      -0.386384       -10.5140
  19   2.0000      -0.241821        -6.5803
  20   0.0000       0.085176         2.3178
  21   0.0000       0.107548         2.9265
  22   0.0000       0.136633         3.7180
  23   0.0000       0.142602         3.8804
  24   0.0000       0.157289         4.2801

MULLIKEN ATOMIC CHARGES
-----------------------
   0 C :   -0.017586
   1 C :   -0.031081
   2 C :   -0.107427
   3 N :   -0.154226
   4 C :   -0.048302
   5 H :   -0.020356
   6 H :   -0.033922
   7 H :    0.124930
   8 H :    0.129783
   9 H :    0.028512
  10 H :    0.034922
  11 H :    0.038416
  12 H :    0.021107
  13 H :    0.035232
Sum of atomic charges:    0.0000000

LOEWDIN ATOMIC CHARGES
----------------------
   0 C :   -0.050684
   1 C :   -0.034723
   2 C :    0.007211
   3 N :   -0.035878
   4 C :   -0.165208
   5 H :    0.005019
   6 H :   -0.002928
   7 H :    0.073091
   8 H :    0.077819
   9 H :    0.023171
  10 H :    0.034696
  11 H :    0.023956
  12 H :    0.017782
  13 H :    0.026676

  Mayer bond orders larger than 0.100000
B(  0-C ,  1-C ) :   1.0816 B(  0-C , 11-H ) :   0.9722 B(  0-C , 12-H ) :   0.9725
B(  0-C , 13-H ) :   0.9711 B(  1-C ,  2-C ) :   1.0158 B(  1-C ,  9-H ) :   0.9380
B(  1-C , 10-H ) :   0.9410 B(  2-C ,  3-N ) :   1.2282 B(  2-C ,  4-C ) :   1.9038
B(  3-N ,  7-H ) :   0.9485 B(  3-N ,  8-H ) :   0.9476 B(  4-C ,  5-H ) :   0.9326
B(  4-C ,  6-H ) :   0.9477

Dispersion correction           -0.000198449
FINAL SINGLE POINT ENERGY      -212.289069905813

DIPOLE MOMENT
-------------
                                X             Y             Z
Electronic contribution:      1.69188       1.09680       1.97367
Nuclear contribution   :     -1.13902      -0.93906      -2.44135
                        -----------------------------------------
Total Dipole Moment    :      0.55286       0.15773      -0.46768
                        -----------------------------------------
Magnitude (a.u.)       :      0.74112
Magnitude (Debye)      :      1.88378

Rotational constants in cm-1:     0.267243     0.130607     0.102304
Rotational constants in MHz :  8011.748167  3915.504600  3066.999841

                             ****ORCA TERMINATED NORMALLY****
TOTAL RUN TIME: 0 days 0 hours 0 minutes 14 seconds 964 msec
