                         Program Version 5.0.0 -  RELEASE  -
|  1> !M062X D3Zero RIJCOSX def2-TZVP def2/J TightSCF xyzfile
|  2>
|  3> *xyzfile 0 1 D1.xyz
|  4>
|  5> %MaxCore 64000
|  6>
|  7> %pal nprocs 18
|  8> end
|  9>
| 10> %scf
| 11>   MaxIter 150
| 12> end
| 13>
| 14>
| 15>                          ****END OF INPUT****

CARTESIAN COORDINATES (ANGSTROEM)
---------------------------------
  C      1.647032   -2.345276   -5.020411
  C      0.217628   -1.814022   -4.924389
  C      2.209964   -2.812388   -3.665708
  C     -0.811356   -2.908780   -4.607625
  C     -1.916579   -2.485081   -3.643665
  H     -2.554525   -1.712428   -4.091993
  C     -1.363531   -1.981337   -2.293608
  H     -2.553448   -3.355667   -3.458815
  F     -0.350395   -2.749689   -1.796006
  H      2.308385   -1.588704   -5.457128
  H      1.674286   -3.203478   -5.697392
  C      2.489007   -1.668510   -2.737538
  C      3.596314   -0.947608   -2.952247
  N      1.663936   -1.413685   -1.777806
  H      0.811642   -1.963178   -1.702755
  H      1.845503   -0.635078   -1.158749
  H      4.205351   -1.176003   -3.733825
  H      3.817230   -0.125845   -2.406041
  H     -1.244829   -3.280884   -5.541040
  H     -0.306331   -3.757746   -4.142734
  H     -0.036244   -1.318555   -5.865303
  H      0.175004   -1.035382   -4.158095
  H      3.143106   -3.362803   -3.811524
  H      1.487683   -3.458935   -3.165211
  H     -2.226220   -1.908386   -1.602039
  H     -1.051353   -0.915671   -2.443331

 Total Charge           Charge          ....    0
 Multiplicity           Mult            ....    1
 Number of Electrons    NEL             ....   80
 Basis Dimension        Dim             ....  406

ORBITAL ENERGIES
----------------

  NO   OCC          E(Eh)            E(eV)
   0   2.0000     -25.281417      -687.9423
   1   2.0000     -14.716151      -400.4468
   2   2.0000     -10.635259      -289.4001
   3   2.0000     -10.552454      -287.1469
   4   2.0000     -10.540418      -286.8194
   5   2.0000     -10.536473      -286.7120
   6   2.0000     -10.528123      -286.4848
   7   2.0000     -10.525073      -286.4018
   8   2.0000     -10.521067      -286.2928
   9   2.0000     -10.448657      -284.3224
  10   2.0000      -1.402482       -38.1635
  11   2.0000      -1.027073       -27.9481
  12   2.0000      -0.922213       -25.0947
  13   2.0000      -0.878705       -23.9108
  14   2.0000      -0.832629       -22.6570
  15   2.0000      -0.786253       -21.3950
  16   2.0000      -0.757675       -20.6174
  17   2.0000      -0.699257       -19.0278
  18   2.0000      -0.675857       -18.3910
  19   2.0000      -0.661887       -18.0109
  20   2.0000      -0.624380       -16.9902
  21   2.0000      -0.610413       -16.6102
  22   2.0000      -0.593480       -16.1494
  23   2.0000      -0.560539       -15.2530
  24   2.0000      -0.539194       -14.6722
  25   2.0000      -0.532615       -14.4932
  26   2.0000      -0.513694       -13.9783
  27   2.0000      -0.488282       -13.2868
  28   2.0000      -0.486089       -13.2272
  29   2.0000      -0.454598       -12.3702
  30   2.0000      -0.435124       -11.8403
  31   2.0000      -0.429086       -11.6760
  32   2.0000      -0.425782       -11.5861
  33   2.0000      -0.419244       -11.4082
  34   2.0000      -0.402812       -10.9611
  35   2.0000      -0.392090       -10.6693
  36   2.0000      -0.378471       -10.2987
  37   2.0000      -0.370993       -10.0952
  38   2.0000      -0.366859        -9.9827
  39   2.0000      -0.219591        -5.9754
  40   0.0000       0.059503         1.6192
  41   0.0000       0.072612         1.9759
  42   0.0000       0.080539         2.1916
  43   0.0000       0.092993         2.5305
  44   0.0000       0.097680         2.6580

MULLIKEN ATOMIC CHARGES
-----------------------
   0 C :   -0.245052
   1 C :   -0.308844
   2 C :   -0.422268
   3 C :   -0.297136
   4 C :   -0.275592
   5 H :    0.152744
   6 C :   -0.127110
   7 H :    0.147928
   8 F :   -0.211379
   9 H :    0.155141
  10 H :    0.139410
  11 C :    0.338914
  12 C :   -0.495357
  13 N :   -0.568483
  14 H :    0.316712
  15 H :    0.230899
  16 H :    0.106828
  17 H :    0.100269
  18 H :    0.148539
  19 H :    0.164680
  20 H :    0.143345
  21 H :    0.164227
  22 H :    0.168467
  23 H :    0.160316
  24 H :    0.146067
  25 H :    0.166737
Sum of atomic charges:   -0.0000000

LOEWDIN ATOMIC CHARGES
----------------------
   0 C :   -0.258792
   1 C :   -0.264311
   2 C :   -0.217765
   3 C :   -0.273011
   4 C :   -0.279069
   5 H :    0.146198
   6 C :   -0.352747
   7 H :    0.139691
   8 F :    0.160240
   9 H :    0.141588
  10 H :    0.136346
  11 C :   -0.381963
  12 C :   -0.301377
  13 N :    0.009544
  14 H :    0.125589
  15 H :    0.170857
  16 H :    0.101830
  17 H :    0.092078
  18 H :    0.139361
  19 H :    0.142136
  20 H :    0.136589
  21 H :    0.140493
  22 H :    0.151514
  23 H :    0.136980
  24 H :    0.128309
  25 H :    0.129696

  Mayer bond orders larger than 0.100000
B(  0-C ,  1-C ) :   0.9210 B(  0-C ,  2-C ) :   0.8931 B(  0-C ,  9-H ) :   0.9754
B(  0-C , 10-H ) :   0.9821 B(  1-C ,  3-C ) :   0.8622 B(  1-C , 20-H ) :   0.9748
B(  1-C , 21-H ) :   0.9878 B(  2-C , 11-C ) :   0.8650 B(  2-C , 22-H ) :   0.9929
B(  2-C , 23-H ) :   1.0131 B(  3-C ,  4-C ) :   0.9157 B(  3-C , 18-H ) :   0.9738
B(  3-C , 19-H ) :   0.9927 B(  4-C ,  5-H ) :   0.9605 B(  4-C ,  6-C ) :   0.9505
B(  4-C ,  7-H ) :   0.9789 B(  6-C ,  8-F ) :   0.8869 B(  6-C , 24-H ) :   0.9811
B(  6-C , 25-H ) :   0.9839 B( 11-C , 12-C ) :   1.6988 B( 11-C , 13-N ) :   1.1473
B( 12-C , 16-H ) :   1.0025 B( 12-C , 17-H ) :   0.9971 B( 13-N , 14-H ) :   0.8422
B( 13-N , 15-H ) :   0.9324

Dispersion correction           -0.001060790
FINAL SINGLE POINT ENERGY      -468.991201897656

DIPOLE MOMENT
-------------
                                X             Y             Z
Electronic contribution:     -1.29161      -1.73436       6.91429
Nuclear contribution   :     -0.37390       1.73388      -6.94752
                        -----------------------------------------
Total Dipole Moment    :     -1.66551      -0.00048      -0.03323
                        -----------------------------------------
Magnitude (a.u.)       :      1.66585
Magnitude (Debye)      :      4.23424

Rotational constants in cm-1:     0.062220     0.032742     0.024374
Rotational constants in MHz :  1865.297979   981.573941   730.711364

                             ****ORCA TERMINATED NORMALLY****
TOTAL RUN TIME: 0 days 0 hours 0 minutes 30 seconds 551 msec
