                         Program Version 5.0.0 -  RELEASE  -
|  1> !M062X D3Zero RIJCOSX def2-TZVP def2/J TightSCF xyzfile
|  2>
|  3> *xyzfile 0 1 D2.xyz
|  4>
|  5> %MaxCore 64000
|  6>
|  7> %pal nprocs 18
|  8> end
|  9>
| 10> %scf
| 11>   MaxIter 150
| 12> end
| 13>
| 14>
| 15>                          ****END OF INPUT****

CARTESIAN COORDINATES (ANGSTROEM)
---------------------------------
  C      1.647032   -2.345276   -5.020411
  C      0.217628   -1.814022   -4.924389
  C      2.209964   -2.812388   -3.665708
  C     -0.811356   -2.908780   -4.607625
  C     -1.916579   -2.485081   -3.643665
  H     -2.554525   -1.712428   -4.091993
  C     -1.363531   -1.981337   -2.293608
  H     -2.553448   -3.355667   -3.458815
  F     -0.350395   -2.749689   -1.796006
  H      2.308385   -1.588704   -5.457128
  H      1.674286   -3.203478   -5.697392
  C      2.489007   -1.668510   -2.737538
  N      3.596314   -0.947608   -2.952247
  C      1.663936   -1.413685   -1.777806
  H      0.811642   -1.963178   -1.702755
  H      1.845503   -0.635078   -1.158749
  H      4.205351   -1.176003   -3.733825
  H      3.817230   -0.125845   -2.406041
  H     -1.244829   -3.280884   -5.541040
  H     -0.306331   -3.757746   -4.142734
  H     -0.036244   -1.318555   -5.865303
  H      0.175004   -1.035382   -4.158095
  H      3.143106   -3.362803   -3.811524
  H      1.487683   -3.458935   -3.165211
  H     -2.226220   -1.908386   -1.602039
  H     -1.051353   -0.915671   -2.443331

 Total Charge           Charge          ....    0
 Multiplicity           Mult            ....    1
 Number of Electrons    NEL             ....   80
 Basis Dimension        Dim             ....  406

ORBITAL ENERGIES
----------------

  NO   OCC          E(Eh)            E(eV)
   0   2.0000     -25.247626      -687.0228
   1   2.0000     -14.730757      -400.8443
   2   2.0000     -10.616221      -288.8820
   3   2.0000     -10.540380      -286.8183
   4   2.0000     -10.535791      -286.6935
   5   2.0000     -10.528612      -286.4981
   6   2.0000     -10.525746      -286.4201
   7   2.0000     -10.521745      -286.3112
   8   2.0000     -10.520395      -286.2745
   9   2.0000     -10.433693      -283.9152
  10   2.0000      -1.371139       -37.3106
  11   2.0000      -1.015485       -27.6328
  12   2.0000      -0.912637       -24.8341
  13   2.0000      -0.875824       -23.8324
  14   2.0000      -0.823466       -22.4076
  15   2.0000      -0.795363       -21.6429
  16   2.0000      -0.747876       -20.3507
  17   2.0000      -0.689916       -18.7736
  18   2.0000      -0.652590       -17.7579
  19   2.0000      -0.651854       -17.7378
  20   2.0000      -0.607612       -16.5340
  21   2.0000      -0.598581       -16.2882
  22   2.0000      -0.574769       -15.6403
  23   2.0000      -0.565826       -15.3969
  24   2.0000      -0.535290       -14.5660
  25   2.0000      -0.519307       -14.1311
  26   2.0000      -0.512770       -13.9532
  27   2.0000      -0.498514       -13.5653
  28   2.0000      -0.472043       -12.8450
  29   2.0000      -0.446975       -12.1628
  30   2.0000      -0.431699       -11.7471
  31   2.0000      -0.421375       -11.4662
  32   2.0000      -0.415297       -11.3008
  33   2.0000      -0.401228       -10.9180
  34   2.0000      -0.391787       -10.6611
  35   2.0000      -0.385372       -10.4865
  36   2.0000      -0.369094       -10.0436
  37   2.0000      -0.367019        -9.9871
  38   2.0000      -0.356332        -9.6963
  39   2.0000      -0.233185        -6.3453
  40   0.0000       0.063955         1.7403
  41   0.0000       0.071667         1.9502
  42   0.0000       0.080621         2.1938
  43   0.0000       0.097133         2.6431
  44   0.0000       0.106734         2.9044

MULLIKEN ATOMIC CHARGES
-----------------------
   0 C :   -0.256073
   1 C :   -0.290942
   2 C :   -0.436823
   3 C :   -0.295623
   4 C :   -0.274159
   5 H :    0.146783
   6 C :   -0.122876
   7 H :    0.142850
   8 F :   -0.194621
   9 H :    0.140920
  10 H :    0.145265
  11 C :    0.410203
  12 N :   -0.581359
  13 C :   -0.574741
  14 H :    0.215625
  15 H :    0.097758
  16 H :    0.241353
  17 H :    0.239970
  18 H :    0.144336
  19 H :    0.158574
  20 H :    0.138925
  21 H :    0.170757
  22 H :    0.154267
  23 H :    0.178711
  24 H :    0.138304
  25 H :    0.162615
Sum of atomic charges:   -0.0000000

LOEWDIN ATOMIC CHARGES
----------------------
   0 C :   -0.265115
   1 C :   -0.264138
   2 C :   -0.219926
   3 C :   -0.272767
   4 C :   -0.280289
   5 H :    0.143560
   6 C :   -0.351386
   7 H :    0.138163
   8 F :    0.159602
   9 H :    0.134778
  10 H :    0.137340
  11 C :   -0.374466
  12 N :   -0.030557
  13 C :   -0.264210
  14 H :    0.077463
  15 H :    0.096370
  16 H :    0.166617
  17 H :    0.167656
  18 H :    0.137466
  19 H :    0.142102
  20 H :    0.134678
  21 H :    0.142855
  22 H :    0.139501
  23 H :    0.148879
  24 H :    0.125350
  25 H :    0.130473

  Mayer bond orders larger than 0.100000
B(  0-C ,  1-C ) :   0.9147 B(  0-C ,  2-C ) :   0.8821 B(  0-C ,  9-H ) :   0.9761
B(  0-C , 10-H ) :   0.9855 B(  1-C ,  3-C ) :   0.8758 B(  1-C , 20-H ) :   0.9766
B(  1-C , 21-H ) :   0.9860 B(  2-C , 11-C ) :   0.8728 B(  2-C , 22-H ) :   0.9923
B(  2-C , 23-H ) :   1.0180 B(  3-C ,  4-C ) :   0.9195 B(  3-C , 18-H ) :   0.9749
B(  3-C , 19-H ) :   0.9912 B(  4-C ,  5-H ) :   0.9632 B(  4-C ,  6-C ) :   0.9511
B(  4-C ,  7-H ) :   0.9790 B(  6-C ,  8-F ) :   0.9121 B(  6-C , 24-H ) :   0.9824
B(  6-C , 25-H ) :   0.9840 B( 11-C , 12-N ) :   1.0219 B( 11-C , 13-C ) :   1.7078
B( 12-N , 16-H ) :   0.9301 B( 12-N , 17-H ) :   0.9320 B( 13-C , 14-H ) :   0.9910
B( 13-C , 15-H ) :   0.9906

Dispersion correction           -0.001059503
FINAL SINGLE POINT ENERGY      -468.974596668929

DIPOLE MOMENT
-------------
                                X             Y             Z
Electronic contribution:      0.41702      -1.30740       6.06590
Nuclear contribution   :     -0.73748       1.64619      -6.72655
                        -----------------------------------------
Total Dipole Moment    :     -0.32046       0.33879      -0.66065
                        -----------------------------------------
Magnitude (a.u.)       :      0.80866
Magnitude (Debye)      :      2.05545

Rotational constants in cm-1:     0.063169     0.031711     0.023958
Rotational constants in MHz :  1893.751676   950.657187   718.229932

                             ****ORCA TERMINATED NORMALLY****
TOTAL RUN TIME: 0 days 0 hours 0 minutes 31 seconds 312 msec
