                         Program Version 5.0.0 -  RELEASE  -
|  1> !LC-PBE RIJCOSX def2-SVP def2/J TightSCF
|  2> *xyz -1 1
|  3> C         -0.05517        1.61942       -3.78858
|  4> C          1.22302        2.46987       -3.75691
|  5> H          1.11470        3.25807       -4.53300
|  6> H          1.23773        3.01124       -2.79216
|  7> O          2.35381        1.71203       -3.93448
|  8> H         -0.10198        1.08015       -4.71156
|  9> H         -0.91014        2.25726       -3.70441
| 10> H         -0.04403        0.92826       -2.97183
| 11> *
| 12>
| 13> %MaxCore 64000
| 14>
| 15> %pal nprocs 4
| 16> end
| 17>
| 18> %scf
| 19>   MaxIter 150
| 20> end
| 21>
| 22>
| 23>                          ****END OF INPUT****

CARTESIAN COORDINATES (ANGSTROEM)
---------------------------------
  C     -0.055170    1.619420   -3.788580
  C      1.223020    2.469870   -3.756910
  H      1.114700    3.258070   -4.533000
  H      1.237730    3.011240   -2.792160
  O      2.353810    1.712030   -3.934480
  H     -0.101980    1.080150   -4.711560
  H     -0.910140    2.257260   -3.704410
  H     -0.044030    0.928260   -2.971830

 Total Charge           Charge          ....   -1
 Multiplicity           Mult            ....    1
 Number of Electrons    NEL             ....   26
 Basis Dimension        Dim             ....   67

ORBITAL ENERGIES
----------------

  NO   OCC          E(Eh)            E(eV)
   0   2.0000     -18.585111      -505.7266
   1   2.0000      -9.913246      -269.7531
   2   2.0000      -9.901853      -269.4431
   3   2.0000      -0.791538       -21.5389
   4   2.0000      -0.667194       -18.1553
   5   2.0000      -0.501793       -13.6545
   6   2.0000      -0.379178       -10.3180
   7   2.0000      -0.350957        -9.5500
   8   2.0000      -0.291118        -7.9217
   9   2.0000      -0.270130        -7.3506
  10   2.0000      -0.197549        -5.3756
  11   2.0000      -0.045536        -1.2391
  12   2.0000      -0.043007        -1.1703
  13   0.0000       0.342700         9.3253
  14   0.0000       0.389641        10.6027
  15   0.0000       0.401514        10.9257
  16   0.0000       0.410364        11.1666
  17   0.0000       0.454649        12.3716

MULLIKEN ATOMIC CHARGES
-----------------------
   0 C :   -0.104187
   1 C :    0.151090
   2 H :   -0.123914
   3 H :   -0.121539
   4 O :   -0.727510
   5 H :   -0.006842
   6 H :   -0.059482
   7 H :   -0.007615
Sum of atomic charges:   -1.0000000

LOEWDIN ATOMIC CHARGES
----------------------
   0 C :   -0.144932
   1 C :   -0.023148
   2 H :   -0.066023
   3 H :   -0.063836
   4 O :   -0.691531
   5 H :    0.003312
   6 H :   -0.016767
   7 H :    0.002924

  Mayer bond orders larger than 0.100000
B(  0-C ,  1-C ) :   0.9882 B(  0-C ,  5-H ) :   0.9706 B(  0-C ,  6-H ) :   0.9480
B(  0-C ,  7-H ) :   0.9726 B(  1-C ,  2-H ) :   0.9008 B(  1-C ,  3-H ) :   0.9022
B(  1-C ,  4-O ) :   1.4948

FINAL SINGLE POINT ENERGY      -153.803214558864

DIPOLE MOMENT
-------------
                                X             Y             Z
Electronic contribution:      2.88300      -0.66351      -0.27026
Nuclear contribution   :     -4.28298       0.81046       0.39340
                        -----------------------------------------
Total Dipole Moment    :     -1.39998       0.14696       0.12314
                        -----------------------------------------
Magnitude (a.u.)       :      1.41304
Magnitude (Debye)      :      3.59167

Rotational constants in cm-1:     1.266793     0.328147     0.288309
Rotational constants in MHz : 37977.512300  9837.594308  8643.275638

                             ****ORCA TERMINATED NORMALLY****
TOTAL RUN TIME: 0 days 0 hours 0 minutes 7 seconds 910 msec
