                         Program Version 5.0.0 -  RELEASE  -
|  1> !LC-PBE RIJCOSX def2-SVP def2/J TightSCF
|  2> *xyz 1 1
|  3> C          1.63556       -1.67040       -5.29211
|  4> C          0.33848       -1.50091       -4.50540
|  5> N          2.48451       -0.50741       -5.14039
|  6> H          1.39834       -1.82924       -6.35259
|  7> H          2.15586       -2.56540       -4.93209
|  8> C          3.45115       -0.14953       -5.95259
|  9> N          3.92267        1.08956       -5.85071
| 10> N          3.96616       -1.00618       -6.86788
| 11> H          3.52139       -1.90647       -6.99527
| 12> H          4.44482       -0.62347       -7.67035
| 13> H          2.25200        0.24080       -4.49879
| 14> H          3.46428        1.64078       -5.13639
| 15> H          4.83447        1.31375       -6.22465
| 16> H         -0.17658       -0.62881       -4.85045
| 17> H          0.56384       -1.39374       -3.46490
| 18> H         -0.28102       -2.36136       -4.64938
| 19> *
| 20>
| 21> %MaxCore 64000
| 22>
| 23> %pal nprocs 4
| 24> end
| 25>
| 26> %scf
| 27>   MaxIter 150
| 28> end
| 29>
| 30>
| 31>                          ****END OF INPUT****

CARTESIAN COORDINATES (ANGSTROEM)
---------------------------------
  C      1.635560   -1.670400   -5.292110
  C      0.338480   -1.500910   -4.505400
  N      2.484510   -0.507410   -5.140390
  H      1.398340   -1.829240   -6.352590
  H      2.155860   -2.565400   -4.932090
  C      3.451150   -0.149530   -5.952590
  N      3.922670    1.089560   -5.850710
  N      3.966160   -1.006180   -6.867880
  H      3.521390   -1.906470   -6.995270
  H      4.444820   -0.623470   -7.670350
  H      2.252000    0.240800   -4.498790
  H      3.464280    1.640780   -5.136390
  H      4.834470    1.313750   -6.224650
  H     -0.176580   -0.628810   -4.850450
  H      0.563840   -1.393740   -3.464900
  H     -0.281020   -2.361360   -4.649380

 Total Charge           Charge          ....    1
 Multiplicity           Mult            ....    1
 Number of Electrons    NEL             ....   48
 Basis Dimension        Dim             ....  134

ORBITAL ENERGIES
----------------

  NO   OCC          E(Eh)            E(eV)
   0   2.0000     -14.457621      -393.4119
   1   2.0000     -14.451867      -393.2553
   2   2.0000     -14.448809      -393.1721
   3   2.0000     -10.468560      -284.8640
   4   2.0000     -10.335440      -281.2416
   5   2.0000     -10.263964      -279.2967
   6   2.0000      -1.393480       -37.9185
   7   2.0000      -1.271137       -34.5894
   8   2.0000      -1.254494       -34.1365
   9   2.0000      -1.104030       -30.0422
  10   2.0000      -0.985040       -26.8043
  11   2.0000      -0.971309       -26.4307
  12   2.0000      -0.928793       -25.2737
  13   2.0000      -0.894415       -24.3383
  14   2.0000      -0.831440       -22.6246
  15   2.0000      -0.828454       -22.5434
  16   2.0000      -0.813427       -22.1345
  17   2.0000      -0.783844       -21.3295
  18   2.0000      -0.749141       -20.3851
  19   2.0000      -0.682315       -18.5667
  20   2.0000      -0.663339       -18.0504
  21   2.0000      -0.653068       -17.7709
  22   2.0000      -0.610180       -16.6038
  23   2.0000      -0.579862       -15.7789
  24   0.0000      -0.066313        -1.8045
  25   0.0000      -0.042405        -1.1539
  26   0.0000      -0.008287        -0.2255
  27   0.0000       0.009383         0.2553
  28   0.0000       0.031686         0.8622

MULLIKEN ATOMIC CHARGES
-----------------------
   0 C :   -0.075301
   1 C :   -0.168229
   2 N :   -0.162056
   3 H :    0.110218
   4 H :    0.125420
   5 C :    0.093516
   6 N :   -0.103879
   7 N :   -0.134538
   8 H :    0.201171
   9 H :    0.203818
  10 H :    0.190888
  11 H :    0.194968
  12 H :    0.211560
  13 H :    0.094651
  14 H :    0.099880
  15 H :    0.117911
Sum of atomic charges:    1.0000000

LOEWDIN ATOMIC CHARGES
----------------------
   0 C :    0.005469
   1 C :   -0.074998
   2 N :    0.024817
   3 H :    0.046961
   4 H :    0.052580
   5 C :    0.157757
   6 N :    0.028124
   7 N :    0.016339
   8 H :    0.115346
   9 H :    0.118706
  10 H :    0.111753
  11 H :    0.115312
  12 H :    0.123027
  13 H :    0.046063
  14 H :    0.048604
  15 H :    0.064141

  Mayer bond orders larger than 0.100000
B(  0-C ,  1-C ) :   1.0807 B(  0-C ,  2-N ) :   0.8971 B(  0-C ,  3-H ) :   0.9545
B(  0-C ,  4-H ) :   0.9502 B(  1-C , 13-H ) :   0.9746 B(  1-C , 14-H ) :   0.9716
B(  1-C , 15-H ) :   0.9615 B(  2-N ,  5-C ) :   1.4079 B(  2-N , 10-H ) :   0.9057
B(  5-C ,  6-N ) :   1.3926 B(  5-C ,  7-N ) :   1.3808 B(  6-N , 11-H ) :   0.9200
B(  6-N , 12-H ) :   0.9202 B(  7-N ,  8-H ) :   0.9215 B(  7-N ,  9-H ) :   0.9236

FINAL SINGLE POINT ENERGY      -283.292609265599

DIPOLE MOMENT
-------------
                                X             Y             Z
Electronic contribution:      4.76396       2.53622      -1.74284
Nuclear contribution   :     -3.96322      -1.85512       1.24891
                        -----------------------------------------
Total Dipole Moment    :      0.80074       0.68110      -0.49393
                        -----------------------------------------
Magnitude (a.u.)       :      1.16149
Magnitude (Debye)      :      2.95227

Rotational constants in cm-1:     0.261404     0.067000     0.054949
Rotational constants in MHz :  7836.702504  2008.609425  1647.329138

                             ****ORCA TERMINATED NORMALLY****
TOTAL RUN TIME: 0 days 0 hours 0 minutes 19 seconds 54 msec
