                         Program Version 5.0.0 -  RELEASE  -
|  1> !LC-PBE RIJCOSX def2-SVP def2/J TightSCF
|  2> *xyz 0 1
|  3> C         -0.05517        1.61942       -3.78858
|  4> C          1.22302        2.46987       -3.75691
|  5> H          1.11470        3.25807       -4.53300
|  6> H          1.23773        3.01124       -2.79216
|  7> F          2.35381        1.71203       -3.93448
|  8> H         -0.10198        1.08015       -4.71156
|  9> H         -0.91014        2.25726       -3.70441
| 10> H         -0.04403        0.92826       -2.97183
| 11> *
| 12>
| 13> %MaxCore 64000
| 14>
| 15> %pal nprocs 4
| 16> end
| 17>
| 18> %scf
| 19>   MaxIter 150
| 20> end
| 21>
| 22>
| 23>                          ****END OF INPUT****

CARTESIAN COORDINATES (ANGSTROEM)
---------------------------------
  C     -0.055170    1.619420   -3.788580
  C      1.223020    2.469870   -3.756910
  H      1.114700    3.258070   -4.533000
  H      1.237730    3.011240   -2.792160
  F      2.353810    1.712030   -3.934480
  H     -0.101980    1.080150   -4.711560
  H     -0.910140    2.257260   -3.704410
  H     -0.044030    0.928260   -2.971830

 Total Charge           Charge          ....    0
 Multiplicity           Mult            ....    1
 Number of Electrons    NEL             ....   26
 Basis Dimension        Dim             ....   67

ORBITAL ENERGIES
----------------

  NO   OCC          E(Eh)            E(eV)
   0   2.0000     -24.469839      -665.8582
   1   2.0000     -10.200592      -277.5722
   2   2.0000     -10.119193      -275.3572
   3   2.0000      -1.322195       -35.9788
   4   2.0000      -0.930940       -25.3322
   5   2.0000      -0.782889       -21.3035
   6   2.0000      -0.647032       -17.6066
   7   2.0000      -0.641983       -17.4692
   8   2.0000      -0.596496       -16.2315
   9   2.0000      -0.538836       -14.6625
  10   2.0000      -0.533718       -14.5232
  11   2.0000      -0.463056       -12.6004
  12   2.0000      -0.456117       -12.4116
  13   0.0000       0.156927         4.2702
  14   0.0000       0.204293         5.5591
  15   0.0000       0.210528         5.7288
  16   0.0000       0.230079         6.2608
  17   0.0000       0.250711         6.8222

MULLIKEN ATOMIC CHARGES
-----------------------
   0 C :   -0.193830
   1 C :    0.119726
   2 H :    0.055974
   3 H :    0.055336
   4 F :   -0.253813
   5 H :    0.076630
   6 H :    0.064574
   7 H :    0.075403
Sum of atomic charges:   -0.0000000

LOEWDIN ATOMIC CHARGES
----------------------
   0 C :   -0.111009
   1 C :    0.077912
   2 H :    0.023558
   3 H :    0.022950
   4 F :   -0.132076
   5 H :    0.038948
   6 H :    0.041740
   7 H :    0.037978

  Mayer bond orders larger than 0.100000
B(  0-C ,  1-C ) :   1.0682 B(  0-C ,  5-H ) :   0.9732 B(  0-C ,  6-H ) :   0.9658
B(  0-C ,  7-H ) :   0.9743 B(  1-C ,  2-H ) :   0.9633 B(  1-C ,  3-H ) :   0.9632
B(  1-C ,  4-F ) :   1.0152

FINAL SINGLE POINT ENERGY      -178.422645284990

DIPOLE MOMENT
-------------
                                X             Y             Z
Electronic contribution:      5.03036      -0.72326      -0.43013
Nuclear contribution   :     -5.66833       1.07099       0.52006
                        -----------------------------------------
Total Dipole Moment    :     -0.63797       0.34773       0.08993
                        -----------------------------------------
Magnitude (a.u.)       :      0.73212
Magnitude (Debye)      :      1.86091

Rotational constants in cm-1:     1.245689     0.305293     0.269541
Rotational constants in MHz : 37344.801915  9152.442838  8080.640229

                             ****ORCA TERMINATED NORMALLY****
TOTAL RUN TIME: 0 days 0 hours 0 minutes 6 seconds 771 msec
