                         Program Version 5.0.0 -  RELEASE  -
|  1> !LC-PBE RIJCOSX def2-SVP def2/J TightSCF
|  2> *xyz 0 1
|  3> C          1.63556       -1.67040       -5.29211
|  4> C          0.33848       -1.50091       -4.50540
|  5> C          2.48451       -0.50741       -5.14039
|  6> H          1.39834       -1.82924       -6.35259
|  7> H          2.15586       -2.56540       -4.93209
|  8> C          3.45115       -0.14953       -5.95259
|  9> N          3.92267        1.08956       -5.85071
| 10> N          3.96616       -1.00618       -6.86788
| 11> H          3.52139       -1.90647       -6.99527
| 12> H          4.44482       -0.62347       -7.67035
| 13> H          2.25200        0.24080       -4.49879
| 14> H          3.46428        1.64078       -5.13639
| 15> H          4.83447        1.31375       -6.22465
| 16> H         -0.17658       -0.62881       -4.85045
| 17> H          0.56384       -1.39374       -3.46490
| 18> H         -0.28102       -2.36136       -4.64938
| 19> *
| 20>
| 21> %MaxCore 64000
| 22>
| 23> %pal nprocs 4
| 24> end
| 25>
| 26> %scf
| 27>   MaxIter 150
| 28> end
| 29>
| 30>
| 31>                          ****END OF INPUT****

CARTESIAN COORDINATES (ANGSTROEM)
---------------------------------
  C      1.635560   -1.670400   -5.292110
  C      0.338480   -1.500910   -4.505400
  C      2.484510   -0.507410   -5.140390
  H      1.398340   -1.829240   -6.352590
  H      2.155860   -2.565400   -4.932090
  C      3.451150   -0.149530   -5.952590
  N      3.922670    1.089560   -5.850710
  N      3.966160   -1.006180   -6.867880
  H      3.521390   -1.906470   -6.995270
  H      4.444820   -0.623470   -7.670350
  H      2.252000    0.240800   -4.498790
  H      3.464280    1.640780   -5.136390
  H      4.834470    1.313750   -6.224650
  H     -0.176580   -0.628810   -4.850450
  H      0.563840   -1.393740   -3.464900
  H     -0.281020   -2.361360   -4.649380

 Total Charge           Charge          ....    0
 Multiplicity           Mult            ....    1
 Number of Electrons    NEL             ....   48
 Basis Dimension        Dim             ....  134

ORBITAL ENERGIES
----------------

  NO   OCC          E(Eh)            E(eV)
   0   2.0000     -14.220260      -386.9529
   1   2.0000     -14.215486      -386.8230
   2   2.0000     -10.163386      -276.5598
   3   2.0000     -10.098671      -274.7988
   4   2.0000     -10.090719      -274.5824
   5   2.0000     -10.039638      -273.1924
   6   2.0000      -1.119743       -30.4698
   7   2.0000      -1.022378       -27.8203
   8   2.0000      -0.942605       -25.6496
   9   2.0000      -0.854663       -23.2566
  10   2.0000      -0.761050       -20.7092
  11   2.0000      -0.725949       -19.7541
  12   2.0000      -0.675311       -18.3761
  13   2.0000      -0.653271       -17.7764
  14   2.0000      -0.598568       -16.2879
  15   2.0000      -0.583081       -15.8664
  16   2.0000      -0.563802       -15.3418
  17   2.0000      -0.533715       -14.5231
  18   2.0000      -0.512579       -13.9480
  19   2.0000      -0.468511       -12.7488
  20   2.0000      -0.456131       -12.4120
  21   2.0000      -0.454688       -12.3727
  22   2.0000      -0.390942       -10.6381
  23   2.0000      -0.270709        -7.3664
  24   0.0000       0.146572         3.9884
  25   0.0000       0.173195         4.7129
  26   0.0000       0.185984         5.0609
  27   0.0000       0.188837         5.1385
  28   0.0000       0.203110         5.5269

MULLIKEN ATOMIC CHARGES
-----------------------
   0 C :   -0.103763
   1 C :   -0.116912
   2 C :   -0.186316
   3 H :    0.041802
   4 H :    0.052162
   5 C :   -0.043536
   6 N :   -0.141335
   7 N :   -0.173808
   8 H :    0.149676
   9 H :    0.134229
  10 H :   -0.052303
  11 H :    0.149998
  12 H :    0.135725
  13 H :    0.052956
  14 H :    0.055695
  15 H :    0.045729
Sum of atomic charges:   -0.0000000

LOEWDIN ATOMIC CHARGES
----------------------
   0 C :   -0.070755
   1 C :   -0.080878
   2 C :   -0.242902
   3 H :    0.021923
   4 H :    0.025328
   5 C :    0.031668
   6 N :   -0.046087
   7 N :   -0.052892
   8 H :    0.086181
   9 H :    0.072914
  10 H :   -0.000194
  11 H :    0.090881
  12 H :    0.074231
  13 H :    0.030578
  14 H :    0.031873
  15 H :    0.028132

  Mayer bond orders larger than 0.100000
B(  0-C ,  1-C ) :   1.0887 B(  0-C ,  2-C ) :   1.0051 B(  0-C ,  3-H ) :   0.9612
B(  0-C ,  4-H ) :   0.9439 B(  1-C , 13-H ) :   0.9800 B(  1-C , 14-H ) :   0.9754
B(  1-C , 15-H ) :   0.9755 B(  2-C ,  5-C ) :   1.7331 B(  2-C , 10-H ) :   0.9517
B(  5-C ,  6-N ) :   1.2364 B(  5-C ,  7-N ) :   1.2326 B(  6-N , 11-H ) :   0.9354
B(  6-N , 12-H ) :   0.9483 B(  7-N ,  8-H ) :   0.9407 B(  7-N ,  9-H ) :   0.9490

FINAL SINGLE POINT ENERGY      -266.840678812114

DIPOLE MOMENT
-------------
                                X             Y             Z
Electronic contribution:      4.63237       2.21268      -2.00397
Nuclear contribution   :     -3.99655      -1.83277       1.34879
                        -----------------------------------------
Total Dipole Moment    :      0.63583       0.37991      -0.65518
                        -----------------------------------------
Magnitude (a.u.)       :      0.98887
Magnitude (Debye)      :      2.51352

Rotational constants in cm-1:     0.262971     0.067064     0.055026
Rotational constants in MHz :  7883.664566  2010.513309  1649.636654

                             ****ORCA TERMINATED NORMALLY****
TOTAL RUN TIME: 0 days 0 hours 0 minutes 18 seconds 123 msec
