                         Program Version 5.0.0 -  RELEASE  -
|  1> !LC-PBE RIJCOSX def2-SVP def2/J TightSCF
|  2> *xyz 0 1
|  3> C          1.63556       -1.67040       -5.29211
|  4> C          0.33848       -1.50091       -4.50540
|  5> N          2.48451       -0.50741       -5.14039
|  6> H          1.39834       -1.82924       -6.35259
|  7> H          2.15586       -2.56540       -4.93209
|  8> C          3.45115       -0.14953       -5.95259
|  9> C          3.92267        1.08956       -5.85071
| 10> N          3.96616       -1.00618       -6.86788
| 11> H          3.52139       -1.90647       -6.99527
| 12> H          4.44482       -0.62347       -7.67035
| 13> H          2.25200        0.24080       -4.49879
| 14> H          3.46428        1.64078       -5.13639
| 15> H          4.83447        1.31375       -6.22465
| 16> H         -0.17658       -0.62881       -4.85045
| 17> H          0.56384       -1.39374       -3.46490
| 18> H         -0.28102       -2.36136       -4.64938
| 19> *
| 20>
| 21> %MaxCore 64000
| 22>
| 23> %pal nprocs 4
| 24> end
| 25>
| 26> %scf
| 27>   MaxIter 150
| 28> end
| 29>
| 30>
| 31>                          ****END OF INPUT****

CARTESIAN COORDINATES (ANGSTROEM)
---------------------------------
  C      1.635560   -1.670400   -5.292110
  C      0.338480   -1.500910   -4.505400
  N      2.484510   -0.507410   -5.140390
  H      1.398340   -1.829240   -6.352590
  H      2.155860   -2.565400   -4.932090
  C      3.451150   -0.149530   -5.952590
  C      3.922670    1.089560   -5.850710
  N      3.966160   -1.006180   -6.867880
  H      3.521390   -1.906470   -6.995270
  H      4.444820   -0.623470   -7.670350
  H      2.252000    0.240800   -4.498790
  H      3.464280    1.640780   -5.136390
  H      4.834470    1.313750   -6.224650
  H     -0.176580   -0.628810   -4.850450
  H      0.563840   -1.393740   -3.464900
  H     -0.281020   -2.361360   -4.649380

 Total Charge           Charge          ....    0
 Multiplicity           Mult            ....    1
 Number of Electrons    NEL             ....   48
 Basis Dimension        Dim             ....  134

ORBITAL ENERGIES
----------------

  NO   OCC          E(Eh)            E(eV)
   0   2.0000     -14.223302      -387.0357
   1   2.0000     -14.219528      -386.9330
   2   2.0000     -10.169440      -276.7245
   3   2.0000     -10.167433      -276.6699
   4   2.0000     -10.126042      -275.5436
   5   2.0000     -10.028160      -272.8801
   6   2.0000      -1.135569       -30.9004
   7   2.0000      -1.040117       -28.3030
   8   2.0000      -0.945428       -25.7264
   9   2.0000      -0.861808       -23.4510
  10   2.0000      -0.781727       -21.2719
  11   2.0000      -0.744199       -20.2507
  12   2.0000      -0.679258       -18.4836
  13   2.0000      -0.637513       -17.3476
  14   2.0000      -0.628611       -17.1054
  15   2.0000      -0.598730       -16.2923
  16   2.0000      -0.556026       -15.1302
  17   2.0000      -0.535487       -14.5714
  18   2.0000      -0.510988       -13.9047
  19   2.0000      -0.506880       -13.7929
  20   2.0000      -0.504501       -13.7282
  21   2.0000      -0.481508       -13.1025
  22   2.0000      -0.382979       -10.4214
  23   2.0000      -0.272004        -7.4016
  24   0.0000       0.143636         3.9085
  25   0.0000       0.165052         4.4913
  26   0.0000       0.172993         4.7074
  27   0.0000       0.184618         5.0237
  28   0.0000       0.207063         5.6345

MULLIKEN ATOMIC CHARGES
-----------------------
   0 C :   -0.020285
   1 C :   -0.161939
   2 N :   -0.193027
   3 H :    0.062217
   4 H :    0.067427
   5 C :   -0.003552
   6 C :   -0.203528
   7 N :   -0.183238
   8 H :    0.133394
   9 H :    0.156409
  10 H :    0.157380
  11 H :   -0.025741
  12 H :   -0.002062
  13 H :    0.073955
  14 H :    0.072060
  15 H :    0.070531
Sum of atomic charges:   -0.0000000

LOEWDIN ATOMIC CHARGES
----------------------
   0 C :    0.001500
   1 C :   -0.088368
   2 N :   -0.040995
   3 H :    0.026174
   4 H :    0.025899
   5 C :    0.046217
   6 C :   -0.291956
   7 N :   -0.049579
   8 H :    0.071691
   9 H :    0.090084
  10 H :    0.093606
  11 H :   -0.002597
  12 H :    0.002304
  13 H :    0.037387
  14 H :    0.036854
  15 H :    0.041780

  Mayer bond orders larger than 0.100000
B(  0-C ,  1-C ) :   1.0871 B(  0-C ,  2-N ) :   0.9748 B(  0-C ,  3-H ) :   0.9547
B(  0-C ,  4-H ) :   0.9549 B(  1-C , 13-H ) :   0.9760 B(  1-C , 14-H ) :   0.9748
B(  1-C , 15-H ) :   0.9713 B(  2-N ,  5-C ) :   1.2232 B(  2-N , 10-H ) :   0.9236
B(  5-C ,  6-C ) :   1.7493 B(  5-C ,  7-N ) :   1.2061 B(  6-C , 11-H ) :   0.9437
B(  6-C , 12-H ) :   0.9645 B(  7-N ,  8-H ) :   0.9546 B(  7-N ,  9-H ) :   0.9488

FINAL SINGLE POINT ENERGY      -266.828716476574

DIPOLE MOMENT
-------------
                                X             Y             Z
Electronic contribution:      2.93950       0.49713      -1.33541
Nuclear contribution   :     -3.69145      -1.49398       1.19810
                        -----------------------------------------
Total Dipole Moment    :     -0.75195      -0.99685      -0.13731
                        -----------------------------------------
Magnitude (a.u.)       :      1.25618
Magnitude (Debye)      :      3.19296

Rotational constants in cm-1:     0.270790     0.068966     0.056679
Rotational constants in MHz :  8118.084803  2067.559423  1699.196934

                             ****ORCA TERMINATED NORMALLY****
TOTAL RUN TIME: 0 days 0 hours 0 minutes 18 seconds 719 msec
