                         Program Version 5.0.0 -  RELEASE  -
|  1> !LC-PBE RIJCOSX def2-SVP def2/J TightSCF
|  2> *xyz 0 1
|  3> C          1.63556       -1.67040       -5.29211
|  4> C          0.33848       -1.50091       -4.50540
|  5> N          2.48451       -0.50741       -5.14039
|  6> H          1.39834       -1.82924       -6.35259
|  7> H          2.15586       -2.56540       -4.93209
|  8> C          3.45115       -0.14953       -5.95259
|  9> N          3.92267        1.08956       -5.85071
| 10> C          3.96616       -1.00618       -6.86788
| 11> H          3.52139       -1.90647       -6.99527
| 12> H          4.44482       -0.62347       -7.67035
| 13> H          2.25200        0.24080       -4.49879
| 14> H          3.46428        1.64078       -5.13639
| 15> H          4.83447        1.31375       -6.22465
| 16> H         -0.17658       -0.62881       -4.85045
| 17> H          0.56384       -1.39374       -3.46490
| 18> H         -0.28102       -2.36136       -4.64938
| 19> *
| 20>
| 21> %MaxCore 64000
| 22>
| 23> %pal nprocs 4
| 24> end
| 25>
| 26> %scf
| 27>   MaxIter 150
| 28> end
| 29>
| 30>
| 31>                          ****END OF INPUT****

CARTESIAN COORDINATES (ANGSTROEM)
---------------------------------
  C      1.635560   -1.670400   -5.292110
  C      0.338480   -1.500910   -4.505400
  N      2.484510   -0.507410   -5.140390
  H      1.398340   -1.829240   -6.352590
  H      2.155860   -2.565400   -4.932090
  C      3.451150   -0.149530   -5.952590
  N      3.922670    1.089560   -5.850710
  C      3.966160   -1.006180   -6.867880
  H      3.521390   -1.906470   -6.995270
  H      4.444820   -0.623470   -7.670350
  H      2.252000    0.240800   -4.498790
  H      3.464280    1.640780   -5.136390
  H      4.834470    1.313750   -6.224650
  H     -0.176580   -0.628810   -4.850450
  H      0.563840   -1.393740   -3.464900
  H     -0.281020   -2.361360   -4.649380

 Total Charge           Charge          ....    0
 Multiplicity           Mult            ....    1
 Number of Electrons    NEL             ....   48
 Basis Dimension        Dim             ....  134

ORBITAL ENERGIES
----------------

  NO   OCC          E(Eh)            E(eV)
   0   2.0000     -14.229632      -387.2080
   1   2.0000     -14.222515      -387.0143
   2   2.0000     -10.171301      -276.7752
   3   2.0000     -10.158848      -276.4363
   4   2.0000     -10.121646      -275.4240
   5   2.0000     -10.027941      -272.8741
   6   2.0000      -1.143650       -31.1203
   7   2.0000      -1.046323       -28.4719
   8   2.0000      -0.929430       -25.2911
   9   2.0000      -0.860862       -23.4252
  10   2.0000      -0.800101       -21.7719
  11   2.0000      -0.714099       -19.4316
  12   2.0000      -0.679383       -18.4869
  13   2.0000      -0.665046       -18.0968
  14   2.0000      -0.622092       -16.9280
  15   2.0000      -0.605596       -16.4791
  16   2.0000      -0.541504       -14.7351
  17   2.0000      -0.528894       -14.3919
  18   2.0000      -0.525170       -14.2906
  19   2.0000      -0.499667       -13.5966
  20   2.0000      -0.490815       -13.3558
  21   2.0000      -0.479878       -13.0581
  22   2.0000      -0.376407       -10.2426
  23   2.0000      -0.274239        -7.4624
  24   0.0000       0.137979         3.7546
  25   0.0000       0.159598         4.3429
  26   0.0000       0.182881         4.9764
  27   0.0000       0.191409         5.2085
  28   0.0000       0.213724         5.8157

MULLIKEN ATOMIC CHARGES
-----------------------
   0 C :    0.002680
   1 C :   -0.160966
   2 N :   -0.209868
   3 H :    0.079323
   4 H :    0.073061
   5 C :    0.005228
   6 N :   -0.160292
   7 C :   -0.237726
   8 H :   -0.005934
   9 H :   -0.006123
  10 H :    0.126994
  11 H :    0.126260
  12 H :    0.163485
  13 H :    0.066037
  14 H :    0.065119
  15 H :    0.072722
Sum of atomic charges:    0.0000000

LOEWDIN ATOMIC CHARGES
----------------------
   0 C :    0.017239
   1 C :   -0.091917
   2 N :   -0.036521
   3 H :    0.036233
   4 H :    0.031560
   5 C :    0.039826
   6 N :   -0.039057
   7 C :   -0.304433
   8 H :   -0.000894
   9 H :    0.000199
  10 H :    0.072102
  11 H :    0.070571
  12 H :    0.094803
  13 H :    0.033804
  14 H :    0.033491
  15 H :    0.042992

  Mayer bond orders larger than 0.100000
B(  0-C ,  1-C ) :   1.0775 B(  0-C ,  2-N ) :   0.9702 B(  0-C ,  3-H ) :   0.9517
B(  0-C ,  4-H ) :   0.9574 B(  1-C , 13-H ) :   0.9759 B(  1-C , 14-H ) :   0.9748
B(  1-C , 15-H ) :   0.9714 B(  2-N ,  5-C ) :   1.2016 B(  2-N , 10-H ) :   0.9377
B(  5-C ,  6-N ) :   1.2226 B(  5-C ,  7-C ) :   1.7379 B(  6-N , 11-H ) :   0.9542
B(  6-N , 12-H ) :   0.9439 B(  7-C ,  8-H ) :   0.9546 B(  7-C ,  9-H ) :   0.9609

FINAL SINGLE POINT ENERGY      -266.828411082185

DIPOLE MOMENT
-------------
                                X             Y             Z
Electronic contribution:      3.01922       2.72971      -0.13420
Nuclear contribution   :     -3.68222      -1.93858       0.98231
                        -----------------------------------------
Total Dipole Moment    :     -0.66301       0.79113       0.84811
                        -----------------------------------------
Magnitude (a.u.)       :      1.33595
Magnitude (Debye)      :      3.39570

Rotational constants in cm-1:     0.275407     0.068040     0.056255
Rotational constants in MHz :  8256.498401  2039.796466  1686.484500

                             ****ORCA TERMINATED NORMALLY****
TOTAL RUN TIME: 0 days 0 hours 0 minutes 19 seconds 268 msec
