                         Program Version 5.0.0 -  RELEASE  -
|  1> !LC-PBE RIJCOSX def2-TZVP def2/J TightSCF xyzfile
|  2>
|  3> *xyzfile 0 1 D1.xyz
|  4>
|  5> %MaxCore 64000
|  6>
|  7> %pal nprocs 18
|  8> end
|  9>
| 10> %scf
| 11>   MaxIter 150
| 12> end
| 13>
| 14>
| 15>                          ****END OF INPUT****

CARTESIAN COORDINATES (ANGSTROEM)
---------------------------------
  C      1.635557   -1.670396   -5.292109
  C      0.338484   -1.500907   -4.505398
  C      2.484511   -0.507410   -5.140392
  C     -0.684873   -0.528026   -5.099889
  C     -0.290406    0.951335   -5.153423
  H      0.607991    1.070692   -5.764412
  C     -0.055168    1.619420   -3.788577
  H     -1.080912    1.483775   -5.689436
  H      0.045006    0.862302   -3.003015
  H     -0.922936    2.230329   -3.517028
  C      1.223022    2.469865   -3.756911
  H      1.114701    3.258074   -4.532999
  H      1.237732    3.011242   -2.792157
  F      2.353815    1.712032   -3.934477
  H      1.398337   -1.829239   -6.352591
  H      2.155864   -2.565398   -4.932091
  C      3.451149   -0.149530   -5.952589
  N      3.922667    1.089559   -5.850711
  N      3.966162   -1.006183   -6.867880
  H      3.521391   -1.906467   -6.995270
  H      4.444824   -0.623472   -7.670348
  H      2.251995    0.240804   -4.498792
  H      3.464277    1.640782   -5.136392
  H      4.834470    1.313745   -6.224653
  H     -0.937999   -0.869056   -6.110838
  H     -1.604638   -0.622496   -4.513132
  H      0.594887   -1.211578   -3.482312
  H     -0.126530   -2.487656   -4.434176

 Total Charge           Charge          ....    0
 Multiplicity           Mult            ....    1
 Number of Electrons    NEL             ....   88
 Basis Dimension        Dim             ....  443

ORBITAL ENERGIES
----------------

  NO   OCC          E(Eh)            E(eV)
   0   2.0000     -24.501707      -666.7254
   1   2.0000     -14.196625      -386.3098
   2   2.0000     -14.180245      -385.8641
   3   2.0000     -10.203845      -277.6607
   4   2.0000     -10.137737      -275.8618
   5   2.0000     -10.121327      -275.4153
   6   2.0000     -10.103320      -274.9253
   7   2.0000     -10.100473      -274.8479
   8   2.0000     -10.090781      -274.5841
   9   2.0000     -10.079465      -274.2762
  10   2.0000     -10.005692      -272.2687
  11   2.0000      -1.389524       -37.8109
  12   2.0000      -1.115520       -30.3548
  13   2.0000      -1.020135       -27.7593
  14   2.0000      -0.990848       -26.9623
  15   2.0000      -0.953245       -25.9391
  16   2.0000      -0.898579       -24.4516
  17   2.0000      -0.859991       -23.4016
  18   2.0000      -0.802584       -21.8394
  19   2.0000      -0.768829       -20.9209
  20   2.0000      -0.731152       -19.8957
  21   2.0000      -0.711372       -19.3574
  22   2.0000      -0.687806       -18.7161
  23   2.0000      -0.669046       -18.2057
  24   2.0000      -0.656121       -17.8540
  25   2.0000      -0.647643       -17.6233
  26   2.0000      -0.631947       -17.1961
  27   2.0000      -0.601836       -16.3768
  28   2.0000      -0.583516       -15.8783
  29   2.0000      -0.575482       -15.6597
  30   2.0000      -0.556340       -15.1388
  31   2.0000      -0.542078       -14.7507
  32   2.0000      -0.529460       -14.4074
  33   2.0000      -0.517253       -14.0752
  34   2.0000      -0.494730       -13.4623
  35   2.0000      -0.491560       -13.3760
  36   2.0000      -0.480441       -13.0735
  37   2.0000      -0.465313       -12.6618
  38   2.0000      -0.445927       -12.1343
  39   2.0000      -0.432681       -11.7739
  40   2.0000      -0.427341       -11.6285
  41   2.0000      -0.414422       -11.2770
  42   2.0000      -0.380054       -10.3418
  43   2.0000      -0.258406        -7.0316
  44   0.0000       0.117832         3.2064
  45   0.0000       0.125470         3.4142
  46   0.0000       0.135294         3.6815
  47   0.0000       0.148544         4.0421
  48   0.0000       0.156717         4.2645

MULLIKEN ATOMIC CHARGES
-----------------------
   0 C :   -0.261992
   1 C :   -0.357477
   2 C :   -0.457955
   3 C :   -0.271819
   4 C :   -0.369429
   5 H :    0.211117
   6 C :   -0.288588
   7 H :    0.145291
   8 H :    0.161167
   9 H :    0.160917
  10 C :   -0.075760
  11 H :    0.145155
  12 H :    0.141360
  13 F :   -0.210695
  14 H :    0.112520
  15 H :    0.140503
  16 C :    0.311707
  17 N :   -0.507273
  18 N :   -0.519081
  19 H :    0.261404
  20 H :    0.236839
  21 H :    0.203218
  22 H :    0.265307
  23 H :    0.233811
  24 H :    0.145112
  25 H :    0.143805
  26 H :    0.156864
  27 H :    0.143972
Sum of atomic charges:   -0.0000000

LOEWDIN ATOMIC CHARGES
----------------------
   0 C :   -0.301715
   1 C :   -0.282018
   2 C :   -0.300334
   3 C :   -0.285082
   4 C :   -0.287832
   5 H :    0.156372
   6 C :   -0.287377
   7 H :    0.140873
   8 H :    0.150402
   9 H :    0.150272
  10 C :   -0.362631
  11 H :    0.135645
  12 H :    0.132986
  13 F :    0.150700
  14 H :    0.139790
  15 H :    0.141939
  16 C :   -0.472284
  17 N :   -0.039209
  18 N :   -0.041387
  19 H :    0.175924
  20 H :    0.162290
  21 H :    0.123125
  22 H :    0.163868
  23 H :    0.161808
  24 H :    0.145759
  25 H :    0.143676
  26 H :    0.142493
  27 H :    0.141947

  Mayer bond orders larger than 0.100000
B(  0-C ,  1-C ) :   0.9571 B(  0-C ,  2-C ) :   0.8761 B(  0-C , 14-H ) :   0.9769
B(  0-C , 15-H ) :   0.9866 B(  1-C ,  3-C ) :   0.9460 B(  1-C , 26-H ) :   0.9930
B(  1-C , 27-H ) :   0.9937 B(  2-C , 16-C ) :   1.6299 B(  2-C , 21-H ) :   0.9999
B(  3-C ,  4-C ) :   0.9311 B(  3-C , 24-H ) :   0.9779 B(  3-C , 25-H ) :   0.9851
B(  4-C ,  5-H ) :   0.9774 B(  4-C ,  6-C ) :   0.8799 B(  4-C ,  7-H ) :   0.9782
B(  6-C ,  8-H ) :   0.9713 B(  6-C ,  9-H ) :   0.9579 B(  6-C , 10-C ) :   0.9729
B( 10-C , 11-H ) :   0.9774 B( 10-C , 12-H ) :   0.9754 B( 10-C , 13-F ) :   0.9296
B( 16-C , 17-N ) :   1.1955 B( 16-C , 18-N ) :   1.1453 B( 17-N , 22-H ) :   0.8859
B( 17-N , 23-H ) :   0.9270 B( 18-N , 19-H ) :   0.9218 B( 18-N , 20-H ) :   0.9234

FINAL SINGLE POINT ENERGY      -522.925156876571

DIPOLE MOMENT
-------------
                                X             Y             Z
Electronic contribution:      7.82769       3.86028       1.09549
Nuclear contribution   :     -8.11591      -2.99033      -1.35383
                        -----------------------------------------
Total Dipole Moment    :     -0.28821       0.86995      -0.25835
                        -----------------------------------------
Magnitude (a.u.)       :      0.95217
Magnitude (Debye)      :      2.42023

Rotational constants in cm-1:     0.043530     0.028984     0.019589
Rotational constants in MHz :  1305.007140   868.923804   587.262638

                             ****ORCA TERMINATED NORMALLY****
TOTAL RUN TIME: 0 days 0 hours 0 minutes 57 seconds 930 msec
