                         Program Version 5.0.0 -  RELEASE  -
|  1> !TPSS D3BJ RIJCOSX def2-SVPD def2/J TightSCF
|  2> *xyz -1 1
|  3> C          1.72854        1.42432       -5.63944
|  4> S          2.25263       -0.18811       -6.27184
|  5> O          3.56261       -0.44446       -5.63155
|  6> O          2.34494       -0.03374       -7.69650
|  7> O          1.26606       -1.15918       -5.80536
|  8> H          0.77944        1.68154       -6.06127
|  9> H          2.45151        2.16548       -5.90944
| 10> H          1.64478        1.37937       -4.57367
| 11> *
| 12>
| 13> %MaxCore 64000
| 14>
| 15> %pal nprocs 8
| 16> end
| 17>
| 18> %scf
| 19>   MaxIter 150
| 20> end
| 21>
| 22>
| 23>                          ****END OF INPUT****

CARTESIAN COORDINATES (ANGSTROEM)
---------------------------------
  C      1.728540    1.424320   -5.639440
  S      2.252630   -0.188110   -6.271840
  O      3.562610   -0.444460   -5.631550
  O      2.344940   -0.033740   -7.696500
  O      1.266060   -1.159180   -5.805360
  H      0.779440    1.681540   -6.061270
  H      2.451510    2.165480   -5.909440
  H      1.644780    1.379370   -4.573670

 Total Charge           Charge          ....   -1
 Multiplicity           Mult            ....    1
 Number of Electrons    NEL             ....   50
 Basis Dimension        Dim             ....  140

ORBITAL ENERGIES
----------------

  NO   OCC          E(Eh)            E(eV)
   0   2.0000     -88.366117     -2404.5643
   1   2.0000     -18.679853      -508.3046
   2   2.0000     -18.673927      -508.1434
   3   2.0000     -18.666303      -507.9359
   4   2.0000      -9.853851      -268.1369
   5   2.0000      -7.725841      -210.2308
   6   2.0000      -5.711828      -155.4268
   7   2.0000      -5.711650      -155.4219
   8   2.0000      -5.711093      -155.4067
   9   2.0000      -0.850944       -23.1554
  10   2.0000      -0.718384       -19.5482
  11   2.0000      -0.696234       -18.9455
  12   2.0000      -0.522058       -14.2059
  13   2.0000      -0.335238        -9.1223
  14   2.0000      -0.251330        -6.8390
  15   2.0000      -0.245998        -6.6940
  16   2.0000      -0.244977        -6.6662
  17   2.0000      -0.201458        -5.4820
  18   2.0000      -0.199721        -5.4347
  19   2.0000      -0.103865        -2.8263
  20   2.0000      -0.103314        -2.8113
  21   2.0000      -0.071903        -1.9566
  22   2.0000      -0.068003        -1.8504
  23   2.0000      -0.056695        -1.5428
  24   2.0000      -0.019160        -0.5214
  25   0.0000       0.142168         3.8686
  26   0.0000       0.176187         4.7943
  27   0.0000       0.176439         4.8011
  28   0.0000       0.179541         4.8856
  29   0.0000       0.202913         5.5215

MULLIKEN ATOMIC CHARGES
-----------------------
   0 C :    0.425981
   1 S :    1.006519
   2 O :   -0.775331
   3 O :   -0.730352
   4 O :   -0.753220
   5 H :   -0.061125
   6 H :   -0.053235
   7 H :   -0.059238
Sum of atomic charges:   -1.0000000

LOEWDIN ATOMIC CHARGES
----------------------
   0 C :    0.063275
   1 S :    0.816978
   2 O :   -0.592549
   3 O :   -0.570087
   4 O :   -0.580390
   5 H :   -0.047032
   6 H :   -0.045140
   7 H :   -0.045056

  Mayer bond orders larger than 0.100000
B(  0-C ,  1-S ) :   0.9119 B(  0-C ,  5-H ) :   0.9346 B(  0-C ,  6-H ) :   0.9338
B(  0-C ,  7-H ) :   0.9381 B(  1-S ,  2-O ) :   1.3330 B(  1-S ,  3-O ) :   1.3676
B(  1-S ,  4-O ) :   1.3461 B(  1-S ,  5-H ) :   0.1072 B(  1-S ,  6-H ) :   0.1104
B(  1-S ,  7-H ) :   0.1155

Dispersion correction           -0.007867943
FINAL SINGLE POINT ENERGY      -663.552182786303

DIPOLE MOMENT
-------------
                                X             Y             Z
Electronic contribution:      1.20870      -3.88083      -1.62628
Nuclear contribution   :     -1.71379       5.17769       1.98321
                        -----------------------------------------
Total Dipole Moment    :     -0.50509       1.29686       0.35693
                        -----------------------------------------
Magnitude (a.u.)       :      1.43679
Magnitude (Debye)      :      3.65203

Rotational constants in cm-1:     0.172739     0.155771     0.153412
Rotational constants in MHz :  5178.588083  4669.889924  4599.189984

                             ****ORCA TERMINATED NORMALLY****
TOTAL RUN TIME: 0 days 0 hours 0 minutes 4 seconds 190 msec
