                         Program Version 5.0.0 -  RELEASE  -
|  1> !TPSS D3BJ RIJCOSX def2-SVPD def2/J TightSCF
|  2> *xyz 1 1
|  3> C          2.91632       -1.24259       -1.54313
|  4> C          3.46659       -1.59097       -2.88908
|  5> N          4.65227       -1.14316       -3.25969
|  6> N          2.75226       -2.29204       -3.72803
|  7> H          1.77836       -2.48960       -3.51274
|  8> H          2.94861       -2.20854       -4.71681
|  9> H          5.14672       -0.51251       -2.63385
| 10> H          4.78303       -1.00720       -4.25350
| 11> H          1.95294       -1.69278       -1.42424
| 12> H          2.82618       -0.17973       -1.45886
| 13> H          3.57606       -1.60596       -0.78312
| 14> *
| 15>
| 16> %MaxCore 64000
| 17>
| 18> %pal nprocs 8
| 19> end
| 20>
| 21> %scf
| 22>   MaxIter 150
| 23> end
| 24>
| 25>
| 26>                          ****END OF INPUT****

CARTESIAN COORDINATES (ANGSTROEM)
---------------------------------
  C      2.916320   -1.242590   -1.543130
  C      3.466590   -1.590970   -2.889080
  N      4.652270   -1.143160   -3.259690
  N      2.752260   -2.292040   -3.728030
  H      1.778360   -2.489600   -3.512740
  H      2.948610   -2.208540   -4.716810
  H      5.146720   -0.512510   -2.633850
  H      4.783030   -1.007200   -4.253500
  H      1.952940   -1.692780   -1.424240
  H      2.826180   -0.179730   -1.458860
  H      3.576060   -1.605960   -0.783120

 Total Charge           Charge          ....    1
 Multiplicity           Mult            ....    1
 Number of Electrons    NEL             ....   32
 Basis Dimension        Dim             ....  136

ORBITAL ENERGIES
----------------

  NO   OCC          E(Eh)            E(eV)
   0   2.0000     -14.374229      -391.1427
   1   2.0000     -14.369341      -391.0096
   2   2.0000     -10.324996      -280.9574
   3   2.0000     -10.204725      -277.6847
   4   2.0000      -1.144212       -31.1356
   5   2.0000      -1.050665       -28.5900
   6   2.0000      -0.898700       -24.4549
   7   2.0000      -0.795279       -21.6406
   8   2.0000      -0.731819       -19.9138
   9   2.0000      -0.727522       -19.7969
  10   2.0000      -0.664246       -18.0751
  11   2.0000      -0.624799       -17.0017
  12   2.0000      -0.582653       -15.8548
  13   2.0000      -0.567784       -15.4502
  14   2.0000      -0.540128       -14.6976
  15   2.0000      -0.469651       -12.7799
  16   0.0000      -0.257648        -7.0110
  17   0.0000      -0.178276        -4.8511
  18   0.0000      -0.136312        -3.7092
  19   0.0000      -0.130067        -3.5393
  20   0.0000      -0.109364        -2.9760

MULLIKEN ATOMIC CHARGES
-----------------------
   0 C :    0.549510
   1 C :    0.235530
   2 N :    0.029807
   3 N :    0.024568
   4 H :    0.056551
   5 H :   -0.052094
   6 H :    0.058676
   7 H :   -0.038462
   8 H :    0.039514
   9 H :    0.037834
  10 H :    0.058566
Sum of atomic charges:    1.0000000

LOEWDIN ATOMIC CHARGES
----------------------
   0 C :    0.246640
   1 C :   -0.073016
   2 N :    0.282342
   3 N :    0.285953
   4 H :    0.057846
   5 H :    0.049590
   6 H :    0.059078
   7 H :    0.045228
   8 H :    0.003751
   9 H :    0.022065
  10 H :    0.020521

  Mayer bond orders larger than 0.100000
B(  0-C ,  1-C ) :   1.3220 B(  0-C ,  8-H ) :   0.7953 B(  0-C ,  9-H ) :   0.8285
B(  0-C , 10-H ) :   0.7086 B(  1-C ,  2-N ) :   1.1124 B(  1-C ,  3-N ) :   1.0853
B(  1-C ,  5-H ) :  -0.1376 B(  1-C ,  8-H ) :   0.2296 B(  1-C ,  9-H ) :   0.1278
B(  1-C , 10-H ) :   0.2213 B(  2-N ,  3-N ) :   0.2012 B(  2-N ,  6-H ) :   1.0180
B(  2-N ,  7-H ) :   1.1751 B(  3-N ,  4-H ) :   1.0322 B(  3-N ,  5-H ) :   1.2182
B(  4-H ,  5-H ) :  -0.1237 B(  6-H ,  7-H ) :  -0.1126 B(  8-H , 10-H ) :   0.1066

Dispersion correction           -0.008482459
FINAL SINGLE POINT ENERGY      -189.619919745869

DIPOLE MOMENT
-------------
                                X             Y             Z
Electronic contribution:      0.91825      -0.74979      -1.82337
Nuclear contribution   :     -1.03256       1.11747       1.26949
                        -----------------------------------------
Total Dipole Moment    :     -0.11432       0.36768      -0.55389
                        -----------------------------------------
Magnitude (a.u.)       :      0.67457
Magnitude (Debye)      :      1.71462

Rotational constants in cm-1:     0.336859     0.298586     0.163958
Rotational constants in MHz : 10098.776812  8951.369850  4915.333652

                             ****ORCA TERMINATED NORMALLY****
TOTAL RUN TIME: 0 days 0 hours 0 minutes 4 seconds 397 msec
