                         Program Version 5.0.0 -  RELEASE  -
|  1> !TPSS D3BJ RIJCOSX def2-SVPD def2/J TightSCF
|  2> *xyz 0 1
|  3> C          1.72854        1.42432       -5.63944
|  4> S          2.25263       -0.18811       -6.27184
|  5> F          3.56261       -0.44446       -5.63155
|  6> O          2.34494       -0.03374       -7.69650
|  7> O          1.26606       -1.15918       -5.80536
|  8> H          0.77944        1.68154       -6.06127
|  9> H          2.45151        2.16548       -5.90944
| 10> H          1.64478        1.37937       -4.57367
| 11> *
| 12>
| 13> %MaxCore 64000
| 14>
| 15> %pal nprocs 8
| 16> end
| 17>
| 18> %scf
| 19>   MaxIter 150
| 20> end
| 21>
| 22>
| 23>                          ****END OF INPUT****

CARTESIAN COORDINATES (ANGSTROEM)
---------------------------------
  C      1.728540    1.424320   -5.639440
  S      2.252630   -0.188110   -6.271840
  F      3.562610   -0.444460   -5.631550
  O      2.344940   -0.033740   -7.696500
  O      1.266060   -1.159180   -5.805360
  H      0.779440    1.681540   -6.061270
  H      2.451510    2.165480   -5.909440
  H      1.644780    1.379370   -4.573670

 Total Charge           Charge          ....    0
 Multiplicity           Mult            ....    1
 Number of Electrons    NEL             ....   50
 Basis Dimension        Dim             ....  140

ORBITAL ENERGIES
----------------

  NO   OCC          E(Eh)            E(eV)
   0   2.0000     -88.626741     -2411.6562
   1   2.0000     -24.527086      -667.4159
   2   2.0000     -18.917706      -514.7770
   3   2.0000     -18.911677      -514.6129
   4   2.0000     -10.062899      -273.8254
   5   2.0000      -7.987435      -217.3491
   6   2.0000      -5.977490      -162.6558
   7   2.0000      -5.971255      -162.4861
   8   2.0000      -5.969834      -162.4474
   9   2.0000      -1.265567       -34.4378
  10   2.0000      -1.044017       -28.4091
  11   2.0000      -0.951528       -25.8924
  12   2.0000      -0.741327       -20.1725
  13   2.0000      -0.647587       -17.6218
  14   2.0000      -0.540766       -14.7150
  15   2.0000      -0.511097       -13.9076
  16   2.0000      -0.502277       -13.6676
  17   2.0000      -0.437817       -11.9136
  18   2.0000      -0.435164       -11.8414
  19   2.0000      -0.423965       -11.5367
  20   2.0000      -0.400635       -10.9018
  21   2.0000      -0.349895        -9.5211
  22   2.0000      -0.304023        -8.2729
  23   2.0000      -0.297933        -8.1072
  24   2.0000      -0.278174        -7.5695
  25   0.0000      -0.024724        -0.6728
  26   0.0000       0.007612         0.2071
  27   0.0000       0.018034         0.4907
  28   0.0000       0.035940         0.9780
  29   0.0000       0.036602         0.9960

MULLIKEN ATOMIC CHARGES
-----------------------
   0 C :    0.415647
   1 S :    1.195027
   2 F :   -0.372878
   3 O :   -0.608334
   4 O :   -0.629076
   5 H :   -0.006141
   6 H :    0.006353
   7 H :   -0.000599
Sum of atomic charges:    0.0000000

LOEWDIN ATOMIC CHARGES
----------------------
   0 C :    0.134469
   1 S :    1.086552
   2 F :   -0.268384
   3 O :   -0.451097
   4 O :   -0.460013
   5 H :   -0.005330
   6 H :   -0.018085
   7 H :   -0.018113

  Mayer bond orders larger than 0.100000
B(  0-C ,  1-S ) :   0.9677 B(  0-C ,  5-H ) :   0.9226 B(  0-C ,  6-H ) :   0.9213
B(  0-C ,  7-H ) :   0.9265 B(  1-S ,  2-F ) :   0.6733 B(  1-S ,  3-O ) :   1.5611
B(  1-S ,  4-O ) :   1.5390 B(  1-S ,  5-H ) :   0.1048

Dispersion correction           -0.007377286
FINAL SINGLE POINT ENERGY      -688.057190707510

DIPOLE MOMENT
-------------
                                X             Y             Z
Electronic contribution:      3.33180      -4.23779      -0.56905
Nuclear contribution   :     -3.03874       5.51823       1.39394
                        -----------------------------------------
Total Dipole Moment    :      0.29306       1.28044       0.82489
                        -----------------------------------------
Magnitude (a.u.)       :      1.55108
Magnitude (Debye)      :      3.94253

Rotational constants in cm-1:     0.164301     0.151617     0.146802
Rotational constants in MHz :  4925.615104  4545.361281  4401.017554

                             ****ORCA TERMINATED NORMALLY****
TOTAL RUN TIME: 0 days 0 hours 0 minutes 4 seconds 525 msec
