                         Program Version 5.0.0 -  RELEASE  -
|  1> !TPSS D3BJ RIJCOSX def2-SVPD def2/J TightSCF
|  2> *xyz 0 1
|  3> C          2.91632       -1.24259       -1.54313
|  4> C          3.46659       -1.59097       -2.88908
|  5> C          4.65227       -1.14316       -3.25969
|  6> N          2.75226       -2.29204       -3.72803
|  7> H          1.77836       -2.48960       -3.51274
|  8> H          2.94861       -2.20854       -4.71681
|  9> H          5.14672       -0.51251       -2.63385
| 10> H          4.78303       -1.00720       -4.25350
| 11> H          1.95294       -1.69278       -1.42424
| 12> H          2.82618       -0.17973       -1.45886
| 13> H          3.57606       -1.60596       -0.78312
| 14> *
| 15>
| 16> %MaxCore 64000
| 17>
| 18> %pal nprocs 8
| 19> end
| 20>
| 21> %scf
| 22>   MaxIter 150
| 23> end
| 24>
| 25>
| 26>                          ****END OF INPUT****

CARTESIAN COORDINATES (ANGSTROEM)
---------------------------------
  C      2.916320   -1.242590   -1.543130
  C      3.466590   -1.590970   -2.889080
  C      4.652270   -1.143160   -3.259690
  N      2.752260   -2.292040   -3.728030
  H      1.778360   -2.489600   -3.512740
  H      2.948610   -2.208540   -4.716810
  H      5.146720   -0.512510   -2.633850
  H      4.783030   -1.007200   -4.253500
  H      1.952940   -1.692780   -1.424240
  H      2.826180   -0.179730   -1.458860
  H      3.576060   -1.605960   -0.783120

 Total Charge           Charge          ....    0
 Multiplicity           Mult            ....    1
 Number of Electrons    NEL             ....   32
 Basis Dimension        Dim             ....  136

ORBITAL ENERGIES
----------------

  NO   OCC          E(Eh)            E(eV)
   0   2.0000     -14.123566      -384.3218
   1   2.0000     -10.015973      -272.5485
   2   2.0000      -9.995649      -271.9954
   3   2.0000      -9.929208      -270.1875
   4   2.0000      -0.865898       -23.5623
   5   2.0000      -0.696410       -18.9503
   6   2.0000      -0.632426       -17.2092
   7   2.0000      -0.525521       -14.3002
   8   2.0000      -0.480794       -13.0831
   9   2.0000      -0.426303       -11.6003
  10   2.0000      -0.393407       -10.7052
  11   2.0000      -0.361310        -9.8317
  12   2.0000      -0.348116        -9.4727
  13   2.0000      -0.324071        -8.8184
  14   2.0000      -0.292654        -7.9635
  15   2.0000      -0.159500        -4.3402
  16   0.0000       0.002895         0.0788
  17   0.0000       0.015314         0.4167
  18   0.0000       0.044356         1.2070
  19   0.0000       0.051889         1.4120
  20   0.0000       0.077330         2.1043

MULLIKEN ATOMIC CHARGES
-----------------------
   0 C :    0.711623
   1 C :   -0.434565
   2 C :    0.268023
   3 N :    0.100434
   4 H :   -0.080478
   5 H :   -0.086585
   6 H :   -0.063710
   7 H :   -0.339787
   8 H :   -0.081754
   9 H :   -0.017078
  10 H :    0.023877
Sum of atomic charges:   -0.0000000

LOEWDIN ATOMIC CHARGES
----------------------
   0 C :    0.178935
   1 C :   -0.289443
   2 C :    0.160135
   3 N :    0.166257
   4 H :   -0.000679
   5 H :    0.006492
   6 H :   -0.080402
   7 H :   -0.091992
   8 H :   -0.031285
   9 H :   -0.008788
  10 H :   -0.009230

  Mayer bond orders larger than 0.100000
B(  0-C ,  1-C ) :   1.2143 B(  0-C ,  8-H ) :   0.7327 B(  0-C ,  9-H ) :   0.8327
B(  0-C , 10-H ) :   0.7199 B(  1-C ,  2-C ) :   1.8781 B(  1-C ,  3-N ) :   1.0663
B(  1-C ,  6-H ) :   0.1701 B(  1-C ,  7-H ) :   0.2095 B(  1-C ,  8-H ) :   0.2774
B(  1-C ,  9-H ) :   0.1224 B(  1-C , 10-H ) :   0.2391 B(  2-C ,  3-N ) :   0.2795
B(  2-C ,  6-H ) :   0.7795 B(  2-C ,  7-H ) :   0.8860 B(  3-N ,  4-H ) :   1.0688
B(  3-N ,  5-H ) :   1.1326 B(  4-H ,  5-H ) :  -0.1089 B(  6-H ,  7-H ) :   0.1466

Dispersion correction           -0.008909598
FINAL SINGLE POINT ENERGY      -173.158977591612

DIPOLE MOMENT
-------------
                                X             Y             Z
Electronic contribution:     -0.13811      -1.18841      -1.32924
Nuclear contribution   :     -0.76183       1.20997       1.18381
                        -----------------------------------------
Total Dipole Moment    :     -0.89994       0.02157      -0.14544
                        -----------------------------------------
Magnitude (a.u.)       :      0.91187
Magnitude (Debye)      :      2.31779

Rotational constants in cm-1:     0.357745     0.302571     0.170012
Rotational constants in MHz : 10724.926457  9070.849165  5096.845195

                             ****ORCA TERMINATED NORMALLY****
TOTAL RUN TIME: 0 days 0 hours 0 minutes 4 seconds 636 msec
