                         Program Version 5.0.0 -  RELEASE  -
|  1> !TPSS D3BJ RIJCOSX def2-SVPD def2/J TightSCF
|  2> *xyz 0 1
|  3> C          1.72854        1.42432       -5.63944
|  4> S          2.25263       -0.18811       -6.27184
|  5> O          3.56261       -0.44446       -5.63155
|  6> F          2.34494       -0.03374       -7.69650
|  7> O          1.26606       -1.15918       -5.80536
|  8> H          0.77944        1.68154       -6.06127
|  9> H          2.45151        2.16548       -5.90944
| 10> H          1.64478        1.37937       -4.57367
| 11> *
| 12>
| 13> %MaxCore 64000
| 14>
| 15> %pal nprocs 8
| 16> end
| 17>
| 18> %scf
| 19>   MaxIter 150
| 20> end
| 21>
| 22>
| 23>                          ****END OF INPUT****

CARTESIAN COORDINATES (ANGSTROEM)
---------------------------------
  C      1.728540    1.424320   -5.639440
  S      2.252630   -0.188110   -6.271840
  O      3.562610   -0.444460   -5.631550
  F      2.344940   -0.033740   -7.696500
  O      1.266060   -1.159180   -5.805360
  H      0.779440    1.681540   -6.061270
  H      2.451510    2.165480   -5.909440
  H      1.644780    1.379370   -4.573670

 Total Charge           Charge          ....    0
 Multiplicity           Mult            ....    1
 Number of Electrons    NEL             ....   50
 Basis Dimension        Dim             ....  140

ORBITAL ENERGIES
----------------

  NO   OCC          E(Eh)            E(eV)
   0   2.0000     -88.629176     -2411.7225
   1   2.0000     -24.548393      -667.9957
   2   2.0000     -18.912086      -514.6240
   3   2.0000     -18.904199      -514.4094
   4   2.0000     -10.063941      -273.8538
   5   2.0000      -7.989838      -217.4145
   6   2.0000      -5.980238      -162.7305
   7   2.0000      -5.973361      -162.5434
   8   2.0000      -5.972001      -162.5064
   9   2.0000      -1.302416       -35.4405
  10   2.0000      -1.030883       -28.0517
  11   2.0000      -0.932393       -25.3717
  12   2.0000      -0.744012       -20.2456
  13   2.0000      -0.665152       -18.0997
  14   2.0000      -0.555476       -15.1153
  15   2.0000      -0.536366       -14.5953
  16   2.0000      -0.508006       -13.8235
  17   2.0000      -0.438784       -11.9399
  18   2.0000      -0.434131       -11.8133
  19   2.0000      -0.424962       -11.5638
  20   2.0000      -0.394797       -10.7430
  21   2.0000      -0.342575        -9.3219
  22   2.0000      -0.297518        -8.0959
  23   2.0000      -0.287538        -7.8243
  24   2.0000      -0.263242        -7.1632
  25   0.0000      -0.026278        -0.7151
  26   0.0000       0.009736         0.2649
  27   0.0000       0.016566         0.4508
  28   0.0000       0.032458         0.8832
  29   0.0000       0.035493         0.9658

MULLIKEN ATOMIC CHARGES
-----------------------
   0 C :    0.417300
   1 S :    1.182278
   2 O :   -0.635602
   3 F :   -0.350323
   4 O :   -0.615477
   5 H :    0.000443
   6 H :    0.007486
   7 H :   -0.006106
Sum of atomic charges:   -0.0000000

LOEWDIN ATOMIC CHARGES
----------------------
   0 C :    0.133925
   1 S :    1.088291
   2 O :   -0.470947
   3 F :   -0.250461
   4 O :   -0.459359
   5 H :   -0.019580
   6 H :   -0.017837
   7 H :   -0.004034

  Mayer bond orders larger than 0.100000
B(  0-C ,  1-S ) :   0.9679 B(  0-C ,  5-H ) :   0.9208 B(  0-C ,  6-H ) :   0.9206
B(  0-C ,  7-H ) :   0.9274 B(  1-S ,  2-O ) :   1.5298 B(  1-S ,  3-F ) :   0.7244
B(  1-S ,  4-O ) :   1.5426 B(  1-S ,  7-H ) :   0.1113

Dispersion correction           -0.007376187
FINAL SINGLE POINT ENERGY      -688.038707619420

DIPOLE MOMENT
-------------
                                X             Y             Z
Electronic contribution:      1.32185      -3.57037      -3.94943
Nuclear contribution   :     -1.82220       5.10789       3.45696
                        -----------------------------------------
Total Dipole Moment    :     -0.50036       1.53753      -0.49248
                        -----------------------------------------
Magnitude (a.u.)       :      1.69023
Magnitude (Debye)      :      4.29623

Rotational constants in cm-1:     0.163267     0.154654     0.145086
Rotational constants in MHz :  4894.631475  4636.404456  4349.567403

                             ****ORCA TERMINATED NORMALLY****
TOTAL RUN TIME: 0 days 0 hours 0 minutes 4 seconds 362 msec
