                         Program Version 5.0.0 -  RELEASE  -
|  1> !TPSS D3BJ RIJCOSX def2-SVPD def2/J TightSCF
|  2> *xyz 0 1
|  3> C          2.91632       -1.24259       -1.54313
|  4> C          3.46659       -1.59097       -2.88908
|  5> N          4.65227       -1.14316       -3.25969
|  6> C          2.75226       -2.29204       -3.72803
|  7> H          1.77836       -2.48960       -3.51274
|  8> H          2.94861       -2.20854       -4.71681
|  9> H          5.14672       -0.51251       -2.63385
| 10> H          4.78303       -1.00720       -4.25350
| 11> H          1.95294       -1.69278       -1.42424
| 12> H          2.82618       -0.17973       -1.45886
| 13> H          3.57606       -1.60596       -0.78312
| 14> *
| 15>
| 16> %MaxCore 64000
| 17>
| 18> %pal nprocs 8
| 19> end
| 20>
| 21> %scf
| 22>   MaxIter 150
| 23> end
| 24>
| 25>
| 26>                          ****END OF INPUT****

CARTESIAN COORDINATES (ANGSTROEM)
---------------------------------
  C      2.916320   -1.242590   -1.543130
  C      3.466590   -1.590970   -2.889080
  N      4.652270   -1.143160   -3.259690
  C      2.752260   -2.292040   -3.728030
  H      1.778360   -2.489600   -3.512740
  H      2.948610   -2.208540   -4.716810
  H      5.146720   -0.512510   -2.633850
  H      4.783030   -1.007200   -4.253500
  H      1.952940   -1.692780   -1.424240
  H      2.826180   -0.179730   -1.458860
  H      3.576060   -1.605960   -0.783120

 Total Charge           Charge          ....    0
 Multiplicity           Mult            ....    1
 Number of Electrons    NEL             ....   32
 Basis Dimension        Dim             ....  136

ORBITAL ENERGIES
----------------

  NO   OCC          E(Eh)            E(eV)
   0   2.0000     -14.120157      -384.2290
   1   2.0000     -10.015264      -272.5292
   2   2.0000      -9.994404      -271.9616
   3   2.0000      -9.933534      -270.3052
   4   2.0000      -0.860742       -23.4220
   5   2.0000      -0.696955       -18.9651
   6   2.0000      -0.633781       -17.2460
   7   2.0000      -0.519253       -14.1296
   8   2.0000      -0.481753       -13.1092
   9   2.0000      -0.428901       -11.6710
  10   2.0000      -0.394031       -10.7221
  11   2.0000      -0.360600        -9.8124
  12   2.0000      -0.351527        -9.5655
  13   2.0000      -0.320143        -8.7115
  14   2.0000      -0.288385        -7.8474
  15   2.0000      -0.166665        -4.5352
  16   0.0000       0.003719         0.1012
  17   0.0000       0.018961         0.5159
  18   0.0000       0.045747         1.2448
  19   0.0000       0.053288         1.4500
  20   0.0000       0.078525         2.1368

MULLIKEN ATOMIC CHARGES
-----------------------
   0 C :    0.716942
   1 C :   -0.521468
   2 N :    0.116174
   3 C :    0.244252
   4 H :   -0.021446
   5 H :   -0.366811
   6 H :   -0.097502
   7 H :   -0.073010
   8 H :    0.034019
   9 H :   -0.021216
  10 H :   -0.009934
Sum of atomic charges:   -0.0000000

LOEWDIN ATOMIC CHARGES
----------------------
   0 C :    0.175445
   1 C :   -0.295643
   2 N :    0.165919
   3 C :    0.167019
   4 H :   -0.081077
   5 H :   -0.086065
   6 H :    0.000849
   7 H :    0.002435
   8 H :   -0.017425
   9 H :   -0.013347
  10 H :   -0.018110

  Mayer bond orders larger than 0.100000
B(  0-C ,  1-C ) :   1.3484 B(  0-C ,  8-H ) :   0.8051 B(  0-C ,  9-H ) :   0.7114
B(  0-C , 10-H ) :   0.6740 B(  1-C ,  2-N ) :   1.0957 B(  1-C ,  3-C ) :   1.8563
B(  1-C ,  5-H ) :   0.2080 B(  1-C ,  8-H ) :   0.2284 B(  1-C ,  9-H ) :   0.2731
B(  1-C , 10-H ) :   0.2632 B(  2-N ,  3-C ) :   0.2955 B(  2-N ,  6-H ) :   1.0608
B(  2-N ,  7-H ) :   1.0960 B(  3-C ,  4-H ) :   0.8516 B(  3-C ,  5-H ) :   0.8035
B(  4-H ,  5-H ) :   0.1836 B(  8-H ,  9-H ) :   0.1160

Dispersion correction           -0.008909237
FINAL SINGLE POINT ENERGY      -173.162450289589

DIPOLE MOMENT
-------------
                                X             Y             Z
Electronic contribution:      1.52800      -0.19374      -0.94324
Nuclear contribution   :     -1.18794       0.95232       1.07877
                        -----------------------------------------
Total Dipole Moment    :      0.34006       0.75858       0.13554
                        -----------------------------------------
Magnitude (a.u.)       :      0.84229
Magnitude (Debye)      :      2.14094

Rotational constants in cm-1:     0.358436     0.301769     0.169913
Rotational constants in MHz : 10745.629007  9046.806054  5093.859032

                             ****ORCA TERMINATED NORMALLY****
TOTAL RUN TIME: 0 days 0 hours 0 minutes 4 seconds 635 msec
