                         Program Version 5.0.0 -  RELEASE  -
|  1> !TPSS D3BJ RIJCOSX def2-SVPD def2/J TightSCF
|  2> *xyz 0 1
|  3> C          1.72854        1.42432       -5.63944
|  4> S          2.25263       -0.18811       -6.27184
|  5> O          3.56261       -0.44446       -5.63155
|  6> O          2.34494       -0.03374       -7.69650
|  7> F          1.26606       -1.15918       -5.80536
|  8> H          0.77944        1.68154       -6.06127
|  9> H          2.45151        2.16548       -5.90944
| 10> H          1.64478        1.37937       -4.57367
| 11> *
| 12>
| 13> %MaxCore 64000
| 14>
| 15> %pal nprocs 8
| 16> end
| 17>
| 18> %scf
| 19>   MaxIter 150
| 20> end
| 21>
| 22>
| 23>                          ****END OF INPUT****

CARTESIAN COORDINATES (ANGSTROEM)
---------------------------------
  C      1.728540    1.424320   -5.639440
  S      2.252630   -0.188110   -6.271840
  O      3.562610   -0.444460   -5.631550
  O      2.344940   -0.033740   -7.696500
  F      1.266060   -1.159180   -5.805360
  H      0.779440    1.681540   -6.061270
  H      2.451510    2.165480   -5.909440
  H      1.644780    1.379370   -4.573670

 Total Charge           Charge          ....    0
 Multiplicity           Mult            ....    1
 Number of Electrons    NEL             ....   50
 Basis Dimension        Dim             ....  140

ORBITAL ENERGIES
----------------

  NO   OCC          E(Eh)            E(eV)
   0   2.0000     -88.627711     -2411.6826
   1   2.0000     -24.537675      -667.7041
   2   2.0000     -18.918054      -514.7864
   3   2.0000     -18.904099      -514.4067
   4   2.0000     -10.063465      -273.8408
   5   2.0000      -7.988436      -217.3764
   6   2.0000      -5.978641      -162.6871
   7   2.0000      -5.972110      -162.5094
   8   2.0000      -5.970733      -162.4719
   9   2.0000      -1.282241       -34.8916
  10   2.0000      -1.040410       -28.3110
  11   2.0000      -0.940495       -25.5922
  12   2.0000      -0.741844       -20.1866
  13   2.0000      -0.656209       -17.8564
  14   2.0000      -0.546911       -14.8822
  15   2.0000      -0.522353       -14.2140
  16   2.0000      -0.505152       -13.7459
  17   2.0000      -0.438482       -11.9317
  18   2.0000      -0.434645       -11.8273
  19   2.0000      -0.425853       -11.5881
  20   2.0000      -0.397919       -10.8279
  21   2.0000      -0.347524        -9.4566
  22   2.0000      -0.303116        -8.2482
  23   2.0000      -0.288918        -7.8619
  24   2.0000      -0.269962        -7.3460
  25   0.0000      -0.027912        -0.7595
  26   0.0000       0.006668         0.1815
  27   0.0000       0.017345         0.4720
  28   0.0000       0.034951         0.9511
  29   0.0000       0.035807         0.9744

MULLIKEN ATOMIC CHARGES
-----------------------
   0 C :    0.417360
   1 S :    1.188745
   2 O :   -0.642282
   3 O :   -0.601639
   4 F :   -0.363317
   5 H :    0.000935
   6 H :    0.000379
   7 H :   -0.000181
Sum of atomic charges:    0.0000000

LOEWDIN ATOMIC CHARGES
----------------------
   0 C :    0.134382
   1 S :    1.087879
   2 O :   -0.471126
   3 O :   -0.450543
   4 F :   -0.259051
   5 H :   -0.019341
   6 H :   -0.004035
   7 H :   -0.018166

  Mayer bond orders larger than 0.100000
B(  0-C ,  1-S ) :   0.9688 B(  0-C ,  5-H ) :   0.9216 B(  0-C ,  6-H ) :   0.9223
B(  0-C ,  7-H ) :   0.9254 B(  1-S ,  2-O ) :   1.5275 B(  1-S ,  3-O ) :   1.5623
B(  1-S ,  4-F ) :   0.6935 B(  1-S ,  6-H ) :   0.1066

Dispersion correction           -0.007378491
FINAL SINGLE POINT ENERGY      -688.047623720430

DIPOLE MOMENT
-------------
                                X             Y             Z
Electronic contribution:     -0.44787      -5.40728      -0.86211
Nuclear contribution   :     -0.74433       6.23228       1.56758
                        -----------------------------------------
Total Dipole Moment    :     -1.19221       0.82500       0.70547
                        -----------------------------------------
Magnitude (a.u.)       :      1.61235
Magnitude (Debye)      :      4.09827

Rotational constants in cm-1:     0.164764     0.152261     0.145794
Rotational constants in MHz :  4939.488001  4564.674339  4370.797804

                             ****ORCA TERMINATED NORMALLY****
TOTAL RUN TIME: 0 days 0 hours 0 minutes 4 seconds 774 msec
