                         Program Version 5.0.0 -  RELEASE  -
|  1> !TPSS D3BJ RIJCOSX def2-SVPD def2/J TightSCF xyzfile
|  2>
|  3> *xyzfile 0 1 D2.xyz
|  4>
|  5> %MaxCore 64000
|  6>
|  7> %pal nprocs 4
|  8> end
|  9>
| 10> %scf
| 11>   MaxIter 150
| 12> end
| 13>
| 14>
| 15>                          ****END OF INPUT****

CARTESIAN COORDINATES (ANGSTROEM)
---------------------------------
  C      2.916324   -1.242589   -1.543125
  C      0.704661    1.443129   -4.503630
  C      1.728539    1.424320   -5.639443
  H      2.646718    1.953794   -5.381054
  H      1.299916    1.930613   -6.503614
  S      2.252625   -0.188115   -6.271840
  C      3.466585   -1.590971   -2.889082
  N      4.652275   -1.143164   -3.259692
  C      2.752264   -2.292043   -3.728029
  H      1.778364   -2.489604   -3.512738
  H      2.948612   -2.208544   -4.716813
  H      5.146723   -0.512508   -2.633852
  H      4.783030   -1.007203   -4.253498
  F      3.562607   -0.444464   -5.631552
  O      2.344944   -0.033742   -7.696501
  C      2.804084    0.290698   -1.359243
  C      1.052550    0.695659   -3.214915
  H     -0.232483    1.032925   -4.884449
  H      0.511700    2.495794   -4.267966
  C      2.388380    1.093669   -2.597108
  H      3.763425    0.674718   -0.999889
  H      2.094788    0.461222   -0.545756
  O      1.266058   -1.159177   -5.805365
  H      3.167316    1.013242   -3.359430
  H      2.357690    2.149375   -2.310997
  H      1.039284   -0.368429   -3.449329
  H      0.250787    0.865605   -2.488283
  H      1.940472   -1.716529   -1.441161
  H      3.558569   -1.663433   -0.766371

 Total Charge           Charge          ....    0
 Multiplicity           Mult            ....    1
 Number of Electrons    NEL             ....  112
 Basis Dimension        Dim             ....  404

ORBITAL ENERGIES
----------------

  NO   OCC          E(Eh)            E(eV)
   0   2.0000     -88.622430     -2411.5389
   1   2.0000     -24.529019      -667.4685
   2   2.0000     -18.916899      -514.7550
   3   2.0000     -18.907128      -514.4891
   4   2.0000     -14.118895      -384.1947
   5   2.0000     -10.060702      -273.7656
   6   2.0000     -10.027410      -272.8597
   7   2.0000     -10.010325      -272.3948
   8   2.0000     -10.009686      -272.3774
   9   2.0000     -10.008089      -272.3339
  10   2.0000     -10.003366      -272.2054
  11   2.0000     -10.002639      -272.1857
  12   2.0000      -9.930584      -270.2249
  13   2.0000      -7.982299      -217.2094
  14   2.0000      -5.972704      -162.5255
  15   2.0000      -5.966163      -162.3476
  16   2.0000      -5.964318      -162.2973
  17   2.0000      -1.268746       -34.5243
  18   2.0000      -1.042065       -28.3560
  19   2.0000      -0.949131       -25.8272
  20   2.0000      -0.862219       -23.4622
  21   2.0000      -0.773722       -21.0540
  22   2.0000      -0.739425       -20.1208
  23   2.0000      -0.700955       -19.0739
  24   2.0000      -0.674085       -18.3428
  25   2.0000      -0.651462       -17.7272
  26   2.0000      -0.624839       -17.0027
  27   2.0000      -0.576373       -15.6839
  28   2.0000      -0.545758       -14.8508
  29   2.0000      -0.520270       -14.1573
  30   2.0000      -0.516187       -14.0462
  31   2.0000      -0.508086       -13.8257
  32   2.0000      -0.500519       -13.6198
  33   2.0000      -0.480433       -13.0732
  34   2.0000      -0.450929       -12.2704
  35   2.0000      -0.449681       -12.2365
  36   2.0000      -0.435388       -11.8475
  37   2.0000      -0.422745       -11.5035
  38   2.0000      -0.410643       -11.1742
  39   2.0000      -0.404266       -11.0006
  40   2.0000      -0.394676       -10.7397
  41   2.0000      -0.379522       -10.3273
  42   2.0000      -0.366461        -9.9719
  43   2.0000      -0.349505        -9.5105
  44   2.0000      -0.347535        -9.4569
  45   2.0000      -0.344932        -9.3861
  46   2.0000      -0.332718        -9.0537
  47   2.0000      -0.320256        -8.7146
  48   2.0000      -0.311271        -8.4701
  49   2.0000      -0.299262        -8.1433
  50   2.0000      -0.294198        -8.0055
  51   2.0000      -0.293320        -7.9817
  52   2.0000      -0.283810        -7.7229
  53   2.0000      -0.279356        -7.6017
  54   2.0000      -0.273212        -7.4345
  55   2.0000      -0.164553        -4.4777
  56   0.0000      -0.021322        -0.5802
  57   0.0000      -0.004850        -0.1320
  58   0.0000       0.003153         0.0858
  59   0.0000       0.004903         0.1334
  60   0.0000       0.021240         0.5780

MULLIKEN ATOMIC CHARGES
-----------------------
   0 C :    0.408337
   1 C :    0.423939
   2 C :    0.077031
   3 H :    0.202262
   4 H :   -0.188097
   5 S :    1.435910
   6 C :   -0.573674
   7 N :    0.346534
   8 C :    0.627012
   9 H :   -0.035735
  10 H :   -0.417497
  11 H :   -0.019255
  12 H :   -0.230468
  13 F :   -0.522217
  14 O :   -0.660405
  15 C :    0.404606
  16 C :    0.202505
  17 H :    0.051563
  18 H :   -0.032727
  19 C :   -0.122275
  20 H :    0.000102
  21 H :   -0.099046
  22 O :   -0.753050
  23 H :    0.015788
  24 H :   -0.202148
  25 H :   -0.372740
  26 H :   -0.025836
  27 H :    0.299345
  28 H :   -0.239764
Sum of atomic charges:   -0.0000000

LOEWDIN ATOMIC CHARGES
----------------------
   0 C :    0.034774
   1 C :   -0.017069
   2 C :   -0.027298
   3 H :    0.009400
   4 H :    0.018006
   5 S :    1.125882
   6 C :   -0.257891
   7 N :    0.193263
   8 C :    0.175866
   9 H :   -0.064490
  10 H :   -0.116906
  11 H :    0.005350
  12 H :   -0.036053
  13 F :   -0.284972
  14 O :   -0.436913
  15 C :   -0.004707
  16 C :   -0.005262
  17 H :    0.029051
  18 H :    0.029657
  19 C :   -0.019423
  20 H :    0.008847
  21 H :    0.015403
  22 O :   -0.435030
  23 H :   -0.012496
  24 H :    0.021574
  25 H :   -0.014653
  26 H :    0.029457
  27 H :    0.019536
  28 H :    0.017097

  Mayer bond orders larger than 0.100000
B(  0-C ,  6-C ) :   1.3114 B(  0-C ,  8-C ) :   0.1079 B(  0-C , 15-C ) :   1.1322
B(  0-C , 20-H ) :   0.1286 B(  0-C , 21-H ) :   0.1944 B(  0-C , 27-H ) :   0.7709
B(  0-C , 28-H ) :   0.6276 B(  1-C ,  2-C ) :   1.2499 B(  1-C ,  4-H ) :   0.2083
B(  1-C , 16-C ) :   1.2595 B(  1-C , 17-H ) :   0.6778 B(  1-C , 18-H ) :   0.7501
B(  2-C ,  3-H ) :   0.8360 B(  2-C ,  4-H ) :   0.9063 B(  2-C ,  5-S ) :   0.9119
B(  2-C , 17-H ) :   0.1200 B(  2-C , 18-H ) :   0.1483 B(  5-S , 13-F ) :   0.6167
B(  5-S , 14-O ) :   1.5219 B(  5-S , 22-O ) :   1.5089 B(  6-C ,  7-N ) :   0.9281
B(  6-C ,  8-C ) :   1.9624 B(  6-C ,  9-H ) :   0.1443 B(  6-C , 10-H ) :   0.5015
B(  6-C , 15-C ) :   0.2022 B(  6-C , 28-H ) :   0.3787 B(  7-N ,  8-C ) :   0.4670
B(  7-N ,  9-H ) :   0.1154 B(  7-N , 11-H ) :   0.9844 B(  7-N , 12-H ) :   0.8976
B(  8-C ,  9-H ) :   0.6414 B(  8-C , 10-H ) :   0.1974 B( 10-H , 12-H ) :   0.1650
B( 11-H , 12-H ) :  -0.1390 B( 12-H , 13-F ) :   0.1581 B( 15-C , 19-C ) :   1.2243
B( 15-C , 20-H ) :   0.6834 B( 15-C , 21-H ) :   0.8151 B( 15-C , 23-H ) :   0.1227
B( 15-C , 27-H ) :   0.1117 B( 16-C , 17-H ) :   0.2491 B( 16-C , 19-C ) :   1.2665
B( 16-C , 23-H ) :   0.1305 B( 16-C , 24-H ) :   0.1594 B( 16-C , 25-H ) :   0.9680
B( 16-C , 26-H ) :   0.6835 B( 19-C , 20-H ) :   0.2589 B( 19-C , 21-H ) :   0.1696
B( 19-C , 23-H ) :   0.8507 B( 19-C , 24-H ) :   0.8874 B( 19-C , 25-H ) :   0.1524
B( 19-C , 26-H ) :   0.1895 B( 20-H , 21-H ) :  -0.1231

Dispersion correction           -0.046026560
FINAL SINGLE POINT ENERGY     -1017.205518589760

DIPOLE MOMENT
-------------
                                X             Y             Z
Electronic contribution:      3.45132      -4.29595     -18.26302
Nuclear contribution   :     -3.13969       6.14743      19.30799
                        -----------------------------------------
Total Dipole Moment    :      0.31163       1.85148       1.04498
                        -----------------------------------------
Magnitude (a.u.)       :      2.14874
Magnitude (Debye)      :      5.46165

Rotational constants in cm-1:     0.036460     0.018762     0.015014
Rotational constants in MHz :  1093.039020   562.475626   450.105862

                             ****ORCA TERMINATED NORMALLY****
TOTAL RUN TIME: 0 days 0 hours 1 minutes 8 seconds 490 msec
