                         Program Version 5.0.0 -  RELEASE  -
|  1> !TPSS D3BJ RIJCOSX def2-SVPD def2/J TightSCF
|  2> *xyz -1 1
|  3> C          1.44442        5.26658       -0.97546
|  4> O          1.56525        4.23349       -1.86489
|  5> H          1.76623        6.17572       -1.43893
|  6> H          2.05096        5.07018       -0.11614
|  7> H          0.42160        5.36155       -0.67592
|  8> *
|  9> %MaxCore 64000
| 10>
| 11> %pal nprocs 8
| 12> end
| 13>
| 14> %scf
| 15>   MaxIter 150
| 16> end
| 17>
| 18>
| 19>                          ****END OF INPUT****

CARTESIAN COORDINATES (ANGSTROEM)
---------------------------------
  C      1.444420    5.266580   -0.975460
  O      1.565250    4.233490   -1.864890
  H      1.766230    6.175720   -1.438930
  H      2.050960    5.070180   -0.116140
  H      0.421600    5.361550   -0.675920

 Total Charge           Charge          ....   -1
 Multiplicity           Mult            ....    1
 Number of Electrons    NEL             ....   18
 Basis Dimension        Dim             ....   67

ORBITAL ENERGIES
----------------

  NO   OCC          E(Eh)            E(eV)
   0   2.0000     -18.548578      -504.7325
   1   2.0000      -9.788189      -266.3502
   2   2.0000      -0.583659       -15.8822
   3   2.0000      -0.340454        -9.2642
   4   2.0000      -0.155413        -4.2290
   5   2.0000      -0.155412        -4.2290
   6   2.0000      -0.055120        -1.4999
   7   2.0000       0.091563         2.4916
   8   2.0000       0.091570         2.4917
   9   0.0000       0.189480         5.1560
  10   0.0000       0.259317         7.0564
  11   0.0000       0.259320         7.0564
  12   0.0000       0.267203         7.2710
  13   0.0000       0.304218         8.2782

MULLIKEN ATOMIC CHARGES
-----------------------
   0 C :    0.807995
   1 O :   -1.043701
   2 H :   -0.254771
   3 H :   -0.254727
   4 H :   -0.254797
Sum of atomic charges:   -1.0000000

LOEWDIN ATOMIC CHARGES
----------------------
   0 C :   -0.109602
   1 O :   -0.633959
   2 H :   -0.085477
   3 H :   -0.085480
   4 H :   -0.085481

  Mayer bond orders larger than 0.100000
B(  0-C ,  1-O ) :   1.1214 B(  0-C ,  2-H ) :   0.9220 B(  0-C ,  3-H ) :   0.9220
B(  0-C ,  4-H ) :   0.9220

Dispersion correction           -0.001756332
FINAL SINGLE POINT ENERGY      -115.034259721203

DIPOLE MOMENT
-------------
                                X             Y             Z
Electronic contribution:      0.16866      -1.44189      -1.24139
Nuclear contribution   :     -0.25440       2.17514       1.87266
                        -----------------------------------------
Total Dipole Moment    :     -0.08574       0.73325       0.63127
                        -----------------------------------------
Magnitude (a.u.)       :      0.97135
Magnitude (Debye)      :      2.46897

Rotational constants in cm-1:     5.477715     0.940444     0.940443
Rotational constants in MHz : 164217.753846 28193.799011 28193.774483

                             ****ORCA TERMINATED NORMALLY****
TOTAL RUN TIME: 0 days 0 hours 0 minutes 2 seconds 294 msec
