                         Program Version 5.0.0 -  RELEASE  -
|  1> !TPSS D3BJ RIJCOSX def2-SVPD def2/J TightSCF
|  2> *xyz 1 1
|  3> C         -0.70169        4.07250       -4.00392
|  4> N          0.68053        4.61482       -4.04800
|  5> H          0.69993        5.58489       -4.38827
|  6> H          1.27804        4.05598       -4.66824
|  7> H          1.08573        4.53358       -3.10652
|  8> H         -1.14500        4.14653       -4.97495
|  9> H         -1.28296        4.63405       -3.30271
| 10> H         -0.67274        3.04629       -3.70235
| 11> *
| 12> %MaxCore 64000
| 13>
| 14> %pal nprocs 8
| 15> end
| 16>
| 17> %scf
| 18>   MaxIter 150
| 19> end
| 20>
| 21>
| 22>                          ****END OF INPUT****

CARTESIAN COORDINATES (ANGSTROEM)
---------------------------------
  C     -0.701690    4.072500   -4.003920
  N      0.680530    4.614820   -4.048000
  H      0.699930    5.584890   -4.388270
  H      1.278040    4.055980   -4.668240
  H      1.085730    4.533580   -3.106520
  H     -1.145000    4.146530   -4.974950
  H     -1.282960    4.634050   -3.302710
  H     -0.672740    3.046290   -3.702350

 Total Charge           Charge          ....    1
 Multiplicity           Mult            ....    1
 Number of Electrons    NEL             ....   18
 Basis Dimension        Dim             ....   88

ORBITAL ENERGIES
----------------

  NO   OCC          E(Eh)            E(eV)
   0   2.0000     -14.467769      -393.6880
   1   2.0000     -10.261572      -279.2316
   2   2.0000      -1.158745       -31.5311
   3   2.0000      -0.883293       -24.0356
   4   2.0000      -0.772262       -21.0143
   5   2.0000      -0.762130       -20.7386
   6   2.0000      -0.674449       -18.3527
   7   2.0000      -0.591307       -16.0903
   8   2.0000      -0.589704       -16.0467
   9   0.0000      -0.218345        -5.9415
  10   0.0000      -0.152871        -4.1598
  11   0.0000      -0.150671        -4.1000
  12   0.0000      -0.142789        -3.8855
  13   0.0000      -0.098276        -2.6742

MULLIKEN ATOMIC CHARGES
-----------------------
   0 C :    0.871003
   1 N :   -0.854198
   2 H :    0.378737
   3 H :    0.373967
   4 H :    0.392985
   5 H :   -0.062128
   6 H :   -0.051511
   7 H :   -0.048855
Sum of atomic charges:    1.0000000

LOEWDIN ATOMIC CHARGES
----------------------
   0 C :    0.291768
   1 N :    0.316500
   2 H :    0.110424
   3 H :    0.105935
   4 H :    0.107443
   5 H :    0.021841
   6 H :    0.022885
   7 H :    0.023204

  Mayer bond orders larger than 0.100000
B(  0-C ,  1-N ) :   0.8112 B(  0-C ,  5-H ) :   0.9135 B(  0-C ,  6-H ) :   0.9023
B(  0-C ,  7-H ) :   0.8995 B(  1-N ,  2-H ) :   0.7480 B(  1-N ,  3-H ) :   0.7609
B(  1-N ,  4-H ) :   0.7333

Dispersion correction           -0.004019428
FINAL SINGLE POINT ENERGY       -96.168443975012

DIPOLE MOMENT
-------------
                                X             Y             Z
Electronic contribution:      1.01236       0.42424      -0.03841
Nuclear contribution   :     -0.21844      -0.13976       0.01729
                        -----------------------------------------
Total Dipole Moment    :      0.79392       0.28447      -0.02112
                        -----------------------------------------
Magnitude (a.u.)       :      0.84361
Magnitude (Debye)      :      2.14430

Rotational constants in cm-1:     2.865765     0.688517     0.685249
Rotational constants in MHz : 85913.460223 20641.211162 20543.252263

                             ****ORCA TERMINATED NORMALLY****
TOTAL RUN TIME: 0 days 0 hours 0 minutes 2 seconds 556 msec
