                         Program Version 5.0.0 -  RELEASE  -
|  1> !TPSS D3BJ RIJCOSX def2-SVPD def2/J TightSCF xyzfile
|  2>
|  3> *xyzfile 0 1 B.xyz
|  4>
|  5> %MaxCore 64000
|  6>
|  7> %pal nprocs 4
|  8> end
|  9>
| 10> %scf
| 11>   MaxIter 150
| 12> end
| 13>
| 14>
| 15>                          ****END OF INPUT****

CARTESIAN COORDINATES (ANGSTROEM)
---------------------------------
  C     -0.701686    4.072499   -4.003920
  N      0.680528    4.614820   -4.048005
  C      1.444422    5.266576   -0.975463
  O      1.565248    4.233493   -1.864885
  H      0.699926    5.584890   -4.388272
  H      1.278044    4.055977   -4.668235
  H      1.085729    4.533581   -3.106524
  C     -1.703475    5.093197   -3.477396
  H     -0.995895    3.740394   -5.000654
  H     -0.643580    3.201910   -3.351533
  C     -1.313997    5.785995   -2.169271
  H     -1.877057    5.850103   -4.251154
  H     -2.653264    4.564475   -3.354796
  H     -2.097137    6.509395   -1.929558
  H     -0.416875    6.387594   -2.339097
  C     -1.073895    4.844728   -0.979904
  H     -1.968893    4.809608   -0.352568
  C      0.148120    5.210874   -0.138092
  H     -0.909754    3.827531   -1.338975
  H      1.474250    6.264638   -1.476917
  H      2.289622    5.303267   -0.264450
  H      0.261827    4.450942    0.640711
  H     -0.002516    6.171031    0.371483

 Total Charge           Charge          ....    0
 Multiplicity           Mult            ....    1
 Number of Electrons    NEL             ....   66
 Basis Dimension        Dim             ....  283

ORBITAL ENERGIES
----------------

  NO   OCC          E(Eh)            E(eV)
   0   2.0000     -18.772563      -510.8274
   1   2.0000     -14.197083      -386.3223
   2   2.0000     -10.067021      -273.9376
   3   2.0000     -10.022911      -272.7373
   4   2.0000      -9.998149      -272.0635
   5   2.0000      -9.987264      -271.7673
   6   2.0000      -9.976791      -271.4823
   7   2.0000      -9.958171      -270.9756
   8   2.0000      -0.919087       -25.0096
   9   2.0000      -0.816149       -22.2085
  10   2.0000      -0.746923       -20.3248
  11   2.0000      -0.685807       -18.6618
  12   2.0000      -0.636555       -17.3215
  13   2.0000      -0.581919       -15.8348
  14   2.0000      -0.537657       -14.6304
  15   2.0000      -0.527333       -14.3495
  16   2.0000      -0.520488       -14.1632
  17   2.0000      -0.471400       -12.8274
  18   2.0000      -0.449898       -12.2424
  19   2.0000      -0.422764       -11.5040
  20   2.0000      -0.416295       -11.3280
  21   2.0000      -0.380344       -10.3497
  22   2.0000      -0.369235       -10.0474
  23   2.0000      -0.358292        -9.7496
  24   2.0000      -0.338197        -9.2028
  25   2.0000      -0.318914        -8.6781
  26   2.0000      -0.313522        -8.5314
  27   2.0000      -0.293119        -7.9762
  28   2.0000      -0.273761        -7.4494
  29   2.0000      -0.265984        -7.2378
  30   2.0000      -0.258479        -7.0336
  31   2.0000      -0.142717        -3.8835
  32   2.0000      -0.135336        -3.6827
  33   0.0000      -0.026140        -0.7113
  34   0.0000       0.008793         0.2393
  35   0.0000       0.015709         0.4275
  36   0.0000       0.032530         0.8852
  37   0.0000       0.044225         1.2034

MULLIKEN ATOMIC CHARGES
-----------------------
   0 C :    0.653481
   1 N :   -0.173923
   2 C :    0.496770
   3 O :   -0.671728
   4 H :    0.364497
   5 H :    0.302847
   6 H :   -0.397571
   7 C :    0.104599
   8 H :   -0.267480
   9 H :    0.110481
  10 C :    0.089202
  11 H :    0.024840
  12 H :   -0.104679
  13 H :   -0.218895
  14 H :    0.002814
  15 C :    0.051641
  16 H :   -0.228700
  17 C :    0.128556
  18 H :    0.095983
  19 H :    0.157133
  20 H :   -0.429954
  21 H :    0.027777
  22 H :   -0.117692
Sum of atomic charges:    0.0000000

LOEWDIN ATOMIC CHARGES
----------------------
   0 C :    0.089195
   1 N :    0.321357
   2 C :   -0.069839
   3 O :   -0.375463
   4 H :    0.080772
   5 H :    0.083116
   6 H :   -0.197185
   7 C :   -0.011690
   8 H :    0.021963
   9 H :    0.030664
  10 C :   -0.007919
  11 H :    0.017343
  12 H :    0.027337
  13 H :    0.016803
  14 H :   -0.009945
  15 C :   -0.017059
  16 H :    0.010489
  17 C :   -0.022394
  18 H :   -0.003817
  19 H :   -0.010017
  20 H :    0.000616
  21 H :    0.014195
  22 H :    0.011480

  Mayer bond orders larger than 0.100000
B(  0-C ,  1-N ) :   0.8155 B(  0-C ,  7-C ) :   1.2023 B(  0-C ,  8-H ) :   0.9348
B(  0-C ,  9-H ) :   0.7228 B(  0-C , 11-H ) :   0.1169 B(  0-C , 12-H ) :   0.1416
B(  1-N ,  4-H ) :   0.7374 B(  1-N ,  5-H ) :   0.8123 B(  1-N ,  6-H ) :   1.3797
B(  1-N ,  8-H ) :   0.1152 B(  1-N ,  9-H ) :   0.1462 B(  2-C ,  3-O ) :   1.0273
B(  2-C , 17-C ) :   1.1102 B(  2-C , 19-H ) :   0.7562 B(  2-C , 20-H ) :   1.0536
B(  2-C , 21-H ) :   0.1099 B(  2-C , 22-H ) :   0.1202 B(  3-O ,  6-H ) :   0.3779
B(  7-C ,  8-H ) :   0.1111 B(  7-C ,  9-H ) :   0.1262 B(  7-C , 10-C ) :   1.2298
B(  7-C , 11-H ) :   0.7505 B(  7-C , 12-H ) :   0.9123 B(  7-C , 13-H ) :   0.1302
B(  7-C , 14-H ) :   0.1001 B(  8-H ,  9-H ) :  -0.1283 B( 10-C , 11-H ) :   0.1703
B( 10-C , 12-H ) :   0.1024 B( 10-C , 13-H ) :   0.8128 B( 10-C , 14-H ) :   0.8692
B( 10-C , 15-C ) :   1.1999 B( 10-C , 16-H ) :   0.1922 B( 13-H , 15-C ) :   0.1442
B( 14-H , 15-C ) :   0.1265 B( 15-C , 16-H ) :   0.8813 B( 15-C , 17-C ) :   1.2631
B( 15-C , 18-H ) :   0.8152 B( 15-C , 21-H ) :   0.1838 B( 15-C , 22-H ) :   0.1263
B( 17-C , 18-H ) :   0.1219 B( 17-C , 20-H ) :   0.1550 B( 17-C , 21-H ) :   0.7386
B( 17-C , 22-H ) :   0.9301

Dispersion correction           -0.027236152
FINAL SINGLE POINT ENERGY      -367.437082622381

DIPOLE MOMENT
-------------
                                X             Y             Z
Electronic contribution:      2.01263      -1.56444      -1.26894
Nuclear contribution   :     -3.16446       1.92310      -1.11926
                        -----------------------------------------
Total Dipole Moment    :     -1.15183       0.35866      -2.38819
                        -----------------------------------------
Magnitude (a.u.)       :      2.67560
Magnitude (Debye)      :      6.80083

Rotational constants in cm-1:     0.085554     0.055600     0.038553
Rotational constants in MHz :  2564.854379  1666.836664  1155.798427

                             ****ORCA TERMINATED NORMALLY****
TOTAL RUN TIME: 0 days 0 hours 0 minutes 31 seconds 459 msec
