                         Program Version 5.0.0 -  RELEASE  -
|  1> !TPSS D3BJ RIJCOSX def2-SVPD def2/J TightSCF
|  2> *xyz 0 1
|  3> C          1.44442        5.26658       -0.97546
|  4> F          1.56525        4.23349       -1.86489
|  5> H          1.76623        6.17572       -1.43893
|  6> H          2.05096        5.07018       -0.11614
|  7> H          0.42160        5.36155       -0.67592
|  8> *
|  9> %MaxCore 64000
| 10>
| 11> %pal nprocs 8
| 12> end
| 13>
| 14> %scf
| 15>   MaxIter 150
| 16> end
| 17>
| 18>
| 19>                          ****END OF INPUT****

CARTESIAN COORDINATES (ANGSTROEM)
---------------------------------
  C      1.444420    5.266580   -0.975460
  F      1.565250    4.233490   -1.864890
  H      1.766230    6.175720   -1.438930
  H      2.050960    5.070180   -0.116140
  H      0.421600    5.361550   -0.675920

 Total Charge           Charge          ....    0
 Multiplicity           Mult            ....    1
 Number of Electrons    NEL             ....   18
 Basis Dimension        Dim             ....   67

ORBITAL ENERGIES
----------------

  NO   OCC          E(Eh)            E(eV)
   0   2.0000     -24.411895      -664.2814
   1   2.0000     -10.072382      -274.0835
   2   2.0000      -1.105514       -30.0826
   3   2.0000      -0.648564       -17.6483
   4   2.0000      -0.450256       -12.2521
   5   2.0000      -0.441823       -12.0226
   6   2.0000      -0.441821       -12.0226
   7   2.0000      -0.303491        -8.2584
   8   2.0000      -0.303484        -8.2582
   9   0.0000       0.016115         0.4385
  10   0.0000       0.044396         1.2081
  11   0.0000       0.089732         2.4417
  12   0.0000       0.089733         2.4418
  13   0.0000       0.134282         3.6540

MULLIKEN ATOMIC CHARGES
-----------------------
   0 C :    0.856164
   1 F :   -0.485735
   2 H :   -0.123494
   3 H :   -0.123425
   4 H :   -0.123510
Sum of atomic charges:   -0.0000000

LOEWDIN ATOMIC CHARGES
----------------------
   0 C :    0.273221
   1 F :   -0.243067
   2 H :   -0.010050
   3 H :   -0.010051
   4 H :   -0.010052

  Mayer bond orders larger than 0.100000
B(  0-C ,  1-F ) :   0.8388 B(  0-C ,  2-H ) :   0.9453 B(  0-C ,  3-H ) :   0.9453
B(  0-C ,  4-H ) :   0.9453

Dispersion correction           -0.001538438
FINAL SINGLE POINT ENERGY      -139.660542173045

DIPOLE MOMENT
-------------
                                X             Y             Z
Electronic contribution:      0.26124      -2.23345      -1.92286
Nuclear contribution   :     -0.32265       2.75860       2.37499
                        -----------------------------------------
Total Dipole Moment    :     -0.06141       0.52515       0.45213
                        -----------------------------------------
Magnitude (a.u.)       :      0.69568
Magnitude (Debye)      :      1.76828

Rotational constants in cm-1:     5.477715     0.875416     0.875415
Rotational constants in MHz : 164217.753846 26244.308980 26244.287726

                             ****ORCA TERMINATED NORMALLY****
TOTAL RUN TIME: 0 days 0 hours 0 minutes 2 seconds 80 msec
