                         Program Version 5.0.0 -  RELEASE  -
|  1> !TPSS D3BJ RIJCOSX def2-SVPD def2/J TightSCF
|  2> *xyz 0 1
|  3> C         -0.70169        4.07250       -4.00392
|  4> C          0.68053        4.61482       -4.04800
|  5> H          0.69993        5.58489       -4.38827
|  6> H          1.27804        4.05598       -4.66824
|  7> H          1.08573        4.53358       -3.10652
|  8> H         -1.14500        4.14653       -4.97495
|  9> H         -1.28296        4.63405       -3.30271
| 10> H         -0.67274        3.04629       -3.70235
| 11> *
| 12> %MaxCore 64000
| 13>
| 14> %pal nprocs 8
| 15> end
| 16>
| 17> %scf
| 18>   MaxIter 150
| 19> end
| 20>
| 21>
| 22>                          ****END OF INPUT****

CARTESIAN COORDINATES (ANGSTROEM)
---------------------------------
  C     -0.701690    4.072500   -4.003920
  C      0.680530    4.614820   -4.048000
  H      0.699930    5.584890   -4.388270
  H      1.278040    4.055980   -4.668240
  H      1.085730    4.533580   -3.106520
  H     -1.145000    4.146530   -4.974950
  H     -1.282960    4.634050   -3.302710
  H     -0.672740    3.046290   -3.702350

 Total Charge           Charge          ....    0
 Multiplicity           Mult            ....    1
 Number of Electrons    NEL             ....   18
 Basis Dimension        Dim             ....   88

ORBITAL ENERGIES
----------------

  NO   OCC          E(Eh)            E(eV)
   0   2.0000      -9.979490      -271.5557
   1   2.0000      -9.966513      -271.2026
   2   2.0000      -0.707267       -19.2457
   3   2.0000      -0.566966       -15.4279
   4   2.0000      -0.410844       -11.1796
   5   2.0000      -0.405004       -11.0207
   6   2.0000      -0.328269        -8.9327
   7   2.0000      -0.312838        -8.5128
   8   2.0000      -0.307368        -8.3639
   9   0.0000       0.019153         0.5212
  10   0.0000       0.051904         1.4124
  11   0.0000       0.090267         2.4563
  12   0.0000       0.091715         2.4957
  13   0.0000       0.112605         3.0641

MULLIKEN ATOMIC CHARGES
-----------------------
   0 C :    0.165631
   1 C :    0.502963
   2 H :   -0.172927
   3 H :   -0.173316
   4 H :   -0.152195
   5 H :   -0.061440
   6 H :   -0.058044
   7 H :   -0.050671
Sum of atomic charges:    0.0000000

LOEWDIN ATOMIC CHARGES
----------------------
   0 C :    0.083650
   1 C :    0.088686
   2 H :   -0.034986
   3 H :   -0.039200
   4 H :   -0.036783
   5 H :   -0.021560
   6 H :   -0.020293
   7 H :   -0.019514

  Mayer bond orders larger than 0.100000
B(  0-C ,  1-C ) :   1.4580 B(  0-C ,  2-H ) :   0.1639 B(  0-C ,  3-H ) :   0.1648
B(  0-C ,  4-H ) :   0.1836 B(  0-C ,  5-H ) :   0.8903 B(  0-C ,  6-H ) :   0.8746
B(  0-C ,  7-H ) :   0.8727 B(  1-C ,  2-H ) :   0.8138 B(  1-C ,  3-H ) :   0.7963
B(  1-C ,  4-H ) :   0.7981 B(  1-C ,  5-H ) :   0.1426 B(  1-C ,  6-H ) :   0.1487
B(  1-C ,  7-H ) :   0.1502 B(  3-H ,  4-H ) :   0.1018

Dispersion correction           -0.004029219
FINAL SINGLE POINT ENERGY       -79.777453229585

DIPOLE MOMENT
-------------
                                X             Y             Z
Electronic contribution:      0.00759       0.04700      -0.01068
Nuclear contribution   :      0.01985      -0.04545       0.00953
                        -----------------------------------------
Total Dipole Moment    :      0.02744       0.00155      -0.00115
                        -----------------------------------------
Magnitude (a.u.)       :      0.02751
Magnitude (Debye)      :      0.06991

Rotational constants in cm-1:     2.865782     0.718825     0.715264
Rotational constants in MHz : 85913.996449 21549.842906 21443.078705

                             ****ORCA TERMINATED NORMALLY****
TOTAL RUN TIME: 0 days 0 hours 0 minutes 2 seconds 695 msec
