                         Program Version 5.0.0 -  RELEASE  -
|  1> !PBE0 D3BJ RIJCOSX def2-SVPD def2/J TightSCF
|  2> *xyz -1 1
|  3> C         -1.10433        0.25137       -2.86006
|  4> C         -0.71189        0.84252       -4.21834
|  5> H          0.15463        1.49980       -4.13091
|  6> H         -1.53813        1.45922       -4.58267
|  7> C         -0.39762       -0.20587       -5.28802
|  8> O          0.61717       -0.00535       -5.99827
|  9> O         -1.13317       -1.22138       -5.34147
| 10> H         -1.95489       -0.38644       -2.98099
| 11> H         -1.34603        1.04362       -2.18269
| 12> H         -0.28606       -0.31581       -2.46809
| 13> *
| 14>
| 15> %MaxCore 64000
| 16>
| 17> %pal nprocs 4
| 18> end
| 19>
| 20> %scf
| 21>   MaxIter 150
| 22> end
| 23>
| 24>
| 25>                          ****END OF INPUT****

CARTESIAN COORDINATES (ANGSTROEM)
---------------------------------
  C     -1.104330    0.251370   -2.860060
  C     -0.711890    0.842520   -4.218340
  H      0.154630    1.499800   -4.130910
  H     -1.538130    1.459220   -4.582670
  C     -0.397620   -0.205870   -5.288020
  O      0.617170   -0.005350   -5.998270
  O     -1.133170   -1.221380   -5.341470
  H     -1.954890   -0.386440   -2.980990
  H     -1.346030    1.043620   -2.182690
  H     -0.286060   -0.315810   -2.468090

 Total Charge           Charge          ....   -1
 Multiplicity           Mult            ....    1
 Number of Electrons    NEL             ....   40
 Basis Dimension        Dim             ....  146

ORBITAL ENERGIES
----------------

  NO   OCC          E(Eh)            E(eV)
   0   2.0000     -18.954131      -515.7681
   1   2.0000     -18.953238      -515.7438
   2   2.0000     -10.115617      -275.2599
   3   2.0000     -10.068852      -273.9874
   4   2.0000     -10.058922      -273.7172
   5   2.0000      -0.840296       -22.8656
   6   2.0000      -0.745606       -20.2890
   7   2.0000      -0.620708       -16.8903
   8   2.0000      -0.488123       -13.2825
   9   2.0000      -0.332823        -9.0566
  10   2.0000      -0.306496        -8.3402
  11   2.0000      -0.273240        -7.4352
  12   2.0000      -0.244924        -6.6647
  13   2.0000      -0.228414        -6.2155
  14   2.0000      -0.221672        -6.0320
  15   2.0000      -0.193088        -5.2542
  16   2.0000      -0.175031        -4.7628
  17   2.0000      -0.063041        -1.7154
  18   2.0000      -0.055413        -1.5079
  19   2.0000      -0.042410        -1.1540
  20   0.0000       0.161854         4.4043
  21   0.0000       0.196467         5.3461
  22   0.0000       0.210335         5.7235
  23   0.0000       0.222971         6.0673
  24   0.0000       0.249897         6.8000

MULLIKEN ATOMIC CHARGES
-----------------------
   0 C :    0.439951
   1 C :   -0.475302
   2 H :    0.003490
   3 H :    0.036796
   4 C :    0.608619
   5 O :   -0.764517
   6 O :   -0.792907
   7 H :    0.007343
   8 H :   -0.037115
   9 H :   -0.026358
Sum of atomic charges:   -1.0000000

LOEWDIN ATOMIC CHARGES
----------------------
   0 C :    0.091694
   1 C :   -0.044119
   2 H :    0.000432
   3 H :    0.010971
   4 C :   -0.297064
   5 O :   -0.338885
   6 O :   -0.328191
   7 H :   -0.028731
   8 H :   -0.043475
   9 H :   -0.022631

  Mayer bond orders larger than 0.100000
B(  0-C ,  1-C ) :   1.2830 B(  0-C ,  7-H ) :   0.8498 B(  0-C ,  8-H ) :   0.8521
B(  0-C ,  9-H ) :   0.8777 B(  1-C ,  2-H ) :   0.9800 B(  1-C ,  3-H ) :   0.9104
B(  1-C ,  4-C ) :   1.0322 B(  1-C ,  7-H ) :   0.1892 B(  1-C ,  8-H ) :   0.1645
B(  1-C ,  9-H ) :   0.1499 B(  2-H ,  4-C ) :   0.1738 B(  4-C ,  5-O ) :   1.3673
B(  4-C ,  6-O ) :   1.3846

Dispersion correction           -0.005443942
FINAL SINGLE POINT ENERGY      -267.362991661749

DIPOLE MOMENT
-------------
                                X             Y             Z
Electronic contribution:      1.54118      -2.35987      -5.21172
Nuclear contribution   :     -2.09607       3.44215       6.87744
                        -----------------------------------------
Total Dipole Moment    :     -0.55489       1.08227       1.66571
                        -----------------------------------------
Magnitude (a.u.)       :      2.06248
Magnitude (Debye)      :      5.24241

Rotational constants in cm-1:     0.324698     0.133739     0.103466
Rotational constants in MHz :  9734.203431  4009.406827  3101.846422

                             ****ORCA TERMINATED NORMALLY****
TOTAL RUN TIME: 0 days 0 hours 0 minutes 16 seconds 67 msec
