                         Program Version 5.0.0 -  RELEASE  -
|  1> !PBE0 D3BJ RIJCOSX def2-SVPD def2/J TightSCF
|  2> *xyz 1 1
|  3> C          2.23447       -2.98975       -2.39762
|  4> N          2.75680       -2.94555       -3.76503
|  5> C          1.98721       -2.59045       -4.81898
|  6> N          0.74322       -3.01749       -4.91352
|  7> N          2.49964       -1.84860       -5.80324
|  8> H          3.30978       -1.29282       -5.55895
|  9> H          1.80103       -1.30430       -6.28913
| 10> H          3.71612       -2.62880       -3.82953
| 11> H          0.39583       -3.62775       -4.18502
| 12> H          0.03920       -2.45438       -5.37137
| 13> C          2.19120       -1.61950       -1.71549
| 14> H          2.87278       -3.66637       -1.82801
| 15> H          1.24619       -3.44744       -2.40784
| 16> H          1.56387       -0.96046       -2.27853
| 17> H          3.18033       -1.21449       -1.66568
| 18> H          1.79916       -1.72608       -0.72562
| 19> *
| 20>
| 21> %MaxCore 64000
| 22>
| 23> %pal nprocs 4
| 24> end
| 25>
| 26> %scf
| 27>   MaxIter 150
| 28> end
| 29>
| 30>
| 31>                          ****END OF INPUT****

CARTESIAN COORDINATES (ANGSTROEM)
---------------------------------
  C      2.234470   -2.989750   -2.397620
  N      2.756800   -2.945550   -3.765030
  C      1.987210   -2.590450   -4.818980
  N      0.743220   -3.017490   -4.913520
  N      2.499640   -1.848600   -5.803240
  H      3.309780   -1.292820   -5.558950
  H      1.801030   -1.304300   -6.289130
  H      3.716120   -2.628800   -3.829530
  H      0.395830   -3.627750   -4.185020
  H      0.039200   -2.454380   -5.371370
  C      2.191200   -1.619500   -1.715490
  H      2.872780   -3.666370   -1.828010
  H      1.246190   -3.447440   -2.407840
  H      1.563870   -0.960460   -2.278530
  H      3.180330   -1.214490   -1.665680
  H      1.799160   -1.726080   -0.725620

 Total Charge           Charge          ....    1
 Multiplicity           Mult            ....    1
 Number of Electrons    NEL             ....   48
 Basis Dimension        Dim             ....  200

ORBITAL ENERGIES
----------------

  NO   OCC          E(Eh)            E(eV)
   0   2.0000     -14.627795      -398.0425
   1   2.0000     -14.623637      -397.9294
   2   2.0000     -14.622875      -397.9087
   3   2.0000     -10.573642      -287.7234
   4   2.0000     -10.444010      -284.1960
   5   2.0000     -10.375078      -282.3202
   6   2.0000      -1.242500       -33.8101
   7   2.0000      -1.126654       -30.6578
   8   2.0000      -1.121561       -30.5192
   9   2.0000      -0.947538       -25.7838
  10   2.0000      -0.861415       -23.4403
  11   2.0000      -0.822863       -22.3912
  12   2.0000      -0.804934       -21.9034
  13   2.0000      -0.759227       -20.6596
  14   2.0000      -0.719440       -19.5770
  15   2.0000      -0.702656       -19.1203
  16   2.0000      -0.667597       -18.1662
  17   2.0000      -0.638543       -17.3756
  18   2.0000      -0.617911       -16.8142
  19   2.0000      -0.585230       -15.9249
  20   2.0000      -0.549448       -14.9512
  21   2.0000      -0.529799       -14.4166
  22   2.0000      -0.504205       -13.7201
  23   2.0000      -0.466334       -12.6896
  24   0.0000      -0.192416        -5.2359
  25   0.0000      -0.148753        -4.0478
  26   0.0000      -0.116754        -3.1770
  27   0.0000      -0.103526        -2.8171
  28   0.0000      -0.084042        -2.2869

MULLIKEN ATOMIC CHARGES
-----------------------
   0 C :    0.278493
   1 N :   -0.562228
   2 C :    1.294299
   3 N :   -0.092578
   4 N :   -0.147341
   5 H :    0.024653
   6 H :    0.063915
   7 H :   -0.173143
   8 H :    0.019162
   9 H :   -0.005475
  10 C :    0.515715
  11 H :   -0.164776
  12 H :   -0.068445
  13 H :   -0.061034
  14 H :    0.022653
  15 H :    0.056130
Sum of atomic charges:    1.0000000

LOEWDIN ATOMIC CHARGES
----------------------
   0 C :    0.037997
   1 N :    0.044253
   2 C :   -0.038215
   3 N :    0.280247
   4 N :    0.267384
   5 H :    0.036715
   6 H :    0.036545
   7 H :    0.051268
   8 H :    0.026892
   9 H :    0.049163
  10 C :    0.159104
  11 H :    0.042212
  12 H :    0.017879
  13 H :   -0.012861
  14 H :   -0.004754
  15 H :    0.006170

  Mayer bond orders larger than 0.100000
B(  0-C ,  1-N ) :   0.8208 B(  0-C , 10-C ) :   1.2881 B(  0-C , 11-H ) :   0.9105
B(  0-C , 12-H ) :   0.8868 B(  0-C , 13-H ) :   0.1978 B(  0-C , 14-H ) :   0.1622
B(  0-C , 15-H ) :   0.1634 B(  1-N ,  2-C ) :   0.9548 B(  1-N ,  3-N ) :   0.1272
B(  1-N ,  4-N ) :   0.1554 B(  1-N ,  7-H ) :   1.2506 B(  1-N , 11-H ) :   0.1841
B(  1-N , 12-H ) :   0.1239 B(  2-C ,  3-N ) :   0.9486 B(  2-C ,  4-N ) :   0.9511
B(  2-C ,  7-H ) :  -0.1902 B(  2-C ,  9-H ) :  -0.1063 B(  3-N ,  4-N ) :   0.1570
B(  3-N ,  8-H ) :   0.9812 B(  3-N ,  9-H ) :   1.2081 B(  4-N ,  5-H ) :   1.0104
B(  4-N ,  6-H ) :   0.9969 B(  8-H ,  9-H ) :  -0.1510 B( 10-C , 13-H ) :   0.8656
B( 10-C , 14-H ) :   0.8422 B( 10-C , 15-H ) :   0.8216

Dispersion correction           -0.010499200
FINAL SINGLE POINT ENERGY      -283.880797208089

DIPOLE MOMENT
-------------
                                X             Y             Z
Electronic contribution:      0.18667      -1.68424      -5.19543
Nuclear contribution   :     -0.59121       2.30298       4.63196
                        -----------------------------------------
Total Dipole Moment    :     -0.40454       0.61874      -0.56347
                        -----------------------------------------
Magnitude (a.u.)       :      0.92951
Magnitude (Debye)      :      2.36262

Rotational constants in cm-1:     0.205874     0.074757     0.066901
Rotational constants in MHz :  6171.937773  2241.151057  2005.629823

                             ****ORCA TERMINATED NORMALLY****
TOTAL RUN TIME: 0 days 0 hours 0 minutes 27 seconds 971 msec
