                         Program Version 5.0.0 -  RELEASE  -
|  1> !PBE0 D3BJ RIJCOSX def2-SVPD def2/J TightSCF xyzfile
|  2>
|  3> *xyzfile 0 1 B.xyz
|  4>
|  5> %MaxCore 64000
|  6>
|  7> %pal nprocs 4
|  8> end
|  9>
| 10> %scf
| 11>   MaxIter 150
| 12> end
| 13>
| 14>
| 15>                          ****END OF INPUT****

CARTESIAN COORDINATES (ANGSTROEM)
---------------------------------
  C      2.234473   -2.989754   -2.397622
  N      2.756799   -2.945553   -3.765029
  C     -1.104325    0.251374   -2.860056
  C     -0.711893    0.842517   -4.218344
  H      0.154626    1.499800   -4.130909
  H     -1.538134    1.459222   -4.582671
  C     -0.397624   -0.205875   -5.288018
  C      1.987208   -2.590451   -4.818975
  N      0.743221   -3.017493   -4.913524
  N      2.499636   -1.848598   -5.803241
  H      3.309780   -1.292818   -5.558947
  H      1.801025   -1.304298   -6.289129
  H      3.716116   -2.628797   -3.829533
  H      0.395828   -3.627747   -4.185024
  H      0.039201   -2.454383   -5.371367
  O      0.617165   -0.005348   -5.998273
  O     -1.133173   -1.221380   -5.341465
  C      2.191199   -1.619503   -1.715492
  H      2.872783   -3.666368   -1.828014
  H      1.246188   -3.447444   -2.407842
  C      1.298729   -0.554314   -2.359773
  H      1.872917   -1.787955   -0.681310
  H      3.216809   -1.238432   -1.654428
  C     -0.196255   -0.863365   -2.325763
  H      1.612531   -0.371346   -3.393065
  H      1.480944    0.388638   -1.834444
  H     -0.404105   -1.761825   -2.909448
  H     -0.490439   -1.087880   -1.294131
  H     -1.143842    1.066711   -2.129680
  H     -2.114401   -0.156834   -2.930323

 Total Charge           Charge          ....    0
 Multiplicity           Mult            ....    1
 Number of Electrons    NEL             ....  102
 Basis Dimension        Dim             ....  402

ORBITAL ENERGIES
----------------

  NO   OCC          E(Eh)            E(eV)
   0   2.0000     -19.137486      -520.7575
   1   2.0000     -19.135839      -520.7126
   2   2.0000     -14.467766      -393.6879
   3   2.0000     -14.435868      -392.8199
   4   2.0000     -14.434975      -392.7956
   5   2.0000     -10.399546      -282.9860
   6   2.0000     -10.309465      -280.5348
   7   2.0000     -10.293132      -280.0904
   8   2.0000     -10.259201      -279.1670
   9   2.0000     -10.239317      -278.6260
  10   2.0000     -10.225599      -278.2527
  11   2.0000     -10.216110      -277.9945
  12   2.0000     -10.202126      -277.6140
  13   2.0000      -1.070549       -29.1311
  14   2.0000      -1.027387       -27.9566
  15   2.0000      -0.963501       -26.2182
  16   2.0000      -0.943707       -25.6796
  17   2.0000      -0.927204       -25.2305
  18   2.0000      -0.837919       -22.8009
  19   2.0000      -0.794882       -21.6298
  20   2.0000      -0.743223       -20.2241
  21   2.0000      -0.698255       -19.0005
  22   2.0000      -0.672257       -18.2930
  23   2.0000      -0.638987       -17.3877
  24   2.0000      -0.630761       -17.1639
  25   2.0000      -0.596199       -16.2234
  26   2.0000      -0.573419       -15.6035
  27   2.0000      -0.550596       -14.9825
  28   2.0000      -0.527602       -14.3568
  29   2.0000      -0.518263       -14.1027
  30   2.0000      -0.499696       -13.5974
  31   2.0000      -0.487672       -13.2702
  32   2.0000      -0.478242       -13.0136
  33   2.0000      -0.463296       -12.6069
  34   2.0000      -0.451608       -12.2889
  35   2.0000      -0.442619       -12.0443
  36   2.0000      -0.427990       -11.6462
  37   2.0000      -0.423197       -11.5158
  38   2.0000      -0.405800       -11.0424
  39   2.0000      -0.395819       -10.7708
  40   2.0000      -0.382118       -10.3980
  41   2.0000      -0.372119       -10.1259
  42   2.0000      -0.359203        -9.7744
  43   2.0000      -0.340712        -9.2713
  44   2.0000      -0.329488        -8.9658
  45   2.0000      -0.322302        -8.7703
  46   2.0000      -0.317648        -8.6437
  47   2.0000      -0.308958        -8.4072
  48   2.0000      -0.246357        -6.7037
  49   2.0000      -0.235099        -6.3974
  50   2.0000      -0.228142        -6.2081
  51   0.0000      -0.019609        -0.5336
  52   0.0000      -0.007153        -0.1946
  53   0.0000       0.013478         0.3668
  54   0.0000       0.028979         0.7886
  55   0.0000       0.039573         1.0768

MULLIKEN ATOMIC CHARGES
-----------------------
   0 C :    0.755659
   1 N :   -0.655100
   2 C :    0.397419
   3 C :    0.072732
   4 H :    0.218242
   5 H :   -0.194078
   6 C :    0.532772
   7 C :    1.326517
   8 N :    0.097050
   9 N :   -0.108990
  10 H :    0.059616
  11 H :   -0.112710
  12 H :   -0.156312
  13 H :    0.061473
  14 H :   -0.277655
  15 O :   -0.712578
  16 O :   -0.846132
  17 C :    0.238951
  18 H :   -0.284080
  19 H :    0.058507
  20 C :   -0.222368
  21 H :    0.096112
  22 H :   -0.008161
  23 C :   -0.194780
  24 H :   -0.005496
  25 H :   -0.103102
  26 H :   -0.031844
  27 H :   -0.091483
  28 H :   -0.052166
  29 H :    0.141987
Sum of atomic charges:   -0.0000000

LOEWDIN ATOMIC CHARGES
----------------------
   0 C :    0.064420
   1 N :    0.031417
   2 C :   -0.024300
   3 C :    0.029483
   4 H :    0.016537
   5 H :    0.031710
   6 C :   -0.207951
   7 C :   -0.046707
   8 N :    0.308155
   9 N :    0.271978
  10 H :    0.023514
  11 H :   -0.066702
  12 H :    0.035152
  13 H :    0.017435
  14 H :   -0.076443
  15 O :   -0.267289
  16 O :   -0.257231
  17 C :   -0.018468
  18 H :    0.027212
  19 H :    0.011380
  20 C :   -0.025825
  21 H :    0.029821
  22 H :    0.022674
  23 C :   -0.032184
  24 H :    0.008304
  25 H :    0.032565
  26 H :   -0.009218
  27 H :    0.024703
  28 H :    0.019560
  29 H :    0.026299

  Mayer bond orders larger than 0.100000
B(  0-C ,  1-N ) :   0.8418 B(  0-C , 17-C ) :   1.1349 B(  0-C , 18-H ) :   0.8345
B(  0-C , 19-H ) :   0.8061 B(  0-C , 21-H ) :   0.1268 B(  0-C , 22-H ) :   0.1136
B(  1-N ,  7-C ) :   0.7997 B(  1-N ,  8-N ) :   0.1269 B(  1-N ,  9-N ) :   0.1925
B(  1-N , 12-H ) :   1.2396 B(  1-N , 18-H ) :   0.2154 B(  1-N , 19-H ) :   0.1067
B(  2-C ,  3-C ) :   1.2166 B(  2-C ,  5-H ) :   0.1462 B(  2-C , 23-C ) :   1.2818
B(  2-C , 28-H ) :   0.8301 B(  2-C , 29-H ) :   0.6556 B(  3-C ,  4-H ) :   0.7949
B(  3-C ,  5-H ) :   0.8439 B(  3-C ,  6-C ) :   1.1385 B(  3-C , 28-H ) :   0.1363
B(  3-C , 29-H ) :   0.1164 B(  4-H ,  6-C ) :   0.2376 B(  5-H ,  6-C ) :   0.1577
B(  6-C , 15-O ) :   1.2433 B(  6-C , 16-O ) :   1.1819 B(  7-C ,  8-N ) :   0.9021
B(  7-C ,  9-N ) :   0.8043 B(  7-C , 12-H ) :  -0.1940 B(  7-C , 14-H ) :  -0.1344
B(  8-N ,  9-N ) :   0.1465 B(  8-N , 13-H ) :   0.8831 B(  8-N , 14-H ) :   1.2048
B(  9-N , 10-H ) :   0.9601 B(  9-N , 11-H ) :   0.9796 B( 11-H , 15-O ) :   0.1401
B( 13-H , 14-H ) :  -0.2135 B( 14-H , 16-O ) :   0.2155 B( 17-C , 19-H ) :   0.1045
B( 17-C , 20-C ) :   1.2285 B( 17-C , 21-H ) :   0.8083 B( 17-C , 22-H ) :   0.7663
B( 18-H , 19-H ) :  -0.1097 B( 20-C , 21-H ) :   0.1599 B( 20-C , 22-H ) :   0.2179
B( 20-C , 23-C ) :   1.3187 B( 20-C , 24-H ) :   0.9620 B( 20-C , 25-H ) :   0.8847
B( 20-C , 26-H ) :   0.1241 B( 20-C , 27-H ) :   0.2147 B( 23-C , 24-H ) :   0.1110
B( 23-C , 25-H ) :   0.1894 B( 23-C , 26-H ) :   0.9378 B( 23-C , 27-H ) :   0.8149
B( 23-C , 28-H ) :   0.1584 B( 23-C , 29-H ) :   0.2129

Dispersion correction           -0.030799742
FINAL SINGLE POINT ENERGY      -628.730112212145

DIPOLE MOMENT
-------------
                                X             Y             Z
Electronic contribution:      0.59461      -2.84787     -10.22693
Nuclear contribution   :      1.76912       1.50070      12.36652
                        -----------------------------------------
Total Dipole Moment    :      2.36372      -1.34717       2.13959
                        -----------------------------------------
Magnitude (a.u.)       :      3.46120
Magnitude (Debye)      :      8.79768

Rotational constants in cm-1:     0.033272     0.023886     0.017112
Rotational constants in MHz :   997.469575   716.074432   513.001395

                             ****ORCA TERMINATED NORMALLY****
TOTAL RUN TIME: 0 days 0 hours 2 minutes 17 seconds 467 msec
