                         Program Version 5.0.0 -  RELEASE  -
|  1> !PBE0 D3BJ RIJCOSX def2-SVPD def2/J TightSCF
|  2> *xyz 0 1
|  3> C         -1.10433        0.25137       -2.86006
|  4> C         -0.71189        0.84252       -4.21834
|  5> H          0.15463        1.49980       -4.13091
|  6> H         -1.53813        1.45922       -4.58267
|  7> C         -0.39762       -0.20587       -5.28802
|  8> F          0.61717       -0.00535       -5.99827
|  9> O         -1.13317       -1.22138       -5.34147
| 10> H         -1.95489       -0.38644       -2.98099
| 11> H         -1.34603        1.04362       -2.18269
| 12> H         -0.28606       -0.31581       -2.46809
| 13> *
| 14>
| 15> %MaxCore 64000
| 16>
| 17> %pal nprocs 4
| 18> end
| 19>
| 20> %scf
| 21>   MaxIter 150
| 22> end
| 23>
| 24>
| 25>                          ****END OF INPUT****

CARTESIAN COORDINATES (ANGSTROEM)
---------------------------------
  C     -1.104330    0.251370   -2.860060
  C     -0.711890    0.842520   -4.218340
  H      0.154630    1.499800   -4.130910
  H     -1.538130    1.459220   -4.582670
  C     -0.397620   -0.205870   -5.288020
  F      0.617170   -0.005350   -5.998270
  O     -1.133170   -1.221380   -5.341470
  H     -1.954890   -0.386440   -2.980990
  H     -1.346030    1.043620   -2.182690
  H     -0.286060   -0.315810   -2.468090

 Total Charge           Charge          ....    0
 Multiplicity           Mult            ....    1
 Number of Electrons    NEL             ....   40
 Basis Dimension        Dim             ....  146

ORBITAL ENERGIES
----------------

  NO   OCC          E(Eh)            E(eV)
   0   2.0000     -24.857342      -676.4027
   1   2.0000     -19.227572      -523.2088
   2   2.0000     -10.416258      -283.4408
   3   2.0000     -10.268051      -279.4079
   4   2.0000     -10.237259      -278.5700
   5   2.0000      -1.341436       -36.5023
   6   2.0000      -1.055809       -28.7300
   7   2.0000      -0.818295       -22.2669
   8   2.0000      -0.710359       -19.3299
   9   2.0000      -0.657859       -17.9013
  10   2.0000      -0.571393       -15.5484
  11   2.0000      -0.556646       -15.1471
  12   2.0000      -0.526323       -14.3220
  13   2.0000      -0.481856       -13.1120
  14   2.0000      -0.451352       -12.2819
  15   2.0000      -0.413520       -11.2525
  16   2.0000      -0.392889       -10.6910
  17   2.0000      -0.389653       -10.6030
  18   2.0000      -0.365249        -9.9389
  19   2.0000      -0.311463        -8.4753
  20   0.0000      -0.029174        -0.7939
  21   0.0000       0.021035         0.5724
  22   0.0000       0.051770         1.4087
  23   0.0000       0.064845         1.7645
  24   0.0000       0.080684         2.1955

MULLIKEN ATOMIC CHARGES
-----------------------
   0 C :    0.452003
   1 C :   -0.538866
   2 H :    0.047735
   3 H :    0.111845
   4 C :    0.877011
   5 F :   -0.400303
   6 O :   -0.571449
   7 H :    0.024452
   8 H :   -0.001299
   9 H :   -0.001129
Sum of atomic charges:   -0.0000000

LOEWDIN ATOMIC CHARGES
----------------------
   0 C :    0.136489
   1 C :   -0.001340
   2 H :    0.024360
   3 H :    0.042672
   4 C :    0.002367
   5 F :   -0.039729
   6 O :   -0.138144
   7 H :   -0.008801
   8 H :   -0.011406
   9 H :   -0.006467

  Mayer bond orders larger than 0.100000
B(  0-C ,  1-C ) :   1.3386 B(  0-C ,  7-H ) :   0.8484 B(  0-C ,  8-H ) :   0.8497
B(  0-C ,  9-H ) :   0.8738 B(  1-C ,  2-H ) :   0.9572 B(  1-C ,  3-H ) :   0.8847
B(  1-C ,  4-C ) :   1.0907 B(  1-C ,  7-H ) :   0.1699 B(  1-C ,  8-H ) :   0.1540
B(  1-C ,  9-H ) :   0.1443 B(  2-H ,  4-C ) :   0.1011 B(  4-C ,  5-F ) :   0.6903
B(  4-C ,  6-O ) :   1.7303

Dispersion correction           -0.005163933
FINAL SINGLE POINT ENERGY      -291.883487363264

DIPOLE MOMENT
-------------
                                X             Y             Z
Electronic contribution:      3.60080      -2.34921      -7.70083
Nuclear contribution   :     -3.36368       3.36392       8.24820
                        -----------------------------------------
Total Dipole Moment    :      0.23712       1.01471       0.54737
                        -----------------------------------------
Magnitude (a.u.)       :      1.17706
Magnitude (Debye)      :      2.99184

Rotational constants in cm-1:     0.315013     0.126712     0.098430
Rotational constants in MHz :  9443.861322  3798.734540  2950.846388

                             ****ORCA TERMINATED NORMALLY****
TOTAL RUN TIME: 0 days 0 hours 0 minutes 14 seconds 118 msec
