                         Program Version 5.0.0 -  RELEASE  -
|  1> !PBE0 D3BJ RIJCOSX def2-SVPD def2/J TightSCF
|  2> *xyz 0 1
|  3> C          2.23447       -2.98975       -2.39762
|  4> C          2.75680       -2.94555       -3.76503
|  5> C          1.98721       -2.59045       -4.81898
|  6> N          0.74322       -3.01749       -4.91352
|  7> N          2.49964       -1.84860       -5.80324
|  8> H          3.30978       -1.29282       -5.55895
|  9> H          1.80103       -1.30430       -6.28913
| 10> H          3.71612       -2.62880       -3.82953
| 11> H          0.39583       -3.62775       -4.18502
| 12> H          0.03920       -2.45438       -5.37137
| 13> C          2.19120       -1.61950       -1.71549
| 14> H          2.87278       -3.66637       -1.82801
| 15> H          1.24619       -3.44744       -2.40784
| 16> H          1.56387       -0.96046       -2.27853
| 17> H          3.18033       -1.21449       -1.66568
| 18> H          1.79916       -1.72608       -0.72562
| 19> *
| 20>
| 21> %MaxCore 64000
| 22>
| 23> %pal nprocs 4
| 24> end
| 25>
| 26> %scf
| 27>   MaxIter 150
| 28> end
| 29>
| 30>
| 31>                          ****END OF INPUT****

CARTESIAN COORDINATES (ANGSTROEM)
---------------------------------
  C      2.234470   -2.989750   -2.397620
  C      2.756800   -2.945550   -3.765030
  C      1.987210   -2.590450   -4.818980
  N      0.743220   -3.017490   -4.913520
  N      2.499640   -1.848600   -5.803240
  H      3.309780   -1.292820   -5.558950
  H      1.801030   -1.304300   -6.289130
  H      3.716120   -2.628800   -3.829530
  H      0.395830   -3.627750   -4.185020
  H      0.039200   -2.454380   -5.371370
  C      2.191200   -1.619500   -1.715490
  H      2.872780   -3.666370   -1.828010
  H      1.246190   -3.447440   -2.407840
  H      1.563870   -0.960460   -2.278530
  H      3.180330   -1.214490   -1.665680
  H      1.799160   -1.726080   -0.725620

 Total Charge           Charge          ....    0
 Multiplicity           Mult            ....    1
 Number of Electrons    NEL             ....   48
 Basis Dimension        Dim             ....  200

ORBITAL ENERGIES
----------------

  NO   OCC          E(Eh)            E(eV)
   0   2.0000     -14.403868      -391.9492
   1   2.0000     -14.399181      -391.8216
   2   2.0000     -10.281600      -279.7766
   3   2.0000     -10.211625      -277.8724
   4   2.0000     -10.202098      -277.6132
   5   2.0000     -10.160323      -276.4764
   6   2.0000      -0.991567       -26.9819
   7   2.0000      -0.897667       -24.4268
   8   2.0000      -0.791956       -21.5502
   9   2.0000      -0.709055       -19.2944
  10   2.0000      -0.635356       -17.2889
  11   2.0000      -0.596731       -16.2379
  12   2.0000      -0.561104       -15.2684
  13   2.0000      -0.523842       -14.2545
  14   2.0000      -0.486532       -13.2392
  15   2.0000      -0.466150       -12.6846
  16   2.0000      -0.428282       -11.6542
  17   2.0000      -0.408668       -11.1204
  18   2.0000      -0.387274       -10.5383
  19   2.0000      -0.374669       -10.1953
  20   2.0000      -0.341143        -9.2830
  21   2.0000      -0.333063        -9.0631
  22   2.0000      -0.289919        -7.8891
  23   2.0000      -0.172397        -4.6912
  24   0.0000       0.014939         0.4065
  25   0.0000       0.044790         1.2188
  26   0.0000       0.053084         1.4445
  27   0.0000       0.055548         1.5115
  28   0.0000       0.076392         2.0787

MULLIKEN ATOMIC CHARGES
-----------------------
   0 C :   -0.372178
   1 C :   -0.210202
   2 C :    0.493655
   3 N :   -0.126603
   4 N :   -0.128964
   5 H :    0.055730
   6 H :    0.002276
   7 H :   -0.066888
   8 H :    0.014898
   9 H :   -0.097245
  10 C :    0.578177
  11 H :    0.010463
  12 H :   -0.111315
  13 H :   -0.054907
  14 H :    0.005695
  15 H :    0.007409
Sum of atomic charges:   -0.0000000

LOEWDIN ATOMIC CHARGES
----------------------
   0 C :   -0.111574
   1 C :   -0.024857
   2 C :   -0.234644
   3 N :    0.191950
   4 N :    0.183635
   5 H :    0.004502
   6 H :   -0.010029
   7 H :   -0.055505
   8 H :   -0.002438
   9 H :   -0.001132
  10 C :    0.118213
  11 H :    0.011825
  12 H :   -0.005943
  13 H :   -0.021900
  14 H :   -0.018183
  15 H :   -0.023919

  Mayer bond orders larger than 0.100000
B(  0-C ,  1-C ) :   1.2709 B(  0-C ,  2-C ) :   0.1014 B(  0-C ,  7-H ) :   0.2942
B(  0-C , 10-C ) :   1.2650 B(  0-C , 11-H ) :   0.8555 B(  0-C , 12-H ) :   0.9188
B(  0-C , 13-H ) :   0.2053 B(  0-C , 14-H ) :   0.1962 B(  0-C , 15-H ) :   0.1930
B(  1-C ,  2-C ) :   1.7657 B(  1-C ,  3-N ) :   0.1411 B(  1-C ,  4-N ) :   0.1984
B(  1-C ,  7-H ) :   0.6711 B(  1-C , 11-H ) :   0.1750 B(  1-C , 12-H ) :   0.1863
B(  2-C ,  3-N ) :   0.9713 B(  2-C ,  4-N ) :   0.9679 B(  2-C ,  7-H ) :   0.2450
B(  3-N ,  4-N ) :   0.1336 B(  3-N ,  8-H ) :   0.9907 B(  3-N ,  9-H ) :   1.2322
B(  4-N ,  5-H ) :   0.9588 B(  4-N ,  6-H ) :   0.9389 B(  8-H ,  9-H ) :  -0.1350
B( 10-C , 13-H ) :   0.8667 B( 10-C , 14-H ) :   0.8298 B( 10-C , 15-H ) :   0.8133
B( 11-H , 12-H ) :   0.1175

Dispersion correction           -0.010928471
FINAL SINGLE POINT ENERGY      -267.425021700122

DIPOLE MOMENT
-------------
                                X             Y             Z
Electronic contribution:     -0.31980      -1.37972      -4.99479
Nuclear contribution   :     -0.44240       2.20379       4.66256
                        -----------------------------------------
Total Dipole Moment    :     -0.76220       0.82407      -0.33223
                        -----------------------------------------
Magnitude (a.u.)       :      1.17064
Magnitude (Debye)      :      2.97553

Rotational constants in cm-1:     0.209447     0.075194     0.066975
Rotational constants in MHz :  6279.068019  2254.272519  2007.845458

                             ****ORCA TERMINATED NORMALLY****
TOTAL RUN TIME: 0 days 0 hours 0 minutes 29 seconds 90 msec
