                         Program Version 5.0.0 -  RELEASE  -
|  1> !PBE0 D3BJ RIJCOSX def2-SVPD def2/J TightSCF
|  2> *xyz 0 1
|  3> C         -1.10433        0.25137       -2.86006
|  4> C         -0.71189        0.84252       -4.21834
|  5> H          0.15463        1.49980       -4.13091
|  6> H         -1.53813        1.45922       -4.58267
|  7> C         -0.39762       -0.20587       -5.28802
|  8> O          0.61717       -0.00535       -5.99827
|  9> F         -1.13317       -1.22138       -5.34147
| 10> H         -1.95489       -0.38644       -2.98099
| 11> H         -1.34603        1.04362       -2.18269
| 12> H         -0.28606       -0.31581       -2.46809
| 13> *
| 14>
| 15> %MaxCore 64000
| 16>
| 17> %pal nprocs 4
| 18> end
| 19>
| 20> %scf
| 21>   MaxIter 150
| 22> end
| 23>
| 24>
| 25>                          ****END OF INPUT****

CARTESIAN COORDINATES (ANGSTROEM)
---------------------------------
  C     -1.104330    0.251370   -2.860060
  C     -0.711890    0.842520   -4.218340
  H      0.154630    1.499800   -4.130910
  H     -1.538130    1.459220   -4.582670
  C     -0.397620   -0.205870   -5.288020
  O      0.617170   -0.005350   -5.998270
  F     -1.133170   -1.221380   -5.341470
  H     -1.954890   -0.386440   -2.980990
  H     -1.346030    1.043620   -2.182690
  H     -0.286060   -0.315810   -2.468090

 Total Charge           Charge          ....    0
 Multiplicity           Mult            ....    1
 Number of Electrons    NEL             ....   40
 Basis Dimension        Dim             ....  146

ORBITAL ENERGIES
----------------

  NO   OCC          E(Eh)            E(eV)
   0   2.0000     -24.858100      -676.4233
   1   2.0000     -19.226486      -523.1793
   2   2.0000     -10.415632      -283.4238
   3   2.0000     -10.267346      -279.3887
   4   2.0000     -10.243159      -278.7305
   5   2.0000      -1.341851       -36.5136
   6   2.0000      -1.054940       -28.7064
   7   2.0000      -0.822578       -22.3835
   8   2.0000      -0.705250       -19.1908
   9   2.0000      -0.665015       -18.0960
  10   2.0000      -0.573206       -15.5977
  11   2.0000      -0.564109       -15.3502
  12   2.0000      -0.516542       -14.0558
  13   2.0000      -0.483464       -13.1557
  14   2.0000      -0.451215       -12.2782
  15   2.0000      -0.419421       -11.4130
  16   2.0000      -0.401506       -10.9255
  17   2.0000      -0.393274       -10.7015
  18   2.0000      -0.366013        -9.9597
  19   2.0000      -0.306813        -8.3488
  20   0.0000      -0.027191        -0.7399
  21   0.0000       0.017787         0.4840
  22   0.0000       0.054239         1.4759
  23   0.0000       0.062361         1.6969
  24   0.0000       0.081547         2.2190

MULLIKEN ATOMIC CHARGES
-----------------------
   0 C :    0.455455
   1 C :   -0.522502
   2 H :    0.027997
   3 H :    0.103811
   4 C :    0.899266
   5 O :   -0.549343
   6 F :   -0.427453
   7 H :    0.014613
   8 H :   -0.001480
   9 H :   -0.000363
Sum of atomic charges:   -0.0000000

LOEWDIN ATOMIC CHARGES
----------------------
   0 C :    0.128294
   1 C :    0.005453
   2 H :    0.035938
   3 H :    0.040773
   4 C :   -0.000103
   5 O :   -0.142699
   6 F :   -0.035643
   7 H :   -0.013573
   8 H :   -0.011184
   9 H :   -0.007256

  Mayer bond orders larger than 0.100000
B(  0-C ,  1-C ) :   1.3004 B(  0-C ,  7-H ) :   0.8451 B(  0-C ,  8-H ) :   0.8570
B(  0-C ,  9-H ) :   0.8819 B(  1-C ,  2-H ) :   0.9981 B(  1-C ,  3-H ) :   0.8829
B(  1-C ,  4-C ) :   1.0501 B(  1-C ,  7-H ) :   0.1584 B(  1-C ,  8-H ) :   0.1563
B(  1-C ,  9-H ) :   0.1352 B(  2-H ,  4-C ) :   0.1200 B(  4-C ,  5-O ) :   1.7250
B(  4-C ,  6-F ) :   0.6729

Dispersion correction           -0.005125717
FINAL SINGLE POINT ENERGY      -291.882660043866

DIPOLE MOMENT
-------------
                                X             Y             Z
Electronic contribution:      0.67329      -4.36195      -6.57889
Nuclear contribution   :     -1.45527       4.68977       7.53208
                        -----------------------------------------
Total Dipole Moment    :     -0.78197       0.32782       0.95319
                        -----------------------------------------
Magnitude (a.u.)       :      1.27574
Magnitude (Debye)      :      3.24268

Rotational constants in cm-1:     0.298240     0.132464     0.099915
Rotational constants in MHz :  8940.998095  3971.171647  2995.369122

                             ****ORCA TERMINATED NORMALLY****
TOTAL RUN TIME: 0 days 0 hours 0 minutes 17 seconds 275 msec
