                         Program Version 5.0.0 -  RELEASE  -
|  1> !PBE0 D3BJ RIJCOSX def2-SVPD def2/J TightSCF
|  2> *xyz 0 1
|  3> C          2.23447       -2.98975       -2.39762
|  4> N          2.75680       -2.94555       -3.76503
|  5> C          1.98721       -2.59045       -4.81898
|  6> C          0.74322       -3.01749       -4.91352
|  7> N          2.49964       -1.84860       -5.80324
|  8> H          3.30978       -1.29282       -5.55895
|  9> H          1.80103       -1.30430       -6.28913
| 10> H          3.71612       -2.62880       -3.82953
| 11> H          0.39583       -3.62775       -4.18502
| 12> H          0.03920       -2.45438       -5.37137
| 13> C          2.19120       -1.61950       -1.71549
| 14> H          2.87278       -3.66637       -1.82801
| 15> H          1.24619       -3.44744       -2.40784
| 16> H          1.56387       -0.96046       -2.27853
| 17> H          3.18033       -1.21449       -1.66568
| 18> H          1.79916       -1.72608       -0.72562
| 19> *
| 20>
| 21> %MaxCore 64000
| 22>
| 23> %pal nprocs 4
| 24> end
| 25>
| 26> %scf
| 27>   MaxIter 150
| 28> end
| 29>
| 30>
| 31>                          ****END OF INPUT****

CARTESIAN COORDINATES (ANGSTROEM)
---------------------------------
  C      2.234470   -2.989750   -2.397620
  N      2.756800   -2.945550   -3.765030
  C      1.987210   -2.590450   -4.818980
  C      0.743220   -3.017490   -4.913520
  N      2.499640   -1.848600   -5.803240
  H      3.309780   -1.292820   -5.558950
  H      1.801030   -1.304300   -6.289130
  H      3.716120   -2.628800   -3.829530
  H      0.395830   -3.627750   -4.185020
  H      0.039200   -2.454380   -5.371370
  C      2.191200   -1.619500   -1.715490
  H      2.872780   -3.666370   -1.828010
  H      1.246190   -3.447440   -2.407840
  H      1.563870   -0.960460   -2.278530
  H      3.180330   -1.214490   -1.665680
  H      1.799160   -1.726080   -0.725620

 Total Charge           Charge          ....    0
 Multiplicity           Mult            ....    1
 Number of Electrons    NEL             ....   48
 Basis Dimension        Dim             ....  200

ORBITAL ENERGIES
----------------

  NO   OCC          E(Eh)            E(eV)
   0   2.0000     -14.400729      -391.8638
   1   2.0000     -14.397342      -391.7716
   2   2.0000     -10.278836      -279.7013
   3   2.0000     -10.266417      -279.3634
   4   2.0000     -10.222340      -278.1640
   5   2.0000     -10.151767      -276.2436
   6   2.0000      -0.988238       -26.8913
   7   2.0000      -0.906911       -24.6783
   8   2.0000      -0.772972       -21.0336
   9   2.0000      -0.731941       -19.9171
  10   2.0000      -0.656296       -17.8587
  11   2.0000      -0.578061       -15.7298
  12   2.0000      -0.561940       -15.2912
  13   2.0000      -0.528308       -14.3760
  14   2.0000      -0.477607       -12.9964
  15   2.0000      -0.461307       -12.5528
  16   2.0000      -0.432367       -11.7653
  17   2.0000      -0.413025       -11.2390
  18   2.0000      -0.407284       -11.0828
  19   2.0000      -0.384251       -10.4560
  20   2.0000      -0.372246       -10.1293
  21   2.0000      -0.360809        -9.8181
  22   2.0000      -0.266498        -7.2518
  23   2.0000      -0.188263        -5.1229
  24   0.0000       0.017997         0.4897
  25   0.0000       0.046399         1.2626
  26   0.0000       0.049816         1.3556
  27   0.0000       0.058903         1.6028
  28   0.0000       0.070226         1.9109

MULLIKEN ATOMIC CHARGES
-----------------------
   0 C :    0.218245
   1 N :   -0.471234
   2 C :    0.582370
   3 C :    0.211026
   4 N :   -0.109129
   5 H :   -0.056601
   6 H :    0.053502
   7 H :   -0.288849
   8 H :   -0.025108
   9 H :   -0.331804
  10 C :    0.501320
  11 H :   -0.198705
  12 H :   -0.034681
  13 H :   -0.051439
  14 H :   -0.013023
  15 H :    0.014109
Sum of atomic charges:    0.0000000

LOEWDIN ATOMIC CHARGES
----------------------
   0 C :    0.014067
   1 N :   -0.018439
   2 C :   -0.244207
   3 C :    0.156563
   4 N :    0.180663
   5 H :   -0.013532
   6 H :    0.002481
   7 H :    0.012395
   8 H :   -0.100840
   9 H :   -0.089792
  10 C :    0.130528
  11 H :    0.018524
  12 H :    0.009131
  13 H :   -0.018595
  14 H :   -0.021863
  15 H :   -0.017085

  Mayer bond orders larger than 0.100000
B(  0-C ,  1-N ) :   0.8329 B(  0-C , 10-C ) :   1.2736 B(  0-C , 11-H ) :   0.9179
B(  0-C , 12-H ) :   0.8829 B(  0-C , 13-H ) :   0.2132 B(  0-C , 14-H ) :   0.1719
B(  0-C , 15-H ) :   0.1743 B(  1-N ,  2-C ) :   0.9097 B(  1-N ,  3-C ) :   0.2647
B(  1-N ,  4-N ) :   0.1173 B(  1-N ,  7-H ) :   1.2009 B(  1-N , 11-H ) :   0.1696
B(  1-N , 12-H ) :   0.1131 B(  2-C ,  3-C ) :   1.7633 B(  2-C ,  4-N ) :   0.8922
B(  2-C ,  7-H ) :  -0.1554 B(  2-C ,  8-H ) :   0.2574 B(  2-C ,  9-H ) :   0.1080
B(  3-C ,  4-N ) :   0.2157 B(  3-C ,  8-H ) :   0.5453 B(  3-C ,  9-H ) :   0.9756
B(  4-N ,  5-H ) :   0.9735 B(  4-N ,  6-H ) :   0.9658 B(  8-H ,  9-H ) :   0.1937
B( 10-C , 13-H ) :   0.8549 B( 10-C , 14-H ) :   0.8491 B( 10-C , 15-H ) :   0.8337

Dispersion correction           -0.010876225
FINAL SINGLE POINT ENERGY      -267.417773370681

DIPOLE MOMENT
-------------
                                X             Y             Z
Electronic contribution:      1.49620      -1.25943      -3.84943
Nuclear contribution   :     -0.86957       2.18853       4.41892
                        -----------------------------------------
Total Dipole Moment    :      0.62664       0.92909       0.56949
                        -----------------------------------------
Magnitude (a.u.)       :      1.25706
Magnitude (Debye)      :      3.19520

Rotational constants in cm-1:     0.214718     0.075736     0.068547
Rotational constants in MHz :  6437.075121  2270.519635  2054.974198

                             ****ORCA TERMINATED NORMALLY****
TOTAL RUN TIME: 0 days 0 hours 0 minutes 28 seconds 418 msec
