                         Program Version 5.0.0 -  RELEASE  -
|  1> !PBE0 D3BJ RIJCOSX def2-SVPD def2/J TightSCF
|  2> *xyz 0 1
|  3> C          2.23447       -2.98975       -2.39762
|  4> N          2.75680       -2.94555       -3.76503
|  5> C          1.98721       -2.59045       -4.81898
|  6> N          0.74322       -3.01749       -4.91352
|  7> C          2.49964       -1.84860       -5.80324
|  8> H          3.30978       -1.29282       -5.55895
|  9> H          1.80103       -1.30430       -6.28913
| 10> H          3.71612       -2.62880       -3.82953
| 11> H          0.39583       -3.62775       -4.18502
| 12> H          0.03920       -2.45438       -5.37137
| 13> C          2.19120       -1.61950       -1.71549
| 14> H          2.87278       -3.66637       -1.82801
| 15> H          1.24619       -3.44744       -2.40784
| 16> H          1.56387       -0.96046       -2.27853
| 17> H          3.18033       -1.21449       -1.66568
| 18> H          1.79916       -1.72608       -0.72562
| 19> *
| 20>
| 21> %MaxCore 64000
| 22>
| 23> %pal nprocs 4
| 24> end
| 25>
| 26> %scf
| 27>   MaxIter 150
| 28> end
| 29>
| 30>
| 31>                          ****END OF INPUT****

CARTESIAN COORDINATES (ANGSTROEM)
---------------------------------
  C      2.234470   -2.989750   -2.397620
  N      2.756800   -2.945550   -3.765030
  C      1.987210   -2.590450   -4.818980
  N      0.743220   -3.017490   -4.913520
  C      2.499640   -1.848600   -5.803240
  H      3.309780   -1.292820   -5.558950
  H      1.801030   -1.304300   -6.289130
  H      3.716120   -2.628800   -3.829530
  H      0.395830   -3.627750   -4.185020
  H      0.039200   -2.454380   -5.371370
  C      2.191200   -1.619500   -1.715490
  H      2.872780   -3.666370   -1.828010
  H      1.246190   -3.447440   -2.407840
  H      1.563870   -0.960460   -2.278530
  H      3.180330   -1.214490   -1.665680
  H      1.799160   -1.726080   -0.725620

 Total Charge           Charge          ....    0
 Multiplicity           Mult            ....    1
 Number of Electrons    NEL             ....   48
 Basis Dimension        Dim             ....  200

ORBITAL ENERGIES
----------------

  NO   OCC          E(Eh)            E(eV)
   0   2.0000     -14.400643      -391.8614
   1   2.0000     -14.399460      -391.8292
   2   2.0000     -10.282051      -279.7888
   3   2.0000     -10.274848      -279.5928
   4   2.0000     -10.226279      -278.2712
   5   2.0000     -10.146468      -276.0994
   6   2.0000      -0.990136       -26.9430
   7   2.0000      -0.906806       -24.6755
   8   2.0000      -0.785517       -21.3750
   9   2.0000      -0.724826       -19.7235
  10   2.0000      -0.645637       -17.5687
  11   2.0000      -0.618421       -16.8281
  12   2.0000      -0.556889       -15.1537
  13   2.0000      -0.507809       -13.8182
  14   2.0000      -0.505956       -13.7678
  15   2.0000      -0.453375       -12.3370
  16   2.0000      -0.443097       -12.0573
  17   2.0000      -0.416892       -11.3442
  18   2.0000      -0.391431       -10.6514
  19   2.0000      -0.380187       -10.3454
  20   2.0000      -0.378405       -10.2969
  21   2.0000      -0.367944       -10.0123
  22   2.0000      -0.268722        -7.3123
  23   2.0000      -0.183346        -4.9891
  24   0.0000       0.016965         0.4616
  25   0.0000       0.044052         1.1987
  26   0.0000       0.046340         1.2610
  27   0.0000       0.056534         1.5384
  28   0.0000       0.069155         1.8818

MULLIKEN ATOMIC CHARGES
-----------------------
   0 C :    0.239946
   1 N :   -0.585553
   2 C :    0.529365
   3 N :    0.026289
   4 C :    0.371045
   5 H :   -0.088674
   6 H :   -0.341123
   7 H :   -0.169119
   8 H :   -0.085472
   9 H :   -0.064890
  10 C :    0.494763
  11 H :   -0.199923
  12 H :   -0.089050
  13 H :   -0.067352
  14 H :   -0.013048
  15 H :    0.042797
Sum of atomic charges:    0.0000000

LOEWDIN ATOMIC CHARGES
----------------------
   0 C :    0.006883
   1 N :   -0.015577
   2 C :   -0.240615
   3 N :    0.192786
   4 C :    0.137438
   5 H :   -0.102044
   6 H :   -0.102433
   7 H :    0.026187
   8 H :   -0.017529
   9 H :    0.014587
  10 C :    0.131746
  11 H :    0.017492
  12 H :    0.002626
  13 H :   -0.017140
  14 H :   -0.016946
  15 H :   -0.017462

  Mayer bond orders larger than 0.100000
B(  0-C ,  1-N ) :   0.8611 B(  0-C ,  7-H ) :  -0.1009 B(  0-C , 10-C ) :   1.2719
B(  0-C , 11-H ) :   0.9150 B(  0-C , 12-H ) :   0.8883 B(  0-C , 13-H ) :   0.2069
B(  0-C , 14-H ) :   0.1800 B(  0-C , 15-H ) :   0.1635 B(  1-N ,  2-C ) :   0.9002
B(  1-N ,  4-C ) :   0.1924 B(  1-N ,  7-H ) :   1.1917 B(  1-N , 11-H ) :   0.1905
B(  1-N , 12-H ) :   0.1293 B(  2-C ,  3-N ) :   0.9828 B(  2-C ,  4-C ) :   1.8813
B(  2-C ,  5-H ) :   0.2091 B(  2-C ,  6-H ) :   0.2138 B(  2-C ,  7-H ) :  -0.1369
B(  3-N ,  4-C ) :   0.2265 B(  3-N ,  8-H ) :   0.9979 B(  3-N ,  9-H ) :   1.1590
B(  4-C ,  5-H ) :   0.7565 B(  4-C ,  6-H ) :   0.7872 B(  5-H ,  6-H ) :   0.2496
B(  8-H ,  9-H ) :  -0.1459 B( 10-C , 13-H ) :   0.8664 B( 10-C , 14-H ) :   0.8380
B( 10-C , 15-H ) :   0.8235

Dispersion correction           -0.010843129
FINAL SINGLE POINT ENERGY      -267.412893284862

DIPOLE MOMENT
-------------
                                X             Y             Z
Electronic contribution:     -0.11869      -2.39421      -2.96747
Nuclear contribution   :     -0.49695       2.43650       4.23017
                        -----------------------------------------
Total Dipole Moment    :     -0.61564       0.04229       1.26270
                        -----------------------------------------
Magnitude (a.u.)       :      1.40542
Magnitude (Debye)      :      3.57230

Rotational constants in cm-1:     0.211102     0.077011     0.069221
Rotational constants in MHz :  6328.667765  2308.731604  2075.192956

                             ****ORCA TERMINATED NORMALLY****
TOTAL RUN TIME: 0 days 0 hours 0 minutes 26 seconds 653 msec
