                         Program Version 5.0.0 -  RELEASE  -
|  1> !PBE0 D3BJ RIJCOSX def2-SVPD def2/J TightSCF xyzfile
|  2>
|  3> *xyzfile 0 1 D1.xyz
|  4>
|  5> %MaxCore 64000
|  6>
|  7> %pal nprocs 4
|  8> end
|  9>
| 10> %scf
| 11>   MaxIter 150
| 12> end
| 13>
| 14>
| 15>                          ****END OF INPUT****

CARTESIAN COORDINATES (ANGSTROEM)
---------------------------------
  C      2.234473   -2.989754   -2.397622
  C      2.756799   -2.945553   -3.765029
  C     -1.104325    0.251374   -2.860056
  C     -0.711893    0.842517   -4.218344
  H      0.154626    1.499800   -4.130909
  H     -1.538134    1.459222   -4.582671
  C     -0.397624   -0.205875   -5.288018
  C      1.987208   -2.590451   -4.818975
  N      0.743221   -3.017493   -4.913524
  N      2.499636   -1.848598   -5.803241
  H      3.309780   -1.292818   -5.558947
  H      1.801025   -1.304298   -6.289129
  H      3.716116   -2.628797   -3.829533
  H      0.395828   -3.627747   -4.185024
  H      0.039201   -2.454383   -5.371367
  F      0.617165   -0.005348   -5.998273
  O     -1.133173   -1.221380   -5.341465
  C      2.191199   -1.619503   -1.715492
  H      2.872783   -3.666368   -1.828014
  H      1.246188   -3.447444   -2.407842
  C      1.298729   -0.554314   -2.359773
  H      1.872917   -1.787955   -0.681310
  H      3.216809   -1.238432   -1.654428
  C     -0.196255   -0.863365   -2.325763
  H      1.612531   -0.371346   -3.393065
  H      1.480944    0.388638   -1.834444
  H     -0.404105   -1.761825   -2.909448
  H     -0.490439   -1.087880   -1.294131
  H     -1.143842    1.066711   -2.129680
  H     -2.114401   -0.156834   -2.930323

 Total Charge           Charge          ....    0
 Multiplicity           Mult            ....    1
 Number of Electrons    NEL             ....  102
 Basis Dimension        Dim             ....  402

ORBITAL ENERGIES
----------------

  NO   OCC          E(Eh)            E(eV)
   0   2.0000     -24.891976      -677.3451
   1   2.0000     -19.258825      -524.0593
   2   2.0000     -14.385575      -391.4514
   3   2.0000     -14.376397      -391.2016
   4   2.0000     -10.444043      -284.1969
   5   2.0000     -10.279526      -279.7201
   6   2.0000     -10.270665      -279.4790
   7   2.0000     -10.254103      -279.0283
   8   2.0000     -10.233434      -278.4659
   9   2.0000     -10.229754      -278.3658
  10   2.0000     -10.217278      -278.0263
  11   2.0000     -10.207015      -277.7470
  12   2.0000     -10.149911      -276.1931
  13   2.0000      -1.376997       -37.4700
  14   2.0000      -1.091805       -29.7095
  15   2.0000      -0.977803       -26.6074
  16   2.0000      -0.882844       -24.0234
  17   2.0000      -0.849711       -23.1218
  18   2.0000      -0.808900       -22.0113
  19   2.0000      -0.772459       -21.0197
  20   2.0000      -0.729776       -19.8582
  21   2.0000      -0.707976       -19.2650
  22   2.0000      -0.671048       -18.2601
  23   2.0000      -0.630912       -17.1680
  24   2.0000      -0.609838       -16.5945
  25   2.0000      -0.600393       -16.3375
  26   2.0000      -0.588801       -16.0221
  27   2.0000      -0.568653       -15.4738
  28   2.0000      -0.559097       -15.2138
  29   2.0000      -0.534648       -14.5485
  30   2.0000      -0.510721       -13.8974
  31   2.0000      -0.497529       -13.5385
  32   2.0000      -0.491946       -13.3865
  33   2.0000      -0.473832       -12.8936
  34   2.0000      -0.460780       -12.5385
  35   2.0000      -0.454157       -12.3582
  36   2.0000      -0.439241       -11.9523
  37   2.0000      -0.425607       -11.5813
  38   2.0000      -0.410434       -11.1685
  39   2.0000      -0.402571       -10.9545
  40   2.0000      -0.393026       -10.6948
  41   2.0000      -0.381853       -10.3908
  42   2.0000      -0.372205       -10.1282
  43   2.0000      -0.361316        -9.8319
  44   2.0000      -0.351475        -9.5641
  45   2.0000      -0.341655        -9.2969
  46   2.0000      -0.330284        -8.9875
  47   2.0000      -0.324771        -8.8375
  48   2.0000      -0.317782        -8.6473
  49   2.0000      -0.271603        -7.3907
  50   2.0000      -0.161990        -4.4080
  51   0.0000      -0.058334        -1.5874
  52   0.0000       0.010934         0.2975
  53   0.0000       0.033473         0.9108
  54   0.0000       0.038289         1.0419
  55   0.0000       0.041008         1.1159

MULLIKEN ATOMIC CHARGES
-----------------------
   0 C :    0.125840
   1 C :   -0.161557
   2 C :    0.401326
   3 C :   -0.031792
   4 H :    0.256568
   5 H :   -0.156296
   6 C :    0.855637
   7 C :    0.520718
   8 N :    0.077446
   9 N :   -0.072675
  10 H :    0.125223
  11 H :   -0.119330
  12 H :   -0.092514
  13 H :    0.076775
  14 H :   -0.399748
  15 F :   -0.441143
  16 O :   -0.683410
  17 C :    0.307474
  18 H :   -0.100132
  19 H :   -0.071303
  20 C :   -0.189153
  21 H :    0.041576
  22 H :   -0.014223
  23 C :   -0.187143
  24 H :   -0.005883
  25 H :   -0.061582
  26 H :   -0.037602
  27 H :   -0.077407
  28 H :   -0.023197
  29 H :    0.137511
Sum of atomic charges:    0.0000000

LOEWDIN ATOMIC CHARGES
----------------------
   0 C :   -0.065844
   1 C :   -0.018564
   2 C :   -0.014290
   3 C :    0.053758
   4 H :    0.029039
   5 H :    0.044661
   6 C :    0.041450
   7 C :   -0.222476
   8 N :    0.229032
   9 N :    0.204356
  10 H :    0.008747
  11 H :   -0.062659
  12 H :   -0.057713
  13 H :    0.005334
  14 H :   -0.097256
  15 F :   -0.036540
  16 O :   -0.122660
  17 C :   -0.026807
  18 H :    0.012386
  19 H :   -0.006037
  20 C :   -0.031199
  21 H :    0.019142
  22 H :    0.024112
  23 C :   -0.026434
  24 H :    0.002709
  25 H :    0.025361
  26 H :   -0.004078
  27 H :    0.031821
  28 H :    0.030277
  29 H :    0.030371

  Mayer bond orders larger than 0.100000
B(  0-C ,  1-C ) :   1.2173 B(  0-C ,  7-C ) :   0.1243 B(  0-C , 12-H ) :   0.3334
B(  0-C , 17-C ) :   1.1644 B(  0-C , 18-H ) :   0.7930 B(  0-C , 19-H ) :   0.8152
B(  0-C , 21-H ) :   0.1861 B(  0-C , 22-H ) :   0.1819 B(  1-C ,  7-C ) :   1.6259
B(  1-C ,  8-N ) :   0.1368 B(  1-C ,  9-N ) :   0.3209 B(  1-C , 12-H ) :   0.5718
B(  1-C , 18-H ) :   0.1896 B(  1-C , 19-H ) :   0.1826 B(  2-C ,  3-C ) :   1.2266
B(  2-C ,  5-H ) :   0.1684 B(  2-C , 23-C ) :   1.2838 B(  2-C , 28-H ) :   0.8176
B(  2-C , 29-H ) :   0.6649 B(  3-C ,  4-H ) :   0.7985 B(  3-C ,  5-H ) :   0.8355
B(  3-C ,  6-C ) :   1.2023 B(  3-C , 28-H ) :   0.1273 B(  4-H ,  6-C ) :   0.1353
B(  5-H ,  6-C ) :   0.1691 B(  6-C , 15-F ) :   0.5331 B(  6-C , 16-O ) :   1.5177
B(  7-C ,  8-N ) :   0.8939 B(  7-C ,  9-N ) :   0.7719 B(  7-C , 11-H ) :   0.1005
B(  7-C , 12-H ) :   0.3289 B(  8-N ,  9-N ) :   0.1162 B(  8-N , 13-H ) :   0.8888
B(  8-N , 14-H ) :   1.1968 B(  9-N , 10-H ) :   0.8726 B(  9-N , 11-H ) :   0.8197
B( 13-H , 14-H ) :  -0.2133 B( 14-H , 16-O ) :   0.1576 B( 17-C , 19-H ) :   0.1104
B( 17-C , 20-C ) :   1.2590 B( 17-C , 21-H ) :   0.7869 B( 17-C , 22-H ) :   0.7333
B( 17-C , 24-H ) :   0.1062 B( 20-C , 21-H ) :   0.1512 B( 20-C , 22-H ) :   0.2405
B( 20-C , 23-C ) :   1.3006 B( 20-C , 24-H ) :   0.9353 B( 20-C , 25-H ) :   0.8181
B( 20-C , 26-H ) :   0.1184 B( 20-C , 27-H ) :   0.1943 B( 23-C , 24-H ) :   0.1146
B( 23-C , 25-H ) :   0.1969 B( 23-C , 26-H ) :   0.9629 B( 23-C , 27-H ) :   0.8247
B( 23-C , 28-H ) :   0.1570 B( 23-C , 29-H ) :   0.2176

Dispersion correction           -0.030739849
FINAL SINGLE POINT ENERGY      -636.601316231521

DIPOLE MOMENT
-------------
                                X             Y             Z
Electronic contribution:     -3.08051       2.22940     -14.51335
Nuclear contribution   :      2.31842      -0.27661      14.74721
                        -----------------------------------------
Total Dipole Moment    :     -0.76208       1.95280       0.23386
                        -----------------------------------------
Magnitude (a.u.)       :      2.10924
Magnitude (Debye)      :      5.36126

Rotational constants in cm-1:     0.032691     0.023990     0.017099
Rotational constants in MHz :   980.050971   719.190545   512.606858

                             ****ORCA TERMINATED NORMALLY****
TOTAL RUN TIME: 0 days 0 hours 2 minutes 19 seconds 660 msec
