                         Program Version 5.0.0 -  RELEASE  -
|  1> !PBE0 D3BJ RIJCOSX def2-SVPD def2/J TightSCF xyzfile
|  2>
|  3> *xyzfile 0 1 D2.xyz
|  4>
|  5> %MaxCore 64000
|  6>
|  7> %pal nprocs 4
|  8> end
|  9>
| 10> %scf
| 11>   MaxIter 150
| 12> end
| 13>
| 14>
| 15>                          ****END OF INPUT****

CARTESIAN COORDINATES (ANGSTROEM)
---------------------------------
  C      2.234473   -2.989754   -2.397622
  N      2.756799   -2.945553   -3.765029
  C     -1.104325    0.251374   -2.860056
  C     -0.711893    0.842517   -4.218344
  H      0.154626    1.499800   -4.130909
  H     -1.538134    1.459222   -4.582671
  C     -0.397624   -0.205875   -5.288018
  C      1.987208   -2.590451   -4.818975
  C      0.743221   -3.017493   -4.913524
  N      2.499636   -1.848598   -5.803241
  H      3.309780   -1.292818   -5.558947
  H      1.801025   -1.304298   -6.289129
  H      3.716116   -2.628797   -3.829533
  H      0.395828   -3.627747   -4.185024
  H      0.039201   -2.454383   -5.371367
  F      0.617165   -0.005348   -5.998273
  O     -1.133173   -1.221380   -5.341465
  C      2.191199   -1.619503   -1.715492
  H      2.872783   -3.666368   -1.828014
  H      1.246188   -3.447444   -2.407842
  C      1.298729   -0.554314   -2.359773
  H      1.872917   -1.787955   -0.681310
  H      3.216809   -1.238432   -1.654428
  C     -0.196255   -0.863365   -2.325763
  H      1.612531   -0.371346   -3.393065
  H      1.480944    0.388638   -1.834444
  H     -0.404105   -1.761825   -2.909448
  H     -0.490439   -1.087880   -1.294131
  H     -1.143842    1.066711   -2.129680
  H     -2.114401   -0.156834   -2.930323

 Total Charge           Charge          ....    0
 Multiplicity           Mult            ....    1
 Number of Electrons    NEL             ....  102
 Basis Dimension        Dim             ....  402

ORBITAL ENERGIES
----------------

  NO   OCC          E(Eh)            E(eV)
   0   2.0000     -24.875494      -676.8966
   1   2.0000     -19.234694      -523.4026
   2   2.0000     -14.392146      -391.6302
   3   2.0000     -14.383033      -391.3822
   4   2.0000     -10.424023      -283.6521
   5   2.0000     -10.269469      -279.4465
   6   2.0000     -10.265285      -279.3326
   7   2.0000     -10.261437      -279.2279
   8   2.0000     -10.247978      -278.8616
   9   2.0000     -10.236344      -278.5451
  10   2.0000     -10.235388      -278.5191
  11   2.0000     -10.229613      -278.3619
  12   2.0000     -10.130555      -275.6664
  13   2.0000      -1.360407       -37.0185
  14   2.0000      -1.067961       -29.0607
  15   2.0000      -0.978621       -26.6296
  16   2.0000      -0.899114       -24.4661
  17   2.0000      -0.842420       -22.9234
  18   2.0000      -0.803498       -21.8643
  19   2.0000      -0.752675       -20.4813
  20   2.0000      -0.727092       -19.7852
  21   2.0000      -0.709671       -19.3111
  22   2.0000      -0.681729       -18.5508
  23   2.0000      -0.635535       -17.2938
  24   2.0000      -0.606023       -16.4907
  25   2.0000      -0.588083       -16.0025
  26   2.0000      -0.564575       -15.3629
  27   2.0000      -0.564200       -15.3527
  28   2.0000      -0.550232       -14.9726
  29   2.0000      -0.539917       -14.6919
  30   2.0000      -0.511381       -13.9154
  31   2.0000      -0.497405       -13.5351
  32   2.0000      -0.485941       -13.2231
  33   2.0000      -0.465771       -12.6743
  34   2.0000      -0.459746       -12.5103
  35   2.0000      -0.441916       -12.0251
  36   2.0000      -0.432336       -11.7645
  37   2.0000      -0.423785       -11.5318
  38   2.0000      -0.413302       -11.2465
  39   2.0000      -0.399094       -10.8599
  40   2.0000      -0.389869       -10.6089
  41   2.0000      -0.380801       -10.3621
  42   2.0000      -0.373929       -10.1751
  43   2.0000      -0.369374       -10.0512
  44   2.0000      -0.359572        -9.7845
  45   2.0000      -0.343686        -9.3522
  46   2.0000      -0.335526        -9.1301
  47   2.0000      -0.332079        -9.0363
  48   2.0000      -0.301712        -8.2100
  49   2.0000      -0.256919        -6.9911
  50   2.0000      -0.174489        -4.7481
  51   0.0000      -0.039485        -1.0744
  52   0.0000       0.013194         0.3590
  53   0.0000       0.029243         0.7957
  54   0.0000       0.034699         0.9442
  55   0.0000       0.046744         1.2720

MULLIKEN ATOMIC CHARGES
-----------------------
   0 C :    0.736654
   1 N :   -0.555533
   2 C :    0.415327
   3 C :   -0.028240
   4 H :    0.234809
   5 H :   -0.165894
   6 C :    0.774464
   7 C :    0.589862
   8 C :    0.598809
   9 N :   -0.040617
  10 H :    0.043216
  11 H :   -0.103476
  12 H :   -0.219683
  13 H :    0.033158
  14 H :   -0.605224
  15 F :   -0.466408
  16 O :   -0.717390
  17 C :    0.203268
  18 H :   -0.295677
  19 H :    0.056569
  20 C :   -0.173253
  21 H :    0.080215
  22 H :   -0.005705
  23 C :   -0.266514
  24 H :   -0.078310
  25 H :   -0.085648
  26 H :   -0.000230
  27 H :   -0.076613
  28 H :   -0.024875
  29 H :    0.142938
Sum of atomic charges:   -0.0000000

LOEWDIN ATOMIC CHARGES
----------------------
   0 C :    0.057767
   1 N :   -0.007973
   2 C :   -0.013612
   3 C :    0.051323
   4 H :    0.025486
   5 H :    0.042616
   6 C :    0.038362
   7 C :   -0.233627
   8 C :    0.181554
   9 N :    0.197192
  10 H :   -0.009704
  11 H :   -0.052808
  12 H :    0.012042
  13 H :   -0.082811
  14 H :   -0.157300
  15 F :   -0.039248
  16 O :   -0.125196
  17 C :   -0.021025
  18 H :    0.019867
  19 H :    0.008650
  20 C :   -0.030419
  21 H :    0.023766
  22 H :    0.019688
  23 C :   -0.023228
  24 H :    0.002720
  25 H :    0.025982
  26 H :    0.000461
  27 H :    0.030282
  28 H :    0.027926
  29 H :    0.031268

  Mayer bond orders larger than 0.100000
B(  0-C ,  1-N ) :   0.8775 B(  0-C , 17-C ) :   1.1153 B(  0-C , 18-H ) :   0.8509
B(  0-C , 19-H ) :   0.7730 B(  0-C , 21-H ) :   0.1426 B(  0-C , 22-H ) :   0.1103
B(  1-N ,  7-C ) :   0.8636 B(  1-N ,  8-C ) :   0.3143 B(  1-N ,  9-N ) :   0.1613
B(  1-N , 12-H ) :   1.1408 B(  1-N , 18-H ) :   0.2019 B(  1-N , 19-H ) :   0.1195
B(  2-C ,  3-C ) :   1.2231 B(  2-C ,  5-H ) :   0.1642 B(  2-C , 23-C ) :   1.2972
B(  2-C , 28-H ) :   0.8096 B(  2-C , 29-H ) :   0.6618 B(  3-C ,  4-H ) :   0.8159
B(  3-C ,  5-H ) :   0.8201 B(  3-C ,  6-C ) :   1.2100 B(  3-C , 28-H ) :   0.1326
B(  4-H ,  6-C ) :   0.1328 B(  5-H ,  6-C ) :   0.1918 B(  6-C , 14-H ) :   0.1199
B(  6-C , 15-F ) :   0.4947 B(  6-C , 16-O ) :   1.6300 B(  7-C ,  8-C ) :   1.8313
B(  7-C ,  9-N ) :   0.7023 B(  7-C , 13-H ) :   0.3327 B(  7-C , 14-H ) :   0.1295
B(  8-C ,  9-N ) :   0.2345 B(  8-C , 13-H ) :   0.4030 B(  8-C , 14-H ) :   0.4476
B(  9-N , 10-H ) :   0.8771 B(  9-N , 11-H ) :   0.9263 B( 14-H , 16-O ) :   0.2287
B( 17-C , 19-H ) :   0.1115 B( 17-C , 20-C ) :   1.2438 B( 17-C , 21-H ) :   0.8041
B( 17-C , 22-H ) :   0.7731 B( 17-C , 24-H ) :   0.1104 B( 18-H , 19-H ) :  -0.1131
B( 20-C , 21-H ) :   0.1647 B( 20-C , 22-H ) :   0.2122 B( 20-C , 23-C ) :   1.3068
B( 20-C , 24-H ) :   0.9565 B( 20-C , 25-H ) :   0.8561 B( 20-C , 26-H ) :   0.1246
B( 20-C , 27-H ) :   0.2187 B( 23-C , 24-H ) :   0.1298 B( 23-C , 25-H ) :   0.2051
B( 23-C , 26-H ) :   0.9725 B( 23-C , 27-H ) :   0.8004 B( 23-C , 28-H ) :   0.1579
B( 23-C , 29-H ) :   0.2169

Dispersion correction           -0.030791336
FINAL SINGLE POINT ENERGY      -636.579092935247

DIPOLE MOMENT
-------------
                                X             Y             Z
Electronic contribution:     -1.48614       2.17033     -13.53362
Nuclear contribution   :      2.00823      -0.28769      14.57028
                        -----------------------------------------
Total Dipole Moment    :      0.52209       1.88264       1.03666
                        -----------------------------------------
Magnitude (a.u.)       :      2.21169
Magnitude (Debye)      :      5.62166

Rotational constants in cm-1:     0.033070     0.023715     0.016943
Rotational constants in MHz :   991.423248   710.957140   507.940500

                             ****ORCA TERMINATED NORMALLY****
TOTAL RUN TIME: 0 days 0 hours 2 minutes 29 seconds 216 msec
