                         Program Version 5.0.0 -  RELEASE  -
|  1> !PBE0 D3BJ RIJCOSX def2-SVPD def2/J TightSCF xyzfile
|  2>
|  3> *xyzfile 0 1 D5.xyz
|  4>
|  5> %MaxCore 64000
|  6>
|  7> %pal nprocs 4
|  8> end
|  9>
| 10> %scf
| 11>   MaxIter 150
| 12> end
| 13>
| 14>
| 15>                          ****END OF INPUT****

CARTESIAN COORDINATES (ANGSTROEM)
---------------------------------
  C      2.234473   -2.989754   -2.397622
  N      2.756799   -2.945553   -3.765029
  C     -1.104325    0.251374   -2.860056
  C     -0.711893    0.842517   -4.218344
  H      0.154626    1.499800   -4.130909
  H     -1.538134    1.459222   -4.582671
  C     -0.397624   -0.205875   -5.288018
  C      1.987208   -2.590451   -4.818975
  C      0.743221   -3.017493   -4.913524
  N      2.499636   -1.848598   -5.803241
  H      3.309780   -1.292818   -5.558947
  H      1.801025   -1.304298   -6.289129
  H      3.716116   -2.628797   -3.829533
  H      0.395828   -3.627747   -4.185024
  H      0.039201   -2.454383   -5.371367
  O      0.617165   -0.005348   -5.998273
  F     -1.133173   -1.221380   -5.341465
  C      2.191199   -1.619503   -1.715492
  H      2.872783   -3.666368   -1.828014
  H      1.246188   -3.447444   -2.407842
  C      1.298729   -0.554314   -2.359773
  H      1.872917   -1.787955   -0.681310
  H      3.216809   -1.238432   -1.654428
  C     -0.196255   -0.863365   -2.325763
  H      1.612531   -0.371346   -3.393065
  H      1.480944    0.388638   -1.834444
  H     -0.404105   -1.761825   -2.909448
  H     -0.490439   -1.087880   -1.294131
  H     -1.143842    1.066711   -2.129680
  H     -2.114401   -0.156834   -2.930323

 Total Charge           Charge          ....    0
 Multiplicity           Mult            ....    1
 Number of Electrons    NEL             ....  102
 Basis Dimension        Dim             ....  402

ORBITAL ENERGIES
----------------

  NO   OCC          E(Eh)            E(eV)
   0   2.0000     -24.864427      -676.5955
   1   2.0000     -19.241285      -523.5820
   2   2.0000     -14.392494      -391.6397
   3   2.0000     -14.370948      -391.0534
   4   2.0000     -10.427548      -283.7480
   5   2.0000     -10.269218      -279.4396
   6   2.0000     -10.267259      -279.3863
   7   2.0000     -10.262309      -279.2516
   8   2.0000     -10.252128      -278.9746
   9   2.0000     -10.235387      -278.5190
  10   2.0000     -10.234862      -278.5048
  11   2.0000     -10.234606      -278.4978
  12   2.0000     -10.137911      -275.8666
  13   2.0000      -1.351511       -36.7765
  14   2.0000      -1.072620       -29.1875
  15   2.0000      -0.975242       -26.5377
  16   2.0000      -0.893166       -24.3043
  17   2.0000      -0.846446       -23.0330
  18   2.0000      -0.803562       -21.8660
  19   2.0000      -0.752725       -20.4827
  20   2.0000      -0.723214       -19.6796
  21   2.0000      -0.705869       -19.2077
  22   2.0000      -0.681747       -18.5513
  23   2.0000      -0.635493       -17.2927
  24   2.0000      -0.604008       -16.4359
  25   2.0000      -0.589936       -16.0530
  26   2.0000      -0.573277       -15.5997
  27   2.0000      -0.559733       -15.2311
  28   2.0000      -0.546266       -14.8646
  29   2.0000      -0.533704       -14.5228
  30   2.0000      -0.503982       -13.7140
  31   2.0000      -0.497179       -13.5289
  32   2.0000      -0.489682       -13.3249
  33   2.0000      -0.466985       -12.7073
  34   2.0000      -0.459285       -12.4978
  35   2.0000      -0.438751       -11.9390
  36   2.0000      -0.432233       -11.7616
  37   2.0000      -0.425444       -11.5769
  38   2.0000      -0.408464       -11.1149
  39   2.0000      -0.403332       -10.9752
  40   2.0000      -0.391599       -10.6559
  41   2.0000      -0.385465       -10.4890
  42   2.0000      -0.373441       -10.1618
  43   2.0000      -0.371809       -10.1174
  44   2.0000      -0.356795        -9.7089
  45   2.0000      -0.343082        -9.3357
  46   2.0000      -0.342868        -9.3299
  47   2.0000      -0.333728        -9.0812
  48   2.0000      -0.317364        -8.6359
  49   2.0000      -0.252061        -6.8589
  50   2.0000      -0.177613        -4.8331
  51   0.0000      -0.038999        -1.0612
  52   0.0000       0.015508         0.4220
  53   0.0000       0.027965         0.7610
  54   0.0000       0.037477         1.0198
  55   0.0000       0.046792         1.2733

MULLIKEN ATOMIC CHARGES
-----------------------
   0 C :    0.735813
   1 N :   -0.561996
   2 C :    0.407218
   3 C :   -0.005411
   4 H :    0.230684
   5 H :   -0.165797
   6 C :    0.754952
   7 C :    0.622919
   8 C :    0.539263
   9 N :   -0.055238
  10 H :    0.046171
  11 H :   -0.100580
  12 H :   -0.215312
  13 H :    0.039764
  14 H :   -0.608504
  15 O :   -0.576318
  16 F :   -0.553473
  17 C :    0.212381
  18 H :   -0.300170
  19 H :    0.056563
  20 C :   -0.156792
  21 H :    0.075228
  22 H :   -0.003665
  23 C :   -0.241113
  24 H :   -0.068667
  25 H :   -0.095785
  26 H :   -0.022026
  27 H :   -0.065951
  28 H :   -0.034453
  29 H :    0.110296
Sum of atomic charges:    0.0000000

LOEWDIN ATOMIC CHARGES
----------------------
   0 C :    0.057103
   1 N :   -0.005365
   2 C :   -0.022459
   3 C :    0.058699
   4 H :    0.036963
   5 H :    0.041554
   6 C :    0.039870
   7 C :   -0.226589
   8 C :    0.174901
   9 N :    0.207462
  10 H :   -0.006442
  11 H :   -0.077833
  12 H :    0.014203
  13 H :   -0.087943
  14 H :   -0.136014
  15 O :   -0.136376
  16 F :   -0.042480
  17 C :   -0.020757
  18 H :    0.019784
  19 H :    0.007440
  20 C :   -0.026977
  21 H :    0.023048
  22 H :    0.020626
  23 C :   -0.027748
  24 H :    0.006889
  25 H :    0.026963
  26 H :   -0.002613
  27 H :    0.029698
  28 H :    0.027980
  29 H :    0.026413

  Mayer bond orders larger than 0.100000
B(  0-C ,  1-N ) :   0.8798 B(  0-C , 17-C ) :   1.1146 B(  0-C , 18-H ) :   0.8529
B(  0-C , 19-H ) :   0.7747 B(  0-C , 21-H ) :   0.1441 B(  0-C , 22-H ) :   0.1116
B(  1-N ,  7-C ) :   0.8705 B(  1-N ,  8-C ) :   0.3081 B(  1-N ,  9-N ) :   0.1611
B(  1-N , 12-H ) :   1.1395 B(  1-N , 18-H ) :   0.2013 B(  1-N , 19-H ) :   0.1202
B(  2-C ,  3-C ) :   1.1879 B(  2-C ,  5-H ) :   0.1610 B(  2-C , 23-C ) :   1.2913
B(  2-C , 28-H ) :   0.8274 B(  2-C , 29-H ) :   0.6769 B(  3-C ,  4-H ) :   0.8312
B(  3-C ,  5-H ) :   0.8188 B(  3-C ,  6-C ) :   1.2002 B(  3-C , 16-F ) :   0.1094
B(  3-C , 28-H ) :   0.1238 B(  4-H ,  6-C ) :   0.1703 B(  5-H ,  6-C ) :   0.1985
B(  6-C , 14-H ) :   0.1395 B(  6-C , 15-O ) :   1.5308 B(  6-C , 16-F ) :   0.5288
B(  7-C ,  8-C ) :   1.8181 B(  7-C ,  9-N ) :   0.7140 B(  7-C , 13-H ) :   0.3177
B(  7-C , 14-H ) :   0.1453 B(  8-C ,  9-N ) :   0.2318 B(  8-C , 13-H ) :   0.3966
B(  8-C , 14-H ) :   0.4301 B(  9-N , 10-H ) :   0.8719 B(  9-N , 11-H ) :   0.9053
B( 11-H , 15-O ) :   0.1170 B( 14-H , 16-F ) :   0.2067 B( 17-C , 19-H ) :   0.1115
B( 17-C , 20-C ) :   1.2408 B( 17-C , 21-H ) :   0.8046 B( 17-C , 22-H ) :   0.7708
B( 17-C , 24-H ) :   0.1100 B( 18-H , 19-H ) :  -0.1155 B( 20-C , 21-H ) :   0.1628
B( 20-C , 22-H ) :   0.2133 B( 20-C , 23-C ) :   1.3115 B( 20-C , 24-H ) :   0.9487
B( 20-C , 25-H ) :   0.8642 B( 20-C , 26-H ) :   0.1316 B( 20-C , 27-H ) :   0.2172
B( 23-C , 24-H ) :   0.1279 B( 23-C , 25-H ) :   0.2036 B( 23-C , 26-H ) :   0.9546
B( 23-C , 27-H ) :   0.8120 B( 23-C , 28-H ) :   0.1573 B( 23-C , 29-H ) :   0.2103

Dispersion correction           -0.030774304
FINAL SINGLE POINT ENERGY      -636.589391410741

DIPOLE MOMENT
-------------
                                X             Y             Z
Electronic contribution:     -4.35282       0.18687     -12.40619
Nuclear contribution   :      4.07548       1.14852      13.79455
                        -----------------------------------------
Total Dipole Moment    :     -0.27734       1.33539       1.38836
                        -----------------------------------------
Magnitude (a.u.)       :      1.94621
Magnitude (Debye)      :      4.94688

Rotational constants in cm-1:     0.033274     0.023559     0.016968
Rotational constants in MHz :   997.539108   706.293545   508.690532

                             ****ORCA TERMINATED NORMALLY****
TOTAL RUN TIME: 0 days 0 hours 2 minutes 25 seconds 381 msec
