                         Program Version 5.0.0 -  RELEASE  -
|  1> !PBE0 D3BJ RIJCOSX def2-SVPD def2/J TightSCF xyzfile
|  2>
|  3> *xyzfile 0 1 D6.xyz
|  4>
|  5> %MaxCore 64000
|  6>
|  7> %pal nprocs 4
|  8> end
|  9>
| 10> %scf
| 11>   MaxIter 150
| 12> end
| 13>
| 14>
| 15>                          ****END OF INPUT****

CARTESIAN COORDINATES (ANGSTROEM)
---------------------------------
  C      2.234473   -2.989754   -2.397622
  N      2.756799   -2.945553   -3.765029
  C     -1.104325    0.251374   -2.860056
  C     -0.711893    0.842517   -4.218344
  H      0.154626    1.499800   -4.130909
  H     -1.538134    1.459222   -4.582671
  C     -0.397624   -0.205875   -5.288018
  C      1.987208   -2.590451   -4.818975
  N      0.743221   -3.017493   -4.913524
  C      2.499636   -1.848598   -5.803241
  H      3.309780   -1.292818   -5.558947
  H      1.801025   -1.304298   -6.289129
  H      3.716116   -2.628797   -3.829533
  H      0.395828   -3.627747   -4.185024
  H      0.039201   -2.454383   -5.371367
  O      0.617165   -0.005348   -5.998273
  F     -1.133173   -1.221380   -5.341465
  C      2.191199   -1.619503   -1.715492
  H      2.872783   -3.666368   -1.828014
  H      1.246188   -3.447444   -2.407842
  C      1.298729   -0.554314   -2.359773
  H      1.872917   -1.787955   -0.681310
  H      3.216809   -1.238432   -1.654428
  C     -0.196255   -0.863365   -2.325763
  H      1.612531   -0.371346   -3.393065
  H      1.480944    0.388638   -1.834444
  H     -0.404105   -1.761825   -2.909448
  H     -0.490439   -1.087880   -1.294131
  H     -1.143842    1.066711   -2.129680
  H     -2.114401   -0.156834   -2.930323

 Total Charge           Charge          ....    0
 Multiplicity           Mult            ....    1
 Number of Electrons    NEL             ....  102
 Basis Dimension        Dim             ....  402

ORBITAL ENERGIES
----------------

  NO   OCC          E(Eh)            E(eV)
   0   2.0000     -24.878589      -676.9808
   1   2.0000     -19.238139      -523.4964
   2   2.0000     -14.390158      -391.5761
   3   2.0000     -14.385729      -391.4556
   4   2.0000     -10.423981      -283.6509
   5   2.0000     -10.270538      -279.4755
   6   2.0000     -10.268744      -279.4267
   7   2.0000     -10.266980      -279.3787
   8   2.0000     -10.256233      -279.0863
   9   2.0000     -10.243443      -278.7383
  10   2.0000     -10.237906      -278.5876
  11   2.0000     -10.236516      -278.5498
  12   2.0000     -10.125053      -275.5167
  13   2.0000      -1.364824       -37.1388
  14   2.0000      -1.068676       -29.0802
  15   2.0000      -0.979986       -26.6668
  16   2.0000      -0.898549       -24.4508
  17   2.0000      -0.850993       -23.1567
  18   2.0000      -0.808508       -22.0006
  19   2.0000      -0.760587       -20.6966
  20   2.0000      -0.728170       -19.8145
  21   2.0000      -0.703198       -19.1350
  22   2.0000      -0.680406       -18.5148
  23   2.0000      -0.634037       -17.2530
  24   2.0000      -0.623772       -16.9737
  25   2.0000      -0.598403       -16.2834
  26   2.0000      -0.585526       -15.9330
  27   2.0000      -0.578017       -15.7287
  28   2.0000      -0.547223       -14.8907
  29   2.0000      -0.526514       -14.3272
  30   2.0000      -0.508351       -13.8329
  31   2.0000      -0.497479       -13.5371
  32   2.0000      -0.487264       -13.2591
  33   2.0000      -0.477841       -13.0027
  34   2.0000      -0.462809       -12.5937
  35   2.0000      -0.452921       -12.3246
  36   2.0000      -0.432169       -11.7599
  37   2.0000      -0.425672       -11.5831
  38   2.0000      -0.404740       -11.0135
  39   2.0000      -0.399050       -10.8587
  40   2.0000      -0.395944       -10.7742
  41   2.0000      -0.385552       -10.4914
  42   2.0000      -0.380981       -10.3670
  43   2.0000      -0.373603       -10.1663
  44   2.0000      -0.352352        -9.5880
  45   2.0000      -0.346899        -9.4396
  46   2.0000      -0.345663        -9.4060
  47   2.0000      -0.338728        -9.2173
  48   2.0000      -0.302914        -8.2427
  49   2.0000      -0.258297        -7.0286
  50   2.0000      -0.167610        -4.5609
  51   0.0000      -0.038904        -1.0586
  52   0.0000       0.011461         0.3119
  53   0.0000       0.027492         0.7481
  54   0.0000       0.030094         0.8189
  55   0.0000       0.043064         1.1718

MULLIKEN ATOMIC CHARGES
-----------------------
   0 C :    0.757072
   1 N :   -0.641425
   2 C :    0.407943
   3 C :    0.004493
   4 H :    0.240292
   5 H :   -0.157539
   6 C :    0.760209
   7 C :    0.408415
   8 N :    0.183460
   9 C :    0.599293
  10 H :   -0.034836
  11 H :   -0.454389
  12 H :   -0.135310
  13 H :   -0.021074
  14 H :   -0.277190
  15 O :   -0.554393
  16 F :   -0.510624
  17 C :    0.208484
  18 H :   -0.303299
  19 H :    0.033121
  20 C :   -0.201476
  21 H :    0.076230
  22 H :   -0.033078
  23 C :   -0.179477
  24 H :    0.058819
  25 H :   -0.163815
  26 H :   -0.057700
  27 H :   -0.080225
  28 H :   -0.035399
  29 H :    0.103420
Sum of atomic charges:    0.0000000

LOEWDIN ATOMIC CHARGES
----------------------
   0 C :    0.049580
   1 N :   -0.003941
   2 C :   -0.024644
   3 C :    0.059639
   4 H :    0.039116
   5 H :    0.041076
   6 C :    0.034551
   7 C :   -0.230208
   8 N :    0.225428
   9 C :    0.156636
  10 H :   -0.089453
  11 H :   -0.159258
  12 H :    0.026549
  13 H :   -0.010065
  14 H :   -0.056207
  15 O :   -0.122369
  16 F :   -0.040827
  17 C :   -0.020724
  18 H :    0.018356
  19 H :    0.001333
  20 C :   -0.023144
  21 H :    0.021562
  22 H :    0.024167
  23 C :   -0.032797
  24 H :    0.012095
  25 H :    0.028325
  26 H :   -0.008418
  27 H :    0.029422
  28 H :    0.028949
  29 H :    0.025271

  Mayer bond orders larger than 0.100000
B(  0-C ,  1-N ) :   0.8899 B(  0-C , 12-H ) :  -0.1092 B(  0-C , 17-C ) :   1.1276
B(  0-C , 18-H ) :   0.8429 B(  0-C , 19-H ) :   0.7931 B(  0-C , 21-H ) :   0.1277
B(  0-C , 22-H ) :   0.1362 B(  1-N ,  7-C ) :   0.9014 B(  1-N ,  9-C ) :   0.2016
B(  1-N , 12-H ) :   1.1585 B(  1-N , 18-H ) :   0.2247 B(  1-N , 19-H ) :   0.1271
B(  2-C ,  3-C ) :   1.1988 B(  2-C ,  5-H ) :   0.1560 B(  2-C , 23-C ) :   1.2741
B(  2-C , 28-H ) :   0.8367 B(  2-C , 29-H ) :   0.6727 B(  3-C ,  4-H ) :   0.8259
B(  3-C ,  5-H ) :   0.8328 B(  3-C ,  6-C ) :   1.1769 B(  3-C , 16-F ) :   0.1027
B(  3-C , 28-H ) :   0.1203 B(  4-H ,  6-C ) :   0.1746 B(  5-H ,  6-C ) :   0.1761
B(  6-C , 15-O ) :   1.6378 B(  6-C , 16-F ) :   0.4623 B(  7-C ,  8-N ) :   0.8765
B(  7-C ,  9-C ) :   1.9717 B(  7-C , 10-H ) :   0.3024 B(  7-C , 11-H ) :   0.3205
B(  7-C , 12-H ) :  -0.1329 B(  8-N ,  9-C ) :   0.2315 B(  8-N , 13-H ) :   0.9510
B(  8-N , 14-H ) :   1.0380 B(  9-C , 10-H ) :   0.5213 B(  9-C , 11-H ) :   0.3522
B( 10-H , 11-H ) :   0.3124 B( 11-H , 15-O ) :   0.1934 B( 13-H , 14-H ) :  -0.1941
B( 17-C , 19-H ) :   0.1157 B( 17-C , 20-C ) :   1.2544 B( 17-C , 21-H ) :   0.8296
B( 17-C , 22-H ) :   0.7544 B( 17-C , 24-H ) :   0.1062 B( 18-H , 19-H ) :  -0.1161
B( 20-C , 21-H ) :   0.1509 B( 20-C , 22-H ) :   0.2223 B( 20-C , 23-C ) :   1.3102
B( 20-C , 24-H ) :   0.9311 B( 20-C , 25-H ) :   0.8918 B( 20-C , 26-H ) :   0.1376
B( 20-C , 27-H ) :   0.1989 B( 23-C , 24-H ) :   0.1079 B( 23-C , 25-H ) :   0.1794
B( 23-C , 26-H ) :   0.9371 B( 23-C , 27-H ) :   0.8219 B( 23-C , 28-H ) :   0.1591
B( 23-C , 29-H ) :   0.2150

Dispersion correction           -0.030677249
FINAL SINGLE POINT ENERGY      -636.574906457745

DIPOLE MOMENT
-------------
                                X             Y             Z
Electronic contribution:     -5.69097      -0.71602     -11.69338
Nuclear contribution   :      4.34606       1.32859      13.65749
                        -----------------------------------------
Total Dipole Moment    :     -1.34490       0.61257       1.96411
                        -----------------------------------------
Magnitude (a.u.)       :      2.45799
Magnitude (Debye)      :      6.24772

Rotational constants in cm-1:     0.033551     0.023540     0.017085
Rotational constants in MHz :  1005.818710   705.725032   512.192443

                             ****ORCA TERMINATED NORMALLY****
TOTAL RUN TIME: 0 days 0 hours 2 minutes 20 seconds 176 msec
