                         Program Version 5.0.0 -  RELEASE  -
|  1> !PBE D3BJ RIJCOSX def2-SVP def2/J TightSCF
|  2> *xyz -1 1
|  3> C          3.80351        1.37472       -3.26081
|  4> C          3.93993        0.32036       -4.36773
|  5> H          4.10504       -0.65508       -3.90773
|  6> H          3.02280        0.28052       -4.95712
|  7> C          5.10585        0.66802       -5.30546
|  8> O          4.80913        1.15019       -6.41436
|  9> O          6.26737        0.56500       -4.81948
| 10> H          3.64113        2.33595       -3.70189
| 11> H          4.69995        1.39701       -2.67703
| 12> H          2.97435        1.12625       -2.63180
| 13> *
| 14>
| 15> %MaxCore 64000
| 16>
| 17> %pal nprocs 4
| 18> end
| 19>
| 20> %scf
| 21>   MaxIter 150
| 22> end
| 23>
| 24>
| 25>                          ****END OF INPUT****

CARTESIAN COORDINATES (ANGSTROEM)
---------------------------------
  C      3.803510    1.374720   -3.260810
  C      3.939930    0.320360   -4.367730
  H      4.105040   -0.655080   -3.907730
  H      3.022800    0.280520   -4.957120
  C      5.105850    0.668020   -5.305460
  O      4.809130    1.150190   -6.414360
  O      6.267370    0.565000   -4.819480
  H      3.641130    2.335950   -3.701890
  H      4.699950    1.397010   -2.677030
  H      2.974350    1.126250   -2.631800

 Total Charge           Charge          ....   -1
 Multiplicity           Mult            ....    1
 Number of Electrons    NEL             ....   40
 Basis Dimension        Dim             ....   95

ORBITAL ENERGIES
----------------

  NO   OCC          E(Eh)            E(eV)
   0   2.0000     -18.458880      -502.2917
   1   2.0000     -18.455938      -502.2116
   2   2.0000      -9.733355      -264.8580
   3   2.0000      -9.721393      -264.5325
   4   2.0000      -9.697964      -263.8950
   5   2.0000      -0.684885       -18.6367
   6   2.0000      -0.596029       -16.2188
   7   2.0000      -0.509523       -13.8648
   8   2.0000      -0.383656       -10.4398
   9   2.0000      -0.243450        -6.6246
  10   2.0000      -0.225495        -6.1360
  11   2.0000      -0.182658        -4.9704
  12   2.0000      -0.160454        -4.3662
  13   2.0000      -0.141969        -3.8632
  14   2.0000      -0.128305        -3.4914
  15   2.0000      -0.096014        -2.6127
  16   2.0000      -0.090885        -2.4731
  17   2.0000       0.027931         0.7600
  18   2.0000       0.041921         1.1407
  19   2.0000       0.058643         1.5958
  20   0.0000       0.198730         5.4077
  21   0.0000       0.244910         6.6643
  22   0.0000       0.251595         6.8462
  23   0.0000       0.260338         7.0842
  24   0.0000       0.269616         7.3366

MULLIKEN ATOMIC CHARGES
-----------------------
   0 C :    0.005603
   1 C :    0.015485
   2 H :   -0.055299
   3 H :   -0.065423
   4 C :   -0.044860
   5 O :   -0.376610
   6 O :   -0.406236
   7 H :   -0.013150
   8 H :   -0.013753
   9 H :   -0.045757
Sum of atomic charges:   -1.0000000

LOEWDIN ATOMIC CHARGES
----------------------
   0 C :   -0.066870
   1 C :   -0.099508
   2 H :   -0.004805
   3 H :   -0.009399
   4 C :   -0.096723
   5 O :   -0.353325
   6 O :   -0.379486
   7 H :    0.009839
   8 H :    0.007490
   9 H :   -0.007214

  Mayer bond orders larger than 0.100000
B(  0-C ,  1-C ) :   1.1177 B(  0-C ,  7-H ) :   0.9640 B(  0-C ,  8-H ) :   0.9559
B(  0-C ,  9-H ) :   0.9598 B(  1-C ,  2-H ) :   0.9171 B(  1-C ,  3-H ) :   0.9173
B(  1-C ,  4-C ) :   0.9092 B(  4-C ,  5-O ) :   1.8845 B(  4-C ,  6-O ) :   1.8334
B(  5-O ,  6-O ) :   0.1416

Dispersion correction           -0.006570267
FINAL SINGLE POINT ENERGY      -267.308671274285

DIPOLE MOMENT
-------------
                                X             Y             Z
Electronic contribution:      4.00753      -0.41198      -4.73297
Nuclear contribution   :     -5.15232       0.33441       5.87398
                        -----------------------------------------
Total Dipole Moment    :     -1.14479      -0.07758       1.14101
                        -----------------------------------------
Magnitude (a.u.)       :      1.61817
Magnitude (Debye)      :      4.11306

Rotational constants in cm-1:     0.295355     0.137164     0.110193
Rotational constants in MHz :  8854.523706  4112.077980  3303.490503

                             ****ORCA TERMINATED NORMALLY****
TOTAL RUN TIME: 0 days 0 hours 0 minutes 7 seconds 121 msec
