                         Program Version 5.0.0 -  RELEASE  -
|  1> !PBE D3BJ RIJCOSX def2-SVP def2/J TightSCF
|  2> *xyz 1 1
|  3> C          3.90595        2.81985       -3.75292
|  4> N          5.29562        3.13151       -4.10533
|  5> C          3.80351        1.37472       -3.26081
|  6> C          5.70862        3.46889       -5.32419
|  7> N          6.90470        3.03895       -5.71708
|  8> N          4.98188        4.29357       -6.09746
|  9> H          5.00055        4.10131       -7.08776
| 10> H          4.08469        4.59690       -5.73965
| 11> H          5.96336        2.52611       -3.64239
| 12> H          7.04716        2.06686       -5.47360
| 13> H          7.19815        3.30799       -6.64523
| 14> H          3.28202        2.94919       -4.64026
| 15> H          3.56525        3.51457       -2.98252
| 16> H          4.14157        0.71142       -4.02935
| 17> H          2.78528        1.15146       -3.01944
| 18> H          4.41205        1.25066       -2.38949
| 19> *
| 20>
| 21> %MaxCore 64000
| 22>
| 23> %pal nprocs 4
| 24> end
| 25>
| 26> %scf
| 27>   MaxIter 150
| 28> end
| 29>
| 30>
| 31>                          ****END OF INPUT****

CARTESIAN COORDINATES (ANGSTROEM)
---------------------------------
  C      3.905950    2.819850   -3.752920
  N      5.295620    3.131510   -4.105330
  C      3.803510    1.374720   -3.260810
  C      5.708620    3.468890   -5.324190
  N      6.904700    3.038950   -5.717080
  N      4.981880    4.293570   -6.097460
  H      5.000550    4.101310   -7.087760
  H      4.084690    4.596900   -5.739650
  H      5.963360    2.526110   -3.642390
  H      7.047160    2.066860   -5.473600
  H      7.198150    3.307990   -6.645230
  H      3.282020    2.949190   -4.640260
  H      3.565250    3.514570   -2.982520
  H      4.141570    0.711420   -4.029350
  H      2.785280    1.151460   -3.019440
  H      4.412050    1.250660   -2.389490

 Total Charge           Charge          ....    1
 Multiplicity           Mult            ....    1
 Number of Electrons    NEL             ....   48
 Basis Dimension        Dim             ....  134

ORBITAL ENERGIES
----------------

  NO   OCC          E(Eh)            E(eV)
   0   2.0000     -14.222945      -387.0260
   1   2.0000     -14.222105      -387.0031
   2   2.0000     -14.221539      -386.9878
   3   2.0000     -10.215482      -277.9774
   4   2.0000     -10.103876      -274.9404
   5   2.0000     -10.040360      -273.2121
   6   2.0000      -1.127249       -30.6740
   7   2.0000      -1.021720       -27.8024
   8   2.0000      -1.013240       -27.5717
   9   2.0000      -0.859222       -23.3806
  10   2.0000      -0.769180       -20.9304
  11   2.0000      -0.745729       -20.2923
  12   2.0000      -0.721259       -19.6265
  13   2.0000      -0.689201       -18.7541
  14   2.0000      -0.649765       -17.6810
  15   2.0000      -0.638522       -17.3751
  16   2.0000      -0.601177       -16.3589
  17   2.0000      -0.580041       -15.7837
  18   2.0000      -0.546628       -14.8745
  19   2.0000      -0.514560       -14.0019
  20   2.0000      -0.491970       -13.3872
  21   2.0000      -0.476735       -12.9726
  22   2.0000      -0.444314       -12.0904
  23   2.0000      -0.418351       -11.3839
  24   0.0000      -0.217274        -5.9123
  25   0.0000      -0.161149        -4.3851
  26   0.0000      -0.128245        -3.4897
  27   0.0000      -0.114131        -3.1056
  28   0.0000      -0.097959        -2.6656

MULLIKEN ATOMIC CHARGES
-----------------------
   0 C :    0.020454
   1 N :   -0.071626
   2 C :   -0.050958
   3 C :   -0.049332
   4 N :    0.015028
   5 N :    0.007199
   6 H :    0.167985
   7 H :    0.164420
   8 H :    0.148350
   9 H :    0.168485
  10 H :    0.160915
  11 H :    0.047424
  12 H :    0.086581
  13 H :    0.040732
  14 H :    0.080036
  15 H :    0.064306
Sum of atomic charges:    1.0000000

LOEWDIN ATOMIC CHARGES
----------------------
   0 C :    0.033623
   1 N :    0.053084
   2 C :   -0.050156
   3 C :    0.095438
   4 N :    0.067057
   5 N :    0.067624
   6 H :    0.107049
   7 H :    0.106182
   8 H :    0.099525
   9 H :    0.107041
  10 H :    0.107707
  11 H :    0.030895
  12 H :    0.047066
  13 H :    0.031142
  14 H :    0.056660
  15 H :    0.040065

  Mayer bond orders larger than 0.100000
B(  0-C ,  1-N ) :   0.9468 B(  0-C ,  2-C ) :   1.1190 B(  0-C , 11-H ) :   0.9388
B(  0-C , 12-H ) :   0.9364 B(  1-N ,  3-C ) :   1.3906 B(  1-N ,  8-H ) :   0.9060
B(  2-C , 13-H ) :   0.9677 B(  2-C , 14-H ) :   0.9527 B(  2-C , 15-H ) :   0.9624
B(  3-C ,  4-N ) :   1.3766 B(  3-C ,  5-N ) :   1.3823 B(  4-N ,  9-H ) :   0.9271
B(  4-N , 10-H ) :   0.9262 B(  5-N ,  6-H ) :   0.9260 B(  5-N ,  7-H ) :   0.9204

Dispersion correction           -0.012251198
FINAL SINGLE POINT ENERGY      -283.831819208262

DIPOLE MOMENT
-------------
                                X             Y             Z
Electronic contribution:      3.55944       3.41438      -2.70414
Nuclear contribution   :     -3.31456      -3.64300       1.57303
                        -----------------------------------------
Total Dipole Moment    :      0.24488      -0.22862      -1.13111
                        -----------------------------------------
Magnitude (a.u.)       :      1.17967
Magnitude (Debye)      :      2.99850

Rotational constants in cm-1:     0.229487     0.071000     0.059428
Rotational constants in MHz :  6879.840828  2128.520047  1781.605314

                             ****ORCA TERMINATED NORMALLY****
TOTAL RUN TIME: 0 days 0 hours 0 minutes 10 seconds 338 msec
