                         Program Version 5.0.0 -  RELEASE  -
|  1> !PBE D3BJ RIJCOSX def2-TZVP def2/J TightSCF xyzfile
|  2>
|  3> *xyzfile 0 1 B.xyz
|  4>
|  5> %MaxCore 64000
|  6>
|  7> %pal nprocs 18
|  8> end
|  9>
| 10> %scf
| 11>   MaxIter 150
| 12> end
| 13>
| 14>
| 15>                          ****END OF INPUT****

CARTESIAN COORDINATES (ANGSTROEM)
---------------------------------
  C      3.905947    2.819855   -3.752920
  N      5.295615    3.131515   -4.105334
  C      3.803511    1.374716   -3.260807
  C      3.939934    0.320362   -4.367729
  H      4.105043   -0.655085   -3.907733
  H      3.022801    0.280517   -4.957117
  C      5.105846    0.668022   -5.305463
  C      5.708619    3.468885   -5.324190
  N      6.904696    3.038954   -5.717084
  N      4.981884    4.293570   -6.097457
  H      5.000546    4.101311   -7.087761
  H      4.084693    4.596899   -5.739652
  H      5.963358    2.526112   -3.642391
  H      7.047164    2.066861   -5.473604
  H      7.198145    3.307994   -6.645225
  H      3.282025    2.949187   -4.640259
  H      3.565254    3.514574   -2.982523
  H      4.574833    1.215157   -2.500443
  H      2.843514    1.260845   -2.751465
  O      4.809132    1.150187   -6.414361
  O      6.267366    0.564999   -4.819481

 Total Charge           Charge          ....    0
 Multiplicity           Mult            ....    1
 Number of Electrons    NEL             ....   78
 Basis Dimension        Dim             ....  376

ORBITAL ENERGIES
----------------

  NO   OCC          E(Eh)            E(eV)
   0   2.0000     -18.666969      -507.9541
   1   2.0000     -18.661166      -507.7962
   2   2.0000     -14.044988      -382.1836
   3   2.0000     -14.039327      -382.0295
   4   2.0000     -14.015070      -381.3694
   5   2.0000     -10.030941      -272.9558
   6   2.0000      -9.940012      -270.4815
   7   2.0000      -9.927091      -270.1299
   8   2.0000      -9.891940      -269.1734
   9   2.0000      -9.857702      -268.2417
  10   2.0000      -0.963265       -26.2118
  11   2.0000      -0.913247       -24.8507
  12   2.0000      -0.863267       -23.4907
  13   2.0000      -0.845193       -22.9989
  14   2.0000      -0.825949       -22.4752
  15   2.0000      -0.723279       -19.6814
  16   2.0000      -0.646401       -17.5895
  17   2.0000      -0.597590       -16.2613
  18   2.0000      -0.563085       -15.3223
  19   2.0000      -0.550957       -14.9923
  20   2.0000      -0.519881       -14.1467
  21   2.0000      -0.482848       -13.1390
  22   2.0000      -0.464736       -12.6461
  23   2.0000      -0.445145       -12.1130
  24   2.0000      -0.431208       -11.7338
  25   2.0000      -0.420113       -11.4318
  26   2.0000      -0.381683       -10.3861
  27   2.0000      -0.372078       -10.1247
  28   2.0000      -0.361026        -9.8240
  29   2.0000      -0.341582        -9.2949
  30   2.0000      -0.332748        -9.0545
  31   2.0000      -0.325451        -8.8560
  32   2.0000      -0.296050        -8.0559
  33   2.0000      -0.291360        -7.9283
  34   2.0000      -0.273733        -7.4487
  35   2.0000      -0.251986        -6.8569
  36   2.0000      -0.194135        -5.2827
  37   2.0000      -0.172344        -4.6897
  38   2.0000      -0.158816        -4.3216
  39   0.0000      -0.049656        -1.3512
  40   0.0000      -0.016411        -0.4466
  41   0.0000       0.009222         0.2509
  42   0.0000       0.022165         0.6031
  43   0.0000       0.031836         0.8663

MULLIKEN ATOMIC CHARGES
-----------------------
   0 C :   -0.100241
   1 N :   -0.172625
   2 C :   -0.266055
   3 C :   -0.141456
   4 H :    0.089518
   5 H :    0.074257
   6 C :    0.185409
   7 C :    0.230634
   8 N :   -0.289578
   9 N :   -0.381678
  10 H :    0.260739
  11 H :    0.243483
  12 H :    0.235931
  13 H :    0.252703
  14 H :    0.219659
  15 H :    0.096927
  16 H :    0.125393
  17 H :    0.112596
  18 H :    0.105003
  19 O :   -0.399113
  20 O :   -0.481507
Sum of atomic charges:   -0.0000000

LOEWDIN ATOMIC CHARGES
----------------------
   0 C :   -0.273168
   1 N :    0.175618
   2 C :   -0.270368
   3 C :   -0.249892
   4 H :    0.141518
   5 H :    0.137009
   6 C :   -0.701777
   7 C :   -0.459585
   8 N :    0.065687
   9 N :    0.042966
  10 H :    0.184700
  11 H :    0.177994
  12 H :    0.204875
  13 H :    0.166689
  14 H :    0.174260
  15 H :    0.139590
  16 H :    0.131243
  17 H :    0.142465
  18 H :    0.141405
  19 O :   -0.015027
  20 O :   -0.056202

  Mayer bond orders larger than 0.100000
B(  0-C ,  1-N ) :   0.9510 B(  0-C ,  2-C ) :   1.0074 B(  0-C , 15-H ) :   0.9513
B(  0-C , 16-H ) :   0.9455 B(  1-N ,  7-C ) :   1.3738 B(  1-N , 12-H ) :   0.8810
B(  2-C ,  3-C ) :   1.0180 B(  2-C , 17-H ) :   0.9500 B(  2-C , 18-H ) :   0.9403
B(  3-C ,  4-H ) :   0.9229 B(  3-C ,  5-H ) :   0.9421 B(  3-C ,  6-C ) :   0.9535
B(  6-C , 19-O ) :   1.8862 B(  6-C , 20-O ) :   1.7135 B(  7-C ,  8-N ) :   1.4198
B(  7-C ,  9-N ) :   1.2796 B(  7-C , 19-O ) :   0.1756 B(  8-N , 13-H ) :   0.7930
B(  8-N , 14-H ) :   0.9138 B(  9-N , 10-H ) :   0.9031 B(  9-N , 11-H ) :   0.9103
B( 13-H , 20-O ) :   0.1847

Dispersion correction           -0.022948169
FINAL SINGLE POINT ENERGY      -511.502130791923

DIPOLE MOMENT
-------------
                                X             Y             Z
Electronic contribution:      4.24413       0.35574      -3.50344
Nuclear contribution   :     -4.94498       2.03334       3.78956
                        -----------------------------------------
Total Dipole Moment    :     -0.70085       2.38909       0.28612
                        -----------------------------------------
Magnitude (a.u.)       :      2.50615
Magnitude (Debye)      :      6.37013

Rotational constants in cm-1:     0.062533     0.042832     0.033687
Rotational constants in MHz :  1874.701390  1284.063603  1009.911042

                             ****ORCA TERMINATED NORMALLY****
TOTAL RUN TIME: 0 days 0 hours 0 minutes 12 seconds 593 msec
