                         Program Version 5.0.0 -  RELEASE  -
|  1> !PBE D3BJ RIJCOSX def2-SVP def2/J TightSCF
|  2> *xyz 0 1
|  3> C          3.80351        1.37472       -3.26081
|  4> C          3.93993        0.32036       -4.36773
|  5> H          4.10504       -0.65508       -3.90773
|  6> H          3.02280        0.28052       -4.95712
|  7> C          5.10585        0.66802       -5.30546
|  8> F          4.80913        1.15019       -6.41436
|  9> O          6.26737        0.56500       -4.81948
| 10> H          3.64113        2.33595       -3.70189
| 11> H          4.69995        1.39701       -2.67703
| 12> H          2.97435        1.12625       -2.63180
| 13> *
| 14>
| 15> %MaxCore 64000
| 16>
| 17> %pal nprocs 4
| 18> end
| 19>
| 20> %scf
| 21>   MaxIter 150
| 22> end
| 23>
| 24>
| 25>                          ****END OF INPUT****

CARTESIAN COORDINATES (ANGSTROEM)
---------------------------------
  C      3.803510    1.374720   -3.260810
  C      3.939930    0.320360   -4.367730
  H      4.105040   -0.655080   -3.907730
  H      3.022800    0.280520   -4.957120
  C      5.105850    0.668020   -5.305460
  F      4.809130    1.150190   -6.414360
  O      6.267370    0.565000   -4.819480
  H      3.641130    2.335950   -3.701890
  H      4.699950    1.397010   -2.677030
  H      2.974350    1.126250   -2.631800

 Total Charge           Charge          ....    0
 Multiplicity           Mult            ....    1
 Number of Electrons    NEL             ....   40
 Basis Dimension        Dim             ....   95

ORBITAL ENERGIES
----------------

  NO   OCC          E(Eh)            E(eV)
   0   2.0000     -24.329646      -662.0433
   1   2.0000     -18.752606      -510.2843
   2   2.0000     -10.051636      -273.5189
   3   2.0000      -9.918958      -269.9086
   4   2.0000      -9.900064      -269.3944
   5   2.0000      -1.198103       -32.6020
   6   2.0000      -0.920349       -25.0440
   7   2.0000      -0.716340       -19.4926
   8   2.0000      -0.610337       -16.6081
   9   2.0000      -0.567564       -15.4442
  10   2.0000      -0.484746       -13.1906
  11   2.0000      -0.468301       -12.7431
  12   2.0000      -0.438282       -11.9263
  13   2.0000      -0.408500       -11.1158
  14   2.0000      -0.376764       -10.2523
  15   2.0000      -0.349130        -9.5003
  16   2.0000      -0.326408        -8.8820
  17   2.0000      -0.320844        -8.7306
  18   2.0000      -0.296351        -8.0641
  19   2.0000      -0.229195        -6.2367
  20   0.0000      -0.057365        -1.5610
  21   0.0000       0.040292         1.0964
  22   0.0000       0.084982         2.3125
  23   0.0000       0.085571         2.3285
  24   0.0000       0.106128         2.8879

MULLIKEN ATOMIC CHARGES
-----------------------
   0 C :   -0.016321
   1 C :   -0.073014
   2 H :    0.056512
   3 H :    0.021901
   4 C :    0.162665
   5 F :   -0.021784
   6 O :   -0.233436
   7 H :    0.026392
   8 H :    0.044778
   9 H :    0.032306
Sum of atomic charges:    0.0000000

LOEWDIN ATOMIC CHARGES
----------------------
   0 C :   -0.043317
   1 C :   -0.077049
   2 H :    0.047749
   3 H :    0.026138
   4 C :    0.057569
   5 F :    0.080636
   6 O :   -0.180361
   7 H :    0.026548
   8 H :    0.031900
   9 H :    0.030188

  Mayer bond orders larger than 0.100000
B(  0-C ,  1-C ) :   1.1029 B(  0-C ,  7-H ) :   0.9709 B(  0-C ,  8-H ) :   0.9671
B(  0-C ,  9-H ) :   0.9642 B(  1-C ,  2-H ) :   0.9295 B(  1-C ,  3-H ) :   0.9263
B(  1-C ,  4-C ) :   1.0017 B(  4-C ,  5-F ) :   1.2433 B(  4-C ,  6-O ) :   2.0643

Dispersion correction           -0.006234845
FINAL SINGLE POINT ENERGY      -291.846325883089

DIPOLE MOMENT
-------------
                                X             Y             Z
Electronic contribution:      4.14378       0.01647      -7.50178
Nuclear contribution   :     -5.17129      -0.01923       7.59895
                        -----------------------------------------
Total Dipole Moment    :     -1.02751      -0.00276       0.09717
                        -----------------------------------------
Magnitude (a.u.)       :      1.03210
Magnitude (Debye)      :      2.62338

Rotational constants in cm-1:     0.282073     0.131822     0.105134
Rotational constants in MHz :  8456.328792  3951.925810  3151.840112

                             ****ORCA TERMINATED NORMALLY****
TOTAL RUN TIME: 0 days 0 hours 0 minutes 7 seconds 203 msec
