                         Program Version 5.0.0 -  RELEASE  -
|  1> !PBE D3BJ RIJCOSX def2-SVP def2/J TightSCF
|  2> *xyz 0 1
|  3> C          3.90595        2.81985       -3.75292
|  4> C          5.29562        3.13151       -4.10533
|  5> C          3.80351        1.37472       -3.26081
|  6> C          5.70862        3.46889       -5.32419
|  7> N          6.90470        3.03895       -5.71708
|  8> N          4.98188        4.29357       -6.09746
|  9> H          5.00055        4.10131       -7.08776
| 10> H          4.08469        4.59690       -5.73965
| 11> H          5.96336        2.52611       -3.64239
| 12> H          7.04716        2.06686       -5.47360
| 13> H          7.19815        3.30799       -6.64523
| 14> H          3.28202        2.94919       -4.64026
| 15> H          3.56525        3.51457       -2.98252
| 16> H          4.14157        0.71142       -4.02935
| 17> H          2.78528        1.15146       -3.01944
| 18> H          4.41205        1.25066       -2.38949
| 19> *
| 20>
| 21> %MaxCore 64000
| 22>
| 23> %pal nprocs 4
| 24> end
| 25>
| 26> %scf
| 27>   MaxIter 150
| 28> end
| 29>
| 30>
| 31>                          ****END OF INPUT****

CARTESIAN COORDINATES (ANGSTROEM)
---------------------------------
  C      3.905950    2.819850   -3.752920
  C      5.295620    3.131510   -4.105330
  C      3.803510    1.374720   -3.260810
  C      5.708620    3.468890   -5.324190
  N      6.904700    3.038950   -5.717080
  N      4.981880    4.293570   -6.097460
  H      5.000550    4.101310   -7.087760
  H      4.084690    4.596900   -5.739650
  H      5.963360    2.526110   -3.642390
  H      7.047160    2.066860   -5.473600
  H      7.198150    3.307990   -6.645230
  H      3.282020    2.949190   -4.640260
  H      3.565250    3.514570   -2.982520
  H      4.141570    0.711420   -4.029350
  H      2.785280    1.151460   -3.019440
  H      4.412050    1.250660   -2.389490

 Total Charge           Charge          ....    0
 Multiplicity           Mult            ....    1
 Number of Electrons    NEL             ....   48
 Basis Dimension        Dim             ....  134

ORBITAL ENERGIES
----------------

  NO   OCC          E(Eh)            E(eV)
   0   2.0000     -13.994813      -380.8182
   1   2.0000     -13.991162      -380.7189
   2   2.0000      -9.922536      -270.0059
   3   2.0000      -9.868259      -268.5290
   4   2.0000      -9.863223      -268.3919
   5   2.0000      -9.813071      -267.0272
   6   2.0000      -0.867176       -23.5971
   7   2.0000      -0.784505       -21.3475
   8   2.0000      -0.690864       -18.7994
   9   2.0000      -0.615047       -16.7363
  10   2.0000      -0.542037       -14.7496
  11   2.0000      -0.511669       -13.9232
  12   2.0000      -0.476532       -12.9671
  13   2.0000      -0.449647       -12.2355
  14   2.0000      -0.422049       -11.4845
  15   2.0000      -0.390337       -10.6216
  16   2.0000      -0.367218        -9.9925
  17   2.0000      -0.335076        -9.1179
  18   2.0000      -0.316740        -8.6189
  19   2.0000      -0.301491        -8.2040
  20   2.0000      -0.277753        -7.5580
  21   2.0000      -0.273968        -7.4550
  22   2.0000      -0.219986        -5.9861
  23   2.0000      -0.128414        -3.4943
  24   0.0000       0.018133         0.4934
  25   0.0000       0.044743         1.2175
  26   0.0000       0.062350         1.6966
  27   0.0000       0.065183         1.7737
  28   0.0000       0.084057         2.2873

MULLIKEN ATOMIC CHARGES
-----------------------
   0 C :    0.008750
   1 C :   -0.061270
   2 C :   -0.007052
   3 C :   -0.184092
   4 N :   -0.035857
   5 N :   -0.027042
   6 H :    0.088145
   7 H :    0.109304
   8 H :   -0.095613
   9 H :    0.124717
  10 H :    0.085337
  11 H :   -0.028583
  12 H :    0.001627
  13 H :    0.001447
  14 H :    0.002265
  15 H :    0.017917
Sum of atomic charges:    0.0000000

LOEWDIN ATOMIC CHARGES
----------------------
   0 C :   -0.046414
   1 C :   -0.201567
   2 C :   -0.056454
   3 C :   -0.019520
   4 N :   -0.001815
   5 N :   -0.006511
   6 H :    0.054281
   7 H :    0.075403
   8 H :   -0.009216
   9 H :    0.078163
  10 H :    0.058760
  11 H :    0.004756
  12 H :    0.015473
  13 H :    0.015573
  14 H :    0.017394
  15 H :    0.021694

  Mayer bond orders larger than 0.100000
B(  0-C ,  1-C ) :   1.0866 B(  0-C ,  2-C ) :   1.1065 B(  0-C , 11-H ) :   0.9291
B(  0-C , 12-H ) :   0.9158 B(  1-C ,  3-C ) :   1.6841 B(  1-C ,  8-H ) :   0.9078
B(  2-C , 13-H ) :   0.9676 B(  2-C , 14-H ) :   0.9571 B(  2-C , 15-H ) :   0.9688
B(  3-C ,  4-N ) :   1.2091 B(  3-C ,  5-N ) :   1.2510 B(  4-N ,  9-H ) :   0.9451
B(  4-N , 10-H ) :   0.9492 B(  5-N ,  6-H ) :   0.9357 B(  5-N ,  7-H ) :   0.9379

Dispersion correction           -0.012710731
FINAL SINGLE POINT ENERGY      -267.364575665685

DIPOLE MOMENT
-------------
                                X             Y             Z
Electronic contribution:      3.27077       3.32392      -2.95087
Nuclear contribution   :     -3.27358      -3.61654       1.70633
                        -----------------------------------------
Total Dipole Moment    :     -0.00280      -0.29262      -1.24454
                        -----------------------------------------
Magnitude (a.u.)       :      1.27848
Magnitude (Debye)      :      3.24964

Rotational constants in cm-1:     0.231961     0.071249     0.059473
Rotational constants in MHz :  6954.024434  2135.976855  1782.962814

                             ****ORCA TERMINATED NORMALLY****
TOTAL RUN TIME: 0 days 0 hours 0 minutes 9 seconds 397 msec
