                         Program Version 5.0.0 -  RELEASE  -
|  1> !PBE D3BJ RIJCOSX def2-SVP def2/J TightSCF
|  2> *xyz 0 1
|  3> C          3.80351        1.37472       -3.26081
|  4> C          3.93993        0.32036       -4.36773
|  5> H          4.10504       -0.65508       -3.90773
|  6> H          3.02280        0.28052       -4.95712
|  7> C          5.10585        0.66802       -5.30546
|  8> O          4.80913        1.15019       -6.41436
|  9> F          6.26737        0.56500       -4.81948
| 10> H          3.64113        2.33595       -3.70189
| 11> H          4.69995        1.39701       -2.67703
| 12> H          2.97435        1.12625       -2.63180
| 13> *
| 14>
| 15> %MaxCore 64000
| 16>
| 17> %pal nprocs 4
| 18> end
| 19>
| 20> %scf
| 21>   MaxIter 150
| 22> end
| 23>
| 24>
| 25>                          ****END OF INPUT****

CARTESIAN COORDINATES (ANGSTROEM)
---------------------------------
  C      3.803510    1.374720   -3.260810
  C      3.939930    0.320360   -4.367730
  H      4.105040   -0.655080   -3.907730
  H      3.022800    0.280520   -4.957120
  C      5.105850    0.668020   -5.305460
  O      4.809130    1.150190   -6.414360
  F      6.267370    0.565000   -4.819480
  H      3.641130    2.335950   -3.701890
  H      4.699950    1.397010   -2.677030
  H      2.974350    1.126250   -2.631800

 Total Charge           Charge          ....    0
 Multiplicity           Mult            ....    1
 Number of Electrons    NEL             ....   40
 Basis Dimension        Dim             ....   95

ORBITAL ENERGIES
----------------

  NO   OCC          E(Eh)            E(eV)
   0   2.0000     -24.323238      -661.8690
   1   2.0000     -18.755037      -510.3505
   2   2.0000     -10.049932      -273.4726
   3   2.0000      -9.918364      -269.8924
   4   2.0000      -9.902784      -269.4684
   5   2.0000      -1.184775       -32.2394
   6   2.0000      -0.930646       -25.3242
   7   2.0000      -0.718329       -19.5467
   8   2.0000      -0.605585       -16.4788
   9   2.0000      -0.565387       -15.3850
  10   2.0000      -0.479925       -13.0594
  11   2.0000      -0.464265       -12.6333
  12   2.0000      -0.435490       -11.8503
  13   2.0000      -0.406838       -11.0706
  14   2.0000      -0.378614       -10.3026
  15   2.0000      -0.350960        -9.5501
  16   2.0000      -0.330054        -8.9812
  17   2.0000      -0.322631        -8.7792
  18   2.0000      -0.304911        -8.2971
  19   2.0000      -0.230354        -6.2682
  20   0.0000      -0.053378        -1.4525
  21   0.0000       0.037730         1.0267
  22   0.0000       0.082891         2.2556
  23   0.0000       0.087661         2.3854
  24   0.0000       0.110952         3.0191

MULLIKEN ATOMIC CHARGES
-----------------------
   0 C :   -0.030869
   1 C :   -0.067663
   2 H :    0.035774
   3 H :    0.048385
   4 C :    0.164614
   5 O :   -0.208763
   6 F :   -0.048235
   7 H :    0.039411
   8 H :    0.031051
   9 H :    0.036295
Sum of atomic charges:    0.0000000

LOEWDIN ATOMIC CHARGES
----------------------
   0 C :   -0.048342
   1 C :   -0.074817
   2 H :    0.034465
   3 H :    0.043082
   4 C :    0.060266
   5 O :   -0.159096
   6 F :    0.056491
   7 H :    0.030140
   8 H :    0.025902
   9 H :    0.031909

  Mayer bond orders larger than 0.100000
B(  0-C ,  1-C ) :   1.0935 B(  0-C ,  7-H ) :   0.9701 B(  0-C ,  8-H ) :   0.9701
B(  0-C ,  9-H ) :   0.9640 B(  1-C ,  2-H ) :   0.9212 B(  1-C ,  3-H ) :   0.9399
B(  1-C ,  4-C ) :   1.0081 B(  4-C ,  5-O ) :   2.1017 B(  4-C ,  6-F ) :   1.2094

Dispersion correction           -0.006214541
FINAL SINGLE POINT ENERGY      -291.851306547261

DIPOLE MOMENT
-------------
                                X             Y             Z
Electronic contribution:      6.50798      -0.93621      -4.89209
Nuclear contribution   :     -6.76123       0.61881       5.86003
                        -----------------------------------------
Total Dipole Moment    :     -0.25325      -0.31740       0.96794
                        -----------------------------------------
Magnitude (a.u.)       :      1.04966
Magnitude (Debye)      :      2.66802

Rotational constants in cm-1:     0.275298     0.134631     0.105723
Rotational constants in MHz :  8253.224169  4036.137572  3169.487264

                             ****ORCA TERMINATED NORMALLY****
TOTAL RUN TIME: 0 days 0 hours 0 minutes 7 seconds 119 msec
