                         Program Version 5.0.0 -  RELEASE  -
|  1> !PBE D3BJ RIJCOSX def2-SVP def2/J TightSCF
|  2> *xyz 0 1
|  3> C          3.90595        2.81985       -3.75292
|  4> N          5.29562        3.13151       -4.10533
|  5> C          3.80351        1.37472       -3.26081
|  6> C          5.70862        3.46889       -5.32419
|  7> C          6.90470        3.03895       -5.71708
|  8> N          4.98188        4.29357       -6.09746
|  9> H          5.00055        4.10131       -7.08776
| 10> H          4.08469        4.59690       -5.73965
| 11> H          5.96336        2.52611       -3.64239
| 12> H          7.04716        2.06686       -5.47360
| 13> H          7.19815        3.30799       -6.64523
| 14> H          3.28202        2.94919       -4.64026
| 15> H          3.56525        3.51457       -2.98252
| 16> H          4.14157        0.71142       -4.02935
| 17> H          2.78528        1.15146       -3.01944
| 18> H          4.41205        1.25066       -2.38949
| 19> *
| 20>
| 21> %MaxCore 64000
| 22>
| 23> %pal nprocs 4
| 24> end
| 25>
| 26> %scf
| 27>   MaxIter 150
| 28> end
| 29>
| 30>
| 31>                          ****END OF INPUT****

CARTESIAN COORDINATES (ANGSTROEM)
---------------------------------
  C      3.905950    2.819850   -3.752920
  N      5.295620    3.131510   -4.105330
  C      3.803510    1.374720   -3.260810
  C      5.708620    3.468890   -5.324190
  C      6.904700    3.038950   -5.717080
  N      4.981880    4.293570   -6.097460
  H      5.000550    4.101310   -7.087760
  H      4.084690    4.596900   -5.739650
  H      5.963360    2.526110   -3.642390
  H      7.047160    2.066860   -5.473600
  H      7.198150    3.307990   -6.645230
  H      3.282020    2.949190   -4.640260
  H      3.565250    3.514570   -2.982520
  H      4.141570    0.711420   -4.029350
  H      2.785280    1.151460   -3.019440
  H      4.412050    1.250660   -2.389490

 Total Charge           Charge          ....    0
 Multiplicity           Mult            ....    1
 Number of Electrons    NEL             ....   48
 Basis Dimension        Dim             ....  134

ORBITAL ENERGIES
----------------

  NO   OCC          E(Eh)            E(eV)
   0   2.0000     -13.994651      -380.8138
   1   2.0000     -13.993046      -380.7702
   2   2.0000      -9.931056      -270.2378
   3   2.0000      -9.926273      -270.1076
   4   2.0000      -9.894368      -269.2394
   5   2.0000      -9.801948      -266.7246
   6   2.0000      -0.872991       -23.7553
   7   2.0000      -0.796511       -21.6742
   8   2.0000      -0.693243       -18.8641
   9   2.0000      -0.625750       -17.0275
  10   2.0000      -0.559796       -15.2328
  11   2.0000      -0.532442       -14.4885
  12   2.0000      -0.475332       -12.9345
  13   2.0000      -0.439178       -11.9506
  14   2.0000      -0.430037       -11.7019
  15   2.0000      -0.401047       -10.9131
  16   2.0000      -0.370195       -10.0735
  17   2.0000      -0.349524        -9.5110
  18   2.0000      -0.331867        -9.0306
  19   2.0000      -0.324710        -8.8358
  20   2.0000      -0.323631        -8.8064
  21   2.0000      -0.285487        -7.7685
  22   2.0000      -0.210378        -5.7247
  23   2.0000      -0.132050        -3.5933
  24   0.0000       0.022676         0.6170
  25   0.0000       0.038611         1.0507
  26   0.0000       0.052152         1.4191
  27   0.0000       0.064297         1.7496
  28   0.0000       0.082485         2.2445

MULLIKEN ATOMIC CHARGES
-----------------------
   0 C :    0.058843
   1 N :   -0.101696
   2 C :   -0.042718
   3 C :   -0.126359
   4 C :   -0.061489
   5 N :   -0.049679
   6 H :    0.122177
   7 H :    0.091366
   8 H :    0.104524
   9 H :   -0.041358
  10 H :   -0.066274
  11 H :    0.003517
  12 H :    0.023404
  13 H :    0.031878
  14 H :    0.023580
  15 H :    0.030286
Sum of atomic charges:   -0.0000000

LOEWDIN ATOMIC CHARGES
----------------------
   0 C :    0.018931
   1 N :   -0.010365
   2 C :   -0.065661
   3 C :    0.001239
   4 C :   -0.252407
   5 N :   -0.000837
   6 H :    0.077649
   7 H :    0.058578
   8 H :    0.078241
   9 H :   -0.007038
  10 H :   -0.010884
  11 H :    0.013770
  12 H :    0.016855
  13 H :    0.027171
  14 H :    0.029281
  15 H :    0.025476

  Mayer bond orders larger than 0.100000
B(  0-C ,  1-N ) :   1.0089 B(  0-C ,  2-C ) :   1.1216 B(  0-C , 11-H ) :   0.9328
B(  0-C , 12-H ) :   0.9426 B(  1-N ,  3-C ) :   1.2352 B(  1-N ,  8-H ) :   0.9240
B(  2-C , 13-H ) :   0.9693 B(  2-C , 14-H ) :   0.9567 B(  2-C , 15-H ) :   0.9656
B(  3-C ,  4-C ) :   1.7068 B(  3-C ,  5-N ) :   1.2152 B(  4-C ,  9-H ) :   0.9364
B(  4-C , 10-H ) :   0.9366 B(  5-N ,  6-H ) :   0.9468 B(  5-N ,  7-H ) :   0.9467

Dispersion correction           -0.012608799
FINAL SINGLE POINT ENERGY      -267.353767580987

DIPOLE MOMENT
-------------
                                X             Y             Z
Electronic contribution:      1.54204       3.30322      -1.29439
Nuclear contribution   :     -2.93222      -3.63618       1.36440
                        -----------------------------------------
Total Dipole Moment    :     -1.39018      -0.33296       0.07001
                        -----------------------------------------
Magnitude (a.u.)       :      1.43121
Magnitude (Debye)      :      3.63786

Rotational constants in cm-1:     0.237993     0.072843     0.061284
Rotational constants in MHz :  7134.860770  2183.763760  1837.240960

                             ****ORCA TERMINATED NORMALLY****
TOTAL RUN TIME: 0 days 0 hours 0 minutes 9 seconds 259 msec
