                         Program Version 5.0.0 -  RELEASE  -
|  1> !PBE D3BJ RIJCOSX def2-SVP def2/J TightSCF
|  2> *xyz 0 1
|  3> C          3.90595        2.81985       -3.75292
|  4> N          5.29562        3.13151       -4.10533
|  5> C          3.80351        1.37472       -3.26081
|  6> C          5.70862        3.46889       -5.32419
|  7> N          6.90470        3.03895       -5.71708
|  8> C          4.98188        4.29357       -6.09746
|  9> H          5.00055        4.10131       -7.08776
| 10> H          4.08469        4.59690       -5.73965
| 11> H          5.96336        2.52611       -3.64239
| 12> H          7.04716        2.06686       -5.47360
| 13> H          7.19815        3.30799       -6.64523
| 14> H          3.28202        2.94919       -4.64026
| 15> H          3.56525        3.51457       -2.98252
| 16> H          4.14157        0.71142       -4.02935
| 17> H          2.78528        1.15146       -3.01944
| 18> H          4.41205        1.25066       -2.38949
| 19> *
| 20>
| 21> %MaxCore 64000
| 22>
| 23> %pal nprocs 4
| 24> end
| 25>
| 26> %scf
| 27>   MaxIter 150
| 28> end
| 29>
| 30>
| 31>                          ****END OF INPUT****

CARTESIAN COORDINATES (ANGSTROEM)
---------------------------------
  C      3.905950    2.819850   -3.752920
  N      5.295620    3.131510   -4.105330
  C      3.803510    1.374720   -3.260810
  C      5.708620    3.468890   -5.324190
  N      6.904700    3.038950   -5.717080
  C      4.981880    4.293570   -6.097460
  H      5.000550    4.101310   -7.087760
  H      4.084690    4.596900   -5.739650
  H      5.963360    2.526110   -3.642390
  H      7.047160    2.066860   -5.473600
  H      7.198150    3.307990   -6.645230
  H      3.282020    2.949190   -4.640260
  H      3.565250    3.514570   -2.982520
  H      4.141570    0.711420   -4.029350
  H      2.785280    1.151460   -3.019440
  H      4.412050    1.250660   -2.389490

 Total Charge           Charge          ....    0
 Multiplicity           Mult            ....    1
 Number of Electrons    NEL             ....   48
 Basis Dimension        Dim             ....  134

ORBITAL ENERGIES
----------------

  NO   OCC          E(Eh)            E(eV)
   0   2.0000     -13.995718      -380.8429
   1   2.0000     -13.993294      -380.7769
   2   2.0000      -9.925998      -270.1001
   3   2.0000      -9.924767      -270.0666
   4   2.0000      -9.892230      -269.1813
   5   2.0000      -9.807376      -266.8723
   6   2.0000      -0.877939       -23.8899
   7   2.0000      -0.798579       -21.7304
   8   2.0000      -0.683136       -18.5891
   9   2.0000      -0.625850       -17.0303
  10   2.0000      -0.574305       -15.6276
  11   2.0000      -0.503218       -13.6933
  12   2.0000      -0.478206       -13.0126
  13   2.0000      -0.458592       -12.4789
  14   2.0000      -0.418062       -11.3760
  15   2.0000      -0.405728       -11.0404
  16   2.0000      -0.354826        -9.6553
  17   2.0000      -0.351665        -9.5693
  18   2.0000      -0.339908        -9.2494
  19   2.0000      -0.324047        -8.8178
  20   2.0000      -0.315658        -8.5895
  21   2.0000      -0.287234        -7.8160
  22   2.0000      -0.207927        -5.6580
  23   2.0000      -0.136266        -3.7080
  24   0.0000       0.020075         0.5463
  25   0.0000       0.042560         1.1581
  26   0.0000       0.054018         1.4699
  27   0.0000       0.067626         1.8402
  28   0.0000       0.081970         2.2305

MULLIKEN ATOMIC CHARGES
-----------------------
   0 C :    0.084992
   1 N :   -0.116711
   2 C :   -0.047754
   3 C :   -0.123488
   4 N :   -0.033729
   5 C :   -0.067071
   6 H :   -0.046277
   7 H :   -0.049205
   8 H :    0.081803
   9 H :    0.088599
  10 H :    0.107764
  11 H :    0.026009
  12 H :    0.023644
  13 H :    0.020878
  14 H :    0.025817
  15 H :    0.024728
Sum of atomic charges:   -0.0000000

LOEWDIN ATOMIC CHARGES
----------------------
   0 C :    0.033284
   1 N :   -0.007063
   2 C :   -0.068415
   3 C :   -0.006299
   4 N :   -0.004403
   5 C :   -0.241156
   6 H :   -0.008008
   7 H :   -0.008505
   8 H :    0.057035
   9 H :    0.054177
  10 H :    0.078488
  11 H :    0.025838
  12 H :    0.019616
  13 H :    0.022308
  14 H :    0.030847
  15 H :    0.022255

  Mayer bond orders larger than 0.100000
B(  0-C ,  1-N ) :   1.0113 B(  0-C ,  2-C ) :   1.1206 B(  0-C , 11-H ) :   0.9272
B(  0-C , 12-H ) :   0.9453 B(  1-N ,  3-C ) :   1.2018 B(  1-N ,  8-H ) :   0.9293
B(  2-C , 13-H ) :   0.9686 B(  2-C , 14-H ) :   0.9564 B(  2-C , 15-H ) :   0.9648
B(  3-C ,  4-N ) :   1.2395 B(  3-C ,  5-C ) :   1.7009 B(  4-N ,  9-H ) :   0.9393
B(  4-N , 10-H ) :   0.9419 B(  5-C ,  6-H ) :   0.9327 B(  5-C ,  7-H ) :   0.9304

Dispersion correction           -0.012639025
FINAL SINGLE POINT ENERGY      -267.357891330189

DIPOLE MOMENT
-------------
                                X             Y             Z
Electronic contribution:      3.50634       2.07898      -0.98822
Nuclear contribution   :     -3.34013      -3.37002       1.28371
                        -----------------------------------------
Total Dipole Moment    :      0.16620      -1.29104       0.29549
                        -----------------------------------------
Magnitude (a.u.)       :      1.33481
Magnitude (Debye)      :      3.39282

Rotational constants in cm-1:     0.239537     0.072280     0.060961
Rotational constants in MHz :  7181.153552  2166.902802  1827.551447

                             ****ORCA TERMINATED NORMALLY****
TOTAL RUN TIME: 0 days 0 hours 0 minutes 9 seconds 669 msec
