                         Program Version 5.0.0 -  RELEASE  -
|  1> !PBE D3BJ RIJCOSX def2-TZVP def2/J TightSCF xyzfile
|  2>
|  3> *xyzfile 0 1 D2.xyz
|  4>
|  5> %MaxCore 64000
|  6>
|  7> %pal nprocs 18
|  8> end
|  9>
| 10> %scf
| 11>   MaxIter 150
| 12> end
| 13>
| 14>
| 15>                          ****END OF INPUT****

CARTESIAN COORDINATES (ANGSTROEM)
---------------------------------
  C      3.905947    2.819855   -3.752920
  N      5.295615    3.131515   -4.105334
  C      3.803511    1.374716   -3.260807
  C      3.939934    0.320362   -4.367729
  H      4.105043   -0.655085   -3.907733
  H      3.022801    0.280517   -4.957117
  C      5.105846    0.668022   -5.305463
  C      5.708619    3.468885   -5.324190
  C      6.904696    3.038954   -5.717084
  N      4.981884    4.293570   -6.097457
  H      5.000546    4.101311   -7.087761
  H      4.084693    4.596899   -5.739652
  H      5.963358    2.526112   -3.642391
  H      7.047164    2.066861   -5.473604
  H      7.198145    3.307994   -6.645225
  H      3.282025    2.949187   -4.640259
  H      3.565254    3.514574   -2.982523
  H      4.574833    1.215157   -2.500443
  H      2.843514    1.260845   -2.751465
  F      4.809132    1.150187   -6.414361
  O      6.267366    0.564999   -4.819481

 Total Charge           Charge          ....    0
 Multiplicity           Mult            ....    1
 Number of Electrons    NEL             ....   78
 Basis Dimension        Dim             ....  376

ORBITAL ENERGIES
----------------

  NO   OCC          E(Eh)            E(eV)
   0   2.0000     -24.332102      -662.1102
   1   2.0000     -18.753412      -510.3063
   2   2.0000     -13.988266      -380.6401
   3   2.0000     -13.982555      -380.4847
   4   2.0000     -10.053262      -273.5632
   5   2.0000      -9.927612      -270.1441
   6   2.0000      -9.918123      -269.8858
   7   2.0000      -9.911508      -269.7058
   8   2.0000      -9.911280      -269.6996
   9   2.0000      -9.776808      -266.0405
  10   2.0000      -1.226113       -33.3642
  11   2.0000      -0.949209       -25.8293
  12   2.0000      -0.887458       -24.1490
  13   2.0000      -0.812148       -22.0997
  14   2.0000      -0.745723       -20.2921
  15   2.0000      -0.674777       -18.3616
  16   2.0000      -0.632082       -17.1998
  17   2.0000      -0.599613       -16.3163
  18   2.0000      -0.561147       -15.2696
  19   2.0000      -0.538991       -14.6667
  20   2.0000      -0.500827       -13.6282
  21   2.0000      -0.488561       -13.2944
  22   2.0000      -0.477425       -12.9914
  23   2.0000      -0.456030       -12.4092
  24   2.0000      -0.446921       -12.1613
  25   2.0000      -0.432098       -11.7580
  26   2.0000      -0.420818       -11.4510
  27   2.0000      -0.393080       -10.6962
  28   2.0000      -0.371599       -10.1117
  29   2.0000      -0.360155        -9.8003
  30   2.0000      -0.345984        -9.4147
  31   2.0000      -0.343931        -9.3588
  32   2.0000      -0.325176        -8.8485
  33   2.0000      -0.322976        -8.7886
  34   2.0000      -0.302550        -8.2328
  35   2.0000      -0.291196        -7.9238
  36   2.0000      -0.235187        -6.3998
  37   2.0000      -0.218176        -5.9369
  38   2.0000      -0.135668        -3.6917
  39   0.0000      -0.074964        -2.0399
  40   0.0000      -0.001182        -0.0322
  41   0.0000       0.016475         0.4483
  42   0.0000       0.028168         0.7665
  43   0.0000       0.035494         0.9658

MULLIKEN ATOMIC CHARGES
-----------------------
   0 C :   -0.125387
   1 N :   -0.219275
   2 C :   -0.249699
   3 C :   -0.184202
   4 H :    0.128612
   5 H :    0.101087
   6 C :    0.320257
   7 C :    0.168854
   8 C :   -0.456289
   9 N :   -0.424325
  10 H :    0.235212
  11 H :    0.202720
  12 H :    0.220936
  13 H :    0.134042
  14 H :    0.057863
  15 H :    0.084607
  16 H :    0.122236
  17 H :    0.127740
  18 H :    0.108593
  19 F :   -0.042925
  20 O :   -0.310654
Sum of atomic charges:    0.0000000

LOEWDIN ATOMIC CHARGES
----------------------
   0 C :   -0.293445
   1 N :    0.137744
   2 C :   -0.264642
   3 C :   -0.236175
   4 H :    0.156976
   5 H :    0.141986
   6 C :   -0.538767
   7 C :   -0.514144
   8 C :   -0.334643
   9 N :   -0.002741
  10 H :    0.171496
  11 H :    0.154408
  12 H :    0.199414
  13 H :    0.104445
  14 H :    0.095340
  15 H :    0.130775
  16 H :    0.129960
  17 H :    0.146697
  18 H :    0.143561
  19 F :    0.382996
  20 O :    0.088758

  Mayer bond orders larger than 0.100000
B(  0-C ,  1-N ) :   0.9835 B(  0-C ,  2-C ) :   1.0010 B(  0-C , 15-H ) :   0.9532
B(  0-C , 16-H ) :   0.9487 B(  1-N ,  7-C ) :   1.2058 B(  1-N , 12-H ) :   0.9103
B(  2-C ,  3-C ) :   1.0019 B(  2-C , 17-H ) :   0.9533 B(  2-C , 18-H ) :   0.9390
B(  3-C ,  4-H ) :   0.9315 B(  3-C ,  5-H ) :   0.9317 B(  3-C ,  6-C ) :   1.0063
B(  6-C , 19-F ) :   1.2150 B(  6-C , 20-O ) :   2.0144 B(  7-C ,  8-C ) :   1.6789
B(  7-C ,  9-N ) :   1.0933 B(  8-C , 13-H ) :   0.9406 B(  8-C , 14-H ) :   1.0028
B(  9-N , 10-H ) :   0.9183 B(  9-N , 11-H ) :   0.9267

Dispersion correction           -0.022717319
FINAL SINGLE POINT ENERGY      -519.367928096985

DIPOLE MOMENT
-------------
                                X             Y             Z
Electronic contribution:      2.15598      -3.70328      -5.21142
Nuclear contribution   :     -4.40347       3.21582       5.36161
                        -----------------------------------------
Total Dipole Moment    :     -2.24749      -0.48747       0.15020
                        -----------------------------------------
Magnitude (a.u.)       :      2.30465
Magnitude (Debye)      :      5.85794

Rotational constants in cm-1:     0.061226     0.043199     0.033926
Rotational constants in MHz :  1835.503528  1295.087558  1017.061512

                             ****ORCA TERMINATED NORMALLY****
TOTAL RUN TIME: 0 days 0 hours 0 minutes 10 seconds 689 msec
