                         Program Version 5.0.0 -  RELEASE  -
|  1> !PBE D3BJ RIJCOSX def2-TZVP def2/J TightSCF xyzfile
|  2>
|  3> *xyzfile 0 1 D5.xyz
|  4>
|  5> %MaxCore 64000
|  6>
|  7> %pal nprocs 18
|  8> end
|  9>
| 10> %scf
| 11>   MaxIter 150
| 12> end
| 13>
| 14>
| 15>                          ****END OF INPUT****

CARTESIAN COORDINATES (ANGSTROEM)
---------------------------------
  C      3.905947    2.819855   -3.752920
  N      5.295615    3.131515   -4.105334
  C      3.803511    1.374716   -3.260807
  C      3.939934    0.320362   -4.367729
  H      4.105043   -0.655085   -3.907733
  H      3.022801    0.280517   -4.957117
  C      5.105846    0.668022   -5.305463
  C      5.708619    3.468885   -5.324190
  C      6.904696    3.038954   -5.717084
  N      4.981884    4.293570   -6.097457
  H      5.000546    4.101311   -7.087761
  H      4.084693    4.596899   -5.739652
  H      5.963358    2.526112   -3.642391
  H      7.047164    2.066861   -5.473604
  H      7.198145    3.307994   -6.645225
  H      3.282025    2.949187   -4.640259
  H      3.565254    3.514574   -2.982523
  H      4.574833    1.215157   -2.500443
  H      2.843514    1.260845   -2.751465
  O      4.809132    1.150187   -6.414361
  F      6.267366    0.564999   -4.819481

 Total Charge           Charge          ....    0
 Multiplicity           Mult            ....    1
 Number of Electrons    NEL             ....   78
 Basis Dimension        Dim             ....  376

ORBITAL ENERGIES
----------------

  NO   OCC          E(Eh)            E(eV)
   0   2.0000     -24.324989      -661.9166
   1   2.0000     -18.752867      -510.2915
   2   2.0000     -13.993679      -380.7874
   3   2.0000     -13.980135      -380.4188
   4   2.0000     -10.046276      -273.3731
   5   2.0000      -9.927036      -270.1284
   6   2.0000      -9.915784      -269.8222
   7   2.0000      -9.913935      -269.7719
   8   2.0000      -9.912369      -269.7293
   9   2.0000      -9.782801      -266.2035
  10   2.0000      -1.215485       -33.0750
  11   2.0000      -0.952205       -25.9108
  12   2.0000      -0.889235       -24.1973
  13   2.0000      -0.811893       -22.0927
  14   2.0000      -0.745700       -20.2915
  15   2.0000      -0.674600       -18.3568
  16   2.0000      -0.632971       -17.2240
  17   2.0000      -0.594582       -16.1794
  18   2.0000      -0.562292       -15.3007
  19   2.0000      -0.542596       -14.7648
  20   2.0000      -0.496079       -13.4990
  21   2.0000      -0.492056       -13.3895
  22   2.0000      -0.468174       -12.7397
  23   2.0000      -0.451338       -12.2815
  24   2.0000      -0.446630       -12.1534
  25   2.0000      -0.435271       -11.8443
  26   2.0000      -0.417799       -11.3689
  27   2.0000      -0.392993       -10.6939
  28   2.0000      -0.371914       -10.1203
  29   2.0000      -0.359524        -9.7831
  30   2.0000      -0.346049        -9.4165
  31   2.0000      -0.336521        -9.1572
  32   2.0000      -0.329935        -8.9780
  33   2.0000      -0.321422        -8.7463
  34   2.0000      -0.315646        -8.5892
  35   2.0000      -0.281363        -7.6563
  36   2.0000      -0.242197        -6.5905
  37   2.0000      -0.221095        -6.0163
  38   2.0000      -0.136793        -3.7223
  39   0.0000      -0.065996        -1.7958
  40   0.0000       0.000096         0.0026
  41   0.0000       0.014498         0.3945
  42   0.0000       0.028731         0.7818
  43   0.0000       0.036487         0.9929

MULLIKEN ATOMIC CHARGES
-----------------------
   0 C :   -0.105505
   1 N :   -0.213425
   2 C :   -0.276227
   3 C :   -0.177568
   4 H :    0.119365
   5 H :    0.116028
   6 C :    0.287041
   7 C :    0.205051
   8 C :   -0.428006
   9 N :   -0.429733
  10 H :    0.243927
  11 H :    0.203005
  12 H :    0.201947
  13 H :    0.084522
  14 H :    0.062009
  15 H :    0.093724
  16 H :    0.121068
  17 H :    0.125845
  18 H :    0.109359
  19 O :   -0.260183
  20 F :   -0.082244
Sum of atomic charges:   -0.0000000

LOEWDIN ATOMIC CHARGES
----------------------
   0 C :   -0.290322
   1 N :    0.138007
   2 C :   -0.270627
   3 C :   -0.235607
   4 H :    0.147840
   5 H :    0.154071
   6 C :   -0.547849
   7 C :   -0.503452
   8 C :   -0.333738
   9 N :    0.006673
  10 H :    0.175820
  11 H :    0.155836
  12 H :    0.192035
  13 H :    0.097378
  14 H :    0.097479
  15 H :    0.136173
  16 H :    0.129939
  17 H :    0.142371
  18 H :    0.143723
  19 O :    0.123281
  20 F :    0.340967

  Mayer bond orders larger than 0.100000
B(  0-C ,  1-N ) :   0.9717 B(  0-C ,  2-C ) :   0.9963 B(  0-C , 15-H ) :   0.9510
B(  0-C , 16-H ) :   0.9472 B(  1-N ,  7-C ) :   1.2063 B(  1-N , 12-H ) :   0.9149
B(  2-C ,  3-C ) :   0.9910 B(  2-C , 17-H ) :   0.9586 B(  2-C , 18-H ) :   0.9364
B(  3-C ,  4-H ) :   0.9282 B(  3-C ,  5-H ) :   0.9473 B(  3-C ,  6-C ) :   1.0166
B(  6-C , 19-O ) :   2.0936 B(  6-C , 20-F ) :   1.1494 B(  7-C ,  8-C ) :   1.6649
B(  7-C ,  9-N ) :   1.1033 B(  8-C , 13-H ) :   0.9651 B(  8-C , 14-H ) :   1.0031
B(  9-N , 10-H ) :   0.9184 B(  9-N , 11-H ) :   0.9284

Dispersion correction           -0.022754392
FINAL SINGLE POINT ENERGY      -519.372693484975

DIPOLE MOMENT
-------------
                                X             Y             Z
Electronic contribution:      4.48897      -4.55389      -2.66589
Nuclear contribution   :     -6.05797       3.87976       3.55209
                        -----------------------------------------
Total Dipole Moment    :     -1.56899      -0.67413       0.88619
                        -----------------------------------------
Magnitude (a.u.)       :      1.92394
Magnitude (Debye)      :      4.89026

Rotational constants in cm-1:     0.061282     0.043164     0.033679
Rotational constants in MHz :  1837.191639  1294.028651  1009.659886

                             ****ORCA TERMINATED NORMALLY****
TOTAL RUN TIME: 0 days 0 hours 0 minutes 12 seconds 570 msec
