                         Program Version 5.0.0 -  RELEASE  -
|  1> !PBE D3BJ RIJCOSX def2-TZVP def2/J TightSCF xyzfile
|  2>
|  3> *xyzfile 0 1 D6.xyz
|  4>
|  5> %MaxCore 64000
|  6>
|  7> %pal nprocs 18
|  8> end
|  9>
| 10> %scf
| 11>   MaxIter 150
| 12> end
| 13>
| 14>
| 15>                          ****END OF INPUT****

CARTESIAN COORDINATES (ANGSTROEM)
---------------------------------
  C      3.905947    2.819855   -3.752920
  N      5.295615    3.131515   -4.105334
  C      3.803511    1.374716   -3.260807
  C      3.939934    0.320362   -4.367729
  H      4.105043   -0.655085   -3.907733
  H      3.022801    0.280517   -4.957117
  C      5.105846    0.668022   -5.305463
  C      5.708619    3.468885   -5.324190
  N      6.904696    3.038954   -5.717084
  C      4.981884    4.293570   -6.097457
  H      5.000546    4.101311   -7.087761
  H      4.084693    4.596899   -5.739652
  H      5.963358    2.526112   -3.642391
  H      7.047164    2.066861   -5.473604
  H      7.198145    3.307994   -6.645225
  H      3.282025    2.949187   -4.640259
  H      3.565254    3.514574   -2.982523
  H      4.574833    1.215157   -2.500443
  H      2.843514    1.260845   -2.751465
  O      4.809132    1.150187   -6.414361
  F      6.267366    0.564999   -4.819481

 Total Charge           Charge          ....    0
 Multiplicity           Mult            ....    1
 Number of Electrons    NEL             ....   78
 Basis Dimension        Dim             ....  376

ORBITAL ENERGIES
----------------

  NO   OCC          E(Eh)            E(eV)
   0   2.0000     -24.340811      -662.3471
   1   2.0000     -18.760113      -510.4886
   2   2.0000     -13.997082      -380.8800
   3   2.0000     -13.972612      -380.2141
   4   2.0000     -10.051254      -273.5085
   5   2.0000      -9.923683      -270.0372
   6   2.0000      -9.918097      -269.8851
   7   2.0000      -9.915935      -269.8263
   8   2.0000      -9.911721      -269.7116
   9   2.0000      -9.794854      -266.5315
  10   2.0000      -1.231224       -33.5033
  11   2.0000      -0.958757       -26.0891
  12   2.0000      -0.893661       -24.3178
  13   2.0000      -0.814094       -22.1526
  14   2.0000      -0.743355       -20.2277
  15   2.0000      -0.669009       -18.2047
  16   2.0000      -0.635943       -17.3049
  17   2.0000      -0.613814       -16.7027
  18   2.0000      -0.573179       -15.5970
  19   2.0000      -0.518344       -14.1048
  20   2.0000      -0.512159       -13.9366
  21   2.0000      -0.502086       -13.6625
  22   2.0000      -0.470488       -12.8026
  23   2.0000      -0.455732       -12.4011
  24   2.0000      -0.448474       -12.2036
  25   2.0000      -0.433213       -11.7883
  26   2.0000      -0.428702       -11.6656
  27   2.0000      -0.384400       -10.4601
  28   2.0000      -0.374890       -10.2013
  29   2.0000      -0.359859        -9.7923
  30   2.0000      -0.346905        -9.4398
  31   2.0000      -0.341967        -9.3054
  32   2.0000      -0.336015        -9.1434
  33   2.0000      -0.323597        -8.8055
  34   2.0000      -0.317984        -8.6528
  35   2.0000      -0.288798        -7.8586
  36   2.0000      -0.248496        -6.7619
  37   2.0000      -0.216699        -5.8967
  38   2.0000      -0.144480        -3.9315
  39   0.0000      -0.071246        -1.9387
  40   0.0000       0.000601         0.0164
  41   0.0000       0.023584         0.6418
  42   0.0000       0.032751         0.8912
  43   0.0000       0.041157         1.1199

MULLIKEN ATOMIC CHARGES
-----------------------
   0 C :   -0.080530
   1 N :   -0.206113
   2 C :   -0.279553
   3 C :   -0.172941
   4 H :    0.117794
   5 H :    0.120787
   6 C :    0.257810
   7 C :    0.168236
   8 N :   -0.362125
   9 C :   -0.449181
  10 H :    0.096738
  11 H :    0.067428
  12 H :    0.173094
  13 H :    0.196903
  14 H :    0.227269
  15 H :    0.117146
  16 H :    0.120315
  17 H :    0.122053
  18 H :    0.112678
  19 O :   -0.244749
  20 F :   -0.103062
Sum of atomic charges:    0.0000000

LOEWDIN ATOMIC CHARGES
----------------------
   0 C :   -0.273759
   1 N :    0.144697
   2 C :   -0.270829
   3 C :   -0.235001
   4 H :    0.147341
   5 H :    0.156130
   6 C :   -0.562990
   7 C :   -0.511902
   8 N :    0.005805
   9 C :   -0.317316
  10 H :    0.101425
  11 H :    0.097077
  12 H :    0.174026
  13 H :    0.148205
  14 H :    0.174903
  15 H :    0.146891
  16 H :    0.132518
  17 H :    0.140668
  18 H :    0.145160
  19 O :    0.132395
  20 F :    0.324555

  Mayer bond orders larger than 0.100000
B(  0-C ,  1-N ) :   0.9701 B(  0-C ,  2-C ) :   0.9937 B(  0-C , 15-H ) :   0.9474
B(  0-C , 16-H ) :   0.9525 B(  1-N ,  7-C ) :   1.1635 B(  1-N , 12-H ) :   0.9188
B(  2-C ,  3-C ) :   0.9921 B(  2-C , 17-H ) :   0.9591 B(  2-C , 18-H ) :   0.9385
B(  3-C ,  4-H ) :   0.9259 B(  3-C ,  5-H ) :   0.9463 B(  3-C ,  6-C ) :   1.0136
B(  6-C , 19-O ) :   2.1000 B(  6-C , 20-F ) :   1.1012 B(  7-C ,  8-N ) :   1.2275
B(  7-C ,  9-C ) :   1.6482 B(  8-N , 13-H ) :   0.9106 B(  8-N , 14-H ) :   0.9211
B(  9-C , 10-H ) :   0.9683 B(  9-C , 11-H ) :   0.9945

Dispersion correction           -0.022754360
FINAL SINGLE POINT ENERGY      -519.383312757033

DIPOLE MOMENT
-------------
                                X             Y             Z
Electronic contribution:      6.04633      -5.52600      -2.39186
Nuclear contribution   :     -6.29470       4.03423       3.50525
                        -----------------------------------------
Total Dipole Moment    :     -0.24837      -1.49177       1.11340
                        -----------------------------------------
Magnitude (a.u.)       :      1.87796
Magnitude (Debye)      :      4.77339

Rotational constants in cm-1:     0.061094     0.043661     0.033867
Rotational constants in MHz :  1831.559881  1308.929520  1015.295167

                             ****ORCA TERMINATED NORMALLY****
TOTAL RUN TIME: 0 days 0 hours 0 minutes 10 seconds 682 msec
