                         Program Version 5.0.0 -  RELEASE  -
|  1> !M062X D3Zero RIJCOSX def2-SVPD def2/J TightSCF
|  2> *xyz -1 1
|  3> C         -0.50835        1.72268       -4.12430
|  4> S         -1.32861        0.14674       -4.43578
|  5> O         -2.57135        0.47573       -5.06834
|  6> O         -1.51496       -0.40051       -3.06342
|  7> O         -0.37793       -0.62756       -5.20114
|  8> H         -0.31967        2.21655       -5.05456
|  9> H          0.41835        1.54859       -3.61852
| 10> H         -1.13714        2.33776       -3.51504
| 11> *
| 12> %MaxCore 64000
| 13>
| 14> %pal nprocs 4
| 15> end
| 16>
| 17> %scf
| 18>   MaxIter 150
| 19> end
| 20>
| 21>
| 22>                          ****END OF INPUT****

CARTESIAN COORDINATES (ANGSTROEM)
---------------------------------
  C     -0.508350    1.722680   -4.124300
  S     -1.328610    0.146740   -4.435780
  O     -2.571350    0.475730   -5.068340
  O     -1.514960   -0.400510   -3.063420
  O     -0.377930   -0.627560   -5.201140
  H     -0.319670    2.216550   -5.054560
  H      0.418350    1.548590   -3.618520
  H     -1.137140    2.337760   -3.515040

 Total Charge           Charge          ....   -1
 Multiplicity           Mult            ....    1
 Number of Electrons    NEL             ....   50
 Basis Dimension        Dim             ....  140

ORBITAL ENERGIES
----------------

  NO   OCC          E(Eh)            E(eV)
   0   2.0000     -89.937269     -2447.3175
   1   2.0000     -19.419900      -528.4423
   2   2.0000     -19.416944      -528.3619
   3   2.0000     -19.401595      -527.9442
   4   2.0000     -10.399200      -282.9766
   5   2.0000      -8.260494      -224.7795
   6   2.0000      -6.185839      -168.3252
   7   2.0000      -6.185596      -168.3186
   8   2.0000      -6.185484      -168.3156
   9   2.0000      -1.050470       -28.5847
  10   2.0000      -0.910111       -24.7654
  11   2.0000      -0.878042       -23.8927
  12   2.0000      -0.666774       -18.1439
  13   2.0000      -0.468208       -12.7406
  14   2.0000      -0.383744       -10.4422
  15   2.0000      -0.363230        -9.8840
  16   2.0000      -0.362904        -9.8751
  17   2.0000      -0.321997        -8.7620
  18   2.0000      -0.319760        -8.7011
  19   2.0000      -0.227859        -6.2004
  20   2.0000      -0.225724        -6.1423
  21   2.0000      -0.190056        -5.1717
  22   2.0000      -0.176757        -4.8098
  23   2.0000      -0.164903        -4.4872
  24   2.0000      -0.136336        -3.7099
  25   0.0000       0.164753         4.4832
  26   0.0000       0.186355         5.0710
  27   0.0000       0.186791         5.0828
  28   0.0000       0.192332         5.2336
  29   0.0000       0.226167         6.1543

MULLIKEN ATOMIC CHARGES
-----------------------
   0 C :    0.458148
   1 S :    1.207890
   2 O :   -0.788344
   3 O :   -0.843131
   4 O :   -0.803639
   5 H :   -0.084723
   6 H :   -0.072569
   7 H :   -0.073631
Sum of atomic charges:   -1.0000000

LOEWDIN ATOMIC CHARGES
----------------------
   0 C :    0.056076
   1 S :    0.872867
   2 O :   -0.590405
   3 O :   -0.622734
   4 O :   -0.597032
   5 H :   -0.041729
   6 H :   -0.038315
   7 H :   -0.038729

  Mayer bond orders larger than 0.100000
B(  0-C ,  1-S ) :   0.9240 B(  0-C ,  5-H ) :   0.9324 B(  0-C ,  6-H ) :   0.9323
B(  0-C ,  7-H ) :   0.9318 B(  1-S ,  2-O ) :   1.3134 B(  1-S ,  3-O ) :   1.2751
B(  1-S ,  4-O ) :   1.3017 B(  1-S ,  5-H ) :   0.1078 B(  1-S ,  6-H ) :   0.1185
B(  1-S ,  7-H ) :   0.1161

Dispersion correction           -0.000041959
FINAL SINGLE POINT ENERGY      -663.359045327435

DIPOLE MOMENT
-------------
                                X             Y             Z
Electronic contribution:     -1.98711      -3.73366      -0.90748
Nuclear contribution   :      2.60425       5.03732       0.91691
                        -----------------------------------------
Total Dipole Moment    :      0.61714       1.30366       0.00942
                        -----------------------------------------
Magnitude (a.u.)       :      1.44238
Magnitude (Debye)      :      3.66624

Rotational constants in cm-1:     0.171343     0.157827     0.155747
Rotational constants in MHz :  5136.740483  4731.521814  4669.189064

                             ****ORCA TERMINATED NORMALLY****
TOTAL RUN TIME: 0 days 0 hours 0 minutes 13 seconds 2 msec
