                         Program Version 5.0.0 -  RELEASE  -
|  1> !M062X D3Zero RIJCOSX def2-SVPD def2/J TightSCF
|  2> *xyz 1 1
|  3> C          1.36401        0.46874       -2.81376
|  4> N          0.42884        0.32140       -1.65531
|  5> H          0.74858       -0.40054       -1.00134
|  6> H         -0.46105        0.02333       -2.07773
|  7> H          0.31026        1.20137       -1.13495
|  8> H          0.99872        1.22859       -3.47261
|  9> H          1.42772       -0.46011       -3.34109
| 10> H          2.33442        0.74312       -2.45611
| 11> *
| 12> %MaxCore 64000
| 13>
| 14> %pal nprocs 4
| 15> end
| 16>
| 17> %scf
| 18>   MaxIter 150
| 19> end
| 20>
| 21>
| 22>                          ****END OF INPUT****

CARTESIAN COORDINATES (ANGSTROEM)
---------------------------------
  C      1.364010    0.468740   -2.813760
  N      0.428840    0.321400   -1.655310
  H      0.748580   -0.400540   -1.001340
  H     -0.461050    0.023330   -2.077730
  H      0.310260    1.201370   -1.134950
  H      0.998720    1.228590   -3.472610
  H      1.427720   -0.460110   -3.341090
  H      2.334420    0.743120   -2.456110

 Total Charge           Charge          ....    1
 Multiplicity           Mult            ....    1
 Number of Electrons    NEL             ....   18
 Basis Dimension        Dim             ....   88

ORBITAL ENERGIES
----------------

  NO   OCC          E(Eh)            E(eV)
   0   2.0000     -15.110313      -411.1725
   1   2.0000     -10.811232      -294.1886
   2   2.0000      -1.321857       -35.9696
   3   2.0000      -1.022067       -27.8119
   4   2.0000      -0.888298       -24.1718
   5   2.0000      -0.883637       -24.0450
   6   2.0000      -0.778963       -21.1967
   7   2.0000      -0.694258       -18.8917
   8   2.0000      -0.692330       -18.8393
   9   0.0000      -0.178521        -4.8578
  10   0.0000      -0.111712        -3.0398
  11   0.0000      -0.105570        -2.8727
  12   0.0000      -0.104785        -2.8513
  13   0.0000      -0.062830        -1.7097

MULLIKEN ATOMIC CHARGES
-----------------------
   0 C :    0.804094
   1 N :   -0.885738
   2 H :    0.374695
   3 H :    0.413492
   4 H :    0.378153
   5 H :   -0.023461
   6 H :   -0.017888
   7 H :   -0.043347
Sum of atomic charges:    1.0000000

LOEWDIN ATOMIC CHARGES
----------------------
   0 C :    0.288469
   1 N :    0.307087
   2 H :    0.108310
   3 H :    0.108445
   4 H :    0.113216
   5 H :    0.025569
   6 H :    0.025745
   7 H :    0.023159

  Mayer bond orders larger than 0.100000
B(  0-C ,  1-N ) :   0.8091 B(  0-C ,  5-H ) :   0.9107 B(  0-C ,  6-H ) :   0.9074
B(  0-C ,  7-H ) :   0.9382 B(  1-N ,  2-H ) :   0.7745 B(  1-N ,  3-H ) :   0.7236
B(  1-N ,  4-H ) :   0.7681

Dispersion correction           -0.000006189
FINAL SINGLE POINT ENERGY       -96.086754642517

DIPOLE MOMENT
-------------
                                X             Y             Z
Electronic contribution:     -0.67403      -0.09379       0.87373
Nuclear contribution   :      0.14628      -0.00095      -0.25828
                        -----------------------------------------
Total Dipole Moment    :     -0.52776      -0.09473       0.61545
                        -----------------------------------------
Magnitude (a.u.)       :      0.81626
Magnitude (Debye)      :      2.07477

Rotational constants in cm-1:     2.853706     0.682028     0.680630
Rotational constants in MHz : 85551.942317 20446.672693 20404.761959

                             ****ORCA TERMINATED NORMALLY****
TOTAL RUN TIME: 0 days 0 hours 0 minutes 5 seconds 248 msec
