                         Program Version 5.0.0 -  RELEASE  -
|  1> !M062X D3Zero RIJCOSX def2-SVPD def2/J TightSCF
|  2> *xyz 0 1
|  3> C         -0.50835        1.72268       -4.12430
|  4> S         -1.32861        0.14674       -4.43578
|  5> F         -2.57135        0.47573       -5.06834
|  6> O         -1.51496       -0.40051       -3.06342
|  7> O         -0.37793       -0.62756       -5.20114
|  8> H         -0.31967        2.21655       -5.05456
|  9> H          0.41835        1.54859       -3.61852
| 10> H         -1.13714        2.33776       -3.51504
| 11> *
| 12> %MaxCore 64000
| 13>
| 14> %pal nprocs 4
| 15> end
| 16>
| 17> %scf
| 18>   MaxIter 150
| 19> end
| 20>
| 21>
| 22>                          ****END OF INPUT****

CARTESIAN COORDINATES (ANGSTROEM)
---------------------------------
  C     -0.508350    1.722680   -4.124300
  S     -1.328610    0.146740   -4.435780
  F     -2.571350    0.475730   -5.068340
  O     -1.514960   -0.400510   -3.063420
  O     -0.377930   -0.627560   -5.201140
  H     -0.319670    2.216550   -5.054560
  H      0.418350    1.548590   -3.618520
  H     -1.137140    2.337760   -3.515040

 Total Charge           Charge          ....    0
 Multiplicity           Mult            ....    1
 Number of Electrons    NEL             ....   50
 Basis Dimension        Dim             ....  140

ORBITAL ENERGIES
----------------

  NO   OCC          E(Eh)            E(eV)
   0   2.0000     -90.206559     -2454.6453
   1   2.0000     -25.390325      -690.9059
   2   2.0000     -19.658880      -534.9453
   3   2.0000     -19.642942      -534.5116
   4   2.0000     -10.611833      -288.7627
   5   2.0000      -8.530639      -232.1305
   6   2.0000      -6.459167      -175.7629
   7   2.0000      -6.453588      -175.6111
   8   2.0000      -6.452865      -175.5914
   9   2.0000      -1.532781       -41.7091
  10   2.0000      -1.230073       -33.4720
  11   2.0000      -1.119815       -30.4717
  12   2.0000      -0.896522       -24.3956
  13   2.0000      -0.825746       -22.4697
  14   2.0000      -0.710193       -19.3253
  15   2.0000      -0.701999       -19.1024
  16   2.0000      -0.646607       -17.5951
  17   2.0000      -0.559610       -15.2278
  18   2.0000      -0.554112       -15.0782
  19   2.0000      -0.538794       -14.6613
  20   2.0000      -0.515374       -14.0240
  21   2.0000      -0.466698       -12.6995
  22   2.0000      -0.413325       -11.2471
  23   2.0000      -0.397147       -10.8069
  24   2.0000      -0.384413       -10.4604
  25   0.0000       0.004398         0.1197
  26   0.0000       0.038695         1.0530
  27   0.0000       0.044698         1.2163
  28   0.0000       0.046724         1.2714
  29   0.0000       0.068280         1.8580

MULLIKEN ATOMIC CHARGES
-----------------------
   0 C :    0.372318
   1 S :    1.355584
   2 F :   -0.391805
   3 O :   -0.700397
   4 O :   -0.661667
   5 H :    0.005638
   6 H :    0.006338
   7 H :    0.013991
Sum of atomic charges:   -0.0000000

LOEWDIN ATOMIC CHARGES
----------------------
   0 C :    0.127183
   1 S :    1.142409
   2 F :   -0.262789
   3 O :   -0.503076
   4 O :   -0.478548
   5 H :   -0.014678
   6 H :    0.001639
   7 H :   -0.012141

  Mayer bond orders larger than 0.100000
B(  0-C ,  1-S ) :   0.9922 B(  0-C ,  5-H ) :   0.9357 B(  0-C ,  6-H ) :   0.9349
B(  0-C ,  7-H ) :   0.9347 B(  1-S ,  2-F ) :   0.6681 B(  1-S ,  3-O ) :   1.4919
B(  1-S ,  4-O ) :   1.5205 B(  1-S ,  6-H ) :   0.1140

Dispersion correction           -0.000046978
FINAL SINGLE POINT ENERGY      -687.834463667138

DIPOLE MOMENT
-------------
                                X             Y             Z
Electronic contribution:     -4.04748      -3.13731      -1.99859
Nuclear contribution   :      3.90013       4.80063       1.59574
                        -----------------------------------------
Total Dipole Moment    :     -0.14735       1.66333      -0.40285
                        -----------------------------------------
Magnitude (a.u.)       :      1.71775
Magnitude (Debye)      :      4.36617

Rotational constants in cm-1:     0.163395     0.155047     0.147447
Rotational constants in MHz :  4898.460101  4648.206837  4420.340547

                             ****ORCA TERMINATED NORMALLY****
TOTAL RUN TIME: 0 days 0 hours 0 minutes 11 seconds 976 msec
