                         Program Version 5.0.0 -  RELEASE  -
|  1> !M062X D3Zero RIJCOSX def2-SVPD def2/J TightSCF
|  2> *xyz 0 1
|  3> C          1.36401        0.46874       -2.81376
|  4> C          0.42884        0.32140       -1.65531
|  5> H          0.74858       -0.40054       -1.00134
|  6> H         -0.46105        0.02333       -2.07773
|  7> H          0.31026        1.20137       -1.13495
|  8> H          0.99872        1.22859       -3.47261
|  9> H          1.42772       -0.46011       -3.34109
| 10> H          2.33442        0.74312       -2.45611
| 11> *
| 12> %MaxCore 64000
| 13>
| 14> %pal nprocs 4
| 15> end
| 16>
| 17> %scf
| 18>   MaxIter 150
| 19> end
| 20>
| 21>
| 22>                          ****END OF INPUT****

CARTESIAN COORDINATES (ANGSTROEM)
---------------------------------
  C      1.364010    0.468740   -2.813760
  C      0.428840    0.321400   -1.655310
  H      0.748580   -0.400540   -1.001340
  H     -0.461050    0.023330   -2.077730
  H      0.310260    1.201370   -1.134950
  H      0.998720    1.228590   -3.472610
  H      1.427720   -0.460110   -3.341090
  H      2.334420    0.743120   -2.456110

 Total Charge           Charge          ....    0
 Multiplicity           Mult            ....    1
 Number of Electrons    NEL             ....   18
 Basis Dimension        Dim             ....   88

ORBITAL ENERGIES
----------------

  NO   OCC          E(Eh)            E(eV)
   0   2.0000     -10.527129      -286.4577
   1   2.0000     -10.514557      -286.1156
   2   2.0000      -0.857937       -23.3457
   3   2.0000      -0.699720       -19.0404
   4   2.0000      -0.520698       -14.1689
   5   2.0000      -0.516822       -14.0634
   6   2.0000      -0.427743       -11.6395
   7   2.0000      -0.409699       -11.1485
   8   2.0000      -0.405299       -11.0288
   9   0.0000       0.045534         1.2391
  10   0.0000       0.075903         2.0654
  11   0.0000       0.128836         3.5058
  12   0.0000       0.129638         3.5276
  13   0.0000       0.147713         4.0195

MULLIKEN ATOMIC CHARGES
-----------------------
   0 C :    0.134464
   1 C :    0.465554
   2 H :   -0.167506
   3 H :   -0.119172
   4 H :   -0.157071
   5 H :   -0.049477
   6 H :   -0.042974
   7 H :   -0.063817
Sum of atomic charges:    0.0000000

LOEWDIN ATOMIC CHARGES
----------------------
   0 C :    0.073434
   1 C :    0.082559
   2 H :   -0.036298
   3 H :   -0.034521
   4 H :   -0.032348
   5 H :   -0.016630
   6 H :   -0.016225
   7 H :   -0.019971

  Mayer bond orders larger than 0.100000
B(  0-C ,  1-C ) :   1.4604 B(  0-C ,  2-H ) :   0.1537 B(  0-C ,  3-H ) :   0.1891
B(  0-C ,  4-H ) :   0.1482 B(  0-C ,  5-H ) :   0.8742 B(  0-C ,  6-H ) :   0.8709
B(  0-C ,  7-H ) :   0.9074 B(  1-C ,  2-H ) :   0.8167 B(  1-C ,  3-H ) :   0.8035
B(  1-C ,  4-H ) :   0.8300 B(  1-C ,  5-H ) :   0.1428 B(  1-C ,  6-H ) :   0.1449
B(  1-C ,  7-H ) :   0.1294

Dispersion correction           -0.000006121
FINAL SINGLE POINT ENERGY       -79.700346246377

DIPOLE MOMENT
-------------
                                X             Y             Z
Electronic contribution:     -0.00123       0.01894       0.06972
Nuclear contribution   :     -0.01491      -0.02598      -0.05743
                        -----------------------------------------
Total Dipole Moment    :     -0.01615      -0.00704       0.01229
                        -----------------------------------------
Magnitude (a.u.)       :      0.02148
Magnitude (Debye)      :      0.05460

Rotational constants in cm-1:     2.853707     0.712330     0.710805
Rotational constants in MHz : 85551.986377 21355.123158 21309.410122

                             ****ORCA TERMINATED NORMALLY****
TOTAL RUN TIME: 0 days 0 hours 0 minutes 5 seconds 116 msec
