                         Program Version 5.0.0 -  RELEASE  -
|  1> !M062X D3Zero RIJCOSX def2-SVPD def2/J TightSCF
|  2> *xyz 0 1
|  3> C         -0.50835        1.72268       -4.12430
|  4> S         -1.32861        0.14674       -4.43578
|  5> O         -2.57135        0.47573       -5.06834
|  6> F         -1.51496       -0.40051       -3.06342
|  7> O         -0.37793       -0.62756       -5.20114
|  8> H         -0.31967        2.21655       -5.05456
|  9> H          0.41835        1.54859       -3.61852
| 10> H         -1.13714        2.33776       -3.51504
| 11> *
| 12> %MaxCore 64000
| 13>
| 14> %pal nprocs 4
| 15> end
| 16>
| 17> %scf
| 18>   MaxIter 150
| 19> end
| 20>
| 21>
| 22>                          ****END OF INPUT****

CARTESIAN COORDINATES (ANGSTROEM)
---------------------------------
  C     -0.508350    1.722680   -4.124300
  S     -1.328610    0.146740   -4.435780
  O     -2.571350    0.475730   -5.068340
  F     -1.514960   -0.400510   -3.063420
  O     -0.377930   -0.627560   -5.201140
  H     -0.319670    2.216550   -5.054560
  H      0.418350    1.548590   -3.618520
  H     -1.137140    2.337760   -3.515040

 Total Charge           Charge          ....    0
 Multiplicity           Mult            ....    1
 Number of Electrons    NEL             ....   50
 Basis Dimension        Dim             ....  140

ORBITAL ENERGIES
----------------

  NO   OCC          E(Eh)            E(eV)
   0   2.0000     -90.204082     -2454.5779
   1   2.0000     -25.361709      -690.1272
   2   2.0000     -19.661184      -535.0080
   3   2.0000     -19.658031      -534.9222
   4   2.0000     -10.610603      -288.7292
   5   2.0000      -8.527916      -232.0564
   6   2.0000      -6.456143      -175.6806
   7   2.0000      -6.451263      -175.5478
   8   2.0000      -6.450395      -175.5242
   9   2.0000      -1.483755       -40.3750
  10   2.0000      -1.245893       -33.9025
  11   2.0000      -1.147051       -31.2128
  12   2.0000      -0.892756       -24.2931
  13   2.0000      -0.800584       -21.7850
  14   2.0000      -0.682853       -18.5814
  15   2.0000      -0.668008       -18.1774
  16   2.0000      -0.645108       -17.5543
  17   2.0000      -0.565629       -15.3915
  18   2.0000      -0.556763       -15.1503
  19   2.0000      -0.536270       -14.5926
  20   2.0000      -0.523745       -14.2518
  21   2.0000      -0.475987       -12.9523
  22   2.0000      -0.424380       -11.5480
  23   2.0000      -0.410421       -11.1681
  24   2.0000      -0.402984       -10.9658
  25   0.0000       0.008155         0.2219
  26   0.0000       0.040453         1.1008
  27   0.0000       0.045907         1.2492
  28   0.0000       0.046137         1.2554
  29   0.0000       0.069732         1.8975

MULLIKEN ATOMIC CHARGES
-----------------------
   0 C :    0.368463
   1 S :    1.369216
   2 O :   -0.663032
   3 F :   -0.421266
   4 O :   -0.676444
   5 H :   -0.003023
   6 H :    0.012982
   7 H :    0.013105
Sum of atomic charges:   -0.0000000

LOEWDIN ATOMIC CHARGES
----------------------
   0 C :    0.127764
   1 S :    1.138211
   2 O :   -0.472970
   3 F :   -0.288806
   4 O :   -0.479016
   5 H :   -0.000844
   6 H :   -0.011974
   7 H :   -0.012364

  Mayer bond orders larger than 0.100000
B(  0-C ,  1-S ) :   0.9909 B(  0-C ,  5-H ) :   0.9348 B(  0-C ,  6-H ) :   0.9374
B(  0-C ,  7-H ) :   0.9362 B(  1-S ,  2-O ) :   1.5290 B(  1-S ,  3-F ) :   0.6154
B(  1-S ,  4-O ) :   1.5174 B(  1-S ,  5-H ) :   0.1069

Dispersion correction           -0.000046812
FINAL SINGLE POINT ENERGY      -687.859007582348

DIPOLE MOMENT
-------------
                                X             Y             Z
Electronic contribution:     -2.28619      -4.61327       1.38133
Nuclear contribution   :      2.84473       5.67605      -0.40731
                        -----------------------------------------
Total Dipole Moment    :      0.55854       1.06278       0.97402
                        -----------------------------------------
Magnitude (a.u.)       :      1.54602
Magnitude (Debye)      :      3.92968

Rotational constants in cm-1:     0.162669     0.154016     0.148818
Rotational constants in MHz :  4876.699308  4617.284822  4461.441982

                             ****ORCA TERMINATED NORMALLY****
TOTAL RUN TIME: 0 days 0 hours 0 minutes 11 seconds 940 msec
