                         Program Version 5.0.0 -  RELEASE  -
|  1> !M062X D3Zero RIJCOSX def2-SVPD def2/J TightSCF
|  2> *xyz 0 1
|  3> C         -0.50835        1.72268       -4.12430
|  4> S         -1.32861        0.14674       -4.43578
|  5> O         -2.57135        0.47573       -5.06834
|  6> O         -1.51496       -0.40051       -3.06342
|  7> F         -0.37793       -0.62756       -5.20114
|  8> H         -0.31967        2.21655       -5.05456
|  9> H          0.41835        1.54859       -3.61852
| 10> H         -1.13714        2.33776       -3.51504
| 11> *
| 12> %MaxCore 64000
| 13>
| 14> %pal nprocs 4
| 15> end
| 16>
| 17> %scf
| 18>   MaxIter 150
| 19> end
| 20>
| 21>
| 22>                          ****END OF INPUT****

CARTESIAN COORDINATES (ANGSTROEM)
---------------------------------
  C     -0.508350    1.722680   -4.124300
  S     -1.328610    0.146740   -4.435780
  O     -2.571350    0.475730   -5.068340
  O     -1.514960   -0.400510   -3.063420
  F     -0.377930   -0.627560   -5.201140
  H     -0.319670    2.216550   -5.054560
  H      0.418350    1.548590   -3.618520
  H     -1.137140    2.337760   -3.515040

 Total Charge           Charge          ....    0
 Multiplicity           Mult            ....    1
 Number of Electrons    NEL             ....   50
 Basis Dimension        Dim             ....  140

ORBITAL ENERGIES
----------------

  NO   OCC          E(Eh)            E(eV)
   0   2.0000     -90.205843     -2454.6258
   1   2.0000     -25.384992      -690.7608
   2   2.0000     -19.661849      -535.0261
   3   2.0000     -19.642800      -534.5078
   4   2.0000     -10.611680      -288.7585
   5   2.0000      -8.529920      -232.1109
   6   2.0000      -6.458354      -175.7407
   7   2.0000      -6.452979      -175.5945
   8   2.0000      -6.452186      -175.5729
   9   2.0000      -1.522015       -41.4161
  10   2.0000      -1.236315       -33.6418
  11   2.0000      -1.122679       -30.5496
  12   2.0000      -0.895609       -24.3708
  13   2.0000      -0.820707       -22.3326
  14   2.0000      -0.704068       -19.1587
  15   2.0000      -0.694748       -18.9051
  16   2.0000      -0.646425       -17.5901
  17   2.0000      -0.561936       -15.2911
  18   2.0000      -0.554689       -15.0939
  19   2.0000      -0.538556       -14.6548
  20   2.0000      -0.517245       -14.0749
  21   2.0000      -0.469786       -12.7835
  22   2.0000      -0.416786       -11.3413
  23   2.0000      -0.397568       -10.8184
  24   2.0000      -0.386422       -10.5151
  25   0.0000       0.004917         0.1338
  26   0.0000       0.038967         1.0603
  27   0.0000       0.044807         1.2193
  28   0.0000       0.046687         1.2704
  29   0.0000       0.068268         1.8577

MULLIKEN ATOMIC CHARGES
-----------------------
   0 C :    0.372088
   1 S :    1.356272
   2 O :   -0.649544
   3 O :   -0.702250
   4 F :   -0.401647
   5 H :    0.005583
   6 H :    0.014220
   7 H :    0.005278
Sum of atomic charges:    0.0000000

LOEWDIN ATOMIC CHARGES
----------------------
   0 C :    0.127460
   1 S :    1.141669
   2 O :   -0.472490
   3 O :   -0.502938
   4 F :   -0.268533
   5 H :   -0.014644
   6 H :   -0.011857
   7 H :    0.001333

  Mayer bond orders larger than 0.100000
B(  0-C ,  1-S ) :   0.9919 B(  0-C ,  5-H ) :   0.9360 B(  0-C ,  6-H ) :   0.9354
B(  0-C ,  7-H ) :   0.9345 B(  1-S ,  2-O ) :   1.5320 B(  1-S ,  3-O ) :   1.4918
B(  1-S ,  4-F ) :   0.6544 B(  1-S ,  7-H ) :   0.1126

Dispersion correction           -0.000046957
FINAL SINGLE POINT ENERGY      -687.838952991466

DIPOLE MOMENT
-------------
                                X             Y             Z
Electronic contribution:     -0.38093      -4.98233      -2.22174
Nuclear contribution   :      1.70876       5.90289       1.72841
                        -----------------------------------------
Total Dipole Moment    :      1.32783       0.92056      -0.49333
                        -----------------------------------------
Magnitude (a.u.)       :      1.68936
Magnitude (Debye)      :      4.29401

Rotational constants in cm-1:     0.163253     0.155214     0.147311
Rotational constants in MHz :  4894.200006  4653.189727  4416.272537

                             ****ORCA TERMINATED NORMALLY****
TOTAL RUN TIME: 0 days 0 hours 0 minutes 12 seconds 97 msec
