                         Program Version 5.0.0 -  RELEASE  -
|  1> !M062X D3Zero RIJCOSX def2-SVPD def2/J TightSCF xyzfile
|  2>
|  3> *xyzfile 0 1 D1.xyz
|  4>
|  5> %MaxCore 64000
|  6>
|  7> %pal nprocs 4
|  8> end
|  9>
| 10> %scf
| 11>   MaxIter 150
| 12> end
| 13>
| 14>
| 15>                          ****END OF INPUT****

CARTESIAN COORDINATES (ANGSTROEM)
---------------------------------
  C      1.364014    0.468742   -2.813764
  C      0.428844    0.321402   -1.655312
  C      0.968045    1.630639   -3.715749
  C     -0.508347    1.722679   -4.124300
  S     -1.328608    0.146737   -4.435781
  H     -0.591511    2.294958   -5.047219
  H     -1.114114    2.235610   -3.374362
  H      0.748578   -0.400542   -1.001345
  H     -0.461053    0.023332   -2.077731
  H      0.310258    1.201375   -1.134948
  F     -2.571347    0.475733   -5.068341
  O     -1.514963   -0.400512   -3.063420
  H      1.294847   -0.468742   -3.364684
  H      2.376216    0.597400   -2.431495
  H      1.578688    1.520652   -4.612733
  H      1.266653    2.575988   -3.250448
  O     -0.377928   -0.627558   -5.201141

 Total Charge           Charge          ....    0
 Multiplicity           Mult            ....    1
 Number of Electrons    NEL             ....   74
 Basis Dimension        Dim             ....  248

ORBITAL ENERGIES
----------------

  NO   OCC          E(Eh)            E(eV)
   0   2.0000     -90.206308     -2454.6384
   1   2.0000     -25.390717      -690.9165
   2   2.0000     -19.660110      -534.9788
   3   2.0000     -19.646772      -534.6158
   4   2.0000     -10.615372      -288.8590
   5   2.0000     -10.574579      -287.7489
   6   2.0000     -10.537275      -286.7338
   7   2.0000     -10.479752      -285.1685
   8   2.0000      -8.530339      -232.1223
   9   2.0000      -6.458796      -175.7528
  10   2.0000      -6.453567      -175.6105
  11   2.0000      -6.452334      -175.5769
  12   2.0000      -1.532547       -41.7027
  13   2.0000      -1.235247       -33.6128
  14   2.0000      -1.129882       -30.7456
  15   2.0000      -0.926560       -25.2130
  16   2.0000      -0.872235       -23.7347
  17   2.0000      -0.821083       -22.3428
  18   2.0000      -0.767458       -20.8836
  19   2.0000      -0.706183       -19.2162
  20   2.0000      -0.699995       -19.0478
  21   2.0000      -0.668898       -18.2016
  22   2.0000      -0.628818       -17.1110
  23   2.0000      -0.588040       -16.0014
  24   2.0000      -0.570971       -15.5369
  25   2.0000      -0.541533       -14.7359
  26   2.0000      -0.535896       -14.5825
  27   2.0000      -0.493835       -13.4379
  28   2.0000      -0.474827       -12.9207
  29   2.0000      -0.471999       -12.8437
  30   2.0000      -0.458301       -12.4710
  31   2.0000      -0.426780       -11.6133
  32   2.0000      -0.414160       -11.2699
  33   2.0000      -0.392294       -10.6749
  34   2.0000      -0.384358       -10.4589
  35   2.0000      -0.380960       -10.3665
  36   2.0000      -0.343002        -9.3336
  37   0.0000       0.007543         0.2053
  38   0.0000       0.032405         0.8818
  39   0.0000       0.037668         1.0250
  40   0.0000       0.047123         1.2823
  41   0.0000       0.065835         1.7915

MULLIKEN ATOMIC CHARGES
-----------------------
   0 C :   -0.392211
   1 C :    2.193885
   2 C :    0.259491
   3 C :    0.052352
   4 S :    1.728673
   5 H :   -0.207611
   6 H :    0.254704
   7 H :   -0.105729
   8 H :   -1.341677
   9 H :   -0.123252
  10 F :   -0.512961
  11 O :   -0.905479
  12 H :    0.110584
  13 H :   -0.336329
  14 H :    0.035924
  15 H :   -0.009446
  16 O :   -0.700917
Sum of atomic charges:    0.0000000

LOEWDIN ATOMIC CHARGES
----------------------
   0 C :   -0.046966
   1 C :    0.143535
   2 C :   -0.017180
   3 C :   -0.032918
   4 S :    1.208304
   5 H :    0.015131
   6 H :    0.028911
   7 H :   -0.021817
   8 H :   -0.176108
   9 H :   -0.021104
  10 F :   -0.256259
  11 O :   -0.467634
  12 H :    0.018174
  13 H :    0.023897
  14 H :    0.028082
  15 H :    0.037832
  16 O :   -0.463880

  Mayer bond orders larger than 0.100000
B(  0-C ,  1-C ) :   0.9127 B(  0-C ,  2-C ) :   1.1984 B(  0-C ,  7-H ) :   0.2374
B(  0-C ,  8-H ) :   0.6244 B(  0-C ,  9-H ) :   0.2920 B(  0-C , 12-H ) :   0.8143
B(  0-C , 13-H ) :   1.0191 B(  0-C , 14-H ) :   0.1347 B(  0-C , 15-H ) :   0.1603
B(  1-C ,  3-C ) :  -0.1005 B(  1-C ,  4-S ) :   0.1116 B(  1-C ,  7-H ) :   0.4894
B(  1-C ,  8-H ) :  -1.0018 B(  1-C ,  9-H ) :   0.1654 B(  1-C , 11-O ) :  -0.2370
B(  1-C , 12-H ) :   0.1428 B(  2-C ,  3-C ) :   1.3002 B(  2-C ,  5-H ) :   0.1962
B(  2-C , 12-H ) :   0.1477 B(  2-C , 14-H ) :   0.8376 B(  2-C , 15-H ) :   0.7834
B(  3-C ,  4-S ) :   0.9204 B(  3-C ,  5-H ) :   0.8948 B(  3-C ,  6-H ) :   0.8396
B(  3-C ,  8-H ) :   0.1784 B(  3-C , 11-O ) :   0.1346 B(  3-C , 14-H ) :   0.1327
B(  4-S ,  8-H ) :  -0.1849 B(  4-S , 10-F ) :   0.5999 B(  4-S , 11-O ) :   1.3241
B(  4-S , 16-O ) :   1.4813 B(  5-H ,  8-H ) :  -0.1060 B(  7-H ,  8-H ) :   0.2530
B(  7-H ,  9-H ) :  -0.2395 B(  8-H ,  9-H ) :   0.5756 B(  8-H , 11-O ) :   0.3166
B( 12-H , 13-H ) :  -0.1368

Dispersion correction           -0.000418383
FINAL SINGLE POINT ENERGY      -805.588171546032

DIPOLE MOMENT
-------------
                                X             Y             Z
Electronic contribution:    -12.44168      -4.01820      -9.71751
Nuclear contribution   :     12.25227       5.48563       9.26621
                        -----------------------------------------
Total Dipole Moment    :     -0.18941       1.46743      -0.45131
                        -----------------------------------------
Magnitude (a.u.)       :      1.54690
Magnitude (Debye)      :      3.93191

Rotational constants in cm-1:     0.103176     0.044975     0.040960
Rotational constants in MHz :  3093.138469  1348.317425  1227.945122

                             ****ORCA TERMINATED NORMALLY****
TOTAL RUN TIME: 0 days 0 hours 0 minutes 47 seconds 683 msec
