                         Program Version 5.0.0 -  RELEASE  -
|  1> !M062X D3Zero RIJCOSX def2-SVPD def2/J TightSCF xyzfile
|  2>
|  3> *xyzfile 0 1 D3.xyz
|  4>
|  5> %MaxCore 64000
|  6>
|  7> %pal nprocs 4
|  8> end
|  9>
| 10> %scf
| 11>   MaxIter 150
| 12> end
| 13>
| 14>
| 15>                          ****END OF INPUT****

CARTESIAN COORDINATES (ANGSTROEM)
---------------------------------
  C      1.364014    0.468742   -2.813764
  C      0.428844    0.321402   -1.655312
  C      0.968045    1.630639   -3.715749
  C     -0.508347    1.722679   -4.124300
  S     -1.328608    0.146737   -4.435781
  H     -0.591511    2.294958   -5.047219
  H     -1.114114    2.235610   -3.374362
  H      0.748578   -0.400542   -1.001345
  H     -0.461053    0.023332   -2.077731
  H      0.310258    1.201375   -1.134948
  O     -2.571347    0.475733   -5.068341
  O     -1.514963   -0.400512   -3.063420
  H      1.294847   -0.468742   -3.364684
  H      2.376216    0.597400   -2.431495
  H      1.578688    1.520652   -4.612733
  H      1.266653    2.575988   -3.250448
  F     -0.377928   -0.627558   -5.201141

 Total Charge           Charge          ....    0
 Multiplicity           Mult            ....    1
 Number of Electrons    NEL             ....   74
 Basis Dimension        Dim             ....  248

ORBITAL ENERGIES
----------------

  NO   OCC          E(Eh)            E(eV)
   0   2.0000     -90.206295     -2454.6381
   1   2.0000     -25.385692      -690.7798
   2   2.0000     -19.663400      -535.0683
   3   2.0000     -19.645715      -534.5871
   4   2.0000     -10.615001      -288.8489
   5   2.0000     -10.578807      -287.8640
   6   2.0000     -10.549737      -287.0729
   7   2.0000     -10.484371      -285.2942
   8   2.0000      -8.530205      -232.1187
   9   2.0000      -6.458683      -175.7497
  10   2.0000      -6.453519      -175.6092
  11   2.0000      -6.452155      -175.5721
  12   2.0000      -1.522443       -41.4278
  13   2.0000      -1.240219       -33.7481
  14   2.0000      -1.133712       -30.8499
  15   2.0000      -0.932882       -25.3850
  16   2.0000      -0.869522       -23.6609
  17   2.0000      -0.821932       -22.3659
  18   2.0000      -0.768443       -20.9104
  19   2.0000      -0.708608       -19.2822
  20   2.0000      -0.695704       -18.9311
  21   2.0000      -0.675439       -18.3796
  22   2.0000      -0.627735       -17.0815
  23   2.0000      -0.582536       -15.8516
  24   2.0000      -0.572897       -15.5893
  25   2.0000      -0.549141       -14.9429
  26   2.0000      -0.538812       -14.6618
  27   2.0000      -0.499643       -13.5960
  28   2.0000      -0.484197       -13.1757
  29   2.0000      -0.467347       -12.7172
  30   2.0000      -0.464730       -12.6459
  31   2.0000      -0.439661       -11.9638
  32   2.0000      -0.412134       -11.2147
  33   2.0000      -0.405284       -11.0283
  34   2.0000      -0.395330       -10.7575
  35   2.0000      -0.386439       -10.5155
  36   2.0000      -0.339815        -9.2468
  37   0.0000       0.008098         0.2204
  38   0.0000       0.033153         0.9022
  39   0.0000       0.039262         1.0684
  40   0.0000       0.045428         1.2362
  41   0.0000       0.065772         1.7897

MULLIKEN ATOMIC CHARGES
-----------------------
   0 C :   -0.366682
   1 C :    2.188660
   2 C :    0.293757
   3 C :    0.072711
   4 S :    1.633072
   5 H :   -0.231120
   6 H :    0.245290
   7 H :   -0.101074
   8 H :   -1.310783
   9 H :   -0.124885
  10 O :   -0.729797
  11 O :   -0.873624
  12 H :    0.070493
  13 H :   -0.343136
  14 H :    0.015359
  15 H :   -0.007974
  16 F :   -0.430268
Sum of atomic charges:   -0.0000000

LOEWDIN ATOMIC CHARGES
----------------------
   0 C :   -0.054429
   1 C :    0.142565
   2 C :   -0.032878
   3 C :   -0.019093
   4 S :    1.201016
   5 H :    0.018584
   6 H :    0.042038
   7 H :   -0.021712
   8 H :   -0.178738
   9 H :   -0.019102
  10 O :   -0.459013
  11 O :   -0.460107
  12 H :    0.015216
  13 H :    0.024820
  14 H :    0.022323
  15 H :    0.036284
  16 F :   -0.257774

  Mayer bond orders larger than 0.100000
B(  0-C ,  1-C ) :   0.9207 B(  0-C ,  2-C ) :   1.1824 B(  0-C ,  7-H ) :   0.2317
B(  0-C ,  8-H ) :   0.6147 B(  0-C ,  9-H ) :   0.2966 B(  0-C , 12-H ) :   0.8071
B(  0-C , 13-H ) :   1.0238 B(  0-C , 14-H ) :   0.1320 B(  0-C , 15-H ) :   0.1621
B(  1-C ,  7-H ) :   0.4840 B(  1-C ,  8-H ) :  -0.9428 B(  1-C ,  9-H ) :   0.1700
B(  1-C , 11-O ) :  -0.2126 B(  1-C , 12-H ) :   0.1408 B(  2-C ,  3-C ) :   1.2672
B(  2-C ,  5-H ) :   0.1741 B(  2-C , 12-H ) :   0.1455 B(  2-C , 14-H ) :   0.8442
B(  2-C , 15-H ) :   0.7756 B(  3-C ,  4-S ) :   0.9472 B(  3-C ,  5-H ) :   0.9527
B(  3-C ,  6-H ) :   0.8433 B(  3-C ,  8-H ) :   0.1652 B(  3-C , 11-O ) :   0.1232
B(  3-C , 14-H ) :   0.1297 B(  4-S ,  8-H ) :  -0.1704 B(  4-S , 10-O ) :   1.5603
B(  4-S , 11-O ) :   1.3794 B(  4-S , 16-F ) :   0.6051 B(  7-H ,  8-H ) :   0.2614
B(  7-H ,  9-H ) :  -0.2374 B(  8-H ,  9-H ) :   0.5728 B(  8-H , 11-O ) :   0.2851
B( 12-H , 13-H ) :  -0.1507

Dispersion correction           -0.000428127
FINAL SINGLE POINT ENERGY      -805.592341495970

DIPOLE MOMENT
-------------
                                X             Y             Z
Electronic contribution:     -8.60376      -5.91330      -9.89663
Nuclear contribution   :      9.83476       6.70164       9.41257
                        -----------------------------------------
Total Dipole Moment    :      1.23100       0.78833      -0.48405
                        -----------------------------------------
Magnitude (a.u.)       :      1.53985
Magnitude (Debye)      :      3.91399

Rotational constants in cm-1:     0.099832     0.045916     0.042219
Rotational constants in MHz :  2992.874960  1376.530174  1265.693813

                             ****ORCA TERMINATED NORMALLY****
TOTAL RUN TIME: 0 days 0 hours 0 minutes 49 seconds 688 msec
