                         Program Version 5.0.0 -  RELEASE  -
|  1> !wB97X-D3 RIJCOSX def2-SVPD def2/J TightSCF
|  2> *xyz -1 1
|  3> C          4.93020       -7.37532       -2.64962
|  4> C          3.84189       -6.95161       -3.63283
|  5> H          3.45814       -5.95442       -3.40712
|  6> H          2.98848       -7.64361       -3.56708
|  7> S          4.31812       -6.91593       -5.36869
|  8> O          5.40615       -5.89948       -5.51297
|  9> O          3.11191       -6.44508       -6.04379
| 10> O          4.76340       -8.23942       -5.69863
| 11> H          5.27901       -8.35440       -2.90385
| 12> H          4.53000       -7.38577       -1.65734
| 13> H          5.74437       -6.68276       -2.69856
| 14> *
| 15>
| 16> %MaxCore 64000
| 17>
| 18> %pal nprocs 18
| 19> end
| 20>
| 21> %scf
| 22>   MaxIter 150
| 23> end
| 24>
| 25>
| 26>                          ****END OF INPUT****

CARTESIAN COORDINATES (ANGSTROEM)
---------------------------------
  C      4.930200   -7.375320   -2.649620
  C      3.841890   -6.951610   -3.632830
  H      3.458140   -5.954420   -3.407120
  H      2.988480   -7.643610   -3.567080
  S      4.318120   -6.915930   -5.368690
  O      5.406150   -5.899480   -5.512970
  O      3.111910   -6.445080   -6.043790
  O      4.763400   -8.239420   -5.698630
  H      5.279010   -8.354400   -2.903850
  H      4.530000   -7.385770   -1.657340
  H      5.744370   -6.682760   -2.698560

 Total Charge           Charge          ....   -1
 Multiplicity           Mult            ....    1
 Number of Electrons    NEL             ....   58
 Basis Dimension        Dim             ....  176

ORBITAL ENERGIES
----------------

  NO   OCC          E(Eh)            E(eV)
   0   2.0000     -88.977404     -2421.1982
   1   2.0000     -19.031086      -517.8622
   2   2.0000     -19.021652      -517.6055
   3   2.0000     -19.014115      -517.4004
   4   2.0000     -10.158869      -276.4369
   5   2.0000     -10.151263      -276.2299
   6   2.0000      -8.050888      -219.0758
   7   2.0000      -6.010445      -163.5525
   8   2.0000      -6.010307      -163.5488
   9   2.0000      -6.009959      -163.5393
  10   2.0000      -1.046268       -28.4704
  11   2.0000      -0.906622       -24.6704
  12   2.0000      -0.875996       -23.8371
  13   2.0000      -0.749145       -20.3853
  14   2.0000      -0.619989       -16.8707
  15   2.0000      -0.491659       -13.3787
  16   2.0000      -0.424700       -11.5567
  17   2.0000      -0.422361       -11.4930
  18   2.0000      -0.382309       -10.4031
  19   2.0000      -0.367975       -10.0131
  20   2.0000      -0.359230        -9.7751
  21   2.0000      -0.332015        -9.0346
  22   2.0000      -0.312638        -8.5073
  23   2.0000      -0.250584        -6.8187
  24   2.0000      -0.248730        -6.7683
  25   2.0000      -0.213323        -5.8048
  26   2.0000      -0.201616        -5.4863
  27   2.0000      -0.195647        -5.3238
  28   2.0000      -0.158581        -4.3152
  29   0.0000       0.206719         5.6251
  30   0.0000       0.229150         6.2355
  31   0.0000       0.232383         6.3235
  32   0.0000       0.238438         6.4882
  33   0.0000       0.259840         7.0706

MULLIKEN ATOMIC CHARGES
-----------------------
   0 C :    0.685127
   1 C :   -0.399831
   2 H :   -0.044123
   3 H :    0.007859
   4 S :    1.349198
   5 O :   -0.846125
   6 O :   -0.810419
   7 O :   -0.791276
   8 H :   -0.037805
   9 H :   -0.072407
  10 H :   -0.040199
Sum of atomic charges:   -1.0000000

LOEWDIN ATOMIC CHARGES
----------------------
   0 C :    0.099629
   1 C :   -0.140325
   2 H :    0.005592
   3 H :    0.010573
   4 S :    0.863146
   5 O :   -0.604187
   6 O :   -0.592510
   7 O :   -0.575197
   8 H :   -0.018407
   9 H :   -0.031147
  10 H :   -0.017166

  Mayer bond orders larger than 0.100000
B(  0-C ,  1-C ) :   1.2450 B(  0-C ,  8-H ) :   0.8301 B(  0-C ,  9-H ) :   0.7622
B(  0-C , 10-H ) :   0.8399 B(  1-C ,  2-H ) :   1.0116 B(  1-C ,  3-H ) :   0.9850
B(  1-C ,  4-S ) :   0.9370 B(  1-C ,  8-H ) :   0.1862 B(  1-C ,  9-H ) :   0.1976
B(  1-C , 10-H ) :   0.1798 B(  4-S ,  5-O ) :   1.2693 B(  4-S ,  6-O ) :   1.3357
B(  4-S ,  7-O ) :   1.3171

Dispersion correction           -0.002914003
FINAL SINGLE POINT ENERGY      -702.693450659761

DIPOLE MOMENT
-------------
                                X             Y             Z
Electronic contribution:     -0.37912       0.78980      -7.69572
Nuclear contribution   :      0.07504      -1.14369       9.75001
                        -----------------------------------------
Total Dipole Moment    :     -0.30408      -0.35389       2.05429
                        -----------------------------------------
Magnitude (a.u.)       :      2.10661
Magnitude (Debye)      :      5.35457

Rotational constants in cm-1:     0.160553     0.082191     0.080550
Rotational constants in MHz :  4813.250478  2464.013016  2414.833054

                             ****ORCA TERMINATED NORMALLY****
TOTAL RUN TIME: 0 days 0 hours 0 minutes 10 seconds 272 msec
