                         Program Version 5.0.0 -  RELEASE  -
|  1> !wB97X-D3 RIJCOSX def2-SVPD def2/J TightSCF
|  2> *xyz 1 1
|  3> C          5.55821       -1.99291       -6.21505
|  4> C          4.18188       -2.58967       -6.29891
|  5> N          3.14587       -1.76843       -6.48675
|  6> N          4.01910       -3.86431       -6.22743
|  7> H          4.76849       -4.59115       -5.99077
|  8> H          3.12241       -4.33339       -6.31462
|  9> H          3.28164       -0.77779       -6.56655
| 10> H          2.21255       -2.13419       -6.56225
| 11> C          6.41926       -2.54294       -5.07763
| 12> H          6.03683       -2.19819       -7.17685
| 13> H          5.46761       -0.90737       -6.12797
| 14> H          6.50056       -3.60553       -5.17358
| 15> H          5.96544       -2.30329       -4.13874
| 16> H          7.39438       -2.10494       -5.12457
| 17> *
| 18>
| 19> %MaxCore 64000
| 20>
| 21> %pal nprocs 18
| 22> end
| 23>
| 24> %scf
| 25>   MaxIter 150
| 26> end
| 27>
| 28>
| 29>                          ****END OF INPUT****

CARTESIAN COORDINATES (ANGSTROEM)
---------------------------------
  C      5.558210   -1.992910   -6.215050
  C      4.181880   -2.589670   -6.298910
  N      3.145870   -1.768430   -6.486750
  N      4.019100   -3.864310   -6.227430
  H      4.768490   -4.591150   -5.990770
  H      3.122410   -4.333390   -6.314620
  H      3.281640   -0.777790   -6.566550
  H      2.212550   -2.134190   -6.562250
  C      6.419260   -2.542940   -5.077630
  H      6.036830   -2.198190   -7.176850
  H      5.467610   -0.907370   -6.127970
  H      6.500560   -3.605530   -5.173580
  H      5.965440   -2.303290   -4.138740
  H      7.394380   -2.104940   -5.124570

 Total Charge           Charge          ....    1
 Multiplicity           Mult            ....    1
 Number of Electrons    NEL             ....   40
 Basis Dimension        Dim             ....  172

ORBITAL ENERGIES
----------------

  NO   OCC          E(Eh)            E(eV)
   0   2.0000     -14.690698      -399.7542
   1   2.0000     -14.678902      -399.4332
   2   2.0000     -10.618122      -288.9338
   3   2.0000     -10.488960      -285.4191
   4   2.0000     -10.445443      -284.2350
   5   2.0000      -1.315313       -35.7915
   6   2.0000      -1.214358       -33.0444
   7   2.0000      -1.080193       -29.3935
   8   2.0000      -0.973918       -26.5017
   9   2.0000      -0.922908       -25.1136
  10   2.0000      -0.879926       -23.9440
  11   2.0000      -0.850515       -23.1437
  12   2.0000      -0.798822       -21.7371
  13   2.0000      -0.758659       -20.6442
  14   2.0000      -0.723213       -19.6796
  15   2.0000      -0.703840       -19.1525
  16   2.0000      -0.646135       -17.5822
  17   2.0000      -0.635777       -17.3004
  18   2.0000      -0.619232       -16.8502
  19   2.0000      -0.587209       -15.9788
  20   0.0000      -0.126984        -3.4554
  21   0.0000      -0.080033        -2.1778
  22   0.0000      -0.044223        -1.2034
  23   0.0000      -0.034383        -0.9356
  24   0.0000      -0.012999        -0.3537

MULLIKEN ATOMIC CHARGES
-----------------------
   0 C :   -0.429869
   1 C :    0.869980
   2 N :   -0.033995
   3 N :    0.025072
   4 H :    0.084394
   5 H :   -0.129480
   6 H :    0.037778
   7 H :   -0.110796
   8 C :    0.635084
   9 H :    0.052821
  10 H :    0.086126
  11 H :   -0.119406
  12 H :   -0.016859
  13 H :    0.049150
Sum of atomic charges:    1.0000000

LOEWDIN ATOMIC CHARGES
----------------------
   0 C :    0.009913
   1 C :   -0.033390
   2 N :    0.277136
   3 N :    0.255436
   4 H :    0.099643
   5 H :    0.053173
   6 H :    0.042269
   7 H :    0.041895
   8 C :    0.159922
   9 H :    0.057935
  10 H :    0.039955
  11 H :   -0.020551
  12 H :    0.005484
  13 H :    0.011181

  Mayer bond orders larger than 0.100000
B(  0-C ,  1-C ) :   1.0678 B(  0-C ,  8-C ) :   1.3054 B(  0-C ,  9-H ) :   0.9131
B(  0-C , 10-H ) :   0.9018 B(  0-C , 11-H ) :   0.1742 B(  0-C , 12-H ) :   0.1858
B(  0-C , 13-H ) :   0.1558 B(  1-C ,  2-N ) :   0.9713 B(  1-C ,  3-N ) :   1.0900
B(  1-C ,  5-H ) :  -0.2265 B(  1-C ,  7-H ) :  -0.2109 B(  1-C ,  9-H ) :   0.1080
B(  1-C , 10-H ) :   0.1058 B(  2-N ,  3-N ) :   0.1428 B(  2-N ,  6-H ) :   1.1031
B(  2-N ,  7-H ) :   1.3327 B(  3-N ,  4-H ) :   1.1046 B(  3-N ,  5-H ) :   1.3055
B(  4-H ,  5-H ) :  -0.1702 B(  6-H ,  7-H ) :  -0.1764 B(  8-C , 10-H ) :   0.1012
B(  8-C , 11-H ) :   0.8499 B(  8-C , 12-H ) :   0.7899 B(  8-C , 13-H ) :   0.8343

Dispersion correction           -0.002912194
FINAL SINGLE POINT ENERGY      -228.817280768277

DIPOLE MOMENT
-------------
                                X             Y             Z
Electronic contribution:     -3.77970      -0.48101      -1.56881
Nuclear contribution   :      2.76041       0.12669       1.26265
                        -----------------------------------------
Total Dipole Moment    :     -1.01928      -0.35432      -0.30616
                        -----------------------------------------
Magnitude (a.u.)       :      1.12170
Magnitude (Debye)      :      2.85114

Rotational constants in cm-1:     0.280918     0.124524     0.094121
Rotational constants in MHz :  8421.697738  3733.133254  2821.684112

                             ****ORCA TERMINATED NORMALLY****
TOTAL RUN TIME: 0 days 0 hours 0 minutes 9 seconds 127 msec
