                         Program Version 5.0.0 -  RELEASE  -
|  1> !wB97X-D3 RIJCOSX def2-SVPD def2/J TightSCF
|  2> *xyz 0 1
|  3> C          4.93020       -7.37532       -2.64962
|  4> C          3.84189       -6.95161       -3.63283
|  5> H          3.45814       -5.95442       -3.40712
|  6> H          2.98848       -7.64361       -3.56708
|  7> S          4.31812       -6.91593       -5.36869
|  8> F          5.40615       -5.89948       -5.51297
|  9> O          3.11191       -6.44508       -6.04379
| 10> O          4.76340       -8.23942       -5.69863
| 11> H          5.27901       -8.35440       -2.90385
| 12> H          4.53000       -7.38577       -1.65734
| 13> H          5.74437       -6.68276       -2.69856
| 14> *
| 15>
| 16> %MaxCore 64000
| 17>
| 18> %pal nprocs 18
| 19> end
| 20>
| 21> %scf
| 22>   MaxIter 150
| 23> end
| 24>
| 25>
| 26>                          ****END OF INPUT****

CARTESIAN COORDINATES (ANGSTROEM)
---------------------------------
  C      4.930200   -7.375320   -2.649620
  C      3.841890   -6.951610   -3.632830
  H      3.458140   -5.954420   -3.407120
  H      2.988480   -7.643610   -3.567080
  S      4.318120   -6.915930   -5.368690
  F      5.406150   -5.899480   -5.512970
  O      3.111910   -6.445080   -6.043790
  O      4.763400   -8.239420   -5.698630
  H      5.279010   -8.354400   -2.903850
  H      4.530000   -7.385770   -1.657340
  H      5.744370   -6.682760   -2.698560

 Total Charge           Charge          ....    0
 Multiplicity           Mult            ....    1
 Number of Electrons    NEL             ....   58
 Basis Dimension        Dim             ....  176

ORBITAL ENERGIES
----------------

  NO   OCC          E(Eh)            E(eV)
   0   2.0000     -89.235208     -2428.2134
   1   2.0000     -24.900902      -677.5880
   2   2.0000     -19.265690      -524.2461
   3   2.0000     -19.255633      -523.9724
   4   2.0000     -10.360015      -281.9103
   5   2.0000     -10.315778      -280.7066
   6   2.0000      -8.309444      -226.1115
   7   2.0000      -6.272962      -170.6960
   8   2.0000      -6.266811      -170.5286
   9   2.0000      -6.265653      -170.4971
  10   2.0000      -1.454156       -39.5696
  11   2.0000      -1.234686       -33.5975
  12   2.0000      -1.136086       -30.9145
  13   2.0000      -0.940991       -25.6057
  14   2.0000      -0.833628       -22.6842
  15   2.0000      -0.784832       -21.3564
  16   2.0000      -0.688707       -18.7407
  17   2.0000      -0.668864       -18.2007
  18   2.0000      -0.654625       -17.8133
  19   2.0000      -0.600579       -16.3426
  20   2.0000      -0.585651       -15.9364
  21   2.0000      -0.561639       -15.2830
  22   2.0000      -0.539420       -14.6784
  23   2.0000      -0.510417       -13.8891
  24   2.0000      -0.505242       -13.7483
  25   2.0000      -0.480445       -13.0736
  26   2.0000      -0.440741       -11.9932
  27   2.0000      -0.427045       -11.6205
  28   2.0000      -0.417652       -11.3649
  29   0.0000       0.061366         1.6699
  30   0.0000       0.093100         2.5334
  31   0.0000       0.096727         2.6321
  32   0.0000       0.097804         2.6614
  33   0.0000       0.112416         3.0590

MULLIKEN ATOMIC CHARGES
-----------------------
   0 C :    0.666740
   1 C :   -0.456570
   2 H :    0.019029
   3 H :    0.080681
   4 S :    1.521350
   5 F :   -0.425459
   6 O :   -0.681128
   7 O :   -0.669494
   8 H :   -0.002689
   9 H :   -0.020532
  10 H :   -0.031928
Sum of atomic charges:   -0.0000000

LOEWDIN ATOMIC CHARGES
----------------------
   0 C :    0.128245
   1 C :   -0.092290
   2 H :    0.024205
   3 H :    0.042844
   4 S :    1.129603
   5 F :   -0.276549
   6 O :   -0.479455
   7 O :   -0.462817
   8 H :   -0.003771
   9 H :   -0.003147
  10 H :   -0.006868

  Mayer bond orders larger than 0.100000
B(  0-C ,  1-C ) :   1.2685 B(  0-C ,  8-H ) :   0.8406 B(  0-C ,  9-H ) :   0.7760
B(  0-C , 10-H ) :   0.8388 B(  1-C ,  2-H ) :   1.0082 B(  1-C ,  3-H ) :   0.9766
B(  1-C ,  4-S ) :   1.0024 B(  1-C ,  8-H ) :   0.1785 B(  1-C ,  9-H ) :   0.1844
B(  1-C , 10-H ) :   0.1687 B(  4-S ,  5-F ) :   0.6046 B(  4-S ,  6-O ) :   1.5454
B(  4-S ,  7-O ) :   1.5343

Dispersion correction           -0.002870941
FINAL SINGLE POINT ENERGY      -727.195160427009

DIPOLE MOMENT
-------------
                                X             Y             Z
Electronic contribution:      1.30398       2.62980      -8.68239
Nuclear contribution   :     -0.98922      -2.24849      10.35711
                        -----------------------------------------
Total Dipole Moment    :      0.31476       0.38130       1.67471
                        -----------------------------------------
Magnitude (a.u.)       :      1.74618
Magnitude (Debye)      :      4.43843

Rotational constants in cm-1:     0.151436     0.080885     0.078670
Rotational constants in MHz :  4539.936009  2424.868817  2358.476812

                             ****ORCA TERMINATED NORMALLY****
TOTAL RUN TIME: 0 days 0 hours 0 minutes 9 seconds 999 msec
