                         Program Version 5.0.0 -  RELEASE  -
|  1> !wB97X-D3 RIJCOSX def2-SVPD def2/J TightSCF
|  2> *xyz 0 1
|  3> C          5.55821       -1.99291       -6.21505
|  4> C          4.18188       -2.58967       -6.29891
|  5> C          3.14587       -1.76843       -6.48675
|  6> N          4.01910       -3.86431       -6.22743
|  7> H          4.76849       -4.59115       -5.99077
|  8> H          3.12241       -4.33339       -6.31462
|  9> H          3.28164       -0.77779       -6.56655
| 10> H          2.21255       -2.13419       -6.56225
| 11> C          6.41926       -2.54294       -5.07763
| 12> H          6.03683       -2.19819       -7.17685
| 13> H          5.46761       -0.90737       -6.12797
| 14> H          6.50056       -3.60553       -5.17358
| 15> H          5.96544       -2.30329       -4.13874
| 16> H          7.39438       -2.10494       -5.12457
| 17> *
| 18>
| 19> %MaxCore 64000
| 20>
| 21> %pal nprocs 18
| 22> end
| 23>
| 24> %scf
| 25>   MaxIter 150
| 26> end
| 27>
| 28>
| 29>                          ****END OF INPUT****

CARTESIAN COORDINATES (ANGSTROEM)
---------------------------------
  C      5.558210   -1.992910   -6.215050
  C      4.181880   -2.589670   -6.298910
  C      3.145870   -1.768430   -6.486750
  N      4.019100   -3.864310   -6.227430
  H      4.768490   -4.591150   -5.990770
  H      3.122410   -4.333390   -6.314620
  H      3.281640   -0.777790   -6.566550
  H      2.212550   -2.134190   -6.562250
  C      6.419260   -2.542940   -5.077630
  H      6.036830   -2.198190   -7.176850
  H      5.467610   -0.907370   -6.127970
  H      6.500560   -3.605530   -5.173580
  H      5.965440   -2.303290   -4.138740
  H      7.394380   -2.104940   -5.124570

 Total Charge           Charge          ....    0
 Multiplicity           Mult            ....    1
 Number of Electrons    NEL             ....   40
 Basis Dimension        Dim             ....  172

ORBITAL ENERGIES
----------------

  NO   OCC          E(Eh)            E(eV)
   0   2.0000     -14.446003      -393.0957
   1   2.0000     -10.313043      -280.6322
   2   2.0000     -10.289013      -279.9783
   3   2.0000     -10.278939      -279.7042
   4   2.0000     -10.216582      -278.0073
   5   2.0000      -1.043889       -28.4057
   6   2.0000      -0.888253       -24.1706
   7   2.0000      -0.826444       -22.4887
   8   2.0000      -0.737613       -20.0715
   9   2.0000      -0.687518       -18.7083
  10   2.0000      -0.620629       -16.8882
  11   2.0000      -0.575139       -15.6503
  12   2.0000      -0.544246       -14.8097
  13   2.0000      -0.522163       -14.2088
  14   2.0000      -0.490526       -13.3479
  15   2.0000      -0.480424       -13.0730
  16   2.0000      -0.453725       -12.3465
  17   2.0000      -0.430566       -11.7163
  18   2.0000      -0.423587       -11.5264
  19   2.0000      -0.273178        -7.4336
  20   0.0000       0.086581         2.3560
  21   0.0000       0.115934         3.1547
  22   0.0000       0.120268         3.2727
  23   0.0000       0.130532         3.5520
  24   0.0000       0.145941         3.9713

MULLIKEN ATOMIC CHARGES
-----------------------
   0 C :   -0.174279
   1 C :   -0.079273
   2 C :    0.533397
   3 N :    0.165902
   4 H :   -0.082003
   5 H :   -0.220039
   6 H :   -0.214019
   7 H :   -0.451525
   8 C :    0.658023
   9 H :   -0.050907
  10 H :    0.119221
  11 H :   -0.156630
  12 H :   -0.039615
  13 H :   -0.008253
Sum of atomic charges:   -0.0000000

LOEWDIN ATOMIC CHARGES
----------------------
   0 C :   -0.031531
   1 C :   -0.267289
   2 C :    0.171693
   3 N :    0.140778
   4 H :    0.043183
   5 H :    0.012760
   6 H :   -0.092798
   7 H :   -0.091484
   8 C :    0.121907
   9 H :    0.028928
  10 H :    0.024980
  11 H :   -0.036668
  12 H :   -0.008997
  13 H :   -0.015462

  Mayer bond orders larger than 0.100000
B(  0-C ,  1-C ) :   1.1106 B(  0-C ,  8-C ) :   1.2574 B(  0-C ,  9-H ) :   0.8531
B(  0-C , 10-H ) :   0.8788 B(  0-C , 11-H ) :   0.1934 B(  0-C , 12-H ) :   0.1861
B(  0-C , 13-H ) :   0.1819 B(  1-C ,  2-C ) :   1.7031 B(  1-C ,  3-N ) :   1.2183
B(  1-C ,  5-H ) :  -0.1071 B(  1-C ,  7-H ) :   0.2036 B(  1-C ,  9-H ) :   0.2044
B(  2-C ,  3-N ) :   0.2262 B(  2-C ,  6-H ) :   1.0489 B(  2-C ,  7-H ) :   0.6696
B(  3-N ,  4-H ) :   1.1814 B(  3-N ,  5-H ) :   1.2440 B(  4-H ,  5-H ) :  -0.1533
B(  8-C , 10-H ) :   0.1036 B(  8-C , 11-H ) :   0.8334 B(  8-C , 12-H ) :   0.7951
B(  8-C , 13-H ) :   0.8068

Dispersion correction           -0.002924704
FINAL SINGLE POINT ENERGY      -212.355005333426

DIPOLE MOMENT
-------------
                                X             Y             Z
Electronic contribution:     -2.02838      -1.06204      -1.02432
Nuclear contribution   :      2.41345       0.31141       1.16343
                        -----------------------------------------
Total Dipole Moment    :      0.38508      -0.75062       0.13912
                        -----------------------------------------
Magnitude (a.u.)       :      0.85503
Magnitude (Debye)      :      2.17331

Rotational constants in cm-1:     0.287957     0.129204     0.097498
Rotational constants in MHz :  8632.737925  3873.424745  2922.919500

                             ****ORCA TERMINATED NORMALLY****
TOTAL RUN TIME: 0 days 0 hours 0 minutes 9 seconds 484 msec
