                         Program Version 5.0.0 -  RELEASE  -
|  1> !wB97X-D3 RIJCOSX def2-SVPD def2/J TightSCF
|  2> *xyz 0 1
|  3> C          4.93020       -7.37532       -2.64962
|  4> C          3.84189       -6.95161       -3.63283
|  5> H          3.45814       -5.95442       -3.40712
|  6> H          2.98848       -7.64361       -3.56708
|  7> S          4.31812       -6.91593       -5.36869
|  8> O          5.40615       -5.89948       -5.51297
|  9> F          3.11191       -6.44508       -6.04379
| 10> O          4.76340       -8.23942       -5.69863
| 11> H          5.27901       -8.35440       -2.90385
| 12> H          4.53000       -7.38577       -1.65734
| 13> H          5.74437       -6.68276       -2.69856
| 14> *
| 15>
| 16> %MaxCore 64000
| 17>
| 18> %pal nprocs 18
| 19> end
| 20>
| 21> %scf
| 22>   MaxIter 150
| 23> end
| 24>
| 25>
| 26>                          ****END OF INPUT****

CARTESIAN COORDINATES (ANGSTROEM)
---------------------------------
  C      4.930200   -7.375320   -2.649620
  C      3.841890   -6.951610   -3.632830
  H      3.458140   -5.954420   -3.407120
  H      2.988480   -7.643610   -3.567080
  S      4.318120   -6.915930   -5.368690
  O      5.406150   -5.899480   -5.512970
  F      3.111910   -6.445080   -6.043790
  O      4.763400   -8.239420   -5.698630
  H      5.279010   -8.354400   -2.903850
  H      4.530000   -7.385770   -1.657340
  H      5.744370   -6.682760   -2.698560

 Total Charge           Charge          ....    0
 Multiplicity           Mult            ....    1
 Number of Electrons    NEL             ....   58
 Basis Dimension        Dim             ....  176

ORBITAL ENERGIES
----------------

  NO   OCC          E(Eh)            E(eV)
   0   2.0000     -89.236983     -2428.2618
   1   2.0000     -24.915822      -677.9940
   2   2.0000     -19.265208      -524.2330
   3   2.0000     -19.247743      -523.7577
   4   2.0000     -10.361099      -281.9398
   5   2.0000     -10.314034      -280.6591
   6   2.0000      -8.311281      -226.1615
   7   2.0000      -6.274927      -170.7494
   8   2.0000      -6.268576      -170.5766
   9   2.0000      -6.267288      -170.5416
  10   2.0000      -1.481911       -40.3248
  11   2.0000      -1.228382       -33.4260
  12   2.0000      -1.117012       -30.3954
  13   2.0000      -0.940920       -25.6037
  14   2.0000      -0.848166       -23.0798
  15   2.0000      -0.784847       -21.3568
  16   2.0000      -0.691823       -18.8255
  17   2.0000      -0.688708       -18.7407
  18   2.0000      -0.664504       -18.0821
  19   2.0000      -0.601975       -16.3806
  20   2.0000      -0.590117       -16.0579
  21   2.0000      -0.547984       -14.9114
  22   2.0000      -0.534556       -14.5460
  23   2.0000      -0.512984       -13.9590
  24   2.0000      -0.489202       -13.3119
  25   2.0000      -0.488275       -13.2866
  26   2.0000      -0.435951       -11.8628
  27   2.0000      -0.420685       -11.4474
  28   2.0000      -0.404436       -11.0053
  29   0.0000       0.064746         1.7618
  30   0.0000       0.087208         2.3731
  31   0.0000       0.096942         2.6379
  32   0.0000       0.098222         2.6727
  33   0.0000       0.118961         3.2371

MULLIKEN ATOMIC CHARGES
-----------------------
   0 C :    0.633992
   1 C :   -0.473624
   2 H :    0.028995
   3 H :    0.082819
   4 S :    1.543921
   5 O :   -0.711609
   6 F :   -0.413873
   7 O :   -0.658381
   8 H :   -0.005575
   9 H :   -0.018749
  10 H :   -0.007916
Sum of atomic charges:   -0.0000000

LOEWDIN ATOMIC CHARGES
----------------------
   0 C :    0.143521
   1 C :   -0.103990
   2 H :    0.023148
   3 H :    0.028889
   4 S :    1.132310
   5 O :   -0.490794
   6 F :   -0.267051
   7 O :   -0.464507
   8 H :   -0.000935
   9 H :   -0.000982
  10 H :    0.000391

  Mayer bond orders larger than 0.100000
B(  0-C ,  1-C ) :   1.3151 B(  0-C ,  8-H ) :   0.8335 B(  0-C ,  9-H ) :   0.7826
B(  0-C , 10-H ) :   0.8447 B(  1-C ,  2-H ) :   0.9921 B(  1-C ,  3-H ) :   0.9597
B(  1-C ,  4-S ) :   0.9737 B(  1-C ,  8-H ) :   0.1767 B(  1-C ,  9-H ) :   0.1839
B(  1-C , 10-H ) :   0.1723 B(  4-S ,  5-O ) :   1.4784 B(  4-S ,  6-F ) :   0.6611
B(  4-S ,  7-O ) :   1.5309

Dispersion correction           -0.002914899
FINAL SINGLE POINT ENERGY      -727.183330950906

DIPOLE MOMENT
-------------
                                X             Y             Z
Electronic contribution:     -2.61361       1.69163      -9.60051
Nuclear contribution   :      1.40145      -1.67996      10.91024
                        -----------------------------------------
Total Dipole Moment    :     -1.21216       0.01167       1.30973
                        -----------------------------------------
Magnitude (a.u.)       :      1.78462
Magnitude (Debye)      :      4.53614

Rotational constants in cm-1:     0.155875     0.079864     0.077188
Rotational constants in MHz :  4673.017506  2394.277415  2314.027118

                             ****ORCA TERMINATED NORMALLY****
TOTAL RUN TIME: 0 days 0 hours 0 minutes 10 seconds 102 msec
