                         Program Version 5.0.0 -  RELEASE  -
|  1> !wB97X-D3 RIJCOSX def2-SVPD def2/J TightSCF
|  2> *xyz 0 1
|  3> C          5.55821       -1.99291       -6.21505
|  4> C          4.18188       -2.58967       -6.29891
|  5> N          3.14587       -1.76843       -6.48675
|  6> C          4.01910       -3.86431       -6.22743
|  7> H          4.76849       -4.59115       -5.99077
|  8> H          3.12241       -4.33339       -6.31462
|  9> H          3.28164       -0.77779       -6.56655
| 10> H          2.21255       -2.13419       -6.56225
| 11> C          6.41926       -2.54294       -5.07763
| 12> H          6.03683       -2.19819       -7.17685
| 13> H          5.46761       -0.90737       -6.12797
| 14> H          6.50056       -3.60553       -5.17358
| 15> H          5.96544       -2.30329       -4.13874
| 16> H          7.39438       -2.10494       -5.12457
| 17> *
| 18>
| 19> %MaxCore 64000
| 20>
| 21> %pal nprocs 18
| 22> end
| 23>
| 24> %scf
| 25>   MaxIter 150
| 26> end
| 27>
| 28>
| 29>                          ****END OF INPUT****

CARTESIAN COORDINATES (ANGSTROEM)
---------------------------------
  C      5.558210   -1.992910   -6.215050
  C      4.181880   -2.589670   -6.298910
  N      3.145870   -1.768430   -6.486750
  C      4.019100   -3.864310   -6.227430
  H      4.768490   -4.591150   -5.990770
  H      3.122410   -4.333390   -6.314620
  H      3.281640   -0.777790   -6.566550
  H      2.212550   -2.134190   -6.562250
  C      6.419260   -2.542940   -5.077630
  H      6.036830   -2.198190   -7.176850
  H      5.467610   -0.907370   -6.127970
  H      6.500560   -3.605530   -5.173580
  H      5.965440   -2.303290   -4.138740
  H      7.394380   -2.104940   -5.124570

 Total Charge           Charge          ....    0
 Multiplicity           Mult            ....    1
 Number of Electrons    NEL             ....   40
 Basis Dimension        Dim             ....  172

ORBITAL ENERGIES
----------------

  NO   OCC          E(Eh)            E(eV)
   0   2.0000     -14.434965      -392.7954
   1   2.0000     -10.310466      -280.5620
   2   2.0000     -10.290020      -280.0057
   3   2.0000     -10.272797      -279.5370
   4   2.0000     -10.224445      -278.2213
   5   2.0000      -1.033471       -28.1222
   6   2.0000      -0.891872       -24.2691
   7   2.0000      -0.822216       -22.3736
   8   2.0000      -0.748327       -20.3630
   9   2.0000      -0.661779       -18.0079
  10   2.0000      -0.625524       -17.0214
  11   2.0000      -0.589411       -16.0387
  12   2.0000      -0.549480       -14.9521
  13   2.0000      -0.518227       -14.1017
  14   2.0000      -0.483537       -13.1577
  15   2.0000      -0.469177       -12.7669
  16   2.0000      -0.446325       -12.1451
  17   2.0000      -0.430943       -11.7265
  18   2.0000      -0.422150       -11.4873
  19   2.0000      -0.282182        -7.6786
  20   0.0000       0.093068         2.5325
  21   0.0000       0.113995         3.1020
  22   0.0000       0.123399         3.3579
  23   0.0000       0.129408         3.5214
  24   0.0000       0.148545         4.0421

MULLIKEN ATOMIC CHARGES
-----------------------
   0 C :   -0.122917
   1 C :    0.313380
   2 N :    0.137515
   3 C :    0.123670
   4 H :   -0.040628
   5 H :   -0.495901
   6 H :   -0.142168
   7 H :   -0.174582
   8 C :    0.683498
   9 H :   -0.056122
  10 H :   -0.047155
  11 H :   -0.126309
  12 H :   -0.046986
  13 H :   -0.005296
Sum of atomic charges:    0.0000000

LOEWDIN ATOMIC CHARGES
----------------------
   0 C :   -0.035093
   1 C :   -0.254873
   2 N :    0.166286
   3 C :    0.147357
   4 H :   -0.045145
   5 H :   -0.083262
   6 H :   -0.012208
   7 H :    0.002594
   8 C :    0.127255
   9 H :    0.030742
  10 H :    0.012620
  11 H :   -0.029814
  12 H :   -0.009473
  13 H :   -0.016987

  Mayer bond orders larger than 0.100000
B(  0-C ,  1-C ) :   1.0025 B(  0-C ,  2-N ) :   0.1049 B(  0-C ,  8-C ) :   1.2886
B(  0-C ,  9-H ) :   0.8996 B(  0-C , 10-H ) :   0.8344 B(  0-C , 11-H ) :   0.1805
B(  0-C , 12-H ) :   0.1944 B(  0-C , 13-H ) :   0.1641 B(  1-C ,  2-N ) :   1.0155
B(  1-C ,  3-C ) :   1.6024 B(  1-C ,  7-H ) :  -0.1241 B(  1-C ,  9-H ) :   0.1402
B(  1-C , 10-H ) :   0.1342 B(  2-N ,  3-C ) :   0.2846 B(  2-N ,  6-H ) :   1.1274
B(  2-N ,  7-H ) :   1.2790 B(  3-C ,  4-H ) :   0.9160 B(  3-C ,  5-H ) :   0.8754
B(  6-H ,  7-H ) :  -0.1554 B(  8-C , 11-H ) :   0.8391 B(  8-C , 12-H ) :   0.8022
B(  8-C , 13-H ) :   0.8085

Dispersion correction           -0.002898264
FINAL SINGLE POINT ENERGY      -212.365264345313

DIPOLE MOMENT
-------------
                                X             Y             Z
Electronic contribution:     -2.79601       0.79552      -1.28346
Nuclear contribution   :      2.61570      -0.17401       1.22349
                        -----------------------------------------
Total Dipole Moment    :     -0.18031       0.62151      -0.05997
                        -----------------------------------------
Magnitude (a.u.)       :      0.64991
Magnitude (Debye)      :      1.65193

Rotational constants in cm-1:     0.298189     0.125314     0.096441
Rotational constants in MHz :  8939.495008  3756.825352  2891.223400

                             ****ORCA TERMINATED NORMALLY****
TOTAL RUN TIME: 0 days 0 hours 0 minutes 10 seconds 309 msec
