                         Program Version 5.0.0 -  RELEASE  -
|  1> !wB97X-D3 RIJCOSX def2-SVPD def2/J TightSCF
|  2> *xyz 0 1
|  3> C          4.93020       -7.37532       -2.64962
|  4> C          3.84189       -6.95161       -3.63283
|  5> H          3.45814       -5.95442       -3.40712
|  6> H          2.98848       -7.64361       -3.56708
|  7> S          4.31812       -6.91593       -5.36869
|  8> O          5.40615       -5.89948       -5.51297
|  9> O          3.11191       -6.44508       -6.04379
| 10> F          4.76340       -8.23942       -5.69863
| 11> H          5.27901       -8.35440       -2.90385
| 12> H          4.53000       -7.38577       -1.65734
| 13> H          5.74437       -6.68276       -2.69856
| 14> *
| 15>
| 16> %MaxCore 64000
| 17>
| 18> %pal nprocs 18
| 19> end
| 20>
| 21> %scf
| 22>   MaxIter 150
| 23> end
| 24>
| 25>
| 26>                          ****END OF INPUT****

CARTESIAN COORDINATES (ANGSTROEM)
---------------------------------
  C      4.930200   -7.375320   -2.649620
  C      3.841890   -6.951610   -3.632830
  H      3.458140   -5.954420   -3.407120
  H      2.988480   -7.643610   -3.567080
  S      4.318120   -6.915930   -5.368690
  O      5.406150   -5.899480   -5.512970
  O      3.111910   -6.445080   -6.043790
  F      4.763400   -8.239420   -5.698630
  H      5.279010   -8.354400   -2.903850
  H      4.530000   -7.385770   -1.657340
  H      5.744370   -6.682760   -2.698560

 Total Charge           Charge          ....    0
 Multiplicity           Mult            ....    1
 Number of Electrons    NEL             ....   58
 Basis Dimension        Dim             ....  176

ORBITAL ENERGIES
----------------

  NO   OCC          E(Eh)            E(eV)
   0   2.0000     -89.238329     -2428.2984
   1   2.0000     -24.929131      -678.3561
   2   2.0000     -19.256047      -523.9837
   3   2.0000     -19.248631      -523.7819
   4   2.0000     -10.361406      -281.9482
   5   2.0000     -10.316945      -280.7383
   6   2.0000      -8.312653      -226.1988
   7   2.0000      -6.276542      -170.7934
   8   2.0000      -6.269731      -170.6081
   9   2.0000      -6.268513      -170.5749
  10   2.0000      -1.504367       -40.9359
  11   2.0000      -1.217067       -33.1181
  12   2.0000      -1.109316       -30.1860
  13   2.0000      -0.943730       -25.6802
  14   2.0000      -0.851843       -23.1798
  15   2.0000      -0.795479       -21.6461
  16   2.0000      -0.713202       -19.4072
  17   2.0000      -0.703101       -19.1324
  18   2.0000      -0.658071       -17.9070
  19   2.0000      -0.600457       -16.3393
  20   2.0000      -0.585200       -15.9241
  21   2.0000      -0.556807       -15.1515
  22   2.0000      -0.535048       -14.5594
  23   2.0000      -0.510689       -13.8966
  24   2.0000      -0.498884       -13.5753
  25   2.0000      -0.475961       -12.9516
  26   2.0000      -0.426843       -11.6150
  27   2.0000      -0.420298       -11.4369
  28   2.0000      -0.398655       -10.8480
  29   0.0000       0.060441         1.6447
  30   0.0000       0.090355         2.4587
  31   0.0000       0.095255         2.5920
  32   0.0000       0.098575         2.6824
  33   0.0000       0.119520         3.2523

MULLIKEN ATOMIC CHARGES
-----------------------
   0 C :    0.664451
   1 C :   -0.455672
   2 H :    0.026909
   3 H :    0.073946
   4 S :    1.511402
   5 O :   -0.705578
   6 O :   -0.664053
   7 F :   -0.398068
   8 H :   -0.028275
   9 H :   -0.019820
  10 H :   -0.005242
Sum of atomic charges:    0.0000000

LOEWDIN ATOMIC CHARGES
----------------------
   0 C :    0.128094
   1 C :   -0.092812
   2 H :    0.037138
   3 H :    0.029972
   4 S :    1.132192
   5 O :   -0.488743
   6 O :   -0.479016
   7 F :   -0.253395
   8 H :   -0.008259
   9 H :   -0.002913
  10 H :   -0.002257

  Mayer bond orders larger than 0.100000
B(  0-C ,  1-C ) :   1.2664 B(  0-C ,  8-H ) :   0.8284 B(  0-C ,  9-H ) :   0.7767
B(  0-C , 10-H ) :   0.8517 B(  1-C ,  2-H ) :   1.0111 B(  1-C ,  3-H ) :   0.9757
B(  1-C ,  4-S ) :   0.9990 B(  1-C ,  8-H ) :   0.1730 B(  1-C ,  9-H ) :   0.1848
B(  1-C , 10-H ) :   0.1733 B(  4-S ,  5-O ) :   1.4900 B(  4-S ,  6-O ) :   1.5507
B(  4-S ,  7-F ) :   0.6686

Dispersion correction           -0.002878280
FINAL SINGLE POINT ENERGY      -727.171410697564

DIPOLE MOMENT
-------------
                                X             Y             Z
Electronic contribution:      0.19493      -1.34269      -8.99938
Nuclear contribution   :     -0.31946       0.18980      10.55057
                        -----------------------------------------
Total Dipole Moment    :     -0.12452      -1.15289       1.55119
                        -----------------------------------------
Magnitude (a.u.)       :      1.93672
Magnitude (Debye)      :      4.92274

Rotational constants in cm-1:     0.151421     0.081183     0.078684
Rotational constants in MHz :  4539.489207  2433.790160  2358.892966

                             ****ORCA TERMINATED NORMALLY****
TOTAL RUN TIME: 0 days 0 hours 0 minutes 9 seconds 676 msec
