                         Program Version 5.0.0 -  RELEASE  -
|  1> !wB97X-D3 RIJCOSX def2-SVPD def2/J TightSCF xyzfile
|  2>
|  3> *xyzfile 0 1 D4.xyz
|  4>
|  5> %MaxCore 64000
|  6>
|  7> %pal nprocs 18
|  8> end
|  9>
| 10> %scf
| 11>   MaxIter 150
| 12> end
| 13>
| 14>
| 15>                          ****END OF INPUT****

CARTESIAN COORDINATES (ANGSTROEM)
---------------------------------
  C      5.558206   -1.992914   -6.215054
  C      4.930199   -7.375319   -2.649623
  C      3.841892   -6.951611   -3.632829
  H      3.458144   -5.954425   -3.407121
  H      2.988484   -7.643606   -3.567078
  S      4.318115   -6.915930   -5.368692
  C      4.181880   -2.589671   -6.298911
  N      3.145873   -1.768431   -6.486753
  C      4.019102   -3.864307   -6.227427
  H      4.768490   -4.591153   -5.990773
  H      3.122405   -4.333392   -6.314620
  H      3.281635   -0.777786   -6.566549
  H      2.212549   -2.134193   -6.562246
  O      5.406154   -5.899480   -5.512972
  F      3.111910   -6.445079   -6.043792
  C      6.419260   -2.542944   -5.077630
  C      5.872267   -5.002756   -2.427819
  C      6.173994   -6.485522   -2.606315
  H      6.734852   -6.613767   -3.534015
  H      6.821463   -6.831018   -1.793617
  H      4.469612   -7.406168   -1.655876
  H      5.230134   -8.398678   -2.885906
  C      5.896512   -2.169314   -3.694552
  H      7.428880   -2.143665   -5.208078
  H      6.505894   -3.627541   -5.175502
  C      6.807804   -2.623428   -2.551019
  H      4.894708   -2.589732   -3.557501
  H      5.778823   -1.081255   -3.635790
  C      7.111544   -4.122463   -2.520363
  H      7.751615   -2.071393   -2.614406
  H      6.345837   -2.326401   -1.604086
  H      5.362882   -4.828697   -1.471335
  H      5.174429   -4.702577   -3.211298
  H      7.778329   -4.329347   -1.677651
  H      7.673189   -4.402845   -3.417586
  O      4.763396   -8.239424   -5.698629
  H      6.036826   -2.198189   -7.176852
  H      5.467610   -0.907371   -6.127968

 Total Charge           Charge          ....    0
 Multiplicity           Mult            ....    1
 Number of Electrons    NEL             ....  136
 Basis Dimension        Dim             ....  512

ORBITAL ENERGIES
----------------

  NO   OCC          E(Eh)            E(eV)
   0   2.0000     -89.241807     -2428.3930
   1   2.0000     -24.915177      -677.9764
   2   2.0000     -19.267313      -524.2903
   3   2.0000     -19.249284      -523.7997
   4   2.0000     -14.424548      -392.5119
   5   2.0000     -10.356205      -281.8067
   6   2.0000     -10.318748      -280.7874
   7   2.0000     -10.295018      -280.1417
   8   2.0000     -10.289250      -279.9847
   9   2.0000     -10.281228      -279.7664
  10   2.0000     -10.277767      -279.6723
  11   2.0000     -10.277366      -279.6614
  12   2.0000     -10.276773      -279.6452
  13   2.0000     -10.272181      -279.5203
  14   2.0000     -10.271978      -279.5147
  15   2.0000     -10.191371      -277.3213
  16   2.0000      -8.314434      -226.2473
  17   2.0000      -6.278037      -170.8341
  18   2.0000      -6.272060      -170.6714
  19   2.0000      -6.270501      -170.6290
  20   2.0000      -1.481912       -40.3249
  21   2.0000      -1.231697       -33.5162
  22   2.0000      -1.126913       -30.6648
  23   2.0000      -1.021930       -27.8081
  24   2.0000      -0.952553       -25.9203
  25   2.0000      -0.920604       -25.0509
  26   2.0000      -0.892852       -24.2957
  27   2.0000      -0.868117       -23.6227
  28   2.0000      -0.834449       -22.7065
  29   2.0000      -0.815242       -22.1839
  30   2.0000      -0.790169       -21.5016
  31   2.0000      -0.760599       -20.6970
  32   2.0000      -0.726430       -19.7672
  33   2.0000      -0.707584       -19.2543
  34   2.0000      -0.694387       -18.8952
  35   2.0000      -0.676725       -18.4146
  36   2.0000      -0.671423       -18.2704
  37   2.0000      -0.657074       -17.8799
  38   2.0000      -0.642531       -17.4842
  39   2.0000      -0.617408       -16.8005
  40   2.0000      -0.601361       -16.3639
  41   2.0000      -0.597905       -16.2698
  42   2.0000      -0.582205       -15.8426
  43   2.0000      -0.571372       -15.5478
  44   2.0000      -0.559787       -15.2326
  45   2.0000      -0.550847       -14.9893
  46   2.0000      -0.546433       -14.8692
  47   2.0000      -0.527172       -14.3451
  48   2.0000      -0.514674       -14.0050
  49   2.0000      -0.509120       -13.8539
  50   2.0000      -0.506713       -13.7884
  51   2.0000      -0.491797       -13.3825
  52   2.0000      -0.486104       -13.2276
  53   2.0000      -0.468058       -12.7365
  54   2.0000      -0.462181       -12.5766
  55   2.0000      -0.453848       -12.3498
  56   2.0000      -0.446716       -12.1558
  57   2.0000      -0.438883       -11.9426
  58   2.0000      -0.435022       -11.8376
  59   2.0000      -0.430917       -11.7259
  60   2.0000      -0.417964       -11.3734
  61   2.0000      -0.416290       -11.3278
  62   2.0000      -0.414588       -11.2815
  63   2.0000      -0.400203       -10.8901
  64   2.0000      -0.395306       -10.7568
  65   2.0000      -0.392010       -10.6671
  66   2.0000      -0.363303        -9.8860
  67   2.0000      -0.267176        -7.2702
  68   0.0000       0.067605         1.8396
  69   0.0000       0.085744         2.3332
  70   0.0000       0.090521         2.4632
  71   0.0000       0.097245         2.6462
  72   0.0000       0.106323         2.8932

MULLIKEN ATOMIC CHARGES
-----------------------
   0 C :    0.769476
   1 C :    0.427340
   2 C :   -0.148484
   3 H :    0.291124
   4 H :   -0.132392
   5 S :    1.622714
   6 C :    0.184821
   7 N :    0.102188
   8 C :    1.169480
   9 H :   -0.230358
  10 H :   -1.114788
  11 H :   -0.133246
  12 H :   -0.181310
  13 O :   -0.871905
  14 F :   -0.476387
  15 C :    0.263265
  16 C :   -0.038737
  17 C :    0.193565
  18 H :    0.081055
  19 H :   -0.292201
  20 H :    0.087035
  21 H :    0.024770
  22 C :   -0.130647
  23 H :   -0.105301
  24 H :   -0.561021
  25 C :    0.609774
  26 H :    0.189580
  27 H :   -0.309111
  28 C :    0.073928
  29 H :    0.040995
  30 H :   -0.035649
  31 H :    0.018984
  32 H :   -0.322489
  33 H :   -0.287439
  34 H :    0.090238
  35 O :   -0.788333
  36 H :   -0.108025
  37 H :    0.027490
Sum of atomic charges:   -0.0000000

LOEWDIN ATOMIC CHARGES
----------------------
   0 C :    0.014850
   1 C :   -0.017479
   2 C :   -0.045713
   3 H :    0.018790
   4 H :    0.031531
   5 S :    1.176182
   6 C :   -0.234658
   7 N :    0.167018
   8 C :    0.168404
   9 H :   -0.164745
  10 H :   -0.094154
  11 H :   -0.015770
  12 H :   -0.000490
  13 O :   -0.463044
  14 F :   -0.256616
  15 C :   -0.017955
  16 C :   -0.033946
  17 C :   -0.026972
  18 H :    0.017121
  19 H :    0.031099
  20 H :    0.038711
  21 H :    0.032638
  22 C :   -0.033392
  23 H :    0.029053
  24 H :   -0.002105
  25 C :   -0.034307
  26 H :    0.013222
  27 H :    0.022336
  28 C :   -0.031969
  29 H :    0.022034
  30 H :    0.020935
  31 H :    0.037248
  32 H :   -0.014656
  33 H :    0.024055
  34 H :    0.021465
  35 O :   -0.445708
  36 H :    0.033424
  37 H :    0.013563

  Mayer bond orders larger than 0.100000
B(  0-C ,  6-C ) :   0.9575 B(  0-C ,  8-C ) :   0.1475 B(  0-C ,  9-H ) :  -0.1294
B(  0-C , 15-C ) :   1.2098 B(  0-C , 24-H ) :   0.1030 B(  0-C , 36-H ) :   0.5879
B(  0-C , 37-H ) :   0.7062 B(  1-C ,  2-C ) :   1.2634 B(  1-C ,  4-H ) :   0.1606
B(  1-C , 17-C ) :   1.2117 B(  1-C , 20-H ) :   0.7300 B(  1-C , 21-H ) :   0.6925
B(  2-C ,  3-H ) :   0.7764 B(  2-C ,  4-H ) :   0.8965 B(  2-C ,  5-S ) :   1.0146
B(  2-C , 20-H ) :   0.1752 B(  2-C , 21-H ) :   0.1148 B(  2-C , 35-O ) :   0.1272
B(  5-S , 13-O ) :   1.2887 B(  5-S , 14-F ) :   0.6093 B(  5-S , 35-O ) :   1.4801
B(  6-C ,  7-N ) :   0.8290 B(  6-C ,  8-C ) :   1.9937 B(  6-C ,  9-H ) :  -0.1315
B(  6-C , 12-H ) :  -0.1441 B(  6-C , 36-H ) :   0.2719 B(  6-C , 37-H ) :   0.1042
B(  7-N ,  8-C ) :   0.4746 B(  7-N , 10-H ) :  -0.1159 B(  7-N , 11-H ) :   1.1392
B(  7-N , 12-H ) :   1.2968 B(  8-C ,  9-H ) :   0.3772 B(  8-C , 10-H ) :  -0.2434
B(  8-C , 14-F ) :  -0.1627 B(  8-C , 24-H ) :   0.1428 B(  9-H , 10-H ) :  -0.2205
B(  9-H , 14-F ) :   0.1175 B(  9-H , 24-H ) :   0.1502 B( 10-H , 14-F ) :   0.2376
B( 10-H , 24-H ) :  -0.1172 B( 11-H , 12-H ) :  -0.1535 B( 13-O , 24-H ) :   0.1735
B( 13-O , 35-O ) :   0.1454 B( 15-C , 22-C ) :   1.1969 B( 15-C , 23-H ) :   0.7601
B( 15-C , 24-H ) :   0.7040 B( 15-C , 26-H ) :   0.1204 B( 15-C , 27-H ) :   0.1857
B( 15-C , 36-H ) :   0.2930 B( 15-C , 37-H ) :   0.1642 B( 16-C , 17-C ) :   1.1810
B( 16-C , 18-H ) :   0.1206 B( 16-C , 19-H ) :   0.1641 B( 16-C , 28-C ) :   1.2174
B( 16-C , 31-H ) :   0.7874 B( 16-C , 32-H ) :   1.0224 B( 16-C , 33-H ) :   0.1998
B( 16-C , 34-H ) :   0.1402 B( 17-C , 18-H ) :   0.8524 B( 17-C , 19-H ) :   0.9011
B( 17-C , 20-H ) :   0.1032 B( 17-C , 21-H ) :   0.2413 B( 17-C , 28-C ) :   0.1175
B( 22-C , 23-H ) :   0.1612 B( 22-C , 24-H ) :   0.1771 B( 22-C , 25-C ) :   1.0841
B( 22-C , 26-H ) :   0.8177 B( 22-C , 27-H ) :   1.0939 B( 22-C , 29-H ) :   0.1568
B( 22-C , 30-H ) :   0.2281 B( 25-C , 28-C ) :   1.1242 B( 25-C , 29-H ) :   0.6806
B( 25-C , 30-H ) :   0.7154 B( 26-H , 32-H ) :   0.1494 B( 28-C , 29-H ) :   0.2104
B( 28-C , 30-H ) :   0.1222 B( 28-C , 31-H ) :   0.1100 B( 28-C , 33-H ) :   0.9868
B( 28-C , 34-H ) :   0.8244 B( 31-H , 32-H ) :   0.1274 B( 36-H , 37-H ) :  -0.1094

Dispersion correction           -0.020877469
FINAL SINGLE POINT ENERGY     -1134.726292033624

DIPOLE MOMENT
-------------
                                X             Y             Z
Electronic contribution:    -11.71945     -18.15289     -14.59165
Nuclear contribution   :     10.61624      18.49702      15.75668
                        -----------------------------------------
Total Dipole Moment    :     -1.10320       0.34413       1.16503
                        -----------------------------------------
Magnitude (a.u.)       :      1.64097
Magnitude (Debye)      :      4.17101

Rotational constants in cm-1:     0.017796     0.012372     0.008231
Rotational constants in MHz :   533.524905   370.895973   246.762347

                             ****ORCA TERMINATED NORMALLY****
TOTAL RUN TIME: 0 days 0 hours 2 minutes 34 seconds 351 msec
