                         Program Version 5.0.0 -  RELEASE  -
|  1> !wB97X-D3 RIJCOSX def2-SVPD def2/J TightSCF xyzfile
|  2>
|  3> *xyzfile 0 1 D6.xyz
|  4>
|  5> %MaxCore 64000
|  6>
|  7> %pal nprocs 18
|  8> end
|  9>
| 10> %scf
| 11>   MaxIter 150
| 12> end
| 13>
| 14>
| 15>                          ****END OF INPUT****

CARTESIAN COORDINATES (ANGSTROEM)
---------------------------------
  C      5.558206   -1.992914   -6.215054
  C      4.930199   -7.375319   -2.649623
  C      3.841892   -6.951611   -3.632829
  H      3.458144   -5.954425   -3.407121
  H      2.988484   -7.643606   -3.567078
  S      4.318115   -6.915930   -5.368692
  C      4.181880   -2.589671   -6.298911
  N      3.145873   -1.768431   -6.486753
  C      4.019102   -3.864307   -6.227427
  H      4.768490   -4.591153   -5.990773
  H      3.122405   -4.333392   -6.314620
  H      3.281635   -0.777786   -6.566549
  H      2.212549   -2.134193   -6.562246
  O      5.406154   -5.899480   -5.512972
  O      3.111910   -6.445079   -6.043792
  C      6.419260   -2.542944   -5.077630
  C      5.872267   -5.002756   -2.427819
  C      6.173994   -6.485522   -2.606315
  H      6.734852   -6.613767   -3.534015
  H      6.821463   -6.831018   -1.793617
  H      4.469612   -7.406168   -1.655876
  H      5.230134   -8.398678   -2.885906
  C      5.896512   -2.169314   -3.694552
  H      7.428880   -2.143665   -5.208078
  H      6.505894   -3.627541   -5.175502
  C      6.807804   -2.623428   -2.551019
  H      4.894708   -2.589732   -3.557501
  H      5.778823   -1.081255   -3.635790
  C      7.111544   -4.122463   -2.520363
  H      7.751615   -2.071393   -2.614406
  H      6.345837   -2.326401   -1.604086
  H      5.362882   -4.828697   -1.471335
  H      5.174429   -4.702577   -3.211298
  H      7.778329   -4.329347   -1.677651
  H      7.673189   -4.402845   -3.417586
  F      4.763396   -8.239424   -5.698629
  H      6.036826   -2.198189   -7.176852
  H      5.467610   -0.907371   -6.127968

 Total Charge           Charge          ....    0
 Multiplicity           Mult            ....    1
 Number of Electrons    NEL             ....  136
 Basis Dimension        Dim             ....  512

ORBITAL ENERGIES
----------------

  NO   OCC          E(Eh)            E(eV)
   0   2.0000     -89.244176     -2428.4575
   1   2.0000     -24.931082      -678.4092
   2   2.0000     -19.258304      -524.0451
   3   2.0000     -19.253195      -523.9061
   4   2.0000     -14.412054      -392.1719
   5   2.0000     -10.357345      -281.8377
   6   2.0000     -10.321605      -280.8652
   7   2.0000     -10.293268      -280.0941
   8   2.0000     -10.282209      -279.7931
   9   2.0000     -10.279893      -279.7301
  10   2.0000     -10.277746      -279.6717
  11   2.0000     -10.274911      -279.5945
  12   2.0000     -10.269034      -279.4346
  13   2.0000     -10.267924      -279.4044
  14   2.0000     -10.267029      -279.3801
  15   2.0000     -10.175414      -276.8871
  16   2.0000      -8.316817      -226.3121
  17   2.0000      -6.280756      -170.9081
  18   2.0000      -6.274144      -170.7281
  19   2.0000      -6.272761      -170.6905
  20   2.0000      -1.505407       -40.9642
  21   2.0000      -1.224184       -33.3117
  22   2.0000      -1.118987       -30.4492
  23   2.0000      -1.009283       -27.4640
  24   2.0000      -0.956452       -26.0264
  25   2.0000      -0.918919       -25.0051
  26   2.0000      -0.890100       -24.2209
  27   2.0000      -0.866177       -23.5699
  28   2.0000      -0.837277       -22.7835
  29   2.0000      -0.813795       -22.1445
  30   2.0000      -0.787740       -21.4355
  31   2.0000      -0.757217       -20.6049
  32   2.0000      -0.726940       -19.7810
  33   2.0000      -0.712334       -19.3836
  34   2.0000      -0.707971       -19.2649
  35   2.0000      -0.690133       -18.7795
  36   2.0000      -0.663112       -18.0442
  37   2.0000      -0.653635       -17.7863
  38   2.0000      -0.633322       -17.2336
  39   2.0000      -0.607480       -16.5304
  40   2.0000      -0.602465       -16.3939
  41   2.0000      -0.594173       -16.1683
  42   2.0000      -0.576710       -15.6931
  43   2.0000      -0.570803       -15.5323
  44   2.0000      -0.562862       -15.3162
  45   2.0000      -0.551139       -14.9973
  46   2.0000      -0.546331       -14.8664
  47   2.0000      -0.521934       -14.2025
  48   2.0000      -0.516611       -14.0577
  49   2.0000      -0.511069       -13.9069
  50   2.0000      -0.510603       -13.8942
  51   2.0000      -0.489954       -13.3323
  52   2.0000      -0.471427       -12.8282
  53   2.0000      -0.464670       -12.6443
  54   2.0000      -0.452765       -12.3204
  55   2.0000      -0.445021       -12.1096
  56   2.0000      -0.442810       -12.0495
  57   2.0000      -0.435885       -11.8610
  58   2.0000      -0.427334       -11.6284
  59   2.0000      -0.422461       -11.4958
  60   2.0000      -0.415588       -11.3087
  61   2.0000      -0.412865       -11.2346
  62   2.0000      -0.409773       -11.1505
  63   2.0000      -0.397975       -10.8294
  64   2.0000      -0.392214       -10.6727
  65   2.0000      -0.386840       -10.5265
  66   2.0000      -0.360551        -9.8111
  67   2.0000      -0.252794        -6.8789
  68   0.0000       0.061644         1.6774
  69   0.0000       0.084001         2.2858
  70   0.0000       0.092376         2.5137
  71   0.0000       0.097510         2.6534
  72   0.0000       0.102489         2.7889

MULLIKEN ATOMIC CHARGES
-----------------------
   0 C :    0.777297
   1 C :    0.465427
   2 C :   -0.131024
   3 H :    0.287020
   4 H :   -0.147511
   5 S :    1.667065
   6 C :    0.171893
   7 N :    0.106203
   8 C :    1.253431
   9 H :   -0.247836
  10 H :   -1.165513
  11 H :   -0.137760
  12 H :   -0.181904
  13 O :   -0.893627
  14 O :   -0.727037
  15 C :    0.258361
  16 C :   -0.038042
  17 C :    0.223428
  18 H :    0.080021
  19 H :   -0.291761
  20 H :    0.073679
  21 H :   -0.000676
  22 C :   -0.131103
  23 H :   -0.103145
  24 H :   -0.555662
  25 C :    0.608521
  26 H :    0.190993
  27 H :   -0.305716
  28 C :    0.068232
  29 H :    0.039266
  30 H :   -0.035925
  31 H :    0.026113
  32 H :   -0.339113
  33 H :   -0.284919
  34 H :    0.092729
  35 F :   -0.581017
  36 H :   -0.115142
  37 H :    0.024755
Sum of atomic charges:    0.0000000

LOEWDIN ATOMIC CHARGES
----------------------
   0 C :    0.012457
   1 C :   -0.033225
   2 C :   -0.035607
   3 H :    0.032584
   4 H :    0.032387
   5 S :    1.189729
   6 C :   -0.238696
   7 N :    0.164065
   8 C :    0.180109
   9 H :   -0.158127
  10 H :   -0.096292
  11 H :   -0.019177
  12 H :   -0.000804
  13 O :   -0.467365
  14 O :   -0.455399
  15 C :   -0.019919
  16 C :   -0.032011
  17 C :   -0.031976
  18 H :    0.011423
  19 H :    0.030292
  20 H :    0.036525
  21 H :    0.025717
  22 C :   -0.032912
  23 H :    0.027637
  24 H :   -0.003601
  25 C :   -0.034664
  26 H :    0.013942
  27 H :    0.022515
  28 C :   -0.032480
  29 H :    0.021780
  30 H :    0.020700
  31 H :    0.038049
  32 H :   -0.012708
  33 H :    0.023449
  34 H :    0.020913
  35 F :   -0.242805
  36 H :    0.031391
  37 H :    0.012106

  Mayer bond orders larger than 0.100000
B(  0-C ,  6-C ) :   0.9455 B(  0-C ,  8-C ) :   0.1516 B(  0-C ,  9-H ) :  -0.1208
B(  0-C , 15-C ) :   1.2074 B(  0-C , 24-H ) :   0.1038 B(  0-C , 36-H ) :   0.5853
B(  0-C , 37-H ) :   0.7072 B(  1-C ,  2-C ) :   1.2145 B(  1-C ,  4-H ) :   0.1459
B(  1-C , 17-C ) :   1.2106 B(  1-C , 20-H ) :   0.7393 B(  1-C , 21-H ) :   0.6823
B(  2-C ,  3-H ) :   0.8056 B(  2-C ,  4-H ) :   0.8923 B(  2-C ,  5-S ) :   1.0267
B(  2-C , 20-H ) :   0.1578 B(  2-C , 21-H ) :   0.1061 B(  2-C , 35-F ) :   0.1384
B(  4-H ,  5-S ) :   0.1116 B(  5-S , 13-O ) :   1.2698 B(  5-S , 14-O ) :   1.4788
B(  5-S , 35-F ) :   0.4966 B(  6-C ,  7-N ) :   0.8294 B(  6-C ,  8-C ) :   1.9822
B(  6-C ,  9-H ) :  -0.1493 B(  6-C , 12-H ) :  -0.1419 B(  6-C , 36-H ) :   0.2714
B(  7-N ,  8-C ) :   0.4733 B(  7-N , 10-H ) :  -0.1201 B(  7-N , 11-H ) :   1.1374
B(  7-N , 12-H ) :   1.2982 B(  8-C ,  9-H ) :   0.3286 B(  8-C , 10-H ) :  -0.2747
B(  8-C , 14-O ) :  -0.2170 B(  8-C , 24-H ) :   0.1395 B(  9-H , 10-H ) :  -0.1818
B(  9-H , 24-H ) :   0.1486 B( 10-H , 14-O ) :   0.3364 B( 10-H , 24-H ) :  -0.1250
B( 11-H , 12-H ) :  -0.1520 B( 13-O , 14-O ) :   0.1338 B( 13-O , 24-H ) :   0.1621
B( 13-O , 35-F ) :   0.1029 B( 15-C , 22-C ) :   1.1977 B( 15-C , 23-H ) :   0.7601
B( 15-C , 24-H ) :   0.7058 B( 15-C , 26-H ) :   0.1196 B( 15-C , 27-H ) :   0.1875
B( 15-C , 36-H ) :   0.2935 B( 15-C , 37-H ) :   0.1655 B( 16-C , 17-C ) :   1.1874
B( 16-C , 18-H ) :   0.1245 B( 16-C , 19-H ) :   0.1554 B( 16-C , 28-C ) :   1.2216
B( 16-C , 31-H ) :   0.7791 B( 16-C , 32-H ) :   1.0214 B( 16-C , 33-H ) :   0.2002
B( 16-C , 34-H ) :   0.1395 B( 17-C , 18-H ) :   0.8482 B( 17-C , 19-H ) :   0.8949
B( 17-C , 20-H ) :   0.1046 B( 17-C , 21-H ) :   0.2427 B( 17-C , 28-C ) :   0.1169
B( 22-C , 23-H ) :   0.1608 B( 22-C , 24-H ) :   0.1759 B( 22-C , 25-C ) :   1.0833
B( 22-C , 26-H ) :   0.8205 B( 22-C , 27-H ) :   1.0906 B( 22-C , 29-H ) :   0.1578
B( 22-C , 30-H ) :   0.2281 B( 25-C , 28-C ) :   1.1245 B( 25-C , 29-H ) :   0.6796
B( 25-C , 30-H ) :   0.7163 B( 26-H , 32-H ) :   0.1508 B( 28-C , 29-H ) :   0.2102
B( 28-C , 30-H ) :   0.1213 B( 28-C , 31-H ) :   0.1087 B( 28-C , 33-H ) :   0.9868
B( 28-C , 34-H ) :   0.8236 B( 31-H , 32-H ) :   0.1321 B( 36-H , 37-H ) :  -0.1111

Dispersion correction           -0.020790691
FINAL SINGLE POINT ENERGY     -1134.713238402741

DIPOLE MOMENT
-------------
                                X             Y             Z
Electronic contribution:     -8.83515     -21.52248     -13.98502
Nuclear contribution   :      8.67311      20.60825      15.35056
                        -----------------------------------------
Total Dipole Moment    :     -0.16204      -0.91423       1.36554
                        -----------------------------------------
Magnitude (a.u.)       :      1.65130
Magnitude (Debye)      :      4.19727

Rotational constants in cm-1:     0.017976     0.012151     0.008188
Rotational constants in MHz :   538.898457   364.286417   245.482451

                             ****ORCA TERMINATED NORMALLY****
TOTAL RUN TIME: 0 days 0 hours 2 minutes 37 seconds 309 msec
