                         Program Version 5.0.0 -  RELEASE  -
|  1> !BLYP D3BJ RIJCOSX def2-SVPD def2/J TightSCF
|  2> *xyz -1 1
|  3> C          0.84888        2.66797       -4.30235
|  4> C          2.09343        1.86104       -4.65684
|  5> H          2.44481        2.04157       -5.67499
|  6> H          2.90175        2.13786       -3.98034
|  7> S          1.87964        0.07859       -4.46297
|  8> O          3.20757       -0.46611       -4.42026
|  9> O          1.07506       -0.05616       -3.26876
| 10> O          1.13166       -0.31996       -5.67903
| 11> H          0.05064        2.40112       -4.96303
| 12> H          1.06043        3.71210       -4.40203
| 13> H          0.56237        2.45684       -3.29327
| 14> *
| 15>
| 16> %MaxCore 64000
| 17>
| 18> %pal nprocs 4
| 19> end
| 20>
| 21> %scf
| 22>   MaxIter 150
| 23> end
| 24>
| 25>
| 26>                          ****END OF INPUT****

CARTESIAN COORDINATES (ANGSTROEM)
---------------------------------
  C      0.848880    2.667970   -4.302350
  C      2.093430    1.861040   -4.656840
  H      2.444810    2.041570   -5.674990
  H      2.901750    2.137860   -3.980340
  S      1.879640    0.078590   -4.462970
  O      3.207570   -0.466110   -4.420260
  O      1.075060   -0.056160   -3.268760
  O      1.131660   -0.319960   -5.679030
  H      0.050640    2.401120   -4.963030
  H      1.060430    3.712100   -4.402030
  H      0.562370    2.456840   -3.293270

 Total Charge           Charge          ....   -1
 Multiplicity           Mult            ....    1
 Number of Electrons    NEL             ....   58
 Basis Dimension        Dim             ....  176

ORBITAL ENERGIES
----------------

  NO   OCC          E(Eh)            E(eV)
   0   2.0000     -88.127565     -2398.0730
   1   2.0000     -18.573717      -505.4165
   2   2.0000     -18.570588      -505.3314
   3   2.0000     -18.558696      -505.0078
   4   2.0000      -9.779640      -266.1175
   5   2.0000      -9.776577      -266.0342
   6   2.0000      -7.664415      -208.5593
   7   2.0000      -5.699544      -155.0925
   8   2.0000      -5.699377      -155.0879
   9   2.0000      -5.698645      -155.0680
  10   2.0000      -0.836448       -22.7609
  11   2.0000      -0.704281       -19.1645
  12   2.0000      -0.678828       -18.4719
  13   2.0000      -0.546800       -14.8792
  14   2.0000      -0.430347       -11.7103
  15   2.0000      -0.317117        -8.6292
  16   2.0000      -0.263198        -7.1620
  17   2.0000      -0.259442        -7.0598
  18   2.0000      -0.222541        -6.0556
  19   2.0000      -0.207897        -5.6572
  20   2.0000      -0.202974        -5.5232
  21   2.0000      -0.181918        -4.9502
  22   2.0000      -0.166897        -4.5415
  23   2.0000      -0.101633        -2.7656
  24   2.0000      -0.100422        -2.7326
  25   2.0000      -0.069715        -1.8970
  26   2.0000      -0.064208        -1.7472
  27   2.0000      -0.052289        -1.4229
  28   2.0000      -0.018211        -0.4955
  29   0.0000       0.127135         3.4595
  30   0.0000       0.155797         4.2395
  31   0.0000       0.166640         4.5345
  32   0.0000       0.170888         4.6501
  33   0.0000       0.193590         5.2679

MULLIKEN ATOMIC CHARGES
-----------------------
   0 C :    1.163875
   1 C :   -0.054331
   2 H :   -0.231200
   3 H :   -0.181767
   4 S :    1.165893
   5 O :   -0.719214
   6 O :   -0.742397
   7 O :   -0.778344
   8 H :   -0.185641
   9 H :   -0.273105
  10 H :   -0.163770
Sum of atomic charges:   -1.0000000

LOEWDIN ATOMIC CHARGES
----------------------
   0 C :    0.109178
   1 C :   -0.127628
   2 H :   -0.003064
   3 H :   -0.010450
   4 S :    0.814391
   5 O :   -0.554044
   6 O :   -0.552621
   7 O :   -0.578902
   8 H :   -0.021819
   9 H :   -0.042580
  10 H :   -0.032462

  Mayer bond orders larger than 0.100000
B(  0-C ,  1-C ) :   1.2808 B(  0-C ,  3-H ) :   0.1315 B(  0-C ,  8-H ) :   0.7166
B(  0-C ,  9-H ) :   0.6215 B(  0-C , 10-H ) :   0.7261 B(  1-C ,  2-H ) :   0.9155
B(  1-C ,  3-H ) :   0.9231 B(  1-C ,  4-S ) :   0.8731 B(  1-C ,  8-H ) :   0.2376
B(  1-C ,  9-H ) :   0.2985 B(  1-C , 10-H ) :   0.2586 B(  4-S ,  5-O ) :   1.3872
B(  4-S ,  6-O ) :   1.3378 B(  4-S ,  7-O ) :   1.3070

Dispersion correction           -0.020613157
FINAL SINGLE POINT ENERGY      -702.710107723639

DIPOLE MOMENT
-------------
                                X             Y             Z
Electronic contribution:      1.60992      -7.70473       0.05865
Nuclear contribution   :     -1.55288       9.51857       0.00420
                        -----------------------------------------
Total Dipole Moment    :      0.05704       1.81384       0.06285
                        -----------------------------------------
Magnitude (a.u.)       :      1.81582
Magnitude (Debye)      :      4.61545

Rotational constants in cm-1:     0.163401     0.083833     0.082462
Rotational constants in MHz :  4898.624208  2513.264548  2472.149188

                             ****ORCA TERMINATED NORMALLY****
TOTAL RUN TIME: 0 days 0 hours 0 minutes 10 seconds 582 msec
