                         Program Version 5.0.0 -  RELEASE  -
|  1> !BLYP D3BJ RIJCOSX def2-SVPD def2/J TightSCF
|  2> *xyz 1 1
|  3> C         -0.46129        2.23469       -4.98962
|  4> C          0.84888        2.66797       -4.30235
|  5> C         -0.42384        2.39877       -6.47432
|  6> N         -0.95947        3.49265       -7.00740
|  7> N          0.14558        1.48689       -7.20399
|  8> H          0.56537        0.69681       -6.72386
|  9> H          0.22068        1.58177       -8.20752
| 10> H         -1.40624        4.18151       -6.40326
| 11> H         -0.93421        3.68160       -7.99947
| 12> H         -1.28888        2.82674       -4.59500
| 13> H         -0.65170        1.18634       -4.75655
| 14> H          1.66208        2.08894       -4.68750
| 15> H          0.76716        2.51042       -3.24717
| 16> H          1.02677        3.70527       -4.49537
| 17> *
| 18>
| 19> %MaxCore 64000
| 20>
| 21> %pal nprocs 4
| 22> end
| 23>
| 24> %scf
| 25>   MaxIter 150
| 26> end
| 27>
| 28>
| 29>                          ****END OF INPUT****

CARTESIAN COORDINATES (ANGSTROEM)
---------------------------------
  C     -0.461290    2.234690   -4.989620
  C      0.848880    2.667970   -4.302350
  C     -0.423840    2.398770   -6.474320
  N     -0.959470    3.492650   -7.007400
  N      0.145580    1.486890   -7.203990
  H      0.565370    0.696810   -6.723860
  H      0.220680    1.581770   -8.207520
  H     -1.406240    4.181510   -6.403260
  H     -0.934210    3.681600   -7.999470
  H     -1.288880    2.826740   -4.595000
  H     -0.651700    1.186340   -4.756550
  H      1.662080    2.088940   -4.687500
  H      0.767160    2.510420   -3.247170
  H      1.026770    3.705270   -4.495370

 Total Charge           Charge          ....    1
 Multiplicity           Mult            ....    1
 Number of Electrons    NEL             ....   40
 Basis Dimension        Dim             ....  172

ORBITAL ENERGIES
----------------

  NO   OCC          E(Eh)            E(eV)
   0   2.0000     -14.272328      -388.3698
   1   2.0000     -14.268774      -388.2731
   2   2.0000     -10.236571      -278.5513
   3   2.0000     -10.120707      -275.3984
   4   2.0000     -10.079814      -274.2857
   5   2.0000      -1.106757       -30.1164
   6   2.0000      -1.018683       -27.7198
   7   2.0000      -0.885416       -24.0934
   8   2.0000      -0.790040       -21.4981
   9   2.0000      -0.750978       -20.4351
  10   2.0000      -0.722312       -19.6551
  11   2.0000      -0.691157       -18.8073
  12   2.0000      -0.651299       -17.7227
  13   2.0000      -0.597577       -16.2609
  14   2.0000      -0.572437       -15.5768
  15   2.0000      -0.565142       -15.3783
  16   2.0000      -0.500210       -13.6114
  17   2.0000      -0.490481       -13.3467
  18   2.0000      -0.483825       -13.1655
  19   2.0000      -0.451725       -12.2921
  20   0.0000      -0.241510        -6.5718
  21   0.0000      -0.185279        -5.0417
  22   0.0000      -0.142048        -3.8653
  23   0.0000      -0.140079        -3.8117
  24   0.0000      -0.112596        -3.0639

MULLIKEN ATOMIC CHARGES
-----------------------
   0 C :   -0.016305
   1 C :    1.007437
   2 C :    0.469693
   3 N :    0.267271
   4 N :    0.410267
   5 H :    0.006254
   6 H :   -0.240425
   7 H :   -0.014921
   8 H :   -0.217046
   9 H :   -0.142738
  10 H :   -0.117461
  11 H :   -0.144549
  12 H :   -0.113013
  13 H :   -0.154464
Sum of atomic charges:    1.0000000

LOEWDIN ATOMIC CHARGES
----------------------
   0 C :    0.018640
   1 C :    0.188187
   2 C :   -0.066821
   3 N :    0.302111
   4 N :    0.304889
   5 H :    0.055217
   6 H :    0.048971
   7 H :    0.050614
   8 H :    0.039625
   9 H :    0.034534
  10 H :    0.040042
  11 H :   -0.012650
  12 H :    0.003908
  13 H :   -0.007268

  Mayer bond orders larger than 0.100000
B(  0-C ,  1-C ) :   1.2797 B(  0-C ,  2-C ) :   1.1477 B(  0-C ,  3-N ) :   0.1172
B(  0-C ,  4-N ) :   0.1108 B(  0-C ,  9-H ) :   0.8095 B(  0-C , 10-H ) :   0.8146
B(  0-C , 11-H ) :   0.2374 B(  0-C , 12-H ) :   0.2040 B(  0-C , 13-H ) :   0.2101
B(  1-C ,  2-C ) :   0.1086 B(  1-C , 11-H ) :   0.7147 B(  1-C , 12-H ) :   0.7660
B(  1-C , 13-H ) :   0.7551 B(  2-C ,  3-N ) :   1.1157 B(  2-C ,  4-N ) :   1.2918
B(  2-C ,  6-H ) :  -0.1658 B(  2-C ,  8-H ) :  -0.2127 B(  2-C ,  9-H ) :   0.1738
B(  2-C , 10-H ) :   0.1251 B(  3-N ,  4-N ) :   0.1789 B(  3-N ,  7-H ) :   1.0982
B(  3-N ,  8-H ) :   1.3149 B(  4-N ,  5-H ) :   1.0691 B(  4-N ,  6-H ) :   1.2807
B(  5-H ,  6-H ) :  -0.1758 B(  7-H ,  8-H ) :  -0.1915 B( 11-H , 13-H ) :   0.1018

Dispersion correction           -0.020511596
FINAL SINGLE POINT ENERGY      -228.789501685484

DIPOLE MOMENT
-------------
                                X             Y             Z
Electronic contribution:     -1.55481      -0.26404      -3.88447
Nuclear contribution   :      1.33202       0.27544       2.83701
                        -----------------------------------------
Total Dipole Moment    :     -0.22279       0.01140      -1.04746
                        -----------------------------------------
Magnitude (a.u.)       :      1.07095
Magnitude (Debye)      :      2.72215

Rotational constants in cm-1:     0.258570     0.126296     0.098869
Rotational constants in MHz :  7751.748523  3786.267300  2964.011691

                             ****ORCA TERMINATED NORMALLY****
TOTAL RUN TIME: 0 days 0 hours 0 minutes 10 seconds 695 msec
