                         Program Version 5.0.0 -  RELEASE  -
|  1> !BLYP D3BJ RIJCOSX def2-SVPD def2/J TightSCF xyzfile
|  2>
|  3> *xyzfile 0 1 B.xyz
|  4>
|  5> %MaxCore 64000
|  6>
|  7> %pal nprocs 4
|  8> end
|  9>
| 10> %scf
| 11>   MaxIter 150
| 12> end
| 13>
| 14>
| 15>                          ****END OF INPUT****

CARTESIAN COORDINATES (ANGSTROEM)
---------------------------------
  C     -0.461293    2.234686   -4.989619
  C      0.848883    2.667967   -4.302351
  C      2.093434    1.861037   -4.656845
  H      2.444814    2.041567   -5.674990
  H      2.901748    2.137864   -3.980338
  S      1.879644    0.078594   -4.462965
  C     -0.423841    2.398772   -6.474317
  N     -0.959467    3.492647   -7.007401
  N      0.145585    1.486891   -7.203987
  H      0.565371    0.696807   -6.723858
  H      0.220682    1.581768   -8.207520
  H     -1.406243    4.181507   -6.403261
  H     -0.934215    3.681601   -7.999468
  O      3.207574   -0.466111   -4.420259
  O      1.075064   -0.056160   -3.268758
  O      1.131661   -0.319960   -5.679031
  H      0.668432    2.559427   -3.232850
  H      1.034074    3.729426   -4.497081
  H     -1.288884    2.826737   -4.594997
  H     -0.651696    1.186343   -4.756552

 Total Charge           Charge          ....    0
 Multiplicity           Mult            ....    1
 Number of Electrons    NEL             ....   88
 Basis Dimension        Dim             ....  296

ORBITAL ENERGIES
----------------

  NO   OCC          E(Eh)            E(eV)
   0   2.0000     -88.281127     -2402.2516
   1   2.0000     -18.729068      -509.6439
   2   2.0000     -18.715849      -509.2841
   3   2.0000     -18.714256      -509.2408
   4   2.0000     -14.133307      -384.5868
   5   2.0000     -14.099905      -383.6779
   6   2.0000     -10.087631      -274.4984
   7   2.0000      -9.972125      -271.3553
   8   2.0000      -9.952637      -270.8250
   9   2.0000      -9.928195      -270.1599
  10   2.0000      -7.817115      -212.7145
  11   2.0000      -5.852780      -159.2622
  12   2.0000      -5.851781      -159.2351
  13   2.0000      -5.851244      -159.2205
  14   2.0000      -0.988645       -26.9024
  15   2.0000      -0.958885       -26.0926
  16   2.0000      -0.872173       -23.7330
  17   2.0000      -0.847442       -23.0601
  18   2.0000      -0.844402       -22.9774
  19   2.0000      -0.749725       -20.4011
  20   2.0000      -0.678394       -18.4600
  21   2.0000      -0.625917       -17.0321
  22   2.0000      -0.585037       -15.9197
  23   2.0000      -0.576334       -15.6828
  24   2.0000      -0.542601       -14.7649
  25   2.0000      -0.508070       -13.8253
  26   2.0000      -0.462449       -12.5839
  27   2.0000      -0.460277       -12.5248
  28   2.0000      -0.430436       -11.7128
  29   2.0000      -0.421669       -11.4742
  30   2.0000      -0.396572       -10.7913
  31   2.0000      -0.386279       -10.5112
  32   2.0000      -0.361982        -9.8500
  33   2.0000      -0.353068        -9.6075
  34   2.0000      -0.345633        -9.4052
  35   2.0000      -0.331126        -9.0104
  36   2.0000      -0.316280        -8.6064
  37   2.0000      -0.305079        -8.3016
  38   2.0000      -0.254361        -6.9215
  39   2.0000      -0.248687        -6.7671
  40   2.0000      -0.223533        -6.0827
  41   2.0000      -0.211976        -5.7682
  42   2.0000      -0.209001        -5.6872
  43   2.0000      -0.172919        -4.7054
  44   0.0000      -0.096034        -2.6132
  45   0.0000      -0.062840        -1.7100
  46   0.0000      -0.025070        -0.6822
  47   0.0000      -0.005077        -0.1381
  48   0.0000       0.011519         0.3135

MULLIKEN ATOMIC CHARGES
-----------------------
   0 C :    0.464094
   1 C :    0.454200
   2 C :    0.482770
   3 H :   -0.055757
   4 H :   -0.333617
   5 S :    1.220455
   6 C :    0.488800
   7 N :    0.289386
   8 N :    0.707936
   9 H :   -0.293190
  10 H :   -0.260561
  11 H :   -0.080616
  12 H :   -0.265046
  13 O :   -0.688410
  14 O :   -0.733379
  15 O :   -0.809332
  16 H :    0.022477
  17 H :   -0.367171
  18 H :   -0.246421
  19 H :    0.003381
Sum of atomic charges:    0.0000000

LOEWDIN ATOMIC CHARGES
----------------------
   0 C :    0.062124
   1 C :   -0.007830
   2 C :   -0.062017
   3 H :    0.001300
   4 H :    0.012377
   5 S :    0.899740
   6 C :   -0.057551
   7 N :    0.268037
   8 N :    0.324175
   9 H :   -0.125910
  10 H :    0.037590
  11 H :    0.030131
  12 H :    0.019759
  13 O :   -0.490734
  14 O :   -0.501712
  15 O :   -0.505335
  16 H :    0.029288
  17 H :    0.016866
  18 H :    0.024609
  19 H :    0.025092

  Mayer bond orders larger than 0.100000
B(  0-C ,  1-C ) :   1.1844 B(  0-C ,  6-C ) :   1.0906 B(  0-C ,  8-N ) :   0.1094
B(  0-C , 16-H ) :   0.1947 B(  0-C , 18-H ) :   0.6476 B(  0-C , 19-H ) :   0.7586
B(  1-C ,  2-C ) :   1.2800 B(  1-C ,  3-H ) :   0.1642 B(  1-C ,  4-H ) :   0.2434
B(  1-C ,  6-C ) :   0.1145 B(  1-C , 16-H ) :   0.7293 B(  1-C , 17-H ) :   0.7074
B(  1-C , 18-H ) :   0.1835 B(  1-C , 19-H ) :   0.1753 B(  2-C ,  3-H ) :   0.8338
B(  2-C ,  4-H ) :   0.6776 B(  2-C ,  5-S ) :   0.8465 B(  2-C , 14-O ) :   0.1155
B(  2-C , 15-O ) :   0.1531 B(  2-C , 16-H ) :   0.1874 B(  2-C , 17-H ) :   0.1626
B(  4-H ,  5-S ) :   0.1204 B(  5-S , 13-O ) :   1.4555 B(  5-S , 14-O ) :   1.3590
B(  5-S , 15-O ) :   1.1753 B(  6-C ,  7-N ) :   1.0569 B(  6-C ,  8-N ) :   1.2064
B(  6-C , 10-H ) :  -0.2432 B(  6-C , 11-H ) :  -0.1392 B(  6-C , 12-H ) :  -0.1716
B(  6-C , 18-H ) :   0.1786 B(  6-C , 19-H ) :   0.1021 B(  7-N ,  8-N ) :   0.1838
B(  7-N , 11-H ) :   1.1750 B(  7-N , 12-H ) :   1.3129 B(  8-N ,  9-H ) :   1.0871
B(  8-N , 10-H ) :   1.2695 B(  9-H , 10-H ) :  -0.2529 B(  9-H , 15-O ) :   0.2470
B( 11-H , 12-H ) :  -0.1959 B( 16-H , 17-H ) :  -0.1197

Dispersion correction           -0.047115121
FINAL SINGLE POINT ENERGY      -891.200221865640

DIPOLE MOMENT
-------------
                                X             Y             Z
Electronic contribution:      3.13665      -7.71960       1.12814
Nuclear contribution   :     -5.91573      12.15027      -4.18945
                        -----------------------------------------
Total Dipole Moment    :     -2.77908       4.43068      -3.06132
                        -----------------------------------------
Magnitude (a.u.)       :      6.06018
Magnitude (Debye)      :     15.40376

Rotational constants in cm-1:     0.082044     0.024757     0.022371
Rotational constants in MHz :  2459.631375   742.181961   670.660570

                             ****ORCA TERMINATED NORMALLY****
TOTAL RUN TIME: 0 days 0 hours 0 minutes 21 seconds 610 msec
