                         Program Version 5.0.0 -  RELEASE  -
|  1> !BLYP D3BJ RIJCOSX def2-SVPD def2/J TightSCF
|  2> *xyz 0 1
|  3> C          0.84888        2.66797       -4.30235
|  4> C          2.09343        1.86104       -4.65684
|  5> H          2.44481        2.04157       -5.67499
|  6> H          2.90175        2.13786       -3.98034
|  7> S          1.87964        0.07859       -4.46297
|  8> F          3.20757       -0.46611       -4.42026
|  9> O          1.07506       -0.05616       -3.26876
| 10> O          1.13166       -0.31996       -5.67903
| 11> H          0.05064        2.40112       -4.96303
| 12> H          1.06043        3.71210       -4.40203
| 13> H          0.56237        2.45684       -3.29327
| 14> *
| 15>
| 16> %MaxCore 64000
| 17>
| 18> %pal nprocs 4
| 19> end
| 20>
| 21> %scf
| 22>   MaxIter 150
| 23> end
| 24>
| 25>
| 26>                          ****END OF INPUT****

CARTESIAN COORDINATES (ANGSTROEM)
---------------------------------
  C      0.848880    2.667970   -4.302350
  C      2.093430    1.861040   -4.656840
  H      2.444810    2.041570   -5.674990
  H      2.901750    2.137860   -3.980340
  S      1.879640    0.078590   -4.462970
  F      3.207570   -0.466110   -4.420260
  O      1.075060   -0.056160   -3.268760
  O      1.131660   -0.319960   -5.679030
  H      0.050640    2.401120   -4.963030
  H      1.060430    3.712100   -4.402030
  H      0.562370    2.456840   -3.293270

 Total Charge           Charge          ....    0
 Multiplicity           Mult            ....    1
 Number of Electrons    NEL             ....   58
 Basis Dimension        Dim             ....  176

ORBITAL ENERGIES
----------------

  NO   OCC          E(Eh)            E(eV)
   0   2.0000     -88.383152     -2405.0278
   1   2.0000     -24.422376      -664.5666
   2   2.0000     -18.802448      -511.6406
   3   2.0000     -18.790520      -511.3160
   4   2.0000      -9.981154      -271.6010
   5   2.0000      -9.940660      -270.4991
   6   2.0000      -7.921023      -215.5420
   7   2.0000      -5.960388      -162.1904
   8   2.0000      -5.953870      -162.0130
   9   2.0000      -5.952131      -161.9657
  10   2.0000      -1.271131       -34.5892
  11   2.0000      -1.011917       -27.5357
  12   2.0000      -0.911367       -24.7995
  13   2.0000      -0.737794       -20.0764
  14   2.0000      -0.665866       -18.1191
  15   2.0000      -0.606351       -16.4996
  16   2.0000      -0.525554       -14.3010
  17   2.0000      -0.523670       -14.2498
  18   2.0000      -0.494451       -13.4547
  19   2.0000      -0.440344       -11.9824
  20   2.0000      -0.429588       -11.6897
  21   2.0000      -0.391806       -10.6616
  22   2.0000      -0.381768       -10.3884
  23   2.0000      -0.361057        -9.8248
  24   2.0000      -0.342352        -9.3159
  25   2.0000      -0.333963        -9.0876
  26   2.0000      -0.287400        -7.8206
  27   2.0000      -0.274257        -7.4629
  28   2.0000      -0.257227        -6.9995
  29   0.0000      -0.029487        -0.8024
  30   0.0000      -0.002751        -0.0748
  31   0.0000       0.015303         0.4164
  32   0.0000       0.022449         0.6109
  33   0.0000       0.026222         0.7135

MULLIKEN ATOMIC CHARGES
-----------------------
   0 C :    1.167024
   1 C :   -0.085940
   2 H :   -0.176928
   3 H :   -0.129092
   4 S :    1.354384
   5 F :   -0.360284
   6 O :   -0.596921
   7 O :   -0.628106
   8 H :   -0.166981
   9 H :   -0.237320
  10 H :   -0.139835
Sum of atomic charges:    0.0000000

LOEWDIN ATOMIC CHARGES
----------------------
   0 C :    0.154164
   1 C :   -0.092276
   2 H :    0.018255
   3 H :    0.008605
   4 S :    1.081568
   5 F :   -0.240871
   6 O :   -0.442456
   7 O :   -0.461458
   8 H :   -0.003129
   9 H :   -0.008809
  10 H :   -0.013592

  Mayer bond orders larger than 0.100000
B(  0-C ,  1-C ) :   1.3511 B(  0-C ,  3-H ) :   0.1321 B(  0-C ,  8-H ) :   0.7200
B(  0-C ,  9-H ) :   0.6288 B(  0-C , 10-H ) :   0.7246 B(  1-C ,  2-H ) :   0.9167
B(  1-C ,  3-H ) :   0.9028 B(  1-C ,  4-S ) :   0.9207 B(  1-C ,  8-H ) :   0.2307
B(  1-C ,  9-H ) :   0.2849 B(  1-C , 10-H ) :   0.2522 B(  4-S ,  5-F ) :   0.7526
B(  4-S ,  6-O ) :   1.5412 B(  4-S ,  7-O ) :   1.5034 B(  6-O ,  7-O ) :   0.1061

Dispersion correction           -0.019708302
FINAL SINGLE POINT ENERGY      -727.199415451236

DIPOLE MOMENT
-------------
                                X             Y             Z
Electronic contribution:      4.12114      -9.31872       0.10273
Nuclear contribution   :     -3.08754      10.54185      -0.04092
                        -----------------------------------------
Total Dipole Moment    :      1.03360       1.22313       0.06181
                        -----------------------------------------
Magnitude (a.u.)       :      1.60256
Magnitude (Debye)      :      4.07339

Rotational constants in cm-1:     0.158925     0.081210     0.079022
Rotational constants in MHz :  4764.450166  2434.603461  2369.014434

                             ****ORCA TERMINATED NORMALLY****
TOTAL RUN TIME: 0 days 0 hours 0 minutes 11 seconds 313 msec
