                         Program Version 5.0.0 -  RELEASE  -
|  1> !BLYP D3BJ RIJCOSX def2-SVPD def2/J TightSCF
|  2> *xyz 0 1
|  3> C         -0.46129        2.23469       -4.98962
|  4> C          0.84888        2.66797       -4.30235
|  5> C         -0.42384        2.39877       -6.47432
|  6> C         -0.95947        3.49265       -7.00740
|  7> N          0.14558        1.48689       -7.20399
|  8> H          0.56537        0.69681       -6.72386
|  9> H          0.22068        1.58177       -8.20752
| 10> H         -1.40624        4.18151       -6.40326
| 11> H         -0.93421        3.68160       -7.99947
| 12> H         -1.28888        2.82674       -4.59500
| 13> H         -0.65170        1.18634       -4.75655
| 14> H          1.66208        2.08894       -4.68750
| 15> H          0.76716        2.51042       -3.24717
| 16> H          1.02677        3.70527       -4.49537
| 17> *
| 18>
| 19> %MaxCore 64000
| 20>
| 21> %pal nprocs 4
| 22> end
| 23>
| 24> %scf
| 25>   MaxIter 150
| 26> end
| 27>
| 28>
| 29>                          ****END OF INPUT****

CARTESIAN COORDINATES (ANGSTROEM)
---------------------------------
  C     -0.461290    2.234690   -4.989620
  C      0.848880    2.667970   -4.302350
  C     -0.423840    2.398770   -6.474320
  C     -0.959470    3.492650   -7.007400
  N      0.145580    1.486890   -7.203990
  H      0.565370    0.696810   -6.723860
  H      0.220680    1.581770   -8.207520
  H     -1.406240    4.181510   -6.403260
  H     -0.934210    3.681600   -7.999470
  H     -1.288880    2.826740   -4.595000
  H     -0.651700    1.186340   -4.756550
  H      1.662080    2.088940   -4.687500
  H      0.767160    2.510420   -3.247170
  H      1.026770    3.705270   -4.495370

 Total Charge           Charge          ....    0
 Multiplicity           Mult            ....    1
 Number of Electrons    NEL             ....   40
 Basis Dimension        Dim             ....  172

ORBITAL ENERGIES
----------------

  NO   OCC          E(Eh)            E(eV)
   0   2.0000     -14.028954      -381.7472
   1   2.0000      -9.936910      -270.3971
   2   2.0000      -9.920965      -269.9632
   3   2.0000      -9.909211      -269.6433
   4   2.0000      -9.855064      -268.1699
   5   2.0000      -0.841151       -22.8889
   6   2.0000      -0.693342       -18.8668
   7   2.0000      -0.632236       -17.2040
   8   2.0000      -0.563306       -15.3283
   9   2.0000      -0.508513       -13.8373
  10   2.0000      -0.474504       -12.9119
  11   2.0000      -0.424518       -11.5517
  12   2.0000      -0.386935       -10.5290
  13   2.0000      -0.368963       -10.0400
  14   2.0000      -0.343254        -9.3404
  15   2.0000      -0.333369        -9.0714
  16   2.0000      -0.307623        -8.3709
  17   2.0000      -0.291054        -7.9200
  18   2.0000      -0.285921        -7.7803
  19   2.0000      -0.152771        -4.1571
  20   0.0000      -0.006038        -0.1643
  21   0.0000       0.016965         0.4616
  22   0.0000       0.032138         0.8745
  23   0.0000       0.039617         1.0780
  24   0.0000       0.046676         1.2701

MULLIKEN ATOMIC CHARGES
-----------------------
   0 C :    0.158388
   1 C :    1.010226
   2 C :   -0.180087
   3 C :    0.688668
   4 N :    0.537535
   5 H :   -0.176708
   6 H :   -0.288534
   7 H :   -0.260662
   8 H :   -0.678865
   9 H :   -0.074296
  10 H :   -0.222542
  11 H :   -0.176484
  12 H :   -0.144695
  13 H :   -0.191945
Sum of atomic charges:    0.0000000

LOEWDIN ATOMIC CHARGES
----------------------
   0 C :   -0.023293
   1 C :    0.148562
   2 C :   -0.276218
   3 C :    0.189161
   4 N :    0.191531
   5 H :   -0.000176
   6 H :    0.007584
   7 H :   -0.088403
   8 H :   -0.098132
   9 H :    0.016681
  10 H :    0.010448
  11 H :   -0.030239
  12 H :   -0.026332
  13 H :   -0.021174

  Mayer bond orders larger than 0.100000
B(  0-C ,  1-C ) :   1.2388 B(  0-C ,  2-C ) :   1.1567 B(  0-C ,  3-C ) :   0.2282
B(  0-C ,  4-N ) :   0.1207 B(  0-C ,  9-H ) :   0.7643 B(  0-C , 10-H ) :   0.7303
B(  0-C , 11-H ) :   0.2651 B(  0-C , 12-H ) :   0.2238 B(  0-C , 13-H ) :   0.2218
B(  1-C ,  9-H ) :   0.1117 B(  1-C , 10-H ) :   0.1091 B(  1-C , 11-H ) :   0.7182
B(  1-C , 12-H ) :   0.7346 B(  1-C , 13-H ) :   0.7703 B(  2-C ,  3-C ) :   1.4442
B(  2-C ,  4-N ) :   1.3985 B(  2-C ,  8-H ) :   0.1879 B(  2-C ,  9-H ) :   0.2170
B(  2-C , 10-H ) :   0.2155 B(  3-C ,  4-N ) :   0.3006 B(  3-C ,  7-H ) :   0.8552
B(  3-C ,  8-H ) :   0.5319 B(  4-N ,  5-H ) :   1.0614 B(  4-N ,  6-H ) :   1.2230
B(  5-H ,  6-H ) :  -0.1391

Dispersion correction           -0.021406550
FINAL SINGLE POINT ENERGY      -212.321355943257

DIPOLE MOMENT
-------------
                                X             Y             Z
Electronic contribution:     -0.72828      -1.16832      -2.61208
Nuclear contribution   :      1.14741       0.51394       2.60761
                        -----------------------------------------
Total Dipole Moment    :      0.41913      -0.65438      -0.00448
                        -----------------------------------------
Magnitude (a.u.)       :      0.77711
Magnitude (Debye)      :      1.97525

Rotational constants in cm-1:     0.269157     0.129188     0.102123
Rotational constants in MHz :  8069.118715  3872.945231  3061.580645

                             ****ORCA TERMINATED NORMALLY****
TOTAL RUN TIME: 0 days 0 hours 0 minutes 11 seconds 89 msec
