                         Program Version 5.0.0 -  RELEASE  -
|  1> !BLYP D3BJ RIJCOSX def2-SVPD def2/J TightSCF
|  2> *xyz 0 1
|  3> C          0.84888        2.66797       -4.30235
|  4> C          2.09343        1.86104       -4.65684
|  5> H          2.44481        2.04157       -5.67499
|  6> H          2.90175        2.13786       -3.98034
|  7> S          1.87964        0.07859       -4.46297
|  8> O          3.20757       -0.46611       -4.42026
|  9> F          1.07506       -0.05616       -3.26876
| 10> O          1.13166       -0.31996       -5.67903
| 11> H          0.05064        2.40112       -4.96303
| 12> H          1.06043        3.71210       -4.40203
| 13> H          0.56237        2.45684       -3.29327
| 14> *
| 15>
| 16> %MaxCore 64000
| 17>
| 18> %pal nprocs 4
| 19> end
| 20>
| 21> %scf
| 22>   MaxIter 150
| 23> end
| 24>
| 25>
| 26>                          ****END OF INPUT****

CARTESIAN COORDINATES (ANGSTROEM)
---------------------------------
  C      0.848880    2.667970   -4.302350
  C      2.093430    1.861040   -4.656840
  H      2.444810    2.041570   -5.674990
  H      2.901750    2.137860   -3.980340
  S      1.879640    0.078590   -4.462970
  O      3.207570   -0.466110   -4.420260
  F      1.075060   -0.056160   -3.268760
  O      1.131660   -0.319960   -5.679030
  H      0.050640    2.401120   -4.963030
  H      1.060430    3.712100   -4.402030
  H      0.562370    2.456840   -3.293270

 Total Charge           Charge          ....    0
 Multiplicity           Mult            ....    1
 Number of Electrons    NEL             ....   58
 Basis Dimension        Dim             ....  176

ORBITAL ENERGIES
----------------

  NO   OCC          E(Eh)            E(eV)
   0   2.0000     -88.382635     -2405.0138
   1   2.0000     -24.417344      -664.4297
   2   2.0000     -18.805889      -511.7343
   3   2.0000     -18.790608      -511.3184
   4   2.0000      -9.981041      -271.5979
   5   2.0000      -9.946956      -270.6704
   6   2.0000      -7.920492      -215.5276
   7   2.0000      -5.959938      -162.1781
   8   2.0000      -5.953332      -161.9984
   9   2.0000      -5.951600      -161.9513
  10   2.0000      -1.262893       -34.3651
  11   2.0000      -1.015748       -27.6399
  12   2.0000      -0.914481       -24.8843
  13   2.0000      -0.742581       -20.2067
  14   2.0000      -0.659825       -17.9547
  15   2.0000      -0.608863       -16.5680
  16   2.0000      -0.533832       -14.5263
  17   2.0000      -0.517452       -14.0806
  18   2.0000      -0.485666       -13.2156
  19   2.0000      -0.442460       -12.0400
  20   2.0000      -0.423255       -11.5174
  21   2.0000      -0.400521       -10.8987
  22   2.0000      -0.389323       -10.5940
  23   2.0000      -0.366178        -9.9642
  24   2.0000      -0.350681        -9.5425
  25   2.0000      -0.334952        -9.1145
  26   2.0000      -0.289277        -7.8716
  27   2.0000      -0.274644        -7.4734
  28   2.0000      -0.260129        -7.0785
  29   0.0000      -0.033567        -0.9134
  30   0.0000       0.003504         0.0954
  31   0.0000       0.017959         0.4887
  32   0.0000       0.019427         0.5286
  33   0.0000       0.025515         0.6943

MULLIKEN ATOMIC CHARGES
-----------------------
   0 C :    1.171981
   1 C :   -0.044539
   2 H :   -0.183207
   3 H :   -0.139400
   4 S :    1.319060
   5 O :   -0.570809
   6 F :   -0.363524
   7 O :   -0.630389
   8 H :   -0.165229
   9 H :   -0.236668
  10 H :   -0.157275
Sum of atomic charges:   -0.0000000

LOEWDIN ATOMIC CHARGES
----------------------
   0 C :    0.139885
   1 C :   -0.080013
   2 H :    0.030819
   3 H :    0.012861
   4 S :    1.076741
   5 O :   -0.437686
   6 F :   -0.244758
   7 O :   -0.460602
   8 H :   -0.007443
   9 H :   -0.010577
  10 H :   -0.019228

  Mayer bond orders larger than 0.100000
B(  0-C ,  1-C ) :   1.3072 B(  0-C ,  3-H ) :   0.1195 B(  0-C ,  8-H ) :   0.7296
B(  0-C ,  9-H ) :   0.6265 B(  0-C , 10-H ) :   0.7247 B(  1-C ,  2-H ) :   0.9173
B(  1-C ,  3-H ) :   0.9286 B(  1-C ,  4-S ) :   0.9440 B(  1-C ,  8-H ) :   0.2290
B(  1-C ,  9-H ) :   0.2851 B(  1-C , 10-H ) :   0.2385 B(  4-S ,  5-O ) :   1.5939
B(  4-S ,  6-F ) :   0.7312 B(  4-S ,  7-O ) :   1.5186 B(  5-O ,  7-O ) :   0.1135

Dispersion correction           -0.019569843
FINAL SINGLE POINT ENERGY      -727.203621611118

DIPOLE MOMENT
-------------
                                X             Y             Z
Electronic contribution:      0.57829      -8.61409       2.00030
Nuclear contribution   :     -0.86540      10.11467      -1.24082
                        -----------------------------------------
Total Dipole Moment    :     -0.28711       1.50058       0.75948
                        -----------------------------------------
Magnitude (a.u.)       :      1.70616
Magnitude (Debye)      :      4.33672

Rotational constants in cm-1:     0.154065     0.083345     0.080357
Rotational constants in MHz :  4618.752213  2498.631937  2409.037217

                             ****ORCA TERMINATED NORMALLY****
TOTAL RUN TIME: 0 days 0 hours 0 minutes 10 seconds 406 msec
