                         Program Version 5.0.0 -  RELEASE  -
|  1> !BLYP D3BJ RIJCOSX def2-SVPD def2/J TightSCF
|  2> *xyz 0 1
|  3> C         -0.46129        2.23469       -4.98962
|  4> C          0.84888        2.66797       -4.30235
|  5> C         -0.42384        2.39877       -6.47432
|  6> N         -0.95947        3.49265       -7.00740
|  7> C          0.14558        1.48689       -7.20399
|  8> H          0.56537        0.69681       -6.72386
|  9> H          0.22068        1.58177       -8.20752
| 10> H         -1.40624        4.18151       -6.40326
| 11> H         -0.93421        3.68160       -7.99947
| 12> H         -1.28888        2.82674       -4.59500
| 13> H         -0.65170        1.18634       -4.75655
| 14> H          1.66208        2.08894       -4.68750
| 15> H          0.76716        2.51042       -3.24717
| 16> H          1.02677        3.70527       -4.49537
| 17> *
| 18>
| 19> %MaxCore 64000
| 20>
| 21> %pal nprocs 4
| 22> end
| 23>
| 24> %scf
| 25>   MaxIter 150
| 26> end
| 27>
| 28>
| 29>                          ****END OF INPUT****

CARTESIAN COORDINATES (ANGSTROEM)
---------------------------------
  C     -0.461290    2.234690   -4.989620
  C      0.848880    2.667970   -4.302350
  C     -0.423840    2.398770   -6.474320
  N     -0.959470    3.492650   -7.007400
  C      0.145580    1.486890   -7.203990
  H      0.565370    0.696810   -6.723860
  H      0.220680    1.581770   -8.207520
  H     -1.406240    4.181510   -6.403260
  H     -0.934210    3.681600   -7.999470
  H     -1.288880    2.826740   -4.595000
  H     -0.651700    1.186340   -4.756550
  H      1.662080    2.088940   -4.687500
  H      0.767160    2.510420   -3.247170
  H      1.026770    3.705270   -4.495370

 Total Charge           Charge          ....    0
 Multiplicity           Mult            ....    1
 Number of Electrons    NEL             ....   40
 Basis Dimension        Dim             ....  172

ORBITAL ENERGIES
----------------

  NO   OCC          E(Eh)            E(eV)
   0   2.0000     -14.025857      -381.6630
   1   2.0000      -9.935094      -270.3477
   2   2.0000      -9.920865      -269.9605
   3   2.0000      -9.907892      -269.6074
   4   2.0000      -9.853958      -268.1398
   5   2.0000      -0.829319       -22.5669
   6   2.0000      -0.694873       -18.9084
   7   2.0000      -0.635687       -17.2979
   8   2.0000      -0.563987       -15.3469
   9   2.0000      -0.503439       -13.6993
  10   2.0000      -0.465480       -12.6664
  11   2.0000      -0.426539       -11.6067
  12   2.0000      -0.388176       -10.5628
  13   2.0000      -0.364553        -9.9200
  14   2.0000      -0.344183        -9.3657
  15   2.0000      -0.334467        -9.1013
  16   2.0000      -0.305346        -8.3089
  17   2.0000      -0.293710        -7.9922
  18   2.0000      -0.281998        -7.6735
  19   2.0000      -0.156069        -4.2469
  20   0.0000      -0.004321        -0.1176
  21   0.0000       0.017522         0.4768
  22   0.0000       0.031974         0.8701
  23   0.0000       0.039436         1.0731
  24   0.0000       0.048468         1.3189

MULLIKEN ATOMIC CHARGES
-----------------------
   0 C :    0.165811
   1 C :    0.974616
   2 C :   -0.025316
   3 N :    0.379436
   4 C :    0.657294
   5 H :   -0.248530
   6 H :   -0.625059
   7 H :   -0.171716
   8 H :   -0.269353
   9 H :   -0.257334
  10 H :   -0.068491
  11 H :   -0.181407
  12 H :   -0.139522
  13 H :   -0.190430
Sum of atomic charges:   -0.0000000

LOEWDIN ATOMIC CHARGES
----------------------
   0 C :   -0.023383
   1 C :    0.149507
   2 C :   -0.269150
   3 N :    0.191224
   4 C :    0.180580
   5 H :   -0.079696
   6 H :   -0.087989
   7 H :   -0.007248
   8 H :   -0.003075
   9 H :    0.006201
  10 H :    0.019056
  11 H :   -0.024728
  12 H :   -0.026823
  13 H :   -0.024475

  Mayer bond orders larger than 0.100000
B(  0-C ,  1-C ) :   1.2612 B(  0-C ,  2-C ) :   1.1015 B(  0-C ,  3-N ) :   0.1382
B(  0-C ,  4-C ) :   0.2283 B(  0-C ,  9-H ) :   0.7262 B(  0-C , 10-H ) :   0.7626
B(  0-C , 11-H ) :   0.2370 B(  0-C , 12-H ) :   0.2069 B(  0-C , 13-H ) :   0.2392
B(  1-C ,  9-H ) :   0.1307 B(  1-C , 10-H ) :   0.1051 B(  1-C , 11-H ) :   0.7602
B(  1-C , 12-H ) :   0.7391 B(  1-C , 13-H ) :   0.7493 B(  2-C ,  3-N ) :   1.2367
B(  2-C ,  4-C ) :   1.5677 B(  2-C ,  5-H ) :   0.1513 B(  2-C ,  6-H ) :   0.2491
B(  2-C ,  8-H ) :  -0.1255 B(  2-C ,  9-H ) :   0.2050 B(  2-C , 10-H ) :   0.1683
B(  3-N ,  4-C ) :   0.3095 B(  3-N ,  7-H ) :   1.0867 B(  3-N ,  8-H ) :   1.2765
B(  4-C ,  5-H ) :   0.7085 B(  4-C ,  6-H ) :   0.5306 B(  7-H ,  8-H ) :  -0.1719

Dispersion correction           -0.021425091
FINAL SINGLE POINT ENERGY      -212.321236591434

DIPOLE MOMENT
-------------
                                X             Y             Z
Electronic contribution:     -1.70577       0.58011      -2.43612
Nuclear contribution   :      1.40335       0.04939       2.56207
                        -----------------------------------------
Total Dipole Moment    :     -0.30242       0.62950       0.12595
                        -----------------------------------------
Magnitude (a.u.)       :      0.70964
Magnitude (Debye)      :      1.80377

Rotational constants in cm-1:     0.271383     0.128194     0.101873
Rotational constants in MHz :  8135.853259  3843.152748  3054.074278

                             ****ORCA TERMINATED NORMALLY****
TOTAL RUN TIME: 0 days 0 hours 0 minutes 12 seconds 25 msec
