                         Program Version 5.0.0 -  RELEASE  -
|  1> !BLYP D3BJ RIJCOSX def2-SVPD def2/J TightSCF
|  2> *xyz 0 1
|  3> C          0.84888        2.66797       -4.30235
|  4> C          2.09343        1.86104       -4.65684
|  5> H          2.44481        2.04157       -5.67499
|  6> H          2.90175        2.13786       -3.98034
|  7> S          1.87964        0.07859       -4.46297
|  8> O          3.20757       -0.46611       -4.42026
|  9> O          1.07506       -0.05616       -3.26876
| 10> F          1.13166       -0.31996       -5.67903
| 11> H          0.05064        2.40112       -4.96303
| 12> H          1.06043        3.71210       -4.40203
| 13> H          0.56237        2.45684       -3.29327
| 14> *
| 15>
| 16> %MaxCore 64000
| 17>
| 18> %pal nprocs 4
| 19> end
| 20>
| 21> %scf
| 22>   MaxIter 150
| 23> end
| 24>
| 25>
| 26>                          ****END OF INPUT****

CARTESIAN COORDINATES (ANGSTROEM)
---------------------------------
  C      0.848880    2.667970   -4.302350
  C      2.093430    1.861040   -4.656840
  H      2.444810    2.041570   -5.674990
  H      2.901750    2.137860   -3.980340
  S      1.879640    0.078590   -4.462970
  O      3.207570   -0.466110   -4.420260
  O      1.075060   -0.056160   -3.268760
  F      1.131660   -0.319960   -5.679030
  H      0.050640    2.401120   -4.963030
  H      1.060430    3.712100   -4.402030
  H      0.562370    2.456840   -3.293270

 Total Charge           Charge          ....    0
 Multiplicity           Mult            ....    1
 Number of Electrons    NEL             ....   58
 Basis Dimension        Dim             ....  176

ORBITAL ENERGIES
----------------

  NO   OCC          E(Eh)            E(eV)
   0   2.0000     -88.380715     -2404.9615
   1   2.0000     -24.399613      -663.9472
   2   2.0000     -18.805561      -511.7253
   3   2.0000     -18.802367      -511.6384
   4   2.0000      -9.980104      -271.5724
   5   2.0000      -9.941593      -270.5245
   6   2.0000      -7.918599      -215.4760
   7   2.0000      -5.957756      -162.1188
   8   2.0000      -5.951675      -161.9533
   9   2.0000      -5.949906      -161.9052
  10   2.0000      -1.233013       -33.5520
  11   2.0000      -1.023452       -27.8495
  12   2.0000      -0.933191       -25.3934
  13   2.0000      -0.738679       -20.1005
  14   2.0000      -0.648990       -17.6599
  15   2.0000      -0.601385       -16.3645
  16   2.0000      -0.516631       -14.0583
  17   2.0000      -0.496730       -13.5167
  18   2.0000      -0.486221       -13.2308
  19   2.0000      -0.441247       -12.0069
  20   2.0000      -0.424945       -11.5633
  21   2.0000      -0.403658       -10.9841
  22   2.0000      -0.384045       -10.4504
  23   2.0000      -0.358477        -9.7547
  24   2.0000      -0.353988        -9.6325
  25   2.0000      -0.335409        -9.1269
  26   2.0000      -0.293252        -7.9798
  27   2.0000      -0.287170        -7.8143
  28   2.0000      -0.273449        -7.4409
  29   0.0000      -0.030105        -0.8192
  30   0.0000       0.002227         0.0606
  31   0.0000       0.015284         0.4159
  32   0.0000       0.022004         0.5988
  33   0.0000       0.026814         0.7296

MULLIKEN ATOMIC CHARGES
-----------------------
   0 C :    1.200242
   1 C :   -0.078110
   2 H :   -0.188578
   3 H :   -0.129070
   4 S :    1.336752
   5 O :   -0.582116
   6 O :   -0.611388
   7 F :   -0.382414
   8 H :   -0.188363
   9 H :   -0.238444
  10 H :   -0.138511
Sum of atomic charges:    0.0000000

LOEWDIN ATOMIC CHARGES
----------------------
   0 C :    0.141654
   1 C :   -0.082694
   2 H :    0.016382
   3 H :    0.023514
   4 S :    1.077659
   5 O :   -0.438629
   6 O :   -0.440254
   7 F :   -0.260564
   8 H :   -0.010971
   9 H :   -0.011413
  10 H :   -0.014683

  Mayer bond orders larger than 0.100000
B(  0-C ,  1-C ) :   1.3195 B(  0-C ,  3-H ) :   0.1162 B(  0-C ,  8-H ) :   0.7065
B(  0-C ,  9-H ) :   0.6214 B(  0-C , 10-H ) :   0.7300 B(  1-C ,  2-H ) :   0.9135
B(  1-C ,  3-H ) :   0.9249 B(  1-C ,  4-S ) :   0.9404 B(  1-C ,  8-H ) :   0.2334
B(  1-C ,  9-H ) :   0.2837 B(  1-C , 10-H ) :   0.2543 B(  4-S ,  5-O ) :   1.5880
B(  4-S ,  6-O ) :   1.5499 B(  4-S ,  7-F ) :   0.6766 B(  5-O ,  6-O ) :   0.1257

Dispersion correction           -0.019632730
FINAL SINGLE POINT ENERGY      -727.219113958576

DIPOLE MOMENT
-------------
                                X             Y             Z
Electronic contribution:      0.65566      -9.08149      -2.01582
Nuclear contribution   :     -0.92438      10.38956       1.27076
                        -----------------------------------------
Total Dipole Moment    :     -0.26872       1.30808      -0.74506
                        -----------------------------------------
Magnitude (a.u.)       :      1.52918
Magnitude (Debye)      :      3.88686

Rotational constants in cm-1:     0.154243     0.082247     0.080562
Rotational constants in MHz :  4624.087322  2465.703680  2415.175852

                             ****ORCA TERMINATED NORMALLY****
TOTAL RUN TIME: 0 days 0 hours 0 minutes 10 seconds 347 msec
