                         Program Version 5.0.0 -  RELEASE  -
|  1> !BLYP D3BJ RIJCOSX def2-SVPD def2/J TightSCF xyzfile
|  2>
|  3> *xyzfile 0 1 D2.xyz
|  4>
|  5> %MaxCore 64000
|  6>
|  7> %pal nprocs 4
|  8> end
|  9>
| 10> %scf
| 11>   MaxIter 150
| 12> end
| 13>
| 14>
| 15>                          ****END OF INPUT****

CARTESIAN COORDINATES (ANGSTROEM)
---------------------------------
  C     -0.461293    2.234686   -4.989619
  C      0.848883    2.667967   -4.302351
  C      2.093434    1.861037   -4.656845
  H      2.444814    2.041567   -5.674990
  H      2.901748    2.137864   -3.980338
  S      1.879644    0.078594   -4.462965
  C     -0.423841    2.398772   -6.474317
  N     -0.959467    3.492647   -7.007401
  C      0.145585    1.486891   -7.203987
  H      0.565371    0.696807   -6.723858
  H      0.220682    1.581768   -8.207520
  H     -1.406243    4.181507   -6.403261
  H     -0.934215    3.681601   -7.999468
  F      3.207574   -0.466111   -4.420259
  O      1.075064   -0.056160   -3.268758
  O      1.131661   -0.319960   -5.679031
  H      0.668432    2.559427   -3.232850
  H      1.034074    3.729426   -4.497081
  H     -1.288884    2.826737   -4.594997
  H     -0.651696    1.186343   -4.756552

 Total Charge           Charge          ....    0
 Multiplicity           Mult            ....    1
 Number of Electrons    NEL             ....   88
 Basis Dimension        Dim             ....  296

ORBITAL ENERGIES
----------------

  NO   OCC          E(Eh)            E(eV)
   0   2.0000     -88.384624     -2405.0679
   1   2.0000     -24.421437      -664.5411
   2   2.0000     -18.802884      -511.6525
   3   2.0000     -18.792334      -511.3654
   4   2.0000     -14.021398      -381.5416
   5   2.0000      -9.975374      -271.4437
   6   2.0000      -9.947636      -270.6889
   7   2.0000      -9.928092      -270.1571
   8   2.0000      -9.923244      -270.0252
   9   2.0000      -9.832830      -267.5649
  10   2.0000      -7.921767      -215.5622
  11   2.0000      -5.961136      -162.2108
  12   2.0000      -5.954936      -162.0420
  13   2.0000      -5.952726      -161.9819
  14   2.0000      -1.269967       -34.5576
  15   2.0000      -1.014703       -27.6115
  16   2.0000      -0.917095       -24.9554
  17   2.0000      -0.825421       -22.4609
  18   2.0000      -0.743788       -20.2395
  19   2.0000      -0.688365       -18.7314
  20   2.0000      -0.649182       -17.6651
  21   2.0000      -0.624726       -16.9997
  22   2.0000      -0.570382       -15.5209
  23   2.0000      -0.526856       -14.3365
  24   2.0000      -0.521396       -14.1879
  25   2.0000      -0.499903       -13.6030
  26   2.0000      -0.499727       -13.5983
  27   2.0000      -0.459200       -12.4955
  28   2.0000      -0.441174       -12.0050
  29   2.0000      -0.431645       -11.7457
  30   2.0000      -0.419097       -11.4042
  31   2.0000      -0.404072       -10.9953
  32   2.0000      -0.389817       -10.6075
  33   2.0000      -0.356025        -9.6879
  34   2.0000      -0.352591        -9.5945
  35   2.0000      -0.339029        -9.2255
  36   2.0000      -0.323807        -8.8112
  37   2.0000      -0.316448        -8.6110
  38   2.0000      -0.293709        -7.9922
  39   2.0000      -0.290208        -7.8970
  40   2.0000      -0.276811        -7.5324
  41   2.0000      -0.265915        -7.2359
  42   2.0000      -0.248228        -6.7546
  43   2.0000      -0.149509        -4.0683
  44   0.0000      -0.025793        -0.7019
  45   0.0000      -0.008813        -0.2398
  46   0.0000       0.007169         0.1951
  47   0.0000       0.012452         0.3388
  48   0.0000       0.022304         0.6069

MULLIKEN ATOMIC CHARGES
-----------------------
   0 C :    0.710400
   1 C :    0.447090
   2 C :    0.388226
   3 H :    0.083149
   4 H :   -0.350157
   5 S :    1.377333
   6 C :   -0.008025
   7 N :    0.318924
   8 C :    1.124393
   9 H :   -0.277788
  10 H :   -0.886418
  11 H :   -0.195622
  12 H :   -0.285697
  13 F :   -0.409550
  14 O :   -0.624575
  15 O :   -0.710323
  16 H :    0.016915
  17 H :   -0.372640
  18 H :   -0.350200
  19 H :    0.004565
Sum of atomic charges:   -0.0000000

LOEWDIN ATOMIC CHARGES
----------------------
   0 C :    0.038021
   1 C :   -0.000398
   2 C :   -0.036553
   3 H :    0.016532
   4 H :    0.009163
   5 S :    1.126321
   6 C :   -0.238685
   7 N :    0.186346
   8 C :    0.209885
   9 H :   -0.190784
  10 H :   -0.076923
  11 H :   -0.011792
  12 H :   -0.004287
  13 F :   -0.235393
  14 O :   -0.434663
  15 O :   -0.437954
  16 H :    0.020648
  17 H :    0.030891
  18 H :    0.015747
  19 H :    0.013879

  Mayer bond orders larger than 0.100000
B(  0-C ,  1-C ) :   1.1209 B(  0-C ,  6-C ) :   1.0915 B(  0-C ,  7-N ) :   0.1446
B(  0-C ,  8-C ) :   0.2436 B(  0-C , 16-H ) :   0.1648 B(  0-C , 18-H ) :   0.5359
B(  0-C , 19-H ) :   0.7580 B(  1-C ,  2-C ) :   1.3307 B(  1-C ,  3-H ) :   0.1570
B(  1-C ,  4-H ) :   0.2667 B(  1-C , 16-H ) :   0.6921 B(  1-C , 17-H ) :   0.7154
B(  1-C , 18-H ) :   0.2102 B(  1-C , 19-H ) :   0.1929 B(  2-C ,  3-H ) :   0.8373
B(  2-C ,  4-H ) :   0.6541 B(  2-C ,  5-S ) :   0.9023 B(  2-C ,  9-H ) :   0.1298
B(  2-C , 15-O ) :   0.1662 B(  2-C , 16-H ) :   0.1698 B(  2-C , 17-H ) :   0.1511
B(  3-H ,  9-H ) :   0.1003 B(  4-H ,  5-S ) :   0.1156 B(  4-H ,  9-H ) :  -0.1518
B(  5-S , 13-F ) :   0.7163 B(  5-S , 14-O ) :   1.5329 B(  5-S , 15-O ) :   1.4495
B(  6-C ,  7-N ) :   1.1110 B(  6-C ,  8-C ) :   1.7153 B(  6-C ,  9-H ) :   0.3180
B(  6-C , 10-H ) :   0.3155 B(  6-C , 12-H ) :  -0.1240 B(  6-C , 18-H ) :   0.2365
B(  6-C , 19-H ) :   0.1064 B(  7-N ,  8-C ) :   0.3812 B(  7-N , 11-H ) :   1.1472
B(  7-N , 12-H ) :   1.3342 B(  8-C ,  9-H ) :   0.4533 B(  8-C , 10-H ) :   0.4157
B(  9-H , 10-H ) :  -0.3384 B(  9-H , 15-O ) :   0.1759 B( 11-H , 12-H ) :  -0.1664
B( 16-H , 17-H ) :  -0.1149

Dispersion correction           -0.047485365
FINAL SINGLE POINT ENERGY      -899.053684740975

DIPOLE MOMENT
-------------
                                X             Y             Z
Electronic contribution:      9.18743     -12.43449       5.35378
Nuclear contribution   :     -8.42493      13.96425      -5.19491
                        -----------------------------------------
Total Dipole Moment    :      0.76250       1.52976       0.15887
                        -----------------------------------------
Magnitude (a.u.)       :      1.71663
Magnitude (Debye)      :      4.36332

Rotational constants in cm-1:     0.082815     0.024151     0.022015
Rotational constants in MHz :  2482.732265   724.035221   660.002136

                             ****ORCA TERMINATED NORMALLY****
TOTAL RUN TIME: 0 days 0 hours 0 minutes 20 seconds 273 msec
