                         Program Version 5.0.0 -  RELEASE  -
|  1> !M062X D3Zero RIJCOSX def2-TZVP def2/J TightSCF
|  2> *xyz -1 1
|  3> C          3.76678       -2.26611       -6.51175
|  4> C          2.49670       -1.84416       -5.73570
|  5> H          1.62642       -2.21743       -6.30895
|  6> H          2.48182       -2.45607       -4.79341
|  7> O          2.45973       -0.50920       -5.50576
|  8> H          3.82914       -1.70941       -7.42340
|  9> H          3.71764       -3.31144       -6.73483
| 10> H          4.63199       -2.06931       -5.91377
| 11> *
| 12>
| 13> %MaxCore 64000
| 14>
| 15> %pal nprocs 4
| 16> end
| 17>
| 18> %scf
| 19>   MaxIter 150
| 20> end
| 21>
| 22>
| 23>                          ****END OF INPUT****

CARTESIAN COORDINATES (ANGSTROEM)
---------------------------------
  C      3.766780   -2.266110   -6.511750
  C      2.496700   -1.844160   -5.735700
  H      1.626420   -2.217430   -6.308950
  H      2.481820   -2.456070   -4.793410
  O      2.459730   -0.509200   -5.505760
  H      3.829140   -1.709410   -7.423400
  H      3.717640   -3.311440   -6.734830
  H      4.631990   -2.069310   -5.913770

 Total Charge           Charge          ....   -1
 Multiplicity           Mult            ....    1
 Number of Electrons    NEL             ....   26
 Basis Dimension        Dim             ....  123

ORBITAL ENERGIES
----------------

  NO   OCC          E(Eh)            E(eV)
   0   2.0000     -19.267958      -524.3078
   1   2.0000     -10.338632      -281.3285
   2   2.0000     -10.315234      -280.6918
   3   2.0000      -0.785036       -21.3619
   4   2.0000      -0.610963       -16.6251
   5   2.0000      -0.446557       -12.1514
   6   2.0000      -0.309886        -8.4324
   7   2.0000      -0.286797        -7.8042
   8   2.0000      -0.227336        -6.1861
   9   2.0000      -0.212079        -5.7710
  10   2.0000      -0.169872        -4.6225
  11   2.0000      -0.022912        -0.6235
  12   2.0000      -0.021585        -0.5874
  13   0.0000       0.252623         6.8742
  14   0.0000       0.288485         7.8501
  15   0.0000       0.313284         8.5249
  16   0.0000       0.318699         8.6722
  17   0.0000       0.349149         9.5008

MULLIKEN ATOMIC CHARGES
-----------------------
   0 C :   -0.284495
   1 C :    0.011169
   2 H :   -0.028479
   3 H :   -0.040050
   4 O :   -0.799380
   5 H :    0.063670
   6 H :    0.013226
   7 H :    0.064340
Sum of atomic charges:   -1.0000000

LOEWDIN ATOMIC CHARGES
----------------------
   0 C :   -0.369152
   1 C :   -0.566760
   2 H :    0.055374
   3 H :    0.055115
   4 O :   -0.429808
   5 H :    0.089463
   6 H :    0.076486
   7 H :    0.089283

  Mayer bond orders larger than 0.100000
B(  0-C ,  1-C ) :   0.8806 B(  0-C ,  4-O ) :  -0.1721 B(  0-C ,  5-H ) :   0.9732
B(  0-C ,  6-H ) :   0.9471 B(  0-C ,  7-H ) :   0.9769 B(  1-C ,  2-H ) :   0.9417
B(  1-C ,  3-H ) :   0.9327 B(  1-C ,  4-O ) :   1.5321

Dispersion correction           -0.000014695
FINAL SINGLE POINT ENERGY      -154.402772394478

DIPOLE MOMENT
-------------
                                X             Y             Z
Electronic contribution:     -1.06340       2.60524       0.96382
Nuclear contribution   :      1.63615      -3.79938      -1.48621
                        -----------------------------------------
Total Dipole Moment    :      0.57276      -1.19414      -0.52239
                        -----------------------------------------
Magnitude (a.u.)       :      1.42370
Magnitude (Debye)      :      3.61875

Rotational constants in cm-1:     1.265582     0.329289     0.289024
Rotational constants in MHz : 37941.194363  9871.829581  8664.719106

                             ****ORCA TERMINATED NORMALLY****
TOTAL RUN TIME: 0 days 0 hours 0 minutes 13 seconds 9 msec
