                         Program Version 5.0.0 -  RELEASE  -
|  1> !M062X D3Zero RIJCOSX def2-TZVP def2/J TightSCF
|  2> *xyz 1 1
|  3> C          4.99986       -1.59613       -5.92488
|  4> N          5.28156       -1.97413       -4.53576
|  5> C          3.76678       -2.26611       -6.51175
|  6> C          4.79250       -1.36132       -3.45730
|  7> N          3.93990       -0.37492       -3.55736
|  8> N          5.25986       -1.75422       -2.23913
|  9> H          5.92282       -2.52145       -2.18672
| 10> H          4.65468       -1.64040       -1.44202
| 11> H          5.70914       -2.87560       -4.38702
| 12> H          3.33010       -0.31764       -4.36125
| 13> H          3.69849        0.11447       -2.70833
| 14> H          4.84333       -0.51793       -5.94302
| 15> H          5.90170       -1.82250       -6.49647
| 16> H          3.63046       -1.94025       -7.52177
| 17> H          2.90710       -2.00116       -5.93240
| 18> H          3.89538       -3.32820       -6.49392
| 19> *
| 20>
| 21> %MaxCore 64000
| 22>
| 23> %pal nprocs 4
| 24> end
| 25>
| 26> %scf
| 27>   MaxIter 150
| 28> end
| 29>
| 30>
| 31>                          ****END OF INPUT****

CARTESIAN COORDINATES (ANGSTROEM)
---------------------------------
  C      4.999860   -1.596130   -5.924880
  N      5.281560   -1.974130   -4.535760
  C      3.766780   -2.266110   -6.511750
  C      4.792500   -1.361320   -3.457300
  N      3.939900   -0.374920   -3.557360
  N      5.259860   -1.754220   -2.239130
  H      5.922820   -2.521450   -2.186720
  H      4.654680   -1.640400   -1.442020
  H      5.709140   -2.875600   -4.387020
  H      3.330100   -0.317640   -4.361250
  H      3.698490    0.114470   -2.708330
  H      4.843330   -0.517930   -5.943020
  H      5.901700   -1.822500   -6.496470
  H      3.630460   -1.940250   -7.521770
  H      2.907100   -2.001160   -5.932400
  H      3.895380   -3.328200   -6.493920

 Total Charge           Charge          ....    1
 Multiplicity           Mult            ....    1
 Number of Electrons    NEL             ....   48
 Basis Dimension        Dim             ....  246

ORBITAL ENERGIES
----------------

  NO   OCC          E(Eh)            E(eV)
   0   2.0000     -14.976918      -407.5426
   1   2.0000     -14.972664      -407.4269
   2   2.0000     -14.966384      -407.2560
   3   2.0000     -10.878411      -296.0166
   4   2.0000     -10.742899      -292.3292
   5   2.0000     -10.673824      -290.4495
   6   2.0000      -1.330006       -36.1913
   7   2.0000      -1.212774       -33.0013
   8   2.0000      -1.196368       -32.5548
   9   2.0000      -1.028192       -27.9785
  10   2.0000      -0.928987       -25.2790
  11   2.0000      -0.887803       -24.1584
  12   2.0000      -0.866872       -23.5888
  13   2.0000      -0.815796       -22.1989
  14   2.0000      -0.768005       -20.8985
  15   2.0000      -0.762199       -20.7405
  16   2.0000      -0.710160       -19.3244
  17   2.0000      -0.706797       -19.2329
  18   2.0000      -0.675952       -18.3936
  19   2.0000      -0.628284       -17.0965
  20   2.0000      -0.598781       -16.2937
  21   2.0000      -0.578565       -15.7436
  22   2.0000      -0.546238       -14.8639
  23   2.0000      -0.512848       -13.9553
  24   0.0000      -0.137178        -3.7328
  25   0.0000      -0.117038        -3.1848
  26   0.0000      -0.089951        -2.4477
  27   0.0000      -0.078701        -2.1415
  28   0.0000      -0.057839        -1.5739

MULLIKEN ATOMIC CHARGES
-----------------------
   0 C :   -0.296984
   1 N :   -0.315122
   2 C :   -0.324353
   3 C :    0.599730
   4 N :   -0.463644
   5 N :   -0.502687
   6 H :    0.291947
   7 H :    0.292052
   8 H :    0.273950
   9 H :    0.307479
  10 H :    0.295139
  11 H :    0.190875
  12 H :    0.193217
  13 H :    0.181313
  14 H :    0.115933
  15 H :    0.161154
Sum of atomic charges:    1.0000000

LOEWDIN ATOMIC CHARGES
----------------------
   0 C :   -0.281661
   1 N :    0.163113
   2 C :   -0.285695
   3 C :   -0.397999
   4 N :    0.084618
   5 N :    0.032080
   6 H :    0.197330
   7 H :    0.192425
   8 H :    0.208362
   9 H :    0.203140
  10 H :    0.205563
  11 H :    0.144663
  12 H :    0.151466
  13 H :    0.138544
  14 H :    0.116106
  15 H :    0.127945

  Mayer bond orders larger than 0.100000
B(  0-C ,  1-N ) :   0.8520 B(  0-C ,  2-C ) :   0.9475 B(  0-C , 11-H ) :   0.9766
B(  0-C , 12-H ) :   0.9580 B(  1-N ,  3-C ) :   1.3588 B(  1-N ,  8-H ) :   0.9021
B(  2-C , 13-H ) :   0.9710 B(  2-C , 14-H ) :   0.9481 B(  2-C , 15-H ) :   0.9683
B(  3-C ,  4-N ) :   1.3044 B(  3-C ,  5-N ) :   1.2309 B(  4-N ,  9-H ) :   0.8824
B(  4-N , 10-H ) :   0.8989 B(  5-N ,  6-H ) :   0.9029 B(  5-N ,  7-H ) :   0.8947

Dispersion correction           -0.000310223
FINAL SINGLE POINT ENERGY      -284.369256401174

DIPOLE MOMENT
-------------
                                X             Y             Z
Electronic contribution:      1.74154       1.08262       4.73121
Nuclear contribution   :     -1.95709      -1.20097      -3.70214
                        -----------------------------------------
Total Dipole Moment    :     -0.21555      -0.11835       1.02907
                        -----------------------------------------
Magnitude (a.u.)       :      1.05804
Magnitude (Debye)      :      2.68933

Rotational constants in cm-1:     0.241661     0.071598     0.061743
Rotational constants in MHz :  7244.800091  2146.442409  1851.001864

                             ****ORCA TERMINATED NORMALLY****
TOTAL RUN TIME: 0 days 0 hours 0 minutes 38 seconds 13 msec
