                         Program Version 5.0.0 -  RELEASE  -
|  1> !M062X D3Zero RIJCOSX def2-TZVP def2/J TightSCF
|  2> *xyz 0 1
|  3> C          3.76678       -2.26611       -6.51175
|  4> C          2.49670       -1.84416       -5.73570
|  5> H          1.62642       -2.21743       -6.30895
|  6> H          2.48182       -2.45607       -4.79341
|  7> F          2.45973       -0.50920       -5.50576
|  8> H          3.82914       -1.70941       -7.42340
|  9> H          3.71764       -3.31144       -6.73483
| 10> H          4.63199       -2.06931       -5.91377
| 11> *
| 12>
| 13> %MaxCore 64000
| 14>
| 15> %pal nprocs 4
| 16> end
| 17>
| 18> %scf
| 19>   MaxIter 150
| 20> end
| 21>
| 22>
| 23>                          ****END OF INPUT****

CARTESIAN COORDINATES (ANGSTROEM)
---------------------------------
  C      3.766780   -2.266110   -6.511750
  C      2.496700   -1.844160   -5.735700
  H      1.626420   -2.217430   -6.308950
  H      2.481820   -2.456070   -4.793410
  F      2.459730   -0.509200   -5.505760
  H      3.829140   -1.709410   -7.423400
  H      3.717640   -3.311440   -6.734830
  H      4.631990   -2.069310   -5.913770

 Total Charge           Charge          ....    0
 Multiplicity           Mult            ....    1
 Number of Electrons    NEL             ....   26
 Basis Dimension        Dim             ....  123

ORBITAL ENERGIES
----------------

  NO   OCC          E(Eh)            E(eV)
   0   2.0000     -25.233278      -686.6324
   1   2.0000     -10.614937      -288.8471
   2   2.0000     -10.527760      -286.4749
   3   2.0000      -1.348635       -36.6982
   4   2.0000      -0.860106       -23.4047
   5   2.0000      -0.723130       -19.6774
   6   2.0000      -0.593608       -16.1529
   7   2.0000      -0.583430       -15.8759
   8   2.0000      -0.548751       -14.9323
   9   2.0000      -0.481858       -13.1120
  10   2.0000      -0.467449       -12.7199
  11   2.0000      -0.402330       -10.9480
  12   2.0000      -0.397656       -10.8208
  13   0.0000       0.074279         2.0212
  14   0.0000       0.112892         3.0719
  15   0.0000       0.133370         3.6292
  16   0.0000       0.137800         3.7497
  17   0.0000       0.149870         4.0782

MULLIKEN ATOMIC CHARGES
-----------------------
   0 C :   -0.395489
   1 C :    0.001747
   2 H :    0.110954
   3 H :    0.108395
   4 F :   -0.230414
   5 H :    0.139046
   6 H :    0.127487
   7 H :    0.138273
Sum of atomic charges:   -0.0000000

LOEWDIN ATOMIC CHARGES
----------------------
   0 C :   -0.311506
   1 C :   -0.381500
   2 H :    0.115760
   3 H :    0.119179
   4 F :    0.105477
   5 H :    0.116681
   6 H :    0.119956
   7 H :    0.115952

  Mayer bond orders larger than 0.100000
B(  0-C ,  1-C ) :   0.9691 B(  0-C ,  5-H ) :   0.9691 B(  0-C ,  6-H ) :   0.9605
B(  0-C ,  7-H ) :   0.9702 B(  1-C ,  2-H ) :   0.9757 B(  1-C ,  3-H ) :   0.9750
B(  1-C ,  4-F ) :   0.9750

Dispersion correction           -0.000018643
FINAL SINGLE POINT ENERGY      -179.049952535323

DIPOLE MOMENT
-------------
                                X             Y             Z
Electronic contribution:     -2.08199       4.33517       1.81375
Nuclear contribution   :      2.16248      -5.01128      -1.96962
                        -----------------------------------------
Total Dipole Moment    :      0.08049      -0.67611      -0.15587
                        -----------------------------------------
Magnitude (a.u.)       :      0.69850
Magnitude (Debye)      :      1.77545

Rotational constants in cm-1:     1.244010     0.306580     0.270375
Rotational constants in MHz : 37294.476802  9191.037795  8105.639967

                             ****ORCA TERMINATED NORMALLY****
TOTAL RUN TIME: 0 days 0 hours 0 minutes 11 seconds 382 msec
