                         Program Version 5.0.0 -  RELEASE  -
|  1> !M062X D3Zero RIJCOSX def2-TZVP def2/J TightSCF
|  2> *xyz 0 1
|  3> C          4.99986       -1.59613       -5.92488
|  4> C          5.28156       -1.97413       -4.53576
|  5> C          3.76678       -2.26611       -6.51175
|  6> C          4.79250       -1.36132       -3.45730
|  7> N          3.93990       -0.37492       -3.55736
|  8> N          5.25986       -1.75422       -2.23913
|  9> H          5.92282       -2.52145       -2.18672
| 10> H          4.65468       -1.64040       -1.44202
| 11> H          5.70914       -2.87560       -4.38702
| 12> H          3.33010       -0.31764       -4.36125
| 13> H          3.69849        0.11447       -2.70833
| 14> H          4.84333       -0.51793       -5.94302
| 15> H          5.90170       -1.82250       -6.49647
| 16> H          3.63046       -1.94025       -7.52177
| 17> H          2.90710       -2.00116       -5.93240
| 18> H          3.89538       -3.32820       -6.49392
| 19> *
| 20>
| 21> %MaxCore 64000
| 22>
| 23> %pal nprocs 4
| 24> end
| 25>
| 26> %scf
| 27>   MaxIter 150
| 28> end
| 29>
| 30>
| 31>                          ****END OF INPUT****

CARTESIAN COORDINATES (ANGSTROEM)
---------------------------------
  C      4.999860   -1.596130   -5.924880
  C      5.281560   -1.974130   -4.535760
  C      3.766780   -2.266110   -6.511750
  C      4.792500   -1.361320   -3.457300
  N      3.939900   -0.374920   -3.557360
  N      5.259860   -1.754220   -2.239130
  H      5.922820   -2.521450   -2.186720
  H      4.654680   -1.640400   -1.442020
  H      5.709140   -2.875600   -4.387020
  H      3.330100   -0.317640   -4.361250
  H      3.698490    0.114470   -2.708330
  H      4.843330   -0.517930   -5.943020
  H      5.901700   -1.822500   -6.496470
  H      3.630460   -1.940250   -7.521770
  H      2.907100   -2.001160   -5.932400
  H      3.895380   -3.328200   -6.493920

 Total Charge           Charge          ....    0
 Multiplicity           Mult            ....    1
 Number of Electrons    NEL             ....   48
 Basis Dimension        Dim             ....  246

ORBITAL ENERGIES
----------------

  NO   OCC          E(Eh)            E(eV)
   0   2.0000     -14.750431      -401.3796
   1   2.0000     -14.741435      -401.1348
   2   2.0000     -10.580147      -287.9004
   3   2.0000     -10.506010      -285.8831
   4   2.0000     -10.500869      -285.7432
   5   2.0000     -10.458527      -284.5910
   6   2.0000      -1.073277       -29.2054
   7   2.0000      -0.974597       -26.5201
   8   2.0000      -0.871187       -23.7062
   9   2.0000      -0.786785       -21.4095
  10   2.0000      -0.699771       -19.0417
  11   2.0000      -0.655824       -17.8459
  12   2.0000      -0.620314       -16.8796
  13   2.0000      -0.577250       -15.7078
  14   2.0000      -0.545598       -14.8465
  15   2.0000      -0.511809       -13.9270
  16   2.0000      -0.481848       -13.1118
  17   2.0000      -0.465169       -12.6579
  18   2.0000      -0.449273       -12.2253
  19   2.0000      -0.414459       -11.2780
  20   2.0000      -0.386743       -10.5238
  21   2.0000      -0.379585       -10.3290
  22   2.0000      -0.331390        -9.0176
  23   2.0000      -0.213860        -5.8194
  24   0.0000       0.049248         1.3401
  25   0.0000       0.079186         2.1548
  26   0.0000       0.094817         2.5801
  27   0.0000       0.110845         3.0162
  28   0.0000       0.119085         3.2405

MULLIKEN ATOMIC CHARGES
-----------------------
   0 C :   -0.378036
   1 C :   -0.307280
   2 C :   -0.336412
   3 C :    0.472068
   4 N :   -0.563825
   5 N :   -0.580097
   6 H :    0.254566
   7 H :    0.221230
   8 H :    0.112863
   9 H :    0.263771
  10 H :    0.232944
  11 H :    0.129405
  12 H :    0.128526
  13 H :    0.124740
  14 H :    0.098274
  15 H :    0.127265
Sum of atomic charges:    0.0000000

LOEWDIN ATOMIC CHARGES
----------------------
   0 C :   -0.312766
   1 C :   -0.274653
   2 C :   -0.308918
   3 C :   -0.459669
   4 N :    0.000149
   5 N :   -0.047813
   6 H :    0.176516
   7 H :    0.152590
   8 H :    0.117270
   9 H :    0.180551
  10 H :    0.169513
  11 H :    0.135080
  12 H :    0.138510
  13 H :    0.110817
  14 H :    0.107703
  15 H :    0.115120

  Mayer bond orders larger than 0.100000
B(  0-C ,  1-C ) :   1.0063 B(  0-C ,  2-C ) :   0.9252 B(  0-C , 11-H ) :   0.9940
B(  0-C , 12-H ) :   0.9893 B(  1-C ,  3-C ) :   1.6552 B(  1-C ,  8-H ) :   0.9860
B(  2-C , 13-H ) :   0.9827 B(  2-C , 14-H ) :   0.9700 B(  2-C , 15-H ) :   0.9802
B(  3-C ,  4-N ) :   1.0580 B(  3-C ,  5-N ) :   1.0452 B(  4-N ,  9-H ) :   0.9152
B(  4-N , 10-H ) :   0.9331 B(  5-N ,  6-H ) :   0.9269 B(  5-N ,  7-H ) :   0.9235

Dispersion correction           -0.000308397
FINAL SINGLE POINT ENERGY      -267.890055732216

DIPOLE MOMENT
-------------
                                X             Y             Z
Electronic contribution:      1.20789       1.39684       4.53558
Nuclear contribution   :     -1.82485      -1.28952      -3.74132
                        -----------------------------------------
Total Dipole Moment    :     -0.61697       0.10732       0.79426
                        -----------------------------------------
Magnitude (a.u.)       :      1.01144
Magnitude (Debye)      :      2.57089

Rotational constants in cm-1:     0.245790     0.071632     0.062004
Rotational constants in MHz :  7368.599517  2147.482078  1858.844841

                             ****ORCA TERMINATED NORMALLY****
TOTAL RUN TIME: 0 days 0 hours 0 minutes 38 seconds 360 msec
