                         Program Version 5.0.0 -  RELEASE  -
|  1> !M062X D3Zero RIJCOSX def2-TZVP def2/J TightSCF
|  2> *xyz 0 1
|  3> C          4.99986       -1.59613       -5.92488
|  4> N          5.28156       -1.97413       -4.53576
|  5> C          3.76678       -2.26611       -6.51175
|  6> C          4.79250       -1.36132       -3.45730
|  7> C          3.93990       -0.37492       -3.55736
|  8> N          5.25986       -1.75422       -2.23913
|  9> H          5.92282       -2.52145       -2.18672
| 10> H          4.65468       -1.64040       -1.44202
| 11> H          5.70914       -2.87560       -4.38702
| 12> H          3.33010       -0.31764       -4.36125
| 13> H          3.69849        0.11447       -2.70833
| 14> H          4.84333       -0.51793       -5.94302
| 15> H          5.90170       -1.82250       -6.49647
| 16> H          3.63046       -1.94025       -7.52177
| 17> H          2.90710       -2.00116       -5.93240
| 18> H          3.89538       -3.32820       -6.49392
| 19> *
| 20>
| 21> %MaxCore 64000
| 22>
| 23> %pal nprocs 4
| 24> end
| 25>
| 26> %scf
| 27>   MaxIter 150
| 28> end
| 29>
| 30>
| 31>                          ****END OF INPUT****

CARTESIAN COORDINATES (ANGSTROEM)
---------------------------------
  C      4.999860   -1.596130   -5.924880
  N      5.281560   -1.974130   -4.535760
  C      3.766780   -2.266110   -6.511750
  C      4.792500   -1.361320   -3.457300
  C      3.939900   -0.374920   -3.557360
  N      5.259860   -1.754220   -2.239130
  H      5.922820   -2.521450   -2.186720
  H      4.654680   -1.640400   -1.442020
  H      5.709140   -2.875600   -4.387020
  H      3.330100   -0.317640   -4.361250
  H      3.698490    0.114470   -2.708330
  H      4.843330   -0.517930   -5.943020
  H      5.901700   -1.822500   -6.496470
  H      3.630460   -1.940250   -7.521770
  H      2.907100   -2.001160   -5.932400
  H      3.895380   -3.328200   -6.493920

 Total Charge           Charge          ....    0
 Multiplicity           Mult            ....    1
 Number of Electrons    NEL             ....   48
 Basis Dimension        Dim             ....  246

ORBITAL ENERGIES
----------------

  NO   OCC          E(Eh)            E(eV)
   0   2.0000     -14.747436      -401.2981
   1   2.0000     -14.742626      -401.1672
   2   2.0000     -10.581862      -287.9471
   3   2.0000     -10.566302      -287.5237
   4   2.0000     -10.517888      -286.2063
   5   2.0000     -10.448025      -284.3052
   6   2.0000      -1.072660       -29.1886
   7   2.0000      -0.983162       -26.7532
   8   2.0000      -0.852212       -23.1899
   9   2.0000      -0.810833       -22.0639
  10   2.0000      -0.723046       -19.6751
  11   2.0000      -0.642965       -17.4960
  12   2.0000      -0.616411       -16.7734
  13   2.0000      -0.584806       -15.9134
  14   2.0000      -0.524041       -14.2599
  15   2.0000      -0.514238       -13.9931
  16   2.0000      -0.496284       -13.5046
  17   2.0000      -0.464023       -12.6267
  18   2.0000      -0.449345       -12.2273
  19   2.0000      -0.434557       -11.8249
  20   2.0000      -0.418737       -11.3944
  21   2.0000      -0.409859       -11.1528
  22   2.0000      -0.313605        -8.5336
  23   2.0000      -0.226174        -6.1545
  24   0.0000       0.052310         1.4234
  25   0.0000       0.081879         2.2280
  26   0.0000       0.093871         2.5544
  27   0.0000       0.112173         3.0524
  28   0.0000       0.121138         3.2963

MULLIKEN ATOMIC CHARGES
-----------------------
   0 C :   -0.221995
   1 N :   -0.398372
   2 C :   -0.342493
   3 C :    0.529232
   4 C :   -0.579606
   5 N :   -0.587328
   6 H :    0.226770
   7 H :    0.254396
   8 H :    0.210816
   9 H :    0.115760
  10 H :    0.094509
  11 H :    0.170697
  12 H :    0.137367
  13 H :    0.131042
  14 H :    0.139851
  15 H :    0.119354
Sum of atomic charges:   -0.0000000

LOEWDIN ATOMIC CHARGES
----------------------
   0 C :   -0.299053
   1 N :    0.103881
   2 C :   -0.308023
   3 C :   -0.456406
   4 C :   -0.326945
   5 N :   -0.042973
   6 H :    0.160165
   7 H :    0.171293
   8 H :    0.173973
   9 H :    0.101262
  10 H :    0.101500
  11 H :    0.141517
  12 H :    0.128756
  13 H :    0.118433
  14 H :    0.119779
  15 H :    0.112841

  Mayer bond orders larger than 0.100000
B(  0-C ,  1-N ) :   0.9016 B(  0-C ,  2-C ) :   0.9343 B(  0-C , 11-H ) :   0.9786
B(  0-C , 12-H ) :   0.9801 B(  1-N ,  3-C ) :   1.1093 B(  1-N ,  8-H ) :   0.9300
B(  2-C , 13-H ) :   0.9779 B(  2-C , 14-H ) :   0.9670 B(  2-C , 15-H ) :   0.9752
B(  3-C ,  4-C ) :   1.6306 B(  3-C ,  5-N ) :   1.0091 B(  4-C ,  9-H ) :   0.9924
B(  4-C , 10-H ) :   1.0153 B(  5-N ,  6-H ) :   0.9365 B(  5-N ,  7-H ) :   0.9233

Dispersion correction           -0.000305731
FINAL SINGLE POINT ENERGY      -267.884328338626

DIPOLE MOMENT
-------------
                                X             Y             Z
Electronic contribution:      2.41924      -0.12093       3.50143
Nuclear contribution   :     -2.10948      -0.95026      -3.53375
                        -----------------------------------------
Total Dipole Moment    :      0.30976      -1.07119      -0.03232
                        -----------------------------------------
Magnitude (a.u.)       :      1.11554
Magnitude (Debye)      :      2.83549

Rotational constants in cm-1:     0.255209     0.072067     0.062929
Rotational constants in MHz :  7650.964615  2160.525743  1886.569524

                             ****ORCA TERMINATED NORMALLY****
TOTAL RUN TIME: 0 days 0 hours 0 minutes 38 seconds 140 msec
