                         Program Version 5.0.0 -  RELEASE  -
|  1> !M062X D3Zero RIJCOSX def2-TZVP def2/J TightSCF
|  2> *xyz 0 1
|  3> C          4.99986       -1.59613       -5.92488
|  4> N          5.28156       -1.97413       -4.53576
|  5> C          3.76678       -2.26611       -6.51175
|  6> C          4.79250       -1.36132       -3.45730
|  7> N          3.93990       -0.37492       -3.55736
|  8> C          5.25986       -1.75422       -2.23913
|  9> H          5.92282       -2.52145       -2.18672
| 10> H          4.65468       -1.64040       -1.44202
| 11> H          5.70914       -2.87560       -4.38702
| 12> H          3.33010       -0.31764       -4.36125
| 13> H          3.69849        0.11447       -2.70833
| 14> H          4.84333       -0.51793       -5.94302
| 15> H          5.90170       -1.82250       -6.49647
| 16> H          3.63046       -1.94025       -7.52177
| 17> H          2.90710       -2.00116       -5.93240
| 18> H          3.89538       -3.32820       -6.49392
| 19> *
| 20>
| 21> %MaxCore 64000
| 22>
| 23> %pal nprocs 4
| 24> end
| 25>
| 26> %scf
| 27>   MaxIter 150
| 28> end
| 29>
| 30>
| 31>                          ****END OF INPUT****

CARTESIAN COORDINATES (ANGSTROEM)
---------------------------------
  C      4.999860   -1.596130   -5.924880
  N      5.281560   -1.974130   -4.535760
  C      3.766780   -2.266110   -6.511750
  C      4.792500   -1.361320   -3.457300
  N      3.939900   -0.374920   -3.557360
  C      5.259860   -1.754220   -2.239130
  H      5.922820   -2.521450   -2.186720
  H      4.654680   -1.640400   -1.442020
  H      5.709140   -2.875600   -4.387020
  H      3.330100   -0.317640   -4.361250
  H      3.698490    0.114470   -2.708330
  H      4.843330   -0.517930   -5.943020
  H      5.901700   -1.822500   -6.496470
  H      3.630460   -1.940250   -7.521770
  H      2.907100   -2.001160   -5.932400
  H      3.895380   -3.328200   -6.493920

 Total Charge           Charge          ....    0
 Multiplicity           Mult            ....    1
 Number of Electrons    NEL             ....   48
 Basis Dimension        Dim             ....  246

ORBITAL ENERGIES
----------------

  NO   OCC          E(Eh)            E(eV)
   0   2.0000     -14.751509      -401.4090
   1   2.0000     -14.748201      -401.3190
   2   2.0000     -10.586930      -288.0850
   3   2.0000     -10.575365      -287.7703
   4   2.0000     -10.528981      -286.5081
   5   2.0000     -10.444160      -284.2001
   6   2.0000      -1.084157       -29.5014
   7   2.0000      -0.995095       -27.0779
   8   2.0000      -0.870118       -23.6771
   9   2.0000      -0.789768       -21.4907
  10   2.0000      -0.714777       -19.4501
  11   2.0000      -0.683978       -18.6120
  12   2.0000      -0.621472       -16.9111
  13   2.0000      -0.571653       -15.5555
  14   2.0000      -0.552471       -15.0335
  15   2.0000      -0.514095       -13.9892
  16   2.0000      -0.500790       -13.6272
  17   2.0000      -0.472085       -12.8461
  18   2.0000      -0.453983       -12.3535
  19   2.0000      -0.429521       -11.6879
  20   2.0000      -0.427454       -11.6316
  21   2.0000      -0.413312       -11.2468
  22   2.0000      -0.320522        -8.7218
  23   2.0000      -0.211672        -5.7599
  24   0.0000       0.048650         1.3238
  25   0.0000       0.081011         2.2044
  26   0.0000       0.089626         2.4388
  27   0.0000       0.106589         2.9004
  28   0.0000       0.117720         3.2033

MULLIKEN ATOMIC CHARGES
-----------------------
   0 C :   -0.277573
   1 N :   -0.377253
   2 C :   -0.315356
   3 C :    0.497592
   4 N :   -0.550225
   5 C :   -0.578461
   6 H :    0.079964
   7 H :    0.100276
   8 H :    0.241225
   9 H :    0.239896
  10 H :    0.257972
  11 H :    0.161445
  12 H :    0.146179
  13 H :    0.132005
  14 H :    0.111535
  15 H :    0.130779
Sum of atomic charges:   -0.0000000

LOEWDIN ATOMIC CHARGES
----------------------
   0 C :   -0.314701
   1 N :    0.111751
   2 C :   -0.310440
   3 C :   -0.465486
   4 N :    0.004795
   5 C :   -0.365076
   6 H :    0.092875
   7 H :    0.091422
   8 H :    0.192044
   9 H :    0.165626
  10 H :    0.185298
  11 H :    0.133938
  12 H :    0.131585
  13 H :    0.118385
  14 H :    0.111560
  15 H :    0.116424

  Mayer bond orders larger than 0.100000
B(  0-C ,  1-N ) :   0.9193 B(  0-C ,  2-C ) :   0.9273 B(  0-C , 11-H ) :   0.9874
B(  0-C , 12-H ) :   0.9794 B(  1-N ,  3-C ) :   1.1295 B(  1-N ,  8-H ) :   0.9272
B(  2-C , 13-H ) :   0.9768 B(  2-C , 14-H ) :   0.9608 B(  2-C , 15-H ) :   0.9756
B(  3-C ,  4-N ) :   1.0849 B(  3-C ,  5-C ) :   1.5662 B(  4-N ,  9-H ) :   0.9151
B(  4-N , 10-H ) :   0.9242 B(  5-C ,  6-H ) :   1.0333 B(  5-C ,  7-H ) :   0.9836

Dispersion correction           -0.000305321
FINAL SINGLE POINT ENERGY      -267.877994696610

DIPOLE MOMENT
-------------
                                X             Y             Z
Electronic contribution:      1.14130       1.24974       2.12843
Nuclear contribution   :     -1.82946      -1.24287      -3.25410
                        -----------------------------------------
Total Dipole Moment    :     -0.68816       0.00687      -1.12567
                        -----------------------------------------
Magnitude (a.u.)       :      1.31937
Magnitude (Debye)      :      3.35357

Rotational constants in cm-1:     0.244672     0.074506     0.064043
Rotational constants in MHz :  7335.067153  2233.624025  1919.970379

                             ****ORCA TERMINATED NORMALLY****
TOTAL RUN TIME: 0 days 0 hours 0 minutes 38 seconds 346 msec
