                         Program Version 5.0.0 -  RELEASE  -
|  1> !wB97X-D3 RIJCOSX def2-SVPD def2/J TightSCF CPCM(Water)
|  2> *xyz -1 1
|  3> C          3.76678       -2.26611       -6.51175
|  4> C          2.49670       -1.84416       -5.73570
|  5> H          1.62642       -2.21743       -6.30895
|  6> H          2.48182       -2.45607       -4.79341
|  7> O          2.45973       -0.50920       -5.50576
|  8> H          3.82914       -1.70941       -7.42340
|  9> H          3.71764       -3.31144       -6.73483
| 10> H          4.63199       -2.06931       -5.91377
| 11> *
| 12>
| 13> %MaxCore 64000
| 14>
| 15> %pal nprocs 18
| 16> end
| 17>
| 18> %scf
| 19>   MaxIter 150
| 20> end
| 21>
| 22>
| 23>                          ****END OF INPUT****

CARTESIAN COORDINATES (ANGSTROEM)
---------------------------------
  C      3.766780   -2.266110   -6.511750
  C      2.496700   -1.844160   -5.735700
  H      1.626420   -2.217430   -6.308950
  H      2.481820   -2.456070   -4.793410
  O      2.459730   -0.509200   -5.505760
  H      3.829140   -1.709410   -7.423400
  H      3.717640   -3.311440   -6.734830
  H      4.631990   -2.069310   -5.913770

 Total Charge           Charge          ....   -1
 Multiplicity           Mult            ....    1
 Number of Electrons    NEL             ....   26
 Basis Dimension        Dim             ....  103

ORBITAL ENERGIES
----------------

  NO   OCC          E(Eh)            E(eV)
   0   2.0000     -19.119915      -520.2793
   1   2.0000     -10.288020      -279.9513
   2   2.0000     -10.244298      -278.7615
   3   2.0000      -0.994575       -27.0638
   4   2.0000      -0.803680       -21.8692
   5   2.0000      -0.655534       -17.8380
   6   2.0000      -0.526208       -14.3188
   7   2.0000      -0.498196       -13.5566
   8   2.0000      -0.448179       -12.1956
   9   2.0000      -0.429927       -11.6989
  10   2.0000      -0.415900       -11.3172
  11   2.0000      -0.271112        -7.3773
  12   2.0000      -0.270617        -7.3639
  13   0.0000       0.106747         2.9047
  14   0.0000       0.134358         3.6561
  15   0.0000       0.151199         4.1143
  16   0.0000       0.155047         4.2191
  17   0.0000       0.189257         5.1500

MULLIKEN ATOMIC CHARGES
-----------------------
   0 C :    0.354405
   1 C :    0.094913
   2 H :   -0.156606
   3 H :   -0.121141
   4 O :   -0.944732
   5 H :   -0.098190
   6 H :   -0.038976
   7 H :   -0.089673
Sum of atomic charges:   -1.0000000

LOEWDIN ATOMIC CHARGES
----------------------
   0 C :    0.078862
   1 C :   -0.276351
   2 H :   -0.018824
   3 H :   -0.011051
   4 O :   -0.671839
   5 H :   -0.034071
   6 H :   -0.033553
   7 H :   -0.033172

  Mayer bond orders larger than 0.100000
B(  0-C ,  1-C ) :   1.2110 B(  0-C ,  5-H ) :   0.8934 B(  0-C ,  6-H ) :   0.8818
B(  0-C ,  7-H ) :   0.8880 B(  1-C ,  2-H ) :   0.9641 B(  1-C ,  3-H ) :   0.9670
B(  1-C ,  4-O ) :   1.2912 B(  1-C ,  5-H ) :   0.1512 B(  1-C ,  6-H ) :   0.1063
B(  1-C ,  7-H ) :   0.1472

Dispersion correction           -0.000860927
FINAL SINGLE POINT ENERGY      -154.390369436416

DIPOLE MOMENT
-------------
                                X             Y             Z
Electronic contribution:     -0.84874       1.72574       0.70541
Nuclear contribution   :      1.63615      -3.79938      -1.48621
                        -----------------------------------------
Total Dipole Moment    :      0.78742      -2.07364      -0.78080
                        -----------------------------------------
Magnitude (a.u.)       :      2.35153
Magnitude (Debye)      :      5.97710

Rotational constants in cm-1:     1.265582     0.329289     0.289024
Rotational constants in MHz : 37941.194363  9871.829581  8664.719106

                             ****ORCA TERMINATED NORMALLY****
TOTAL RUN TIME: 0 days 0 hours 0 minutes 5 seconds 158 msec
