                         Program Version 5.0.0 -  RELEASE  -
|  1> !wB97X-D3 RIJCOSX def2-SVPD def2/J TightSCF CPCM(Water)
|  2> *xyz 1 1
|  3> C          4.99986       -1.59613       -5.92488
|  4> N          5.28156       -1.97413       -4.53576
|  5> C          3.76678       -2.26611       -6.51175
|  6> C          4.79250       -1.36132       -3.45730
|  7> N          3.93990       -0.37492       -3.55736
|  8> N          5.25986       -1.75422       -2.23913
|  9> H          5.92282       -2.52145       -2.18672
| 10> H          4.65468       -1.64040       -1.44202
| 11> H          5.70914       -2.87560       -4.38702
| 12> H          3.33010       -0.31764       -4.36125
| 13> H          3.69849        0.11447       -2.70833
| 14> H          4.84333       -0.51793       -5.94302
| 15> H          5.90170       -1.82250       -6.49647
| 16> H          3.63046       -1.94025       -7.52177
| 17> H          2.90710       -2.00116       -5.93240
| 18> H          3.89538       -3.32820       -6.49392
| 19> *
| 20>
| 21> %MaxCore 64000
| 22>
| 23> %pal nprocs 18
| 24> end
| 25>
| 26> %scf
| 27>   MaxIter 150
| 28> end
| 29>
| 30>
| 31>                          ****END OF INPUT****

CARTESIAN COORDINATES (ANGSTROEM)
---------------------------------
  C      4.999860   -1.596130   -5.924880
  N      5.281560   -1.974130   -4.535760
  C      3.766780   -2.266110   -6.511750
  C      4.792500   -1.361320   -3.457300
  N      3.939900   -0.374920   -3.557360
  N      5.259860   -1.754220   -2.239130
  H      5.922820   -2.521450   -2.186720
  H      4.654680   -1.640400   -1.442020
  H      5.709140   -2.875600   -4.387020
  H      3.330100   -0.317640   -4.361250
  H      3.698490    0.114470   -2.708330
  H      4.843330   -0.517930   -5.943020
  H      5.901700   -1.822500   -6.496470
  H      3.630460   -1.940250   -7.521770
  H      2.907100   -2.001160   -5.932400
  H      3.895380   -3.328200   -6.493920

 Total Charge           Charge          ....    1
 Multiplicity           Mult            ....    1
 Number of Electrons    NEL             ....   48
 Basis Dimension        Dim             ....  200

ORBITAL ENERGIES
----------------

  NO   OCC          E(Eh)            E(eV)
   0   2.0000     -14.490943      -394.3186
   1   2.0000     -14.489632      -394.2829
   2   2.0000     -14.480434      -394.0326
   3   2.0000     -10.457166      -284.5539
   4   2.0000     -10.339299      -281.3466
   5   2.0000     -10.281285      -279.7680
   6   2.0000      -1.153680       -31.3932
   7   2.0000      -1.042648       -28.3719
   8   2.0000      -1.023994       -27.8643
   9   2.0000      -0.883865       -24.0512
  10   2.0000      -0.780855       -21.2481
  11   2.0000      -0.744789       -20.2667
  12   2.0000      -0.719393       -19.5757
  13   2.0000      -0.672540       -18.3008
  14   2.0000      -0.621725       -16.9180
  15   2.0000      -0.617367       -16.7994
  16   2.0000      -0.580400       -15.7935
  17   2.0000      -0.565203       -15.3799
  18   2.0000      -0.550277       -14.9738
  19   2.0000      -0.503240       -13.6939
  20   2.0000      -0.480105       -13.0643
  21   2.0000      -0.457127       -12.4391
  22   2.0000      -0.402606       -10.9555
  23   2.0000      -0.377942       -10.2843
  24   0.0000       0.073513         2.0004
  25   0.0000       0.088520         2.4087
  26   0.0000       0.116796         3.1782
  27   0.0000       0.127199         3.4613
  28   0.0000       0.131401         3.5756

MULLIKEN ATOMIC CHARGES
-----------------------
   0 C :    0.241711
   1 N :   -0.469782
   2 C :    0.539081
   3 C :    1.179329
   4 N :   -0.019290
   5 N :   -0.165489
   6 H :    0.040123
   7 H :    0.044218
   8 H :   -0.181842
   9 H :   -0.003197
  10 H :   -0.000456
  11 H :    0.000368
  12 H :   -0.202059
  13 H :    0.080280
  14 H :   -0.076207
  15 H :   -0.006789
Sum of atomic charges:    1.0000000

LOEWDIN ATOMIC CHARGES
----------------------
   0 C :    0.040272
   1 N :    0.043881
   2 C :    0.142018
   3 C :   -0.030864
   4 N :    0.284268
   5 N :    0.256360
   6 H :    0.039547
   7 H :    0.034362
   8 H :    0.065970
   9 H :    0.035277
  10 H :    0.053485
  11 H :    0.026800
  12 H :    0.037955
  13 H :   -0.003822
  14 H :   -0.016601
  15 H :   -0.008908

  Mayer bond orders larger than 0.100000
B(  0-C ,  1-N ) :   0.8424 B(  0-C ,  2-C ) :   1.2482 B(  0-C ,  8-H ) :  -0.1941
B(  0-C , 11-H ) :   0.8808 B(  0-C , 12-H ) :   0.9739 B(  0-C , 13-H ) :   0.1552
B(  0-C , 14-H ) :   0.1938 B(  0-C , 15-H ) :   0.2033 B(  1-N ,  3-C ) :   1.0413
B(  1-N ,  4-N ) :   0.2066 B(  1-N ,  5-N ) :   0.1831 B(  1-N ,  8-H ) :   1.3379
B(  1-N , 11-H ) :   0.1420 B(  1-N , 12-H ) :   0.1357 B(  2-C , 13-H ) :   0.8014
B(  2-C , 14-H ) :   0.8394 B(  2-C , 15-H ) :   0.8289 B(  3-C ,  4-N ) :   1.0884
B(  3-C ,  5-N ) :   0.8667 B(  3-C ,  8-H ) :  -0.1842 B(  4-N ,  5-N ) :   0.1422
B(  4-N ,  9-H ) :   1.1075 B(  4-N , 10-H ) :   1.1632 B(  5-N ,  6-H ) :   1.0501
B(  5-N ,  7-H ) :   1.1159 B(  6-H ,  7-H ) :  -0.1196 B(  9-H , 10-H ) :  -0.1649

Dispersion correction           -0.003771172
FINAL SINGLE POINT ENERGY      -284.234083611007

DIPOLE MOMENT
-------------
                                X             Y             Z
Electronic contribution:      1.68399       1.07034       5.05033
Nuclear contribution   :     -1.95709      -1.20097      -3.70214
                        -----------------------------------------
Total Dipole Moment    :     -0.27310      -0.13063       1.34819
                        -----------------------------------------
Magnitude (a.u.)       :      1.38177
Magnitude (Debye)      :      3.51217

Rotational constants in cm-1:     0.241661     0.071598     0.061743
Rotational constants in MHz :  7244.800091  2146.442409  1851.001864

                             ****ORCA TERMINATED NORMALLY****
TOTAL RUN TIME: 0 days 0 hours 0 minutes 12 seconds 591 msec
