                         Program Version 5.0.0 -  RELEASE  -
|  1> !wB97X-D3 RIJCOSX def2-SVPD def2/J TightSCF CPCM(Water)
|  2> *xyz 0 1
|  3> C          3.76678       -2.26611       -6.51175
|  4> C          2.49670       -1.84416       -5.73570
|  5> H          1.62642       -2.21743       -6.30895
|  6> H          2.48182       -2.45607       -4.79341
|  7> F          2.45973       -0.50920       -5.50576
|  8> H          3.82914       -1.70941       -7.42340
|  9> H          3.71764       -3.31144       -6.73483
| 10> H          4.63199       -2.06931       -5.91377
| 11> *
| 12>
| 13> %MaxCore 64000
| 14>
| 15> %pal nprocs 18
| 16> end
| 17>
| 18> %scf
| 19>   MaxIter 150
| 20> end
| 21>
| 22>
| 23>                          ****END OF INPUT****

CARTESIAN COORDINATES (ANGSTROEM)
---------------------------------
  C      3.766780   -2.266110   -6.511750
  C      2.496700   -1.844160   -5.735700
  H      1.626420   -2.217430   -6.308950
  H      2.481820   -2.456070   -4.793410
  F      2.459730   -0.509200   -5.505760
  H      3.829140   -1.709410   -7.423400
  H      3.717640   -3.311440   -6.734830
  H      4.631990   -2.069310   -5.913770

 Total Charge           Charge          ....    0
 Multiplicity           Mult            ....    1
 Number of Electrons    NEL             ....   26
 Basis Dimension        Dim             ....  103

ORBITAL ENERGIES
----------------

  NO   OCC          E(Eh)            E(eV)
   0   2.0000     -24.799547      -674.8300
   1   2.0000     -10.364867      -282.0424
   2   2.0000     -10.275598      -279.6132
   3   2.0000      -1.313635       -35.7458
   4   2.0000      -0.864630       -23.5278
   5   2.0000      -0.734265       -19.9804
   6   2.0000      -0.618632       -16.8338
   7   2.0000      -0.601806       -16.3760
   8   2.0000      -0.568017       -15.4565
   9   2.0000      -0.502546       -13.6750
  10   2.0000      -0.490020       -13.3341
  11   2.0000      -0.429422       -11.6852
  12   2.0000      -0.421869       -11.4796
  13   0.0000       0.101052         2.7498
  14   0.0000       0.129246         3.5170
  15   0.0000       0.155060         4.2194
  16   0.0000       0.166227         4.5233
  17   0.0000       0.198419         5.3993

MULLIKEN ATOMIC CHARGES
-----------------------
   0 C :    0.189874
   1 C :    0.313161
   2 H :   -0.013737
   3 H :    0.024297
   4 F :   -0.472108
   5 H :   -0.028538
   6 H :    0.008389
   7 H :   -0.021338
Sum of atomic charges:   -0.0000000

LOEWDIN ATOMIC CHARGES
----------------------
   0 C :    0.133231
   1 C :    0.064310
   2 H :    0.034347
   3 H :    0.043997
   4 F :   -0.238942
   5 H :   -0.014392
   6 H :   -0.007861
   7 H :   -0.014690

  Mayer bond orders larger than 0.100000
B(  0-C ,  1-C ) :   1.3232 B(  0-C ,  5-H ) :   0.9145 B(  0-C ,  6-H ) :   0.8860
B(  0-C ,  7-H ) :   0.9110 B(  1-C ,  2-H ) :   0.9640 B(  1-C ,  3-H ) :   0.9575
B(  1-C ,  4-F ) :   0.7265 B(  1-C ,  5-H ) :   0.1194 B(  1-C ,  6-H ) :   0.1033
B(  1-C ,  7-H ) :   0.1148

Dispersion correction           -0.000877181
FINAL SINGLE POINT ENERGY      -178.891028887871

DIPOLE MOMENT
-------------
                                X             Y             Z
Electronic contribution:     -2.08245       4.14303       1.78355
Nuclear contribution   :      2.16248      -5.01128      -1.96962
                        -----------------------------------------
Total Dipole Moment    :      0.08003      -0.86825      -0.18607
                        -----------------------------------------
Magnitude (a.u.)       :      0.89157
Magnitude (Debye)      :      2.26618

Rotational constants in cm-1:     1.244010     0.306580     0.270375
Rotational constants in MHz : 37294.476802  9191.037795  8105.639967

                             ****ORCA TERMINATED NORMALLY****
TOTAL RUN TIME: 0 days 0 hours 0 minutes 5 seconds 46 msec
