                         Program Version 5.0.0 -  RELEASE  -
|  1> !wB97X-D3 RIJCOSX def2-SVPD def2/J TightSCF CPCM(Water)
|  2> *xyz 0 1
|  3> C          4.99986       -1.59613       -5.92488
|  4> C          5.28156       -1.97413       -4.53576
|  5> C          3.76678       -2.26611       -6.51175
|  6> C          4.79250       -1.36132       -3.45730
|  7> N          3.93990       -0.37492       -3.55736
|  8> N          5.25986       -1.75422       -2.23913
|  9> H          5.92282       -2.52145       -2.18672
| 10> H          4.65468       -1.64040       -1.44202
| 11> H          5.70914       -2.87560       -4.38702
| 12> H          3.33010       -0.31764       -4.36125
| 13> H          3.69849        0.11447       -2.70833
| 14> H          4.84333       -0.51793       -5.94302
| 15> H          5.90170       -1.82250       -6.49647
| 16> H          3.63046       -1.94025       -7.52177
| 17> H          2.90710       -2.00116       -5.93240
| 18> H          3.89538       -3.32820       -6.49392
| 19> *
| 20>
| 21> %MaxCore 64000
| 22>
| 23> %pal nprocs 18
| 24> end
| 25>
| 26> %scf
| 27>   MaxIter 150
| 28> end
| 29>
| 30>
| 31>                          ****END OF INPUT****

CARTESIAN COORDINATES (ANGSTROEM)
---------------------------------
  C      4.999860   -1.596130   -5.924880
  C      5.281560   -1.974130   -4.535760
  C      3.766780   -2.266110   -6.511750
  C      4.792500   -1.361320   -3.457300
  N      3.939900   -0.374920   -3.557360
  N      5.259860   -1.754220   -2.239130
  H      5.922820   -2.521450   -2.186720
  H      4.654680   -1.640400   -1.442020
  H      5.709140   -2.875600   -4.387020
  H      3.330100   -0.317640   -4.361250
  H      3.698490    0.114470   -2.708330
  H      4.843330   -0.517930   -5.943020
  H      5.901700   -1.822500   -6.496470
  H      3.630460   -1.940250   -7.521770
  H      2.907100   -2.001160   -5.932400
  H      3.895380   -3.328200   -6.493920

 Total Charge           Charge          ....    0
 Multiplicity           Mult            ....    1
 Number of Electrons    NEL             ....   48
 Basis Dimension        Dim             ....  200

ORBITAL ENERGIES
----------------

  NO   OCC          E(Eh)            E(eV)
   0   2.0000     -14.434272      -392.7765
   1   2.0000     -14.428212      -392.6116
   2   2.0000     -10.336660      -281.2748
   3   2.0000     -10.267066      -279.3811
   4   2.0000     -10.260258      -279.1958
   5   2.0000     -10.215288      -277.9721
   6   2.0000      -1.069090       -29.0914
   7   2.0000      -0.972451       -26.4617
   8   2.0000      -0.887136       -24.1402
   9   2.0000      -0.803782       -21.8720
  10   2.0000      -0.720429       -19.6039
  11   2.0000      -0.679390       -18.4871
  12   2.0000      -0.644111       -17.5271
  13   2.0000      -0.604080       -16.4378
  14   2.0000      -0.571172       -15.5424
  15   2.0000      -0.544530       -14.8174
  16   2.0000      -0.517220       -14.0743
  17   2.0000      -0.497767       -13.5449
  18   2.0000      -0.483596       -13.1593
  19   2.0000      -0.451971       -12.2988
  20   2.0000      -0.424101       -11.5404
  21   2.0000      -0.416567       -11.3354
  22   2.0000      -0.358809        -9.7637
  23   2.0000      -0.253654        -6.9023
  24   0.0000       0.095470         2.5979
  25   0.0000       0.118044         3.2121
  26   0.0000       0.128808         3.5050
  27   0.0000       0.134065         3.6481
  28   0.0000       0.155749         4.2381

MULLIKEN ATOMIC CHARGES
-----------------------
   0 C :   -0.211824
   1 C :   -0.333944
   2 C :    0.594287
   3 C :    0.690590
   4 N :    0.082880
   5 N :   -0.142013
   6 H :    0.044872
   7 H :   -0.035808
   8 H :   -0.304952
   9 H :   -0.039809
  10 H :   -0.127143
  11 H :   -0.010796
  12 H :   -0.084281
  13 H :    0.027438
  14 H :   -0.113479
  15 H :   -0.036019
Sum of atomic charges:    0.0000000

LOEWDIN ATOMIC CHARGES
----------------------
   0 C :   -0.112514
   1 C :   -0.054016
   2 C :    0.109550
   3 C :   -0.240608
   4 N :    0.202455
   5 N :    0.174796
   6 H :    0.008448
   7 H :   -0.004743
   8 H :   -0.059022
   9 H :    0.008972
  10 H :    0.014983
  11 H :    0.004260
  12 H :    0.011450
  13 H :   -0.021722
  14 H :   -0.023998
  15 H :   -0.018291

  Mayer bond orders larger than 0.100000
B(  0-C ,  1-C ) :   1.2056 B(  0-C ,  2-C ) :   1.2057 B(  0-C ,  8-H ) :   0.2241
B(  0-C , 11-H ) :   0.8567 B(  0-C , 12-H ) :   0.8877 B(  0-C , 13-H ) :   0.1538
B(  0-C , 14-H ) :   0.1944 B(  0-C , 15-H ) :   0.2113 B(  1-C ,  3-C ) :   1.6156
B(  1-C ,  4-N ) :   0.2731 B(  1-C ,  5-N ) :   0.3037 B(  1-C ,  8-H ) :   0.8886
B(  1-C , 11-H ) :   0.2590 B(  1-C , 12-H ) :   0.1649 B(  2-C , 13-H ) :   0.8179
B(  2-C , 14-H ) :   0.8475 B(  2-C , 15-H ) :   0.8195 B(  3-C ,  4-N ) :   1.1222
B(  3-C ,  5-N ) :   0.8148 B(  3-C ,  8-H ) :   0.1450 B(  3-C , 11-H ) :  -0.1008
B(  4-N ,  9-H ) :   1.0699 B(  4-N , 10-H ) :   1.2177 B(  5-N ,  6-H ) :   1.0352
B(  5-N ,  7-H ) :   1.1012 B(  6-H ,  7-H ) :  -0.1073 B(  9-H , 10-H ) :  -0.1561

Dispersion correction           -0.003764804
FINAL SINGLE POINT ENERGY      -267.681641312639

DIPOLE MOMENT
-------------
                                X             Y             Z
Electronic contribution:      0.90571       1.44160       4.73812
Nuclear contribution   :     -1.82485      -1.28952      -3.74132
                        -----------------------------------------
Total Dipole Moment    :     -0.91914       0.15208       0.99681
                        -----------------------------------------
Magnitude (a.u.)       :      1.36439
Magnitude (Debye)      :      3.46802

Rotational constants in cm-1:     0.245790     0.071632     0.062004
Rotational constants in MHz :  7368.599517  2147.482078  1858.844841

                             ****ORCA TERMINATED NORMALLY****
TOTAL RUN TIME: 0 days 0 hours 0 minutes 15 seconds 54 msec
