                         Program Version 5.0.0 -  RELEASE  -
|  1> !wB97X-D3 RIJCOSX def2-SVPD def2/J TightSCF CPCM(Water)
|  2> *xyz 0 1
|  3> C          4.99986       -1.59613       -5.92488
|  4> N          5.28156       -1.97413       -4.53576
|  5> C          3.76678       -2.26611       -6.51175
|  6> C          4.79250       -1.36132       -3.45730
|  7> C          3.93990       -0.37492       -3.55736
|  8> N          5.25986       -1.75422       -2.23913
|  9> H          5.92282       -2.52145       -2.18672
| 10> H          4.65468       -1.64040       -1.44202
| 11> H          5.70914       -2.87560       -4.38702
| 12> H          3.33010       -0.31764       -4.36125
| 13> H          3.69849        0.11447       -2.70833
| 14> H          4.84333       -0.51793       -5.94302
| 15> H          5.90170       -1.82250       -6.49647
| 16> H          3.63046       -1.94025       -7.52177
| 17> H          2.90710       -2.00116       -5.93240
| 18> H          3.89538       -3.32820       -6.49392
| 19> *
| 20>
| 21> %MaxCore 64000
| 22>
| 23> %pal nprocs 18
| 24> end
| 25>
| 26> %scf
| 27>   MaxIter 150
| 28> end
| 29>
| 30>
| 31>                          ****END OF INPUT****

CARTESIAN COORDINATES (ANGSTROEM)
---------------------------------
  C      4.999860   -1.596130   -5.924880
  N      5.281560   -1.974130   -4.535760
  C      3.766780   -2.266110   -6.511750
  C      4.792500   -1.361320   -3.457300
  C      3.939900   -0.374920   -3.557360
  N      5.259860   -1.754220   -2.239130
  H      5.922820   -2.521450   -2.186720
  H      4.654680   -1.640400   -1.442020
  H      5.709140   -2.875600   -4.387020
  H      3.330100   -0.317640   -4.361250
  H      3.698490    0.114470   -2.708330
  H      4.843330   -0.517930   -5.943020
  H      5.901700   -1.822500   -6.496470
  H      3.630460   -1.940250   -7.521770
  H      2.907100   -2.001160   -5.932400
  H      3.895380   -3.328200   -6.493920

 Total Charge           Charge          ....    0
 Multiplicity           Mult            ....    1
 Number of Electrons    NEL             ....   48
 Basis Dimension        Dim             ....  200

ORBITAL ENERGIES
----------------

  NO   OCC          E(Eh)            E(eV)
   0   2.0000     -14.436258      -392.8306
   1   2.0000     -14.431198      -392.6929
   2   2.0000     -10.342947      -281.4459
   3   2.0000     -10.316150      -280.7167
   4   2.0000     -10.268440      -279.4185
   5   2.0000     -10.209808      -277.8230
   6   2.0000      -1.072208       -29.1763
   7   2.0000      -0.984297       -26.7841
   8   2.0000      -0.861152       -23.4331
   9   2.0000      -0.829934       -22.5837
  10   2.0000      -0.740381       -20.1468
  11   2.0000      -0.666394       -18.1335
  12   2.0000      -0.645473       -17.5642
  13   2.0000      -0.610530       -16.6134
  14   2.0000      -0.552516       -15.0347
  15   2.0000      -0.543061       -14.7774
  16   2.0000      -0.527016       -14.3408
  17   2.0000      -0.499951       -13.6044
  18   2.0000      -0.485204       -13.2031
  19   2.0000      -0.463874       -12.6226
  20   2.0000      -0.451316       -12.2809
  21   2.0000      -0.438553       -11.9336
  22   2.0000      -0.343477        -9.3465
  23   2.0000      -0.270562        -7.3624
  24   0.0000       0.096610         2.6289
  25   0.0000       0.119087         3.2405
  26   0.0000       0.124273         3.3816
  27   0.0000       0.126716         3.4481
  28   0.0000       0.150591         4.0978

MULLIKEN ATOMIC CHARGES
-----------------------
   0 C :    0.241117
   1 N :   -0.432197
   2 C :    0.609521
   3 C :    0.618280
   4 C :    0.288289
   5 N :   -0.076067
   6 H :   -0.071430
   7 H :    0.020089
   8 H :   -0.279285
   9 H :   -0.243232
  10 H :   -0.345359
  11 H :    0.037619
  12 H :   -0.250173
  13 H :    0.049870
  14 H :   -0.139788
  15 H :   -0.027254
Sum of atomic charges:    0.0000000

LOEWDIN ATOMIC CHARGES
----------------------
   0 C :    0.018239
   1 N :   -0.021196
   2 C :    0.129541
   3 C :   -0.246440
   4 C :    0.120384
   5 N :    0.183301
   6 H :    0.003803
   7 H :    0.005233
   8 H :    0.035008
   9 H :   -0.110317
  10 H :   -0.101258
  11 H :    0.012181
  12 H :    0.024142
  13 H :   -0.012183
  14 H :   -0.024740
  15 H :   -0.015697

  Mayer bond orders larger than 0.100000
B(  0-C ,  1-N ) :   0.8449 B(  0-C ,  2-C ) :   1.2192 B(  0-C ,  4-C ) :   0.1063
B(  0-C ,  8-H ) :  -0.1821 B(  0-C , 11-H ) :   0.8498 B(  0-C , 12-H ) :   0.9904
B(  0-C , 13-H ) :   0.1656 B(  0-C , 14-H ) :   0.1899 B(  0-C , 15-H ) :   0.1979
B(  1-N ,  3-C ) :   0.9744 B(  1-N ,  4-C ) :   0.3579 B(  1-N ,  5-N ) :   0.1220
B(  1-N ,  8-H ) :   1.3679 B(  1-N , 11-H ) :   0.1281 B(  1-N , 12-H ) :   0.1343
B(  2-C , 13-H ) :   0.7962 B(  2-C , 14-H ) :   0.8710 B(  2-C , 15-H ) :   0.8200
B(  3-C ,  4-C ) :   1.7872 B(  3-C ,  5-N ) :   0.9006 B(  3-C ,  8-H ) :  -0.2176
B(  3-C ,  9-H ) :   0.2017 B(  3-C , 10-H ) :   0.2804 B(  4-C ,  5-N ) :   0.2666
B(  4-C ,  9-H ) :   0.6494 B(  4-C , 10-H ) :   0.7857 B(  5-N ,  6-H ) :   1.0586
B(  5-N ,  7-H ) :   1.0801 B(  6-H ,  7-H ) :  -0.1140 B(  9-H , 11-H ) :   0.1024

Dispersion correction           -0.003763430
FINAL SINGLE POINT ENERGY      -267.673970300223

DIPOLE MOMENT
-------------
                                X             Y             Z
Electronic contribution:      2.54101      -0.55286       3.47148
Nuclear contribution   :     -2.10948      -0.95026      -3.53375
                        -----------------------------------------
Total Dipole Moment    :      0.43153      -1.50312      -0.06227
                        -----------------------------------------
Magnitude (a.u.)       :      1.56508
Magnitude (Debye)      :      3.97811

Rotational constants in cm-1:     0.255209     0.072067     0.062929
Rotational constants in MHz :  7650.964615  2160.525743  1886.569524

                             ****ORCA TERMINATED NORMALLY****
TOTAL RUN TIME: 0 days 0 hours 0 minutes 14 seconds 164 msec
