                         Program Version 5.0.0 -  RELEASE  -
|  1> !wB97X-D3 RIJCOSX def2-SVPD def2/J TightSCF CPCM(Water)
|  2> *xyz 0 1
|  3> C          4.99986       -1.59613       -5.92488
|  4> N          5.28156       -1.97413       -4.53576
|  5> C          3.76678       -2.26611       -6.51175
|  6> C          4.79250       -1.36132       -3.45730
|  7> N          3.93990       -0.37492       -3.55736
|  8> C          5.25986       -1.75422       -2.23913
|  9> H          5.92282       -2.52145       -2.18672
| 10> H          4.65468       -1.64040       -1.44202
| 11> H          5.70914       -2.87560       -4.38702
| 12> H          3.33010       -0.31764       -4.36125
| 13> H          3.69849        0.11447       -2.70833
| 14> H          4.84333       -0.51793       -5.94302
| 15> H          5.90170       -1.82250       -6.49647
| 16> H          3.63046       -1.94025       -7.52177
| 17> H          2.90710       -2.00116       -5.93240
| 18> H          3.89538       -3.32820       -6.49392
| 19> *
| 20>
| 21> %MaxCore 64000
| 22>
| 23> %pal nprocs 18
| 24> end
| 25>
| 26> %scf
| 27>   MaxIter 150
| 28> end
| 29>
| 30>
| 31>                          ****END OF INPUT****

CARTESIAN COORDINATES (ANGSTROEM)
---------------------------------
  C      4.999860   -1.596130   -5.924880
  N      5.281560   -1.974130   -4.535760
  C      3.766780   -2.266110   -6.511750
  C      4.792500   -1.361320   -3.457300
  N      3.939900   -0.374920   -3.557360
  C      5.259860   -1.754220   -2.239130
  H      5.922820   -2.521450   -2.186720
  H      4.654680   -1.640400   -1.442020
  H      5.709140   -2.875600   -4.387020
  H      3.330100   -0.317640   -4.361250
  H      3.698490    0.114470   -2.708330
  H      4.843330   -0.517930   -5.943020
  H      5.901700   -1.822500   -6.496470
  H      3.630460   -1.940250   -7.521770
  H      2.907100   -2.001160   -5.932400
  H      3.895380   -3.328200   -6.493920

 Total Charge           Charge          ....    0
 Multiplicity           Mult            ....    1
 Number of Electrons    NEL             ....   48
 Basis Dimension        Dim             ....  200

ORBITAL ENERGIES
----------------

  NO   OCC          E(Eh)            E(eV)
   0   2.0000     -14.439267      -392.9124
   1   2.0000     -14.438122      -392.8813
   2   2.0000     -10.350396      -281.6486
   3   2.0000     -10.318413      -280.7783
   4   2.0000     -10.270371      -279.4710
   5   2.0000     -10.207535      -277.7612
   6   2.0000      -1.083663       -29.4880
   7   2.0000      -0.995280       -27.0829
   8   2.0000      -0.875242       -23.8165
   9   2.0000      -0.807127       -21.9630
  10   2.0000      -0.729768       -19.8580
  11   2.0000      -0.704859       -19.1802
  12   2.0000      -0.647733       -17.6257
  13   2.0000      -0.600179       -16.3317
  14   2.0000      -0.576052       -15.6752
  15   2.0000      -0.536184       -14.5903
  16   2.0000      -0.526068       -14.3150
  17   2.0000      -0.502525       -13.6744
  18   2.0000      -0.489843       -13.3293
  19   2.0000      -0.457431       -12.4473
  20   2.0000      -0.454812       -12.3761
  21   2.0000      -0.440479       -11.9860
  22   2.0000      -0.349878        -9.5207
  23   2.0000      -0.260054        -7.0764
  24   0.0000       0.093913         2.5555
  25   0.0000       0.113546         3.0897
  26   0.0000       0.129104         3.5131
  27   0.0000       0.134043         3.6475
  28   0.0000       0.144001         3.9185

MULLIKEN ATOMIC CHARGES
-----------------------
   0 C :    0.265264
   1 N :   -0.332761
   2 C :    0.576807
   3 C :    0.286684
   4 N :    0.100153
   5 C :    0.465159
   6 H :   -0.240701
   7 H :   -0.400299
   8 H :   -0.239562
   9 H :   -0.081897
  10 H :   -0.022605
  11 H :   -0.038504
  12 H :   -0.259464
  13 H :    0.052553
  14 H :   -0.098141
  15 H :   -0.032685
Sum of atomic charges:   -0.0000000

LOEWDIN ATOMIC CHARGES
----------------------
   0 C :    0.016738
   1 N :   -0.011434
   2 C :    0.128304
   3 C :   -0.249888
   4 N :    0.208284
   5 C :    0.095936
   6 H :   -0.121711
   7 H :   -0.129541
   8 H :    0.041604
   9 H :    0.005173
  10 H :    0.024984
  11 H :    0.015216
  12 H :    0.024606
  13 H :   -0.011774
  14 H :   -0.021943
  15 H :   -0.014556

  Mayer bond orders larger than 0.100000
B(  0-C ,  1-N ) :   0.8682 B(  0-C ,  2-C ) :   1.2376 B(  0-C ,  8-H ) :  -0.2013
B(  0-C , 11-H ) :   0.8853 B(  0-C , 12-H ) :   0.9616 B(  0-C , 13-H ) :   0.1609
B(  0-C , 14-H ) :   0.2020 B(  0-C , 15-H ) :   0.2132 B(  1-N ,  3-C ) :   1.1053
B(  1-N ,  4-N ) :   0.1570 B(  1-N ,  5-C ) :   0.2098 B(  1-N ,  8-H ) :   1.2676
B(  1-N , 11-H ) :   0.1435 B(  1-N , 12-H ) :   0.1373 B(  2-C , 13-H ) :   0.8074
B(  2-C , 14-H ) :   0.8352 B(  2-C , 15-H ) :   0.8223 B(  3-C ,  4-N ) :   1.1538
B(  3-C ,  5-C ) :   1.7723 B(  3-C ,  6-H ) :   0.1822 B(  3-C ,  7-H ) :   0.2480
B(  3-C ,  8-H ) :  -0.1547 B(  4-N ,  5-C ) :   0.1852 B(  4-N ,  9-H ) :   1.0891
B(  4-N , 10-H ) :   1.1424 B(  5-C ,  6-H ) :   0.7925 B(  5-C ,  7-H ) :   0.7283
B(  6-H ,  7-H ) :   0.1889 B(  9-H , 10-H ) :  -0.1559

Dispersion correction           -0.003798810
FINAL SINGLE POINT ENERGY      -267.670262889882

DIPOLE MOMENT
-------------
                                X             Y             Z
Electronic contribution:      0.81390       1.25633       1.65004
Nuclear contribution   :     -1.82946      -1.24287      -3.25410
                        -----------------------------------------
Total Dipole Moment    :     -1.01556       0.01346      -1.60406
                        -----------------------------------------
Magnitude (a.u.)       :      1.89856
Magnitude (Debye)      :      4.82576

Rotational constants in cm-1:     0.244672     0.074506     0.064043
Rotational constants in MHz :  7335.067153  2233.624025  1919.970379

                             ****ORCA TERMINATED NORMALLY****
TOTAL RUN TIME: 0 days 0 hours 0 minutes 14 seconds 435 msec
