                         Program Version 5.0.0 -  RELEASE  -
|  1> !wB97X-D3 RIJCOSX def2-SVP def2/J TightSCF
|  2> *xyz -1 1
|  3> C         -0.15102        0.25496       -4.09426
|  4> C         -0.72184       -0.99951       -3.43931
|  5> H         -1.08340       -1.69755       -4.20566
|  6> H         -1.58106       -0.72385       -2.82049
|  7> C          0.28725       -1.71177       -2.52740
|  8> H          1.13178       -2.06738       -3.15940
|  9> H         -0.20414       -2.63733       -2.17048
| 10> O          0.71050       -0.92751       -1.48177
| 11> H         -0.89787        0.70479       -4.71455
| 12> H          0.69695       -0.00870       -4.69119
| 13> H          0.14812        0.94842       -3.33628
| 14> *
| 15> %MaxCore 64000
| 16>
| 17> %pal nprocs 18
| 18> end
| 19>
| 20> %scf
| 21>   MaxIter 150
| 22> end
| 23>
| 24>
| 25>                          ****END OF INPUT****

CARTESIAN COORDINATES (ANGSTROEM)
---------------------------------
  C     -0.151020    0.254960   -4.094260
  C     -0.721840   -0.999510   -3.439310
  H     -1.083400   -1.697550   -4.205660
  H     -1.581060   -0.723850   -2.820490
  C      0.287250   -1.711770   -2.527400
  H      1.131780   -2.067380   -3.159400
  H     -0.204140   -2.637330   -2.170480
  O      0.710500   -0.927510   -1.481770
  H     -0.897870    0.704790   -4.714550
  H      0.696950   -0.008700   -4.691190
  H      0.148120    0.948420   -3.336280

 Total Charge           Charge          ....   -1
 Multiplicity           Mult            ....    1
 Number of Electrons    NEL             ....   34
 Basis Dimension        Dim             ....   91

ORBITAL ENERGIES
----------------

  NO   OCC          E(Eh)            E(eV)
   0   2.0000     -18.856435      -513.1097
   1   2.0000     -10.099111      -274.8108
   2   2.0000     -10.082958      -274.3712
   3   2.0000     -10.081573      -274.3335
   4   2.0000      -0.751356       -20.4454
   5   2.0000      -0.677265       -18.4293
   6   2.0000      -0.559197       -15.2165
   7   2.0000      -0.451160       -12.2767
   8   2.0000      -0.364194        -9.9102
   9   2.0000      -0.355368        -9.6700
  10   2.0000      -0.303322        -8.2538
  11   2.0000      -0.270051        -7.3485
  12   2.0000      -0.239804        -6.5254
  13   2.0000      -0.231000        -6.2858
  14   2.0000      -0.168130        -4.5751
  15   2.0000      -0.022333        -0.6077
  16   2.0000      -0.018800        -0.5116
  17   0.0000       0.313003         8.5172
  18   0.0000       0.353035         9.6066
  19   0.0000       0.359798         9.7906
  20   0.0000       0.385955        10.5024
  21   0.0000       0.395732        10.7684

MULLIKEN ATOMIC CHARGES
-----------------------
   0 C :    0.012419
   1 C :   -0.041408
   2 H :   -0.089761
   3 H :   -0.045179
   4 C :    0.277347
   5 H :   -0.162648
   6 H :   -0.154197
   7 O :   -0.721045
   8 H :   -0.046843
   9 H :   -0.028509
  10 H :   -0.000176
Sum of atomic charges:   -1.0000000

LOEWDIN ATOMIC CHARGES
----------------------
   0 C :   -0.069335
   1 C :   -0.085540
   2 H :   -0.027038
   3 H :   -0.006738
   4 C :    0.012702
   5 H :   -0.077337
   6 H :   -0.073735
   7 O :   -0.674585
   8 H :   -0.010801
   9 H :    0.001860
  10 H :    0.010546

  Mayer bond orders larger than 0.100000
B(  0-C ,  1-C ) :   1.0752 B(  0-C ,  8-H ) :   0.9704 B(  0-C ,  9-H ) :   0.9690
B(  0-C , 10-H ) :   0.9564 B(  1-C ,  2-H ) :   0.9224 B(  1-C ,  3-H ) :   0.9417
B(  1-C ,  4-C ) :   0.9863 B(  4-C ,  5-H ) :   0.8687 B(  4-C ,  6-H ) :   0.8849
B(  4-C ,  7-O ) :   1.4779

Dispersion correction           -0.001939192
FINAL SINGLE POINT ENERGY      -193.513716318186

DIPOLE MOMENT
-------------
                                X             Y             Z
Electronic contribution:      1.13146      -0.07328       3.02430
Nuclear contribution   :     -1.95025       0.39850      -4.64834
                        -----------------------------------------
Total Dipole Moment    :     -0.81879       0.32522      -1.62404
                        -----------------------------------------
Magnitude (a.u.)       :      1.84762
Magnitude (Debye)      :      4.69627

Rotational constants in cm-1:     0.507767     0.175836     0.148827
Rotational constants in MHz : 15222.471408  5271.439482  4461.706759

                             ****ORCA TERMINATED NORMALLY****
TOTAL RUN TIME: 0 days 0 hours 0 minutes 5 seconds 155 msec
