                         Program Version 5.0.0 -  RELEASE  -
|  1> !wB97X-D3 RIJCOSX def2-SVP def2/J TightSCF
|  2> *xyz 1 1
|  3> C          3.48828        1.60092       -1.52204
|  4> C          4.34297        1.31342       -2.75683
|  5> N          2.81029        0.42878       -1.01420
|  6> H          5.13203        0.60499       -2.48447
|  7> C          3.53590        0.74925       -3.92460
|  8> H          4.84125        2.24214       -3.05408
|  9> H          2.71455        2.33145       -1.76030
| 10> H          4.09099        2.06315       -0.73338
| 11> C          3.29098       -0.41802       -0.12908
| 12> N          2.51754       -1.43202        0.23936
| 13> N          4.53549       -0.28441        0.39580
| 14> H          5.04363        0.57189        0.22290
| 15> H          4.72335       -0.73327        1.28180
| 16> H          1.93479        0.10230       -1.40379
| 17> H          1.67464       -1.50562       -0.31610
| 18> H          2.92850       -2.21850        0.72549
| 19> H          4.18704        0.56990       -4.75451
| 20> H          2.78096        1.45217       -4.20898
| 21> H          3.07436       -0.16949       -3.62832
| 22> *
| 23> %MaxCore 64000
| 24>
| 25> %pal nprocs 18
| 26> end
| 27>
| 28> %scf
| 29>   MaxIter 150
| 30> end
| 31>
| 32>
| 33>                          ****END OF INPUT****

CARTESIAN COORDINATES (ANGSTROEM)
---------------------------------
  C      3.488280    1.600920   -1.522040
  C      4.342970    1.313420   -2.756830
  N      2.810290    0.428780   -1.014200
  H      5.132030    0.604990   -2.484470
  C      3.535900    0.749250   -3.924600
  H      4.841250    2.242140   -3.054080
  H      2.714550    2.331450   -1.760300
  H      4.090990    2.063150   -0.733380
  C      3.290980   -0.418020   -0.129080
  N      2.517540   -1.432020    0.239360
  N      4.535490   -0.284410    0.395800
  H      5.043630    0.571890    0.222900
  H      4.723350   -0.733270    1.281800
  H      1.934790    0.102300   -1.403790
  H      1.674640   -1.505620   -0.316100
  H      2.928500   -2.218500    0.725490
  H      4.187040    0.569900   -4.754510
  H      2.780960    1.452170   -4.208980
  H      3.074360   -0.169490   -3.628320

 Total Charge           Charge          ....    1
 Multiplicity           Mult            ....    1
 Number of Electrons    NEL             ....   56
 Basis Dimension        Dim             ....  158

ORBITAL ENERGIES
----------------

  NO   OCC          E(Eh)            E(eV)
   0   2.0000     -14.662425      -398.9849
   1   2.0000     -14.659073      -398.8936
   2   2.0000     -14.655808      -398.8048
   3   2.0000     -10.624813      -289.1159
   4   2.0000     -10.494182      -285.5612
   5   2.0000     -10.430145      -283.8187
   6   2.0000     -10.403022      -283.0806
   7   2.0000      -1.330209       -36.1968
   8   2.0000      -1.214537       -33.0492
   9   2.0000      -1.199771       -32.6474
  10   2.0000      -1.052056       -28.6279
  11   2.0000      -0.970141       -26.3989
  12   2.0000      -0.929407       -25.2905
  13   2.0000      -0.885807       -24.1040
  14   2.0000      -0.871435       -23.7130
  15   2.0000      -0.833075       -22.6691
  16   2.0000      -0.791596       -21.5404
  17   2.0000      -0.781386       -21.2626
  18   2.0000      -0.755380       -20.5549
  19   2.0000      -0.739951       -20.1351
  20   2.0000      -0.697631       -18.9835
  21   2.0000      -0.680575       -18.5194
  22   2.0000      -0.648145       -17.6369
  23   2.0000      -0.598525       -16.2867
  24   2.0000      -0.583819       -15.8865
  25   2.0000      -0.576648       -15.6914
  26   2.0000      -0.568274       -15.4635
  27   2.0000      -0.538249       -14.6465
  28   0.0000      -0.077543        -2.1100
  29   0.0000      -0.052855        -1.4383
  30   0.0000      -0.021053        -0.5729
  31   0.0000      -0.000680        -0.0185
  32   0.0000       0.022339         0.6079

MULLIKEN ATOMIC CHARGES
-----------------------
   0 C :    0.027505
   1 C :   -0.089026
   2 N :   -0.148146
   3 H :    0.041035
   4 C :   -0.037917
   5 H :    0.079747
   6 H :    0.084572
   7 H :    0.069782
   8 C :    0.087815
   9 N :   -0.058156
  10 N :   -0.094123
  11 H :    0.175338
  12 H :    0.183730
  13 H :    0.172999
  14 H :    0.176158
  15 H :    0.191566
  16 H :    0.075656
  17 H :    0.048826
  18 H :    0.012639
Sum of atomic charges:    1.0000000

LOEWDIN ATOMIC CHARGES
----------------------
   0 C :    0.036405
   1 C :   -0.048590
   2 N :    0.036238
   3 H :    0.026693
   4 C :   -0.050173
   5 H :    0.047559
   6 H :    0.050279
   7 H :    0.036402
   8 C :    0.160580
   9 N :    0.041525
  10 N :    0.024891
  11 H :    0.104989
  12 H :    0.112163
  13 H :    0.104477
  14 H :    0.109165
  15 H :    0.116594
  16 H :    0.045026
  17 H :    0.031663
  18 H :    0.014113

  Mayer bond orders larger than 0.100000
B(  0-C ,  1-C ) :   1.0544 B(  0-C ,  2-N ) :   0.9124 B(  0-C ,  6-H ) :   0.9482
B(  0-C ,  7-H ) :   0.9569 B(  1-C ,  3-H ) :   0.9504 B(  1-C ,  4-C ) :   1.0719
B(  1-C ,  5-H ) :   0.9495 B(  2-N ,  8-C ) :   1.3947 B(  2-N , 13-H ) :   0.9053
B(  4-C , 16-H ) :   0.9709 B(  4-C , 17-H ) :   0.9783 B(  4-C , 18-H ) :   0.9747
B(  8-C ,  9-N ) :   1.3935 B(  8-C , 10-N ) :   1.3715 B(  9-N , 14-H ) :   0.9212
B(  9-N , 15-H ) :   0.9236 B( 10-N , 11-H ) :   0.9245 B( 10-N , 12-H ) :   0.9266

Dispersion correction           -0.005309187
FINAL SINGLE POINT ENERGY      -323.393666046849

DIPOLE MOMENT
-------------
                                X             Y             Z
Electronic contribution:     -1.37193      -2.94407       6.45501
Nuclear contribution   :      1.03951       2.07316      -5.00363
                        -----------------------------------------
Total Dipole Moment    :     -0.33242      -0.87092       1.45139
                        -----------------------------------------
Magnitude (a.u.)       :      1.72497
Magnitude (Debye)      :      4.38452

Rotational constants in cm-1:     0.160664     0.048801     0.043832
Rotational constants in MHz :  4816.589604  1463.007061  1314.037102

                             ****ORCA TERMINATED NORMALLY****
TOTAL RUN TIME: 0 days 0 hours 0 minutes 9 seconds 935 msec
