                         Program Version 5.0.0 -  RELEASE  -
|  1> !wB97X-D3 RIJCOSX def2-SVP def2/J TightSCF
|  2> *xyz 0 1
|  3> C         -0.15102        0.25496       -4.09426
|  4> C         -0.72184       -0.99951       -3.43931
|  5> H         -1.08340       -1.69755       -4.20566
|  6> H         -1.58106       -0.72385       -2.82049
|  7> C          0.28725       -1.71177       -2.52740
|  8> H          1.13178       -2.06738       -3.15940
|  9> H         -0.20414       -2.63733       -2.17048
| 10> F          0.71050       -0.92751       -1.48177
| 11> H         -0.89787        0.70479       -4.71455
| 12> H          0.69695       -0.00870       -4.69119
| 13> H          0.14812        0.94842       -3.33628
| 14> *
| 15> %MaxCore 64000
| 16>
| 17> %pal nprocs 18
| 18> end
| 19>
| 20> %scf
| 21>   MaxIter 150
| 22> end
| 23>
| 24>
| 25>                          ****END OF INPUT****

CARTESIAN COORDINATES (ANGSTROEM)
---------------------------------
  C     -0.151020    0.254960   -4.094260
  C     -0.721840   -0.999510   -3.439310
  H     -1.083400   -1.697550   -4.205660
  H     -1.581060   -0.723850   -2.820490
  C      0.287250   -1.711770   -2.527400
  H      1.131780   -2.067380   -3.159400
  H     -0.204140   -2.637330   -2.170480
  F      0.710500   -0.927510   -1.481770
  H     -0.897870    0.704790   -4.714550
  H      0.696950   -0.008700   -4.691190
  H      0.148120    0.948420   -3.336280

 Total Charge           Charge          ....    0
 Multiplicity           Mult            ....    1
 Number of Electrons    NEL             ....   34
 Basis Dimension        Dim             ....   91

ORBITAL ENERGIES
----------------

  NO   OCC          E(Eh)            E(eV)
   0   2.0000     -24.769517      -674.0128
   1   2.0000     -10.361555      -281.9523
   2   2.0000     -10.291929      -280.0576
   3   2.0000     -10.274546      -279.5846
   4   2.0000      -1.284555       -34.9545
   5   2.0000      -0.898132       -24.4394
   6   2.0000      -0.794159       -21.6102
   7   2.0000      -0.698018       -18.9940
   8   2.0000      -0.605084       -16.4652
   9   2.0000      -0.590168       -16.0593
  10   2.0000      -0.564667       -15.3654
  11   2.0000      -0.532636       -14.4938
  12   2.0000      -0.494377       -13.4527
  13   2.0000      -0.469201       -12.7676
  14   2.0000      -0.445949       -12.1349
  15   2.0000      -0.416537       -11.3346
  16   2.0000      -0.415159       -11.2970
  17   0.0000       0.145787         3.9671
  18   0.0000       0.186350         5.0708
  19   0.0000       0.189656         5.1608
  20   0.0000       0.210800         5.7362
  21   0.0000       0.217662         5.9229

MULLIKEN ATOMIC CHARGES
-----------------------
   0 C :   -0.028486
   1 C :   -0.156949
   2 H :    0.034976
   3 H :    0.039809
   4 C :    0.247267
   5 H :    0.018396
   6 H :    0.024523
   7 F :   -0.273623
   8 H :    0.032048
   9 H :    0.021900
  10 H :    0.040139
Sum of atomic charges:   -0.0000000

LOEWDIN ATOMIC CHARGES
----------------------
   0 C :   -0.057083
   1 C :   -0.068843
   2 H :    0.030661
   3 H :    0.026809
   4 C :    0.113878
   5 H :    0.010782
   6 H :    0.012643
   7 F :   -0.140436
   8 H :    0.024648
   9 H :    0.020619
  10 H :    0.026323

  Mayer bond orders larger than 0.100000
B(  0-C ,  1-C ) :   1.0758 B(  0-C ,  8-H ) :   0.9757 B(  0-C ,  9-H ) :   0.9776
B(  0-C , 10-H ) :   0.9749 B(  1-C ,  2-H ) :   0.9492 B(  1-C ,  3-H ) :   0.9537
B(  1-C ,  4-C ) :   1.0628 B(  4-C ,  5-H ) :   0.9559 B(  4-C ,  6-H ) :   0.9610
B(  4-C ,  7-F ) :   0.9849

Dispersion correction           -0.001918117
FINAL SINGLE POINT ENERGY      -218.151018068168

DIPOLE MOMENT
-------------
                                X             Y             Z
Electronic contribution:      2.49970      -0.81468       5.79793
Nuclear contribution   :     -2.76068       0.49992      -6.33880
                        -----------------------------------------
Total Dipole Moment    :     -0.26098      -0.31476      -0.54087
                        -----------------------------------------
Magnitude (a.u.)       :      0.67803
Magnitude (Debye)      :      1.72342

Rotational constants in cm-1:     0.493380     0.165620     0.140427
Rotational constants in MHz : 14791.174622  4965.163858  4209.902284

                             ****ORCA TERMINATED NORMALLY****
TOTAL RUN TIME: 0 days 0 hours 0 minutes 4 seconds 496 msec
