                         Program Version 5.0.0 -  RELEASE  -
|  1> !wB97X-D3 RIJCOSX def2-SVP def2/J TightSCF
|  2> *xyz 0 1
|  3> C          3.48828        1.60092       -1.52204
|  4> C          4.34297        1.31342       -2.75683
|  5> C          2.81029        0.42878       -1.01420
|  6> H          5.13203        0.60499       -2.48447
|  7> C          3.53590        0.74925       -3.92460
|  8> H          4.84125        2.24214       -3.05408
|  9> H          2.71455        2.33145       -1.76030
| 10> H          4.09099        2.06315       -0.73338
| 11> C          3.29098       -0.41802       -0.12908
| 12> N          2.51754       -1.43202        0.23936
| 13> N          4.53549       -0.28441        0.39580
| 14> H          5.04363        0.57189        0.22290
| 15> H          4.72335       -0.73327        1.28180
| 16> H          1.93479        0.10230       -1.40379
| 17> H          1.67464       -1.50562       -0.31610
| 18> H          2.92850       -2.21850        0.72549
| 19> H          4.18704        0.56990       -4.75451
| 20> H          2.78096        1.45217       -4.20898
| 21> H          3.07436       -0.16949       -3.62832
| 22> *
| 23> %MaxCore 64000
| 24>
| 25> %pal nprocs 18
| 26> end
| 27>
| 28> %scf
| 29>   MaxIter 150
| 30> end
| 31>
| 32>
| 33>                          ****END OF INPUT****

CARTESIAN COORDINATES (ANGSTROEM)
---------------------------------
  C      3.488280    1.600920   -1.522040
  C      4.342970    1.313420   -2.756830
  C      2.810290    0.428780   -1.014200
  H      5.132030    0.604990   -2.484470
  C      3.535900    0.749250   -3.924600
  H      4.841250    2.242140   -3.054080
  H      2.714550    2.331450   -1.760300
  H      4.090990    2.063150   -0.733380
  C      3.290980   -0.418020   -0.129080
  N      2.517540   -1.432020    0.239360
  N      4.535490   -0.284410    0.395800
  H      5.043630    0.571890    0.222900
  H      4.723350   -0.733270    1.281800
  H      1.934790    0.102300   -1.403790
  H      1.674640   -1.505620   -0.316100
  H      2.928500   -2.218500    0.725490
  H      4.187040    0.569900   -4.754510
  H      2.780960    1.452170   -4.208980
  H      3.074360   -0.169490   -3.628320

 Total Charge           Charge          ....    0
 Multiplicity           Mult            ....    1
 Number of Electrons    NEL             ....   56
 Basis Dimension        Dim             ....  158

ORBITAL ENERGIES
----------------

  NO   OCC          E(Eh)            E(eV)
   0   2.0000     -14.429763      -392.6538
   1   2.0000     -14.425518      -392.5383
   2   2.0000     -10.325116      -280.9607
   3   2.0000     -10.261968      -279.2423
   4   2.0000     -10.259826      -279.1841
   5   2.0000     -10.253613      -279.0150
   6   2.0000     -10.203460      -277.6502
   7   2.0000      -1.062264       -28.9057
   8   2.0000      -0.970839       -26.4179
   9   2.0000      -0.892907       -24.2972
  10   2.0000      -0.825189       -22.4545
  11   2.0000      -0.760178       -20.6855
  12   2.0000      -0.692465       -18.8429
  13   2.0000      -0.670085       -18.2339
  14   2.0000      -0.635193       -17.2845
  15   2.0000      -0.602901       -16.4058
  16   2.0000      -0.559512       -15.2251
  17   2.0000      -0.537951       -14.6384
  18   2.0000      -0.535384       -14.5685
  19   2.0000      -0.500649       -13.6233
  20   2.0000      -0.486852       -13.2479
  21   2.0000      -0.465975       -12.6798
  22   2.0000      -0.451348       -12.2818
  23   2.0000      -0.419656       -11.4194
  24   2.0000      -0.403301       -10.9744
  25   2.0000      -0.401344       -10.9211
  26   2.0000      -0.353451        -9.6179
  27   2.0000      -0.241234        -6.5643
  28   0.0000       0.132616         3.6087
  29   0.0000       0.161005         4.3812
  30   0.0000       0.163289         4.4433
  31   0.0000       0.185112         5.0372
  32   0.0000       0.197780         5.3819

MULLIKEN ATOMIC CHARGES
-----------------------
   0 C :    0.051787
   1 C :   -0.041481
   2 C :   -0.188089
   3 H :    0.006901
   4 C :   -0.015817
   5 H :    0.007932
   6 H :    0.003392
   7 H :   -0.010446
   8 C :   -0.045863
   9 N :   -0.090920
  10 N :   -0.128124
  11 H :    0.124507
  12 H :    0.114156
  13 H :   -0.087136
  14 H :    0.129723
  15 H :    0.115800
  16 H :    0.018388
  17 H :    0.013105
  18 H :    0.022184
Sum of atomic charges:   -0.0000000

LOEWDIN ATOMIC CHARGES
----------------------
   0 C :   -0.042074
   1 C :   -0.043747
   2 C :   -0.220091
   3 H :    0.014628
   4 C :   -0.055977
   5 H :    0.012269
   6 H :    0.023721
   7 H :    0.011268
   8 C :    0.035727
   9 N :   -0.033001
  10 N :   -0.043461
  11 H :    0.076137
  12 H :    0.065982
  13 H :   -0.010931
  14 H :    0.084854
  15 H :    0.068158
  16 H :    0.019576
  17 H :    0.017879
  18 H :    0.019083

  Mayer bond orders larger than 0.100000
B(  0-C ,  1-C ) :   1.0597 B(  0-C ,  2-C ) :   1.0511 B(  0-C ,  6-H ) :   0.9244
B(  0-C ,  7-H ) :   0.9460 B(  1-C ,  3-H ) :   0.9531 B(  1-C ,  4-C ) :   1.0863
B(  1-C ,  5-H ) :   0.9545 B(  2-C ,  8-C ) :   1.6988 B(  2-C , 13-H ) :   0.9472
B(  4-C , 16-H ) :   0.9728 B(  4-C , 17-H ) :   0.9750 B(  4-C , 18-H ) :   0.9713
B(  8-C ,  9-N ) :   1.2457 B(  8-C , 10-N ) :   1.2339 B(  9-N , 14-H ) :   0.9343
B(  9-N , 15-H ) :   0.9470 B( 10-N , 11-H ) :   0.9405 B( 10-N , 12-H ) :   0.9495

Dispersion correction           -0.005285915
FINAL SINGLE POINT ENERGY      -306.922811202863

DIPOLE MOMENT
-------------
                                X             Y             Z
Electronic contribution:     -0.65790      -2.78253       5.69238
Nuclear contribution   :      0.88816       2.11069      -4.95634
                        -----------------------------------------
Total Dipole Moment    :      0.23026      -0.67184       0.73604
                        -----------------------------------------
Magnitude (a.u.)       :      1.02281
Magnitude (Debye)      :      2.59978

Rotational constants in cm-1:     0.162296     0.048922     0.043870
Rotational constants in MHz :  4865.524396  1466.649652  1315.198467

                             ****ORCA TERMINATED NORMALLY****
TOTAL RUN TIME: 0 days 0 hours 0 minutes 13 seconds 148 msec
