                         Program Version 5.0.0 -  RELEASE  -
|  1> !wB97X-D3 RIJCOSX def2-SVP def2/J TightSCF
|  2> *xyz 0 1
|  3> C          3.48828        1.60092       -1.52204
|  4> C          4.34297        1.31342       -2.75683
|  5> N          2.81029        0.42878       -1.01420
|  6> H          5.13203        0.60499       -2.48447
|  7> C          3.53590        0.74925       -3.92460
|  8> H          4.84125        2.24214       -3.05408
|  9> H          2.71455        2.33145       -1.76030
| 10> H          4.09099        2.06315       -0.73338
| 11> C          3.29098       -0.41802       -0.12908
| 12> C          2.51754       -1.43202        0.23936
| 13> N          4.53549       -0.28441        0.39580
| 14> H          5.04363        0.57189        0.22290
| 15> H          4.72335       -0.73327        1.28180
| 16> H          1.93479        0.10230       -1.40379
| 17> H          1.67464       -1.50562       -0.31610
| 18> H          2.92850       -2.21850        0.72549
| 19> H          4.18704        0.56990       -4.75451
| 20> H          2.78096        1.45217       -4.20898
| 21> H          3.07436       -0.16949       -3.62832
| 22> *
| 23> %MaxCore 64000
| 24>
| 25> %pal nprocs 18
| 26> end
| 27>
| 28> %scf
| 29>   MaxIter 150
| 30> end
| 31>
| 32>
| 33>                          ****END OF INPUT****

CARTESIAN COORDINATES (ANGSTROEM)
---------------------------------
  C      3.488280    1.600920   -1.522040
  C      4.342970    1.313420   -2.756830
  N      2.810290    0.428780   -1.014200
  H      5.132030    0.604990   -2.484470
  C      3.535900    0.749250   -3.924600
  H      4.841250    2.242140   -3.054080
  H      2.714550    2.331450   -1.760300
  H      4.090990    2.063150   -0.733380
  C      3.290980   -0.418020   -0.129080
  C      2.517540   -1.432020    0.239360
  N      4.535490   -0.284410    0.395800
  H      5.043630    0.571890    0.222900
  H      4.723350   -0.733270    1.281800
  H      1.934790    0.102300   -1.403790
  H      1.674640   -1.505620   -0.316100
  H      2.928500   -2.218500    0.725490
  H      4.187040    0.569900   -4.754510
  H      2.780960    1.452170   -4.208980
  H      3.074360   -0.169490   -3.628320

 Total Charge           Charge          ....    0
 Multiplicity           Mult            ....    1
 Number of Electrons    NEL             ....   56
 Basis Dimension        Dim             ....  158

ORBITAL ENERGIES
----------------

  NO   OCC          E(Eh)            E(eV)
   0   2.0000     -14.431256      -392.6944
   1   2.0000     -14.429362      -392.6429
   2   2.0000     -10.328877      -281.0630
   3   2.0000     -10.328478      -281.0522
   4   2.0000     -10.288482      -279.9638
   5   2.0000     -10.276642      -279.6416
   6   2.0000     -10.191781      -277.3325
   7   2.0000      -1.075020       -29.2528
   8   2.0000      -0.985969       -26.8296
   9   2.0000      -0.900449       -24.5025
  10   2.0000      -0.832719       -22.6594
  11   2.0000      -0.773352       -21.0440
  12   2.0000      -0.710022       -19.3207
  13   2.0000      -0.690298       -18.7840
  14   2.0000      -0.631569       -17.1859
  15   2.0000      -0.600999       -16.3540
  16   2.0000      -0.575559       -15.6618
  17   2.0000      -0.554640       -15.0925
  18   2.0000      -0.540500       -14.7077
  19   2.0000      -0.508556       -13.8385
  20   2.0000      -0.484317       -13.1789
  21   2.0000      -0.477447       -12.9920
  22   2.0000      -0.468200       -12.7404
  23   2.0000      -0.443551       -12.0696
  24   2.0000      -0.442611       -12.0440
  25   2.0000      -0.433920       -11.8076
  26   2.0000      -0.345362        -9.3978
  27   2.0000      -0.241947        -6.5837
  28   0.0000       0.128476         3.4960
  29   0.0000       0.149657         4.0724
  30   0.0000       0.162961         4.4344
  31   0.0000       0.181740         4.9454
  32   0.0000       0.186524         5.0756

MULLIKEN ATOMIC CHARGES
-----------------------
   0 C :    0.068168
   1 C :   -0.060882
   2 N :   -0.174750
   3 H :    0.026521
   4 C :   -0.033605
   5 H :    0.023849
   6 H :    0.025695
   7 H :    0.025672
   8 C :   -0.019165
   9 C :   -0.114810
  10 N :   -0.138450
  11 H :    0.108098
  12 H :    0.136658
  13 H :    0.136762
  14 H :   -0.056943
  15 H :   -0.036700
  16 H :    0.034586
  17 H :    0.018741
  18 H :    0.030555
Sum of atomic charges:    0.0000000

LOEWDIN ATOMIC CHARGES
----------------------
   0 C :    0.028701
   1 C :   -0.056994
   2 N :   -0.026846
   3 H :    0.022548
   4 C :   -0.056702
   5 H :    0.022260
   6 H :    0.024335
   7 H :    0.019157
   8 C :    0.049338
   9 C :   -0.266677
  10 N :   -0.039894
  11 H :    0.061103
  12 H :    0.084653
  13 H :    0.085823
  14 H :   -0.011299
  15 H :   -0.007397
  16 H :    0.026763
  17 H :    0.019638
  18 H :    0.021489

  Mayer bond orders larger than 0.100000
B(  0-C ,  1-C ) :   1.0500 B(  0-C ,  2-N ) :   1.0041 B(  0-C ,  6-H ) :   0.9548
B(  0-C ,  7-H ) :   0.9563 B(  1-C ,  3-H ) :   0.9483 B(  1-C ,  4-C ) :   1.0764
B(  1-C ,  5-H ) :   0.9511 B(  2-N ,  8-C ) :   1.2044 B(  2-N , 13-H ) :   0.9206
B(  4-C , 16-H ) :   0.9740 B(  4-C , 17-H ) :   0.9777 B(  4-C , 18-H ) :   0.9741
B(  8-C ,  9-C ) :   1.7448 B(  8-C , 10-N ) :   1.2062 B(  9-C , 14-H ) :   0.9362
B(  9-C , 15-H ) :   0.9617 B( 10-N , 11-H ) :   0.9537 B( 10-N , 12-H ) :   0.9485

Dispersion correction           -0.005352652
FINAL SINGLE POINT ENERGY      -306.911904303104

DIPOLE MOMENT
-------------
                                X             Y             Z
Electronic contribution:     -0.25421      -0.76805       4.32582
Nuclear contribution   :      0.82404       1.70307      -4.68174
                        -----------------------------------------
Total Dipole Moment    :      0.56982       0.93502      -0.35592
                        -----------------------------------------
Magnitude (a.u.)       :      1.15137
Magnitude (Debye)      :      2.92654

Rotational constants in cm-1:     0.164049     0.050262     0.045260
Rotational constants in MHz :  4918.051182  1506.829450  1356.872102

                             ****ORCA TERMINATED NORMALLY****
TOTAL RUN TIME: 0 days 0 hours 0 minutes 9 seconds 771 msec
