                         Program Version 5.0.0 -  RELEASE  -
|  1> !wB97X-D3 RIJCOSX def2-SVP def2/J TightSCF
|  2> *xyz 0 1
|  3> C          3.48828        1.60092       -1.52204
|  4> C          4.34297        1.31342       -2.75683
|  5> N          2.81029        0.42878       -1.01420
|  6> H          5.13203        0.60499       -2.48447
|  7> C          3.53590        0.74925       -3.92460
|  8> H          4.84125        2.24214       -3.05408
|  9> H          2.71455        2.33145       -1.76030
| 10> H          4.09099        2.06315       -0.73338
| 11> C          3.29098       -0.41802       -0.12908
| 12> N          2.51754       -1.43202        0.23936
| 13> C          4.53549       -0.28441        0.39580
| 14> H          5.04363        0.57189        0.22290
| 15> H          4.72335       -0.73327        1.28180
| 16> H          1.93479        0.10230       -1.40379
| 17> H          1.67464       -1.50562       -0.31610
| 18> H          2.92850       -2.21850        0.72549
| 19> H          4.18704        0.56990       -4.75451
| 20> H          2.78096        1.45217       -4.20898
| 21> H          3.07436       -0.16949       -3.62832
| 22> *
| 23> %MaxCore 64000
| 24>
| 25> %pal nprocs 18
| 26> end
| 27>
| 28> %scf
| 29>   MaxIter 150
| 30> end
| 31>
| 32>
| 33>                          ****END OF INPUT****

CARTESIAN COORDINATES (ANGSTROEM)
---------------------------------
  C      3.488280    1.600920   -1.522040
  C      4.342970    1.313420   -2.756830
  N      2.810290    0.428780   -1.014200
  H      5.132030    0.604990   -2.484470
  C      3.535900    0.749250   -3.924600
  H      4.841250    2.242140   -3.054080
  H      2.714550    2.331450   -1.760300
  H      4.090990    2.063150   -0.733380
  C      3.290980   -0.418020   -0.129080
  N      2.517540   -1.432020    0.239360
  C      4.535490   -0.284410    0.395800
  H      5.043630    0.571890    0.222900
  H      4.723350   -0.733270    1.281800
  H      1.934790    0.102300   -1.403790
  H      1.674640   -1.505620   -0.316100
  H      2.928500   -2.218500    0.725490
  H      4.187040    0.569900   -4.754510
  H      2.780960    1.452170   -4.208980
  H      3.074360   -0.169490   -3.628320

 Total Charge           Charge          ....    0
 Multiplicity           Mult            ....    1
 Number of Electrons    NEL             ....   56
 Basis Dimension        Dim             ....  158

ORBITAL ENERGIES
----------------

  NO   OCC          E(Eh)            E(eV)
   0   2.0000     -14.437441      -392.8627
   1   2.0000     -14.432341      -392.7240
   2   2.0000     -10.332003      -281.1481
   3   2.0000     -10.319871      -280.8180
   4   2.0000     -10.280032      -279.7339
   5   2.0000     -10.273224      -279.5486
   6   2.0000     -10.191490      -277.3245
   7   2.0000      -1.084075       -29.4992
   8   2.0000      -0.992314       -27.0022
   9   2.0000      -0.887550       -24.1515
  10   2.0000      -0.810570       -22.0567
  11   2.0000      -0.798704       -21.7338
  12   2.0000      -0.711119       -19.3505
  13   2.0000      -0.654605       -17.8127
  14   2.0000      -0.642390       -17.4803
  15   2.0000      -0.626117       -17.0375
  16   2.0000      -0.571854       -15.5609
  17   2.0000      -0.550124       -14.9696
  18   2.0000      -0.536045       -14.5865
  19   2.0000      -0.498532       -13.5657
  20   2.0000      -0.495775       -13.4907
  21   2.0000      -0.472170       -12.8484
  22   2.0000      -0.458708       -12.4821
  23   2.0000      -0.440628       -11.9901
  24   2.0000      -0.434871       -11.8334
  25   2.0000      -0.426492       -11.6054
  26   2.0000      -0.340188        -9.2570
  27   2.0000      -0.243334        -6.6215
  28   0.0000       0.121189         3.2977
  29   0.0000       0.156063         4.2467
  30   0.0000       0.169083         4.6010
  31   0.0000       0.183651         4.9974
  32   0.0000       0.191412         5.2086

MULLIKEN ATOMIC CHARGES
-----------------------
   0 C :    0.096319
   1 C :   -0.065860
   2 N :   -0.196833
   3 H :    0.041798
   4 C :   -0.032310
   5 H :    0.024796
   6 H :    0.018147
   7 H :    0.049224
   8 C :   -0.011424
   9 N :   -0.110945
  10 C :   -0.151126
  11 H :   -0.045151
  12 H :   -0.039401
  13 H :    0.109114
  14 H :    0.106829
  15 H :    0.143500
  16 H :    0.033629
  17 H :    0.014703
  18 H :    0.014993
Sum of atomic charges:   -0.0000000

LOEWDIN ATOMIC CHARGES
----------------------
   0 C :    0.042162
   1 C :   -0.052303
   2 N :   -0.024895
   3 H :    0.030022
   4 C :   -0.059056
   5 H :    0.023548
   6 H :    0.020369
   7 H :    0.032332
   8 C :    0.045883
   9 N :   -0.025018
  10 C :   -0.288426
  11 H :   -0.012177
  12 H :   -0.008996
  13 H :    0.064196
  14 H :    0.064049
  15 H :    0.089207
  16 H :    0.026223
  17 H :    0.017599
  18 H :    0.015279

  Mayer bond orders larger than 0.100000
B(  0-C ,  1-C ) :   1.0665 B(  0-C ,  2-N ) :   0.9819 B(  0-C ,  6-H ) :   0.9588
B(  0-C ,  7-H ) :   0.9474 B(  1-C ,  3-H ) :   0.9485 B(  1-C ,  4-C ) :   1.0746
B(  1-C ,  5-H ) :   0.9535 B(  2-N ,  8-C ) :   1.1872 B(  2-N , 13-H ) :   0.9338
B(  4-C , 16-H ) :   0.9742 B(  4-C , 17-H ) :   0.9772 B(  4-C , 18-H ) :   0.9737
B(  8-C ,  9-N ) :   1.2347 B(  8-C , 10-C ) :   1.7234 B(  9-N , 14-H ) :   0.9520
B(  9-N , 15-H ) :   0.9441 B( 10-C , 11-H ) :   0.9486 B( 10-C , 12-H ) :   0.9559

Dispersion correction           -0.005315348
FINAL SINGLE POINT ENERGY      -306.911098928157

DIPOLE MOMENT
-------------
                                X             Y             Z
Electronic contribution:     -2.32725      -2.10131       4.06597
Nuclear contribution   :      1.26608       1.95446      -4.64747
                        -----------------------------------------
Total Dipole Moment    :     -1.06117      -0.14684      -0.58150
                        -----------------------------------------
Magnitude (a.u.)       :      1.21893
Magnitude (Debye)      :      3.09827

Rotational constants in cm-1:     0.166109     0.049557     0.044716
Rotational constants in MHz :  4979.835529  1485.675017  1340.540851

                             ****ORCA TERMINATED NORMALLY****
TOTAL RUN TIME: 0 days 0 hours 0 minutes 12 seconds 670 msec
