                         Program Version 5.0.0 -  RELEASE  -
|  1> !wB97X-D3 RIJCOSX def2-SVP def2/J TightSCF xyzfile
|  2>
|  3> *xyzfile 0 1 D1.xyz
|  4>
|  5> %MaxCore 64000
|  6>
|  7> %pal nprocs 18
|  8> end
|  9>
| 10> %scf
| 11>   MaxIter 150
| 12> end
| 13>
| 14>
| 15>                          ****END OF INPUT****

CARTESIAN COORDINATES (ANGSTROEM)
---------------------------------
  C      3.488276    1.600919   -1.522040
  C      4.342970    1.313419   -2.756826
  C      2.810285    0.428783   -1.014196
  H      5.132033    0.604994   -2.484466
  C      3.535896    0.749253   -3.924604
  H      4.841247    2.242136   -3.054083
  H      2.991617   -0.132199   -3.574137
  H      4.225505    0.392784   -4.695962
  C      2.564776    1.750890   -4.544523
  H      1.918749    2.171679   -3.769419
  C      1.686235    1.161657   -5.650111
  H      3.132494    2.594775   -4.951604
  C      0.839616   -0.037582   -5.220473
  H      2.323886    0.866395   -6.490796
  H      1.029518    1.951850   -6.029329
  C     -0.151019    0.254955   -4.094256
  H      1.499442   -0.857141   -4.922958
  H      0.290097   -0.410143   -6.091131
  H      0.328265    0.833022   -3.299125
  C     -0.721843   -0.999513   -3.439309
  H     -0.957367    0.884951   -4.485450
  H     -1.083403   -1.697555   -4.205656
  H     -1.581056   -0.723848   -2.820490
  C      0.287250   -1.711771   -2.527405
  H      1.131780   -2.067380   -3.159396
  H     -0.204137   -2.637326   -2.170480
  F      0.710505   -0.927506   -1.481767
  H      2.714548    2.331455   -1.760302
  H      4.090991    2.063151   -0.733382
  C      3.290978   -0.418021   -0.129083
  N      2.517536   -1.432017    0.239360
  N      4.535490   -0.284410    0.395800
  H      5.043627    0.571888    0.222899
  H      4.723346   -0.733273    1.281800
  H      1.934787    0.102305   -1.403788
  H      1.674638   -1.505616   -0.316095
  H      2.928503   -2.218502    0.725494

 Total Charge           Charge          ....    0
 Multiplicity           Mult            ....    1
 Number of Electrons    NEL             ....  112
 Basis Dimension        Dim             ....  311

ORBITAL ENERGIES
----------------

  NO   OCC          E(Eh)            E(eV)
   0   2.0000     -24.808224      -675.0661
   1   2.0000     -14.413991      -392.2246
   2   2.0000     -14.396498      -391.7486
   3   2.0000     -10.378973      -282.4262
   4   2.0000     -10.305615      -280.4300
   5   2.0000     -10.299764      -280.2708
   6   2.0000     -10.284700      -279.8609
   7   2.0000     -10.280844      -279.7560
   8   2.0000     -10.275726      -279.6167
   9   2.0000     -10.267371      -279.3894
  10   2.0000     -10.261051      -279.2174
  11   2.0000     -10.255155      -279.0570
  12   2.0000     -10.247555      -278.8502
  13   2.0000     -10.174161      -276.8530
  14   2.0000      -1.330398       -36.2020
  15   2.0000      -1.042387       -28.3648
  16   2.0000      -0.952371       -25.9153
  17   2.0000      -0.929478       -25.2924
  18   2.0000      -0.902725       -24.5644
  19   2.0000      -0.872009       -23.7286
  20   2.0000      -0.836470       -22.7615
  21   2.0000      -0.796929       -21.6855
  22   2.0000      -0.770649       -20.9704
  23   2.0000      -0.735781       -20.0216
  24   2.0000      -0.706349       -19.2207
  25   2.0000      -0.689515       -18.7627
  26   2.0000      -0.665661       -18.1136
  27   2.0000      -0.648478       -17.6460
  28   2.0000      -0.634790       -17.2735
  29   2.0000      -0.620581       -16.8869
  30   2.0000      -0.610615       -16.6157
  31   2.0000      -0.596004       -16.2181
  32   2.0000      -0.583590       -15.8803
  33   2.0000      -0.562841       -15.3157
  34   2.0000      -0.553650       -15.0656
  35   2.0000      -0.539957       -14.6930
  36   2.0000      -0.533454       -14.5160
  37   2.0000      -0.519692       -14.1415
  38   2.0000      -0.509143       -13.8545
  39   2.0000      -0.498292       -13.5592
  40   2.0000      -0.489120       -13.3096
  41   2.0000      -0.471357       -12.8263
  42   2.0000      -0.465473       -12.6662
  43   2.0000      -0.458555       -12.4779
  44   2.0000      -0.453981       -12.3535
  45   2.0000      -0.450893       -12.2694
  46   2.0000      -0.430348       -11.7104
  47   2.0000      -0.420934       -11.4542
  48   2.0000      -0.410472       -11.1695
  49   2.0000      -0.408856       -11.1255
  50   2.0000      -0.405227       -11.0268
  51   2.0000      -0.389531       -10.5997
  52   2.0000      -0.382274       -10.4022
  53   2.0000      -0.375271       -10.2117
  54   2.0000      -0.334632        -9.1058
  55   2.0000      -0.221588        -6.0297
  56   0.0000       0.132831         3.6145
  57   0.0000       0.147544         4.0149
  58   0.0000       0.153080         4.1655
  59   0.0000       0.160607         4.3703
  60   0.0000       0.171285         4.6609

MULLIKEN ATOMIC CHARGES
-----------------------
   0 C :    0.064122
   1 C :    0.042545
   2 C :   -0.206345
   3 H :    0.001178
   4 C :   -0.036300
   5 H :   -0.004476
   6 H :    0.000712
   7 H :    0.005783
   8 C :   -0.057124
   9 H :    0.017417
  10 C :    0.014390
  11 H :    0.014504
  12 C :   -0.056641
  13 H :    0.015239
  14 H :    0.013332
  15 C :   -0.062333
  16 H :    0.011332
  17 H :    0.016550
  18 H :    0.043413
  19 C :   -0.076558
  20 H :    0.026853
  21 H :    0.033024
  22 H :    0.040611
  23 C :    0.237245
  24 H :    0.040042
  25 H :    0.038184
  26 F :   -0.235820
  27 H :   -0.002234
  28 H :   -0.019581
  29 C :   -0.073590
  30 N :   -0.101880
  31 N :   -0.129603
  32 H :    0.118989
  33 H :    0.108045
  34 H :   -0.068981
  35 H :    0.125884
  36 H :    0.102073
Sum of atomic charges:    0.0000000

LOEWDIN ATOMIC CHARGES
----------------------
   0 C :   -0.041644
   1 C :   -0.037287
   2 C :   -0.237324
   3 H :    0.016438
   4 C :   -0.040025
   5 H :    0.010127
   6 H :    0.013345
   7 H :    0.017778
   8 C :   -0.040822
   9 H :    0.016163
  10 C :   -0.036535
  11 H :    0.022391
  12 C :   -0.042855
  13 H :    0.021672
  14 H :    0.020790
  15 C :   -0.043764
  16 H :    0.013501
  17 H :    0.021764
  18 H :    0.025792
  19 C :   -0.055794
  20 H :    0.026592
  21 H :    0.032943
  22 H :    0.030280
  23 C :    0.117795
  24 H :    0.018434
  25 H :    0.019409
  26 F :   -0.047280
  27 H :    0.018022
  28 H :    0.007809
  29 C :    0.033959
  30 N :   -0.046695
  31 N :   -0.048822
  32 H :    0.072780
  33 H :    0.062272
  34 H :   -0.028264
  35 H :    0.047746
  36 H :    0.059308

  Mayer bond orders larger than 0.100000
B(  0-C ,  1-C ) :   1.0560 B(  0-C ,  2-C ) :   1.0428 B(  0-C , 27-H ) :   0.9242
B(  0-C , 28-H ) :   0.9381 B(  1-C ,  3-H ) :   0.9436 B(  1-C ,  4-C ) :   1.0863
B(  1-C ,  5-H ) :   0.9450 B(  2-C , 29-C ) :   1.7060 B(  2-C , 34-H ) :   0.9227
B(  4-C ,  6-H ) :   0.9360 B(  4-C ,  7-H ) :   0.9462 B(  4-C ,  8-C ) :   1.0528
B(  8-C ,  9-H ) :   0.9470 B(  8-C , 10-C ) :   1.0802 B(  8-C , 11-H ) :   0.9438
B( 10-C , 12-C ) :   1.0769 B( 10-C , 13-H ) :   0.9462 B( 10-C , 14-H ) :   0.9477
B( 12-C , 15-C ) :   1.0458 B( 12-C , 16-H ) :   0.9527 B( 12-C , 17-H ) :   0.9441
B( 15-C , 18-H ) :   0.9501 B( 15-C , 19-C ) :   1.0722 B( 15-C , 20-H ) :   0.9493
B( 19-C , 21-H ) :   0.9424 B( 19-C , 22-H ) :   0.9463 B( 19-C , 23-C ) :   1.0771
B( 23-C , 24-H ) :   0.9513 B( 23-C , 25-H ) :   0.9566 B( 23-C , 26-F ) :   0.8838
B( 29-C , 30-N ) :   1.2564 B( 29-C , 31-N ) :   1.2282 B( 30-N , 35-H ) :   0.9040
B( 30-N , 36-H ) :   0.9485 B( 31-N , 32-H ) :   0.9421 B( 31-N , 33-H ) :   0.9496

Dispersion correction           -0.017675501
FINAL SINGLE POINT ENERGY      -641.693312880119

DIPOLE MOMENT
-------------
                                X             Y             Z
Electronic contribution:     -1.56568      -5.00970      10.87246
Nuclear contribution   :      1.15699       3.94991     -10.89335
                        -----------------------------------------
Total Dipole Moment    :     -0.40870      -1.05979      -0.02090
                        -----------------------------------------
Magnitude (a.u.)       :      1.13605
Magnitude (Debye)      :      2.88762

Rotational constants in cm-1:     0.026548     0.016177     0.010851
Rotational constants in MHz :   795.884848   484.988695   325.313537

                             ****ORCA TERMINATED NORMALLY****
TOTAL RUN TIME: 0 days 0 hours 0 minutes 36 seconds 723 msec
