                         Program Version 5.0.0 -  RELEASE  -
|  1> !wB97X-D3 RIJCOSX def2-SVP def2/J TightSCF xyzfile
|  2>
|  3> *xyzfile 0 1 D2.xyz
|  4>
|  5> %MaxCore 64000
|  6>
|  7> %pal nprocs 18
|  8> end
|  9>
| 10> %scf
| 11>   MaxIter 150
| 12> end
| 13>
| 14>
| 15>                          ****END OF INPUT****

CARTESIAN COORDINATES (ANGSTROEM)
---------------------------------
  C      3.488276    1.600919   -1.522040
  C      4.342970    1.313419   -2.756826
  N      2.810285    0.428783   -1.014196
  H      5.132033    0.604994   -2.484466
  C      3.535896    0.749253   -3.924604
  H      4.841247    2.242136   -3.054083
  H      2.991617   -0.132199   -3.574137
  H      4.225505    0.392784   -4.695962
  C      2.564776    1.750890   -4.544523
  H      1.918749    2.171679   -3.769419
  C      1.686235    1.161657   -5.650111
  H      3.132494    2.594775   -4.951604
  C      0.839616   -0.037582   -5.220473
  H      2.323886    0.866395   -6.490796
  H      1.029518    1.951850   -6.029329
  C     -0.151019    0.254955   -4.094256
  H      1.499442   -0.857141   -4.922958
  H      0.290097   -0.410143   -6.091131
  H      0.328265    0.833022   -3.299125
  C     -0.721843   -0.999513   -3.439309
  H     -0.957367    0.884951   -4.485450
  H     -1.083403   -1.697555   -4.205656
  H     -1.581056   -0.723848   -2.820490
  C      0.287250   -1.711771   -2.527405
  H      1.131780   -2.067380   -3.159396
  H     -0.204137   -2.637326   -2.170480
  F      0.710505   -0.927506   -1.481767
  H      2.714548    2.331455   -1.760302
  H      4.090991    2.063151   -0.733382
  C      3.290978   -0.418021   -0.129083
  C      2.517536   -1.432017    0.239360
  N      4.535490   -0.284410    0.395800
  H      5.043627    0.571888    0.222899
  H      4.723346   -0.733273    1.281800
  H      1.934787    0.102305   -1.403788
  H      1.674638   -1.505616   -0.316095
  H      2.928503   -2.218502    0.725494

 Total Charge           Charge          ....    0
 Multiplicity           Mult            ....    1
 Number of Electrons    NEL             ....  112
 Basis Dimension        Dim             ....  311

ORBITAL ENERGIES
----------------

  NO   OCC          E(Eh)            E(eV)
   0   2.0000     -24.806553      -675.0206
   1   2.0000     -14.412420      -392.1819
   2   2.0000     -14.402423      -391.9098
   3   2.0000     -10.378025      -282.4004
   4   2.0000     -10.314533      -280.6727
   5   2.0000     -10.307861      -280.4912
   6   2.0000     -10.302245      -280.3383
   7   2.0000     -10.292925      -280.0847
   8   2.0000     -10.289391      -279.9886
   9   2.0000     -10.286918      -279.9213
  10   2.0000     -10.283747      -279.8350
  11   2.0000     -10.281305      -279.7685
  12   2.0000     -10.279700      -279.7249
  13   2.0000     -10.161913      -276.5197
  14   2.0000      -1.328676       -36.1551
  15   2.0000      -1.054568       -28.6963
  16   2.0000      -0.968679       -26.3591
  17   2.0000      -0.938384       -25.5347
  18   2.0000      -0.909405       -24.7462
  19   2.0000      -0.881408       -23.9843
  20   2.0000      -0.834149       -22.6983
  21   2.0000      -0.809782       -22.0353
  22   2.0000      -0.773744       -21.0547
  23   2.0000      -0.747296       -20.3350
  24   2.0000      -0.715186       -19.4612
  25   2.0000      -0.699053       -19.0222
  26   2.0000      -0.677929       -18.4474
  27   2.0000      -0.661825       -18.0092
  28   2.0000      -0.636505       -17.3202
  29   2.0000      -0.623212       -16.9585
  30   2.0000      -0.609334       -16.5808
  31   2.0000      -0.597751       -16.2656
  32   2.0000      -0.583421       -15.8757
  33   2.0000      -0.573077       -15.5942
  34   2.0000      -0.565617       -15.3912
  35   2.0000      -0.551547       -15.0084
  36   2.0000      -0.536496       -14.5988
  37   2.0000      -0.529123       -14.3982
  38   2.0000      -0.525429       -14.2977
  39   2.0000      -0.510499       -13.8914
  40   2.0000      -0.491747       -13.3811
  41   2.0000      -0.476993       -12.9796
  42   2.0000      -0.467724       -12.7274
  43   2.0000      -0.465906       -12.6779
  44   2.0000      -0.459553       -12.5051
  45   2.0000      -0.452739       -12.3197
  46   2.0000      -0.439292       -11.9537
  47   2.0000      -0.434962       -11.8359
  48   2.0000      -0.428840       -11.6693
  49   2.0000      -0.420096       -11.4314
  50   2.0000      -0.409256       -11.1364
  51   2.0000      -0.408258       -11.1093
  52   2.0000      -0.404842       -11.0163
  53   2.0000      -0.401013       -10.9121
  54   2.0000      -0.326891        -8.8952
  55   2.0000      -0.220617        -6.0033
  56   0.0000       0.128180         3.4880
  57   0.0000       0.136599         3.7170
  58   0.0000       0.148340         4.0365
  59   0.0000       0.153718         4.1829
  60   0.0000       0.158322         4.3081

MULLIKEN ATOMIC CHARGES
-----------------------
   0 C :    0.072221
   1 C :    0.019120
   2 N :   -0.191039
   3 H :    0.020077
   4 C :   -0.055045
   5 H :    0.010234
   6 H :    0.008103
   7 H :    0.020714
   8 C :   -0.061699
   9 H :    0.015035
  10 C :    0.014202
  11 H :    0.019591
  12 C :   -0.060471
  13 H :    0.019937
  14 H :    0.017907
  15 C :   -0.061950
  16 H :    0.013941
  17 H :    0.022358
  18 H :    0.021887
  19 C :   -0.074932
  20 H :    0.030191
  21 H :    0.034529
  22 H :    0.043479
  23 C :    0.239765
  24 H :    0.040410
  25 H :    0.048277
  26 F :   -0.237541
  27 H :    0.021747
  28 H :    0.017235
  29 C :   -0.024990
  30 C :   -0.157572
  31 N :   -0.140627
  32 H :    0.101649
  33 H :    0.131120
  34 H :    0.142230
  35 H :   -0.023778
  36 H :   -0.056315
Sum of atomic charges:   -0.0000000

LOEWDIN ATOMIC CHARGES
----------------------
   0 C :    0.028505
   1 C :   -0.050511
   2 N :   -0.036581
   3 H :    0.023622
   4 C :   -0.042038
   5 H :    0.019387
   6 H :    0.014099
   7 H :    0.024229
   8 C :   -0.042514
   9 H :    0.013840
  10 C :   -0.035830
  11 H :    0.024259
  12 C :   -0.043131
  13 H :    0.023599
  14 H :    0.022777
  15 C :   -0.044605
  16 H :    0.014293
  17 H :    0.024524
  18 H :    0.018344
  19 C :   -0.057071
  20 H :    0.027764
  21 H :    0.033691
  22 H :    0.031299
  23 C :    0.122530
  24 H :    0.018051
  25 H :    0.025493
  26 F :   -0.047086
  27 H :    0.019348
  28 H :    0.016009
  29 C :    0.046503
  30 C :   -0.286645
  31 N :   -0.045858
  32 H :    0.057280
  33 H :    0.081121
  34 H :    0.044699
  35 H :   -0.026735
  36 H :   -0.016661

  Mayer bond orders larger than 0.100000
B(  0-C ,  1-C ) :   1.0444 B(  0-C ,  2-N ) :   1.0177 B(  0-C , 27-H ) :   0.9536
B(  0-C , 28-H ) :   0.9533 B(  1-C ,  3-H ) :   0.9400 B(  1-C ,  4-C ) :   1.0782
B(  1-C ,  5-H ) :   0.9431 B(  2-N , 29-C ) :   1.2108 B(  2-N , 34-H ) :   0.8802
B(  4-C ,  6-H ) :   0.9416 B(  4-C ,  7-H ) :   0.9491 B(  4-C ,  8-C ) :   1.0488
B(  8-C ,  9-H ) :   0.9485 B(  8-C , 10-C ) :   1.0802 B(  8-C , 11-H ) :   0.9439
B( 10-C , 12-C ) :   1.0763 B( 10-C , 13-H ) :   0.9470 B( 10-C , 14-H ) :   0.9478
B( 12-C , 15-C ) :   1.0449 B( 12-C , 16-H ) :   0.9532 B( 12-C , 17-H ) :   0.9441
B( 15-C , 18-H ) :   0.9496 B( 15-C , 19-C ) :   1.0712 B( 15-C , 20-H ) :   0.9496
B( 19-C , 21-H ) :   0.9422 B( 19-C , 22-H ) :   0.9464 B( 19-C , 23-C ) :   1.0728
B( 23-C , 24-H ) :   0.9542 B( 23-C , 25-H ) :   0.9575 B( 23-C , 26-F ) :   0.8829
B( 29-C , 30-C ) :   1.7537 B( 29-C , 31-N ) :   1.1984 B( 30-C , 35-H ) :   0.9249
B( 30-C , 36-H ) :   0.9555 B( 31-N , 32-H ) :   0.9547 B( 31-N , 33-H ) :   0.9498

Dispersion correction           -0.017724603
FINAL SINGLE POINT ENERGY      -641.682356528766

DIPOLE MOMENT
-------------
                                X             Y             Z
Electronic contribution:     -1.25441      -3.14566       9.50551
Nuclear contribution   :      1.09892       3.58083     -10.64472
                        -----------------------------------------
Total Dipole Moment    :     -0.15548       0.43518      -1.13920
                        -----------------------------------------
Magnitude (a.u.)       :      1.22936
Magnitude (Debye)      :      3.12480

Rotational constants in cm-1:     0.026768     0.016312     0.010954
Rotational constants in MHz :   802.489946   489.033275   328.388904

                             ****ORCA TERMINATED NORMALLY****
TOTAL RUN TIME: 0 days 0 hours 0 minutes 42 seconds 742 msec
