                         Program Version 5.0.0 -  RELEASE  -
|  1> !PBE0 D3BJ RIJCOSX def2-SVP def2/J TightSCF
|  2> *xyz -1 1
|  3> C          4.08422        1.74208       -2.11472
|  4> C          4.26524        2.50052       -0.79589
|  5> H          4.86853        3.39267       -0.98113
|  6> H          3.30764        2.82457       -0.38781
|  7> C          4.98224        1.65026        0.24742
|  8> O          4.36806        1.38927        1.31371
|  9> O          6.12892        1.23351       -0.04562
| 10> H          3.57911        2.36849       -2.81997
| 11> H          3.50424        0.85965       -1.94198
| 12> H          5.04288        1.46841       -2.50327
| 13> *
| 14> %MaxCore 64000
| 15> %pal nprocs 8
| 16> end
| 17> %scf
| 18>   MaxIter 150
| 19> end
| 20>
| 21>
| 22>                          ****END OF INPUT****

CARTESIAN COORDINATES (ANGSTROEM)
---------------------------------
  C      4.084220    1.742080   -2.114720
  C      4.265240    2.500520   -0.795890
  H      4.868530    3.392670   -0.981130
  H      3.307640    2.824570   -0.387810
  C      4.982240    1.650260    0.247420
  O      4.368060    1.389270    1.313710
  O      6.128920    1.233510   -0.045620
  H      3.579110    2.368490   -2.819970
  H      3.504240    0.859650   -1.941980
  H      5.042880    1.468410   -2.503270

 Total Charge           Charge          ....   -1
 Multiplicity           Mult            ....    1
 Number of Electrons    NEL             ....   40
 Basis Dimension        Dim             ....   95

ORBITAL ENERGIES
----------------

  NO   OCC          E(Eh)            E(eV)
   0   2.0000     -18.910191      -514.5725
   1   2.0000     -18.909282      -514.5477
   2   2.0000     -10.081277      -274.3255
   3   2.0000     -10.061317      -273.7824
   4   2.0000     -10.040255      -273.2092
   5   2.0000      -0.803893       -21.8750
   6   2.0000      -0.707909       -19.2632
   7   2.0000      -0.608793       -16.5661
   8   2.0000      -0.473636       -12.8883
   9   2.0000      -0.316588        -8.6148
  10   2.0000      -0.293385        -7.9834
  11   2.0000      -0.251852        -6.8532
  12   2.0000      -0.225476        -6.1355
  13   2.0000      -0.208065        -5.6617
  14   2.0000      -0.198260        -5.3949
  15   2.0000      -0.164516        -4.4767
  16   2.0000      -0.150091        -4.0842
  17   2.0000      -0.025005        -0.6804
  18   2.0000      -0.021662        -0.5895
  19   2.0000      -0.005502        -0.1497
  20   0.0000       0.225908         6.1473
  21   0.0000       0.276376         7.5206
  22   0.0000       0.287848         7.8327
  23   0.0000       0.292312         7.9542
  24   0.0000       0.297865         8.1053

MULLIKEN ATOMIC CHARGES
-----------------------
   0 C :   -0.046297
   1 C :   -0.057139
   2 H :   -0.017107
   3 H :   -0.030076
   4 C :    0.075606
   5 O :   -0.458897
   6 O :   -0.463453
   7 H :   -0.026574
   8 H :    0.008277
   9 H :    0.015659
Sum of atomic charges:   -1.0000000

LOEWDIN ATOMIC CHARGES
----------------------
   0 C :   -0.070387
   1 C :   -0.100248
   2 H :    0.006531
   3 H :   -0.001399
   4 C :   -0.050291
   5 O :   -0.402202
   6 O :   -0.404904
   7 H :   -0.004455
   8 H :    0.013266
   9 H :    0.014088

  Mayer bond orders larger than 0.100000
B(  0-C ,  1-C ) :   1.0863 B(  0-C ,  7-H ) :   0.9676 B(  0-C ,  8-H ) :   0.9739
B(  0-C ,  9-H ) :   0.9634 B(  1-C ,  2-H ) :   0.9378 B(  1-C ,  3-H ) :   0.9401
B(  1-C ,  4-C ) :   0.9184 B(  4-C ,  5-O ) :   1.8448 B(  4-C ,  6-O ) :   1.8090
B(  5-O ,  6-O ) :   0.1132

Dispersion correction           -0.005468256
FINAL SINGLE POINT ENERGY      -267.322470512636

DIPOLE MOMENT
-------------
                                X             Y             Z
Electronic contribution:      2.52214      -1.57541       5.26705
Nuclear contribution   :     -3.31311       2.28398      -6.76358
                        -----------------------------------------
Total Dipole Moment    :     -0.79097       0.70858      -1.49653
                        -----------------------------------------
Magnitude (a.u.)       :      1.83502
Magnitude (Debye)      :      4.66426

Rotational constants in cm-1:     0.309287     0.135287     0.107346
Rotational constants in MHz :  9272.201029  4055.789113  3218.155789

                             ****ORCA TERMINATED NORMALLY****
TOTAL RUN TIME: 0 days 0 hours 0 minutes 5 seconds 399 msec
