                         Program Version 5.0.0 -  RELEASE  -
|  1> !PBE0 D3BJ RIJCOSX def2-SVP def2/J TightSCF
|  2> *xyz 1 1
|  3> C          3.91385       -1.65829        3.01513
|  4> N          5.03927       -0.90115        2.49282
|  5> C          6.21038       -1.41726        2.17824
|  6> N          6.53591       -2.67712        2.55608
|  7> N          7.07675       -0.70082        1.47891
|  8> H          7.95464       -1.12155        1.20755
|  9> H          6.75616        0.10664        0.96028
| 10> H          4.84217        0.01761        2.11519
| 11> H          5.99388       -3.12692        3.28278
| 12> C          3.13916       -2.37657        1.91061
| 13> H          3.26723       -0.93940        3.52069
| 14> H          4.24720       -2.35509        3.79006
| 15> H          7.49844       -2.97548        2.46878
| 16> H          2.82969       -1.66654        1.17238
| 17> H          2.27790       -2.85264        2.33072
| 18> H          3.76754       -3.11338        1.45548
| 19> *
| 20> %MaxCore 64000
| 21> %pal nprocs 8
| 22> end
| 23> %scf
| 24>   MaxIter 150
| 25> end
| 26>
| 27>
| 28>                          ****END OF INPUT****

CARTESIAN COORDINATES (ANGSTROEM)
---------------------------------
  C      3.913850   -1.658290    3.015130
  N      5.039270   -0.901150    2.492820
  C      6.210380   -1.417260    2.178240
  N      6.535910   -2.677120    2.556080
  N      7.076750   -0.700820    1.478910
  H      7.954640   -1.121550    1.207550
  H      6.756160    0.106640    0.960280
  H      4.842170    0.017610    2.115190
  H      5.993880   -3.126920    3.282780
  C      3.139160   -2.376570    1.910610
  H      3.267230   -0.939400    3.520690
  H      4.247200   -2.355090    3.790060
  H      7.498440   -2.975480    2.468780
  H      2.829690   -1.666540    1.172380
  H      2.277900   -2.852640    2.330720
  H      3.767540   -3.113380    1.455480

 Total Charge           Charge          ....    1
 Multiplicity           Mult            ....    1
 Number of Electrons    NEL             ....   48
 Basis Dimension        Dim             ....  134

ORBITAL ENERGIES
----------------

  NO   OCC          E(Eh)            E(eV)
   0   2.0000     -14.619367      -397.8132
   1   2.0000     -14.618021      -397.7766
   2   2.0000     -14.614914      -397.6920
   3   2.0000     -10.564943      -287.4867
   4   2.0000     -10.439988      -284.0865
   5   2.0000     -10.366933      -282.0986
   6   2.0000      -1.236208       -33.6389
   7   2.0000      -1.124978       -30.6122
   8   2.0000      -1.106840       -30.1186
   9   2.0000      -0.947489       -25.7825
  10   2.0000      -0.856635       -23.3102
  11   2.0000      -0.817212       -22.2375
  12   2.0000      -0.802846       -21.8466
  13   2.0000      -0.758903       -20.6508
  14   2.0000      -0.707411       -19.2496
  15   2.0000      -0.701013       -19.0755
  16   2.0000      -0.669870       -18.2281
  17   2.0000      -0.644425       -17.5357
  18   2.0000      -0.614311       -16.7162
  19   2.0000      -0.575066       -15.6483
  20   2.0000      -0.542772       -14.7696
  21   2.0000      -0.522882       -14.2283
  22   2.0000      -0.489057       -13.3079
  23   2.0000      -0.461586       -12.5604
  24   0.0000      -0.154105        -4.1934
  25   0.0000      -0.126737        -3.4487
  26   0.0000      -0.095511        -2.5990
  27   0.0000      -0.084704        -2.3049
  28   0.0000      -0.065185        -1.7738

MULLIKEN ATOMIC CHARGES
-----------------------
   0 C :   -0.030158
   1 N :   -0.168915
   2 C :    0.139378
   3 N :   -0.106728
   4 N :   -0.068168
   5 H :    0.182285
   6 H :    0.183930
   7 H :    0.176696
   8 H :    0.178046
   9 C :   -0.046980
  10 H :    0.096067
  11 H :    0.076423
  12 H :    0.179764
  13 H :    0.063614
  14 H :    0.088919
  15 H :    0.055826
Sum of atomic charges:    1.0000000

LOEWDIN ATOMIC CHARGES
----------------------
   0 C :    0.033030
   1 N :    0.033109
   2 C :    0.146990
   3 N :    0.029558
   4 N :    0.047225
   5 H :    0.113129
   6 H :    0.113743
   7 H :    0.109770
   8 H :    0.106548
   9 C :   -0.056642
  10 H :    0.053998
  11 H :    0.036809
  12 H :    0.111269
  13 H :    0.037492
  14 H :    0.052033
  15 H :    0.031939

  Mayer bond orders larger than 0.100000
B(  0-C ,  1-N ) :   0.9311 B(  0-C ,  9-C ) :   1.0803 B(  0-C , 10-H ) :   0.9465
B(  0-C , 11-H ) :   0.9517 B(  1-N ,  2-C ) :   1.3782 B(  1-N ,  7-H ) :   0.9091
B(  2-C ,  3-N ) :   1.3594 B(  2-C ,  4-N ) :   1.3941 B(  3-N ,  8-H ) :   0.9232
B(  3-N , 12-H ) :   0.9260 B(  4-N ,  5-H ) :   0.9261 B(  4-N ,  6-H ) :   0.9245
B(  9-C , 13-H ) :   0.9687 B(  9-C , 14-H ) :   0.9636 B(  9-C , 15-H ) :   0.9679

Dispersion correction           -0.010474440
FINAL SINGLE POINT ENERGY      -283.873660484864

DIPOLE MOMENT
-------------
                                X             Y             Z
Electronic contribution:      4.78503       1.92303       0.05727
Nuclear contribution   :     -3.67981      -1.62355      -0.28562
                        -----------------------------------------
Total Dipole Moment    :      1.10522       0.29948      -0.22835
                        -----------------------------------------
Magnitude (a.u.)       :      1.16762
Magnitude (Debye)      :      2.96785

Rotational constants in cm-1:     0.222027     0.074735     0.065694
Rotational constants in MHz :  6656.200457  2240.503315  1969.451902

                             ****ORCA TERMINATED NORMALLY****
TOTAL RUN TIME: 0 days 0 hours 0 minutes 7 seconds 642 msec
