                         Program Version 5.0.0 -  RELEASE  -
|  1> !PBE0 D3BJ RIJCOSX def2-SVP def2/J TightSCF
|  2> *xyz 0 1
|  3> C          4.08422        1.74208       -2.11472
|  4> C          4.26524        2.50052       -0.79589
|  5> H          4.86853        3.39267       -0.98113
|  6> H          3.30764        2.82457       -0.38781
|  7> C          4.98224        1.65026        0.24742
|  8> F          4.36806        1.38927        1.31371
|  9> O          6.12892        1.23351       -0.04562
| 10> H          3.57911        2.36849       -2.81997
| 11> H          3.50424        0.85965       -1.94198
| 12> H          5.04288        1.46841       -2.50327
| 13> *
| 14> %MaxCore 64000
| 15> %pal nprocs 8
| 16> end
| 17> %scf
| 18>   MaxIter 150
| 19> end
| 20>
| 21>
| 22>                          ****END OF INPUT****

CARTESIAN COORDINATES (ANGSTROEM)
---------------------------------
  C      4.084220    1.742080   -2.114720
  C      4.265240    2.500520   -0.795890
  H      4.868530    3.392670   -0.981130
  H      3.307640    2.824570   -0.387810
  C      4.982240    1.650260    0.247420
  F      4.368060    1.389270    1.313710
  O      6.128920    1.233510   -0.045620
  H      3.579110    2.368490   -2.819970
  H      3.504240    0.859650   -1.941980
  H      5.042880    1.468410   -2.503270

 Total Charge           Charge          ....    0
 Multiplicity           Mult            ....    1
 Number of Electrons    NEL             ....   40
 Basis Dimension        Dim             ....   95

ORBITAL ENERGIES
----------------

  NO   OCC          E(Eh)            E(eV)
   0   2.0000     -24.838807      -675.8983
   1   2.0000     -19.211030      -522.7587
   2   2.0000     -10.402031      -283.0537
   3   2.0000     -10.260510      -279.2027
   4   2.0000     -10.237236      -278.5694
   5   2.0000      -1.327385       -36.1200
   6   2.0000      -1.045111       -28.4389
   7   2.0000      -0.815828       -22.1998
   8   2.0000      -0.700897       -19.0724
   9   2.0000      -0.650141       -17.6912
  10   2.0000      -0.560296       -15.2464
  11   2.0000      -0.546053       -14.8588
  12   2.0000      -0.517360       -14.0781
  13   2.0000      -0.476782       -12.9739
  14   2.0000      -0.444286       -12.0896
  15   2.0000      -0.411218       -11.1898
  16   2.0000      -0.389081       -10.5874
  17   2.0000      -0.384356       -10.4589
  18   2.0000      -0.354662        -9.6508
  19   2.0000      -0.299898        -8.1606
  20   0.0000      -0.017009        -0.4628
  21   0.0000       0.072504         1.9729
  22   0.0000       0.115382         3.1397
  23   0.0000       0.118669         3.2291
  24   0.0000       0.137817         3.7502

MULLIKEN ATOMIC CHARGES
-----------------------
   0 C :   -0.059829
   1 C :   -0.140472
   2 H :    0.084035
   3 H :    0.048876
   4 C :    0.276052
   5 F :   -0.087690
   6 O :   -0.280842
   7 H :    0.048029
   8 H :    0.045655
   9 H :    0.066186
Sum of atomic charges:   -0.0000000

LOEWDIN ATOMIC CHARGES
----------------------
   0 C :   -0.045806
   1 C :   -0.080717
   2 H :    0.054638
   3 H :    0.030599
   4 C :    0.108272
   5 F :    0.038940
   6 O :   -0.201658
   7 H :    0.031232
   8 H :    0.029097
   9 H :    0.035403

  Mayer bond orders larger than 0.100000
B(  0-C ,  1-C ) :   1.0814 B(  0-C ,  7-H ) :   0.9705 B(  0-C ,  8-H ) :   0.9770
B(  0-C ,  9-H ) :   0.9695 B(  1-C ,  2-H ) :   0.9329 B(  1-C ,  3-H ) :   0.9402
B(  1-C ,  4-C ) :   0.9964 B(  4-C ,  5-F ) :   1.1838 B(  4-C ,  6-O ) :   2.0478

Dispersion correction           -0.005181145
FINAL SINGLE POINT ENERGY      -291.863879157389

DIPOLE MOMENT
-------------
                                X             Y             Z
Electronic contribution:      1.97140      -2.07656       8.17323
Nuclear contribution   :     -2.87511       2.61564      -8.50037
                        -----------------------------------------
Total Dipole Moment    :     -0.90371       0.53908      -0.32714
                        -----------------------------------------
Magnitude (a.u.)       :      1.10196
Magnitude (Debye)      :      2.80095

Rotational constants in cm-1:     0.297822     0.128965     0.102219
Rotational constants in MHz :  8928.481997  3866.271686  3064.463504

                             ****ORCA TERMINATED NORMALLY****
TOTAL RUN TIME: 0 days 0 hours 0 minutes 5 seconds 9 msec
