                         Program Version 5.0.0 -  RELEASE  -
|  1> !PBE0 D3BJ RIJCOSX def2-SVP def2/J TightSCF
|  2> *xyz 0 1
|  3> C          3.91385       -1.65829        3.01513
|  4> C          5.03927       -0.90115        2.49282
|  5> C          6.21038       -1.41726        2.17824
|  6> N          6.53591       -2.67712        2.55608
|  7> N          7.07675       -0.70082        1.47891
|  8> H          7.95464       -1.12155        1.20755
|  9> H          6.75616        0.10664        0.96028
| 10> H          4.84217        0.01761        2.11519
| 11> H          5.99388       -3.12692        3.28278
| 12> C          3.13916       -2.37657        1.91061
| 13> H          3.26723       -0.93940        3.52069
| 14> H          4.24720       -2.35509        3.79006
| 15> H          7.49844       -2.97548        2.46878
| 16> H          2.82969       -1.66654        1.17238
| 17> H          2.27790       -2.85264        2.33072
| 18> H          3.76754       -3.11338        1.45548
| 19> *
| 20> %MaxCore 64000
| 21> %pal nprocs 8
| 22> end
| 23> %scf
| 24>   MaxIter 150
| 25> end
| 26>
| 27>
| 28>                          ****END OF INPUT****

CARTESIAN COORDINATES (ANGSTROEM)
---------------------------------
  C      3.913850   -1.658290    3.015130
  C      5.039270   -0.901150    2.492820
  C      6.210380   -1.417260    2.178240
  N      6.535910   -2.677120    2.556080
  N      7.076750   -0.700820    1.478910
  H      7.954640   -1.121550    1.207550
  H      6.756160    0.106640    0.960280
  H      4.842170    0.017610    2.115190
  H      5.993880   -3.126920    3.282780
  C      3.139160   -2.376570    1.910610
  H      3.267230   -0.939400    3.520690
  H      4.247200   -2.355090    3.790060
  H      7.498440   -2.975480    2.468780
  H      2.829690   -1.666540    1.172380
  H      2.277900   -2.852640    2.330720
  H      3.767540   -3.113380    1.455480

 Total Charge           Charge          ....    0
 Multiplicity           Mult            ....    1
 Number of Electrons    NEL             ....   48
 Basis Dimension        Dim             ....  134

ORBITAL ENERGIES
----------------

  NO   OCC          E(Eh)            E(eV)
   0   2.0000     -14.386937      -391.4884
   1   2.0000     -14.385341      -391.4450
   2   2.0000     -10.265548      -279.3398
   3   2.0000     -10.201440      -277.5953
   4   2.0000     -10.191360      -277.3210
   5   2.0000     -10.143894      -276.0294
   6   2.0000      -0.970416       -26.4064
   7   2.0000      -0.878139       -23.8954
   8   2.0000      -0.783603       -21.3229
   9   2.0000      -0.702008       -19.1026
  10   2.0000      -0.624402       -16.9908
  11   2.0000      -0.584792       -15.9130
  12   2.0000      -0.548744       -14.9321
  13   2.0000      -0.517555       -14.0834
  14   2.0000      -0.480988       -13.0883
  15   2.0000      -0.445229       -12.1153
  16   2.0000      -0.425564       -11.5802
  17   2.0000      -0.393835       -10.7168
  18   2.0000      -0.388209       -10.5637
  19   2.0000      -0.361069        -9.8252
  20   2.0000      -0.333412        -9.0726
  21   2.0000      -0.323958        -8.8153
  22   2.0000      -0.269688        -7.3386
  23   2.0000      -0.159971        -4.3530
  24   0.0000       0.055564         1.5120
  25   0.0000       0.087268         2.3747
  26   0.0000       0.093596         2.5469
  27   0.0000       0.115569         3.1448
  28   0.0000       0.118935         3.2364

MULLIKEN ATOMIC CHARGES
-----------------------
   0 C :   -0.028126
   1 C :   -0.196998
   2 C :    0.007555
   3 N :   -0.145330
   4 N :   -0.111047
   5 H :    0.110174
   6 H :    0.134172
   7 H :   -0.075950
   8 H :    0.128846
   9 C :   -0.000458
  10 H :    0.015241
  11 H :   -0.002626
  12 H :    0.112241
  13 H :    0.016861
  14 H :    0.014059
  15 H :    0.021385
Sum of atomic charges:    0.0000000

LOEWDIN ATOMIC CHARGES
----------------------
   0 C :   -0.048369
   1 C :   -0.222849
   2 C :    0.022921
   3 N :   -0.039908
   4 N :   -0.024312
   5 H :    0.065857
   6 H :    0.084767
   7 H :   -0.006921
   8 H :    0.078124
   9 C :   -0.063543
  10 H :    0.026104
  11 H :    0.010111
  12 H :    0.065674
  13 H :    0.020326
  14 H :    0.013504
  15 H :    0.018513

  Mayer bond orders larger than 0.100000
B(  0-C ,  1-C ) :   1.0864 B(  0-C ,  9-C ) :   1.0739 B(  0-C , 10-H ) :   0.9275
B(  0-C , 11-H ) :   0.9392 B(  1-C ,  2-C ) :   1.7007 B(  1-C ,  7-H ) :   0.9481
B(  2-C ,  3-N ) :   1.2219 B(  2-C ,  4-N ) :   1.2265 B(  3-N ,  8-H ) :   0.9405
B(  3-N , 12-H ) :   0.9494 B(  4-N ,  5-H ) :   0.9515 B(  4-N ,  6-H ) :   0.9405
B(  9-C , 13-H ) :   0.9685 B(  9-C , 14-H ) :   0.9653 B(  9-C , 15-H ) :   0.9734

Dispersion correction           -0.010896804
FINAL SINGLE POINT ENERGY      -267.410699532189

DIPOLE MOMENT
-------------
                                X             Y             Z
Electronic contribution:      4.79785       1.18575      -0.07594
Nuclear contribution   :     -3.74303      -1.46908      -0.23637
                        -----------------------------------------
Total Dipole Moment    :      1.05482      -0.28333      -0.31231
                        -----------------------------------------
Magnitude (a.u.)       :      1.13598
Magnitude (Debye)      :      2.88744

Rotational constants in cm-1:     0.225937     0.074877     0.065953
Rotational constants in MHz :  6773.424301  2244.750632  1977.214101

                             ****ORCA TERMINATED NORMALLY****
TOTAL RUN TIME: 0 days 0 hours 0 minutes 7 seconds 725 msec
