                         Program Version 5.0.0 -  RELEASE  -
|  1> !PBE0 D3BJ RIJCOSX def2-SVP def2/J TightSCF
|  2> *xyz 0 1
|  3> C          4.08422        1.74208       -2.11472
|  4> C          4.26524        2.50052       -0.79589
|  5> H          4.86853        3.39267       -0.98113
|  6> H          3.30764        2.82457       -0.38781
|  7> C          4.98224        1.65026        0.24742
|  8> O          4.36806        1.38927        1.31371
|  9> F          6.12892        1.23351       -0.04562
| 10> H          3.57911        2.36849       -2.81997
| 11> H          3.50424        0.85965       -1.94198
| 12> H          5.04288        1.46841       -2.50327
| 13> *
| 14> %MaxCore 64000
| 15> %pal nprocs 8
| 16> end
| 17> %scf
| 18>   MaxIter 150
| 19> end
| 20>
| 21>
| 22>                          ****END OF INPUT****

CARTESIAN COORDINATES (ANGSTROEM)
---------------------------------
  C      4.084220    1.742080   -2.114720
  C      4.265240    2.500520   -0.795890
  H      4.868530    3.392670   -0.981130
  H      3.307640    2.824570   -0.387810
  C      4.982240    1.650260    0.247420
  O      4.368060    1.389270    1.313710
  F      6.128920    1.233510   -0.045620
  H      3.579110    2.368490   -2.819970
  H      3.504240    0.859650   -1.941980
  H      5.042880    1.468410   -2.503270

 Total Charge           Charge          ....    0
 Multiplicity           Mult            ....    1
 Number of Electrons    NEL             ....   40
 Basis Dimension        Dim             ....   95

ORBITAL ENERGIES
----------------

  NO   OCC          E(Eh)            E(eV)
   0   2.0000     -24.840554      -675.9458
   1   2.0000     -19.209954      -522.7294
   2   2.0000     -10.401309      -283.0340
   3   2.0000     -10.259891      -279.1858
   4   2.0000     -10.241696      -278.6907
   5   2.0000      -1.330372       -36.2013
   6   2.0000      -1.041586       -28.3430
   7   2.0000      -0.819832       -22.3088
   8   2.0000      -0.698442       -19.0056
   9   2.0000      -0.655502       -17.8371
  10   2.0000      -0.563580       -15.3358
  11   2.0000      -0.551662       -15.0115
  12   2.0000      -0.510974       -13.9043
  13   2.0000      -0.476711       -12.9720
  14   2.0000      -0.446265       -12.1435
  15   2.0000      -0.413895       -11.2627
  16   2.0000      -0.393050       -10.6954
  17   2.0000      -0.387139       -10.5346
  18   2.0000      -0.357520        -9.7286
  19   2.0000      -0.294954        -8.0261
  20   0.0000      -0.013411        -0.3649
  21   0.0000       0.068243         1.8570
  22   0.0000       0.112623         3.0646
  23   0.0000       0.120302         3.2736
  24   0.0000       0.141281         3.8445

MULLIKEN ATOMIC CHARGES
-----------------------
   0 C :   -0.080282
   1 C :   -0.132706
   2 H :    0.067497
   3 H :    0.075063
   4 C :    0.274630
   5 O :   -0.277004
   6 F :   -0.088984
   7 H :    0.053685
   8 H :    0.056678
   9 H :    0.051424
Sum of atomic charges:   -0.0000000

LOEWDIN ATOMIC CHARGES
----------------------
   0 C :   -0.054454
   1 C :   -0.076793
   2 H :    0.043689
   3 H :    0.047537
   4 C :    0.106332
   5 O :   -0.200818
   6 F :    0.040746
   7 H :    0.033678
   8 H :    0.031646
   9 H :    0.028437

  Mayer bond orders larger than 0.100000
B(  0-C ,  1-C ) :   1.0655 B(  0-C ,  7-H ) :   0.9699 B(  0-C ,  8-H ) :   0.9760
B(  0-C ,  9-H ) :   0.9729 B(  1-C ,  2-H ) :   0.9306 B(  1-C ,  3-H ) :   0.9504
B(  1-C ,  4-C ) :   1.0060 B(  4-C ,  5-O ) :   2.0649 B(  4-C ,  6-F ) :   1.1726

Dispersion correction           -0.005152739
FINAL SINGLE POINT ENERGY      -291.862992320894

DIPOLE MOMENT
-------------
                                X             Y             Z
Electronic contribution:      4.86175      -2.33120       5.92171
Nuclear contribution   :     -4.79499       2.78546      -7.01827
                        -----------------------------------------
Total Dipole Moment    :      0.06675       0.45426      -1.09656
                        -----------------------------------------
Magnitude (a.u.)       :      1.18881
Magnitude (Debye)      :      3.02170

Rotational constants in cm-1:     0.286098     0.133492     0.103343
Rotational constants in MHz :  8577.003657  4001.981591  3098.148068

                             ****ORCA TERMINATED NORMALLY****
TOTAL RUN TIME: 0 days 0 hours 0 minutes 5 seconds 10 msec
