                         Program Version 5.0.0 -  RELEASE  -
|  1> !PBE0 D3BJ RIJCOSX def2-SVP def2/J TightSCF
|  2> *xyz 0 1
|  3> C          3.91385       -1.65829        3.01513
|  4> N          5.03927       -0.90115        2.49282
|  5> C          6.21038       -1.41726        2.17824
|  6> C          6.53591       -2.67712        2.55608
|  7> N          7.07675       -0.70082        1.47891
|  8> H          7.95464       -1.12155        1.20755
|  9> H          6.75616        0.10664        0.96028
| 10> H          4.84217        0.01761        2.11519
| 11> H          5.99388       -3.12692        3.28278
| 12> C          3.13916       -2.37657        1.91061
| 13> H          3.26723       -0.93940        3.52069
| 14> H          4.24720       -2.35509        3.79006
| 15> H          7.49844       -2.97548        2.46878
| 16> H          2.82969       -1.66654        1.17238
| 17> H          2.27790       -2.85264        2.33072
| 18> H          3.76754       -3.11338        1.45548
| 19> *
| 20> %MaxCore 64000
| 21> %pal nprocs 8
| 22> end
| 23> %scf
| 24>   MaxIter 150
| 25> end
| 26>
| 27>
| 28>                          ****END OF INPUT****

CARTESIAN COORDINATES (ANGSTROEM)
---------------------------------
  C      3.913850   -1.658290    3.015130
  N      5.039270   -0.901150    2.492820
  C      6.210380   -1.417260    2.178240
  C      6.535910   -2.677120    2.556080
  N      7.076750   -0.700820    1.478910
  H      7.954640   -1.121550    1.207550
  H      6.756160    0.106640    0.960280
  H      4.842170    0.017610    2.115190
  H      5.993880   -3.126920    3.282780
  C      3.139160   -2.376570    1.910610
  H      3.267230   -0.939400    3.520690
  H      4.247200   -2.355090    3.790060
  H      7.498440   -2.975480    2.468780
  H      2.829690   -1.666540    1.172380
  H      2.277900   -2.852640    2.330720
  H      3.767540   -3.113380    1.455480

 Total Charge           Charge          ....    0
 Multiplicity           Mult            ....    1
 Number of Electrons    NEL             ....   48
 Basis Dimension        Dim             ....  134

ORBITAL ENERGIES
----------------

  NO   OCC          E(Eh)            E(eV)
   0   2.0000     -14.392551      -391.6412
   1   2.0000     -14.389142      -391.5484
   2   2.0000     -10.271888      -279.5123
   3   2.0000     -10.261484      -279.2292
   4   2.0000     -10.210837      -277.8510
   5   2.0000     -10.135817      -275.8096
   6   2.0000      -0.985792       -26.8248
   7   2.0000      -0.900213       -24.4960
   8   2.0000      -0.765826       -20.8392
   9   2.0000      -0.713775       -19.4228
  10   2.0000      -0.652007       -17.7420
  11   2.0000      -0.573131       -15.5957
  12   2.0000      -0.561645       -15.2831
  13   2.0000      -0.528982       -14.3943
  14   2.0000      -0.476861       -12.9760
  15   2.0000      -0.448794       -12.2123
  16   2.0000      -0.427758       -11.6399
  17   2.0000      -0.405478       -11.0336
  18   2.0000      -0.386017       -10.5041
  19   2.0000      -0.372163       -10.1271
  20   2.0000      -0.369977       -10.0676
  21   2.0000      -0.352587        -9.5944
  22   2.0000      -0.256825        -6.9886
  23   2.0000      -0.163671        -4.4537
  24   0.0000       0.054362         1.4793
  25   0.0000       0.085656         2.3308
  26   0.0000       0.096973         2.6388
  27   0.0000       0.107175         2.9164
  28   0.0000       0.126035         3.4296

MULLIKEN ATOMIC CHARGES
-----------------------
   0 C :    0.034965
   1 N :   -0.211099
   2 C :    0.003778
   3 C :   -0.140029
   4 N :   -0.120974
   5 H :    0.136304
   6 H :    0.110973
   7 H :    0.110975
   8 H :   -0.032301
   9 C :   -0.035800
  10 H :    0.029295
  11 H :    0.055818
  12 H :   -0.043569
  13 H :    0.019691
  14 H :    0.030320
  15 H :    0.051655
Sum of atomic charges:    0.0000000

LOEWDIN ATOMIC CHARGES
----------------------
   0 C :    0.035659
   1 N :   -0.026648
   2 C :    0.032315
   3 C :   -0.283387
   4 N :   -0.020742
   5 H :    0.086684
   6 H :    0.065169
   7 H :    0.067216
   8 H :   -0.007607
   9 C :   -0.070969
  10 H :    0.023111
  11 H :    0.032074
  12 H :   -0.008628
  13 H :    0.018986
  14 H :    0.025174
  15 H :    0.031592

  Mayer bond orders larger than 0.100000
B(  0-C ,  1-N ) :   0.9975 B(  0-C ,  9-C ) :   1.0911 B(  0-C , 10-H ) :   0.9581
B(  0-C , 11-H ) :   0.9459 B(  1-N ,  2-C ) :   1.1839 B(  1-N ,  7-H ) :   0.9364
B(  2-C ,  3-C ) :   1.7114 B(  2-C ,  4-N ) :   1.2370 B(  3-C ,  8-H ) :   0.9448
B(  3-C , 12-H ) :   0.9455 B(  4-N ,  5-H ) :   0.9435 B(  4-N ,  6-H ) :   0.9501
B(  9-C , 13-H ) :   0.9692 B(  9-C , 14-H ) :   0.9660 B(  9-C , 15-H ) :   0.9654

Dispersion correction           -0.010867221
FINAL SINGLE POINT ENERGY      -267.401585343046

DIPOLE MOMENT
-------------
                                X             Y             Z
Electronic contribution:      3.11095       2.91163      -0.26524
Nuclear contribution   :     -3.42552      -1.84584      -0.22295
                        -----------------------------------------
Total Dipole Moment    :     -0.31457       1.06579      -0.48819
                        -----------------------------------------
Magnitude (a.u.)       :      1.21376
Magnitude (Debye)      :      3.08512

Rotational constants in cm-1:     0.233526     0.075277     0.067092
Rotational constants in MHz :  7000.931279  2256.752901  2011.361214

                             ****ORCA TERMINATED NORMALLY****
TOTAL RUN TIME: 0 days 0 hours 0 minutes 7 seconds 444 msec
