                         Program Version 5.0.0 -  RELEASE  -
|  1> !PBE0 D3BJ RIJCOSX def2-SVP def2/J TightSCF
|  2> *xyz 0 1
|  3> C          3.91385       -1.65829        3.01513
|  4> N          5.03927       -0.90115        2.49282
|  5> C          6.21038       -1.41726        2.17824
|  6> N          6.53591       -2.67712        2.55608
|  7> C          7.07675       -0.70082        1.47891
|  8> H          7.95464       -1.12155        1.20755
|  9> H          6.75616        0.10664        0.96028
| 10> H          4.84217        0.01761        2.11519
| 11> H          5.99388       -3.12692        3.28278
| 12> C          3.13916       -2.37657        1.91061
| 13> H          3.26723       -0.93940        3.52069
| 14> H          4.24720       -2.35509        3.79006
| 15> H          7.49844       -2.97548        2.46878
| 16> H          2.82969       -1.66654        1.17238
| 17> H          2.27790       -2.85264        2.33072
| 18> H          3.76754       -3.11338        1.45548
| 19> *
| 20> %MaxCore 64000
| 21> %pal nprocs 8
| 22> end
| 23> %scf
| 24>   MaxIter 150
| 25> end
| 26>
| 27>
| 28>                          ****END OF INPUT****

CARTESIAN COORDINATES (ANGSTROEM)
---------------------------------
  C      3.913850   -1.658290    3.015130
  N      5.039270   -0.901150    2.492820
  C      6.210380   -1.417260    2.178240
  N      6.535910   -2.677120    2.556080
  C      7.076750   -0.700820    1.478910
  H      7.954640   -1.121550    1.207550
  H      6.756160    0.106640    0.960280
  H      4.842170    0.017610    2.115190
  H      5.993880   -3.126920    3.282780
  C      3.139160   -2.376570    1.910610
  H      3.267230   -0.939400    3.520690
  H      4.247200   -2.355090    3.790060
  H      7.498440   -2.975480    2.468780
  H      2.829690   -1.666540    1.172380
  H      2.277900   -2.852640    2.330720
  H      3.767540   -3.113380    1.455480

 Total Charge           Charge          ....    0
 Multiplicity           Mult            ....    1
 Number of Electrons    NEL             ....   48
 Basis Dimension        Dim             ....  134

ORBITAL ENERGIES
----------------

  NO   OCC          E(Eh)            E(eV)
   0   2.0000     -14.389295      -391.5526
   1   2.0000     -14.386662      -391.4810
   2   2.0000     -10.270955      -279.4869
   3   2.0000     -10.268972      -279.4329
   4   2.0000     -10.219357      -278.0828
   5   2.0000     -10.136028      -275.8153
   6   2.0000      -0.981203       -26.6999
   7   2.0000      -0.892667       -24.2907
   8   2.0000      -0.783952       -21.3324
   9   2.0000      -0.711679       -19.3658
  10   2.0000      -0.640023       -17.4159
  11   2.0000      -0.609718       -16.5913
  12   2.0000      -0.545017       -14.8307
  13   2.0000      -0.507817       -13.8184
  14   2.0000      -0.487437       -13.2638
  15   2.0000      -0.450277       -12.2527
  16   2.0000      -0.441167       -12.0048
  17   2.0000      -0.413319       -11.2470
  18   2.0000      -0.388037       -10.5590
  19   2.0000      -0.379547       -10.3280
  20   2.0000      -0.368135       -10.0175
  21   2.0000      -0.363898        -9.9022
  22   2.0000      -0.259650        -7.0654
  23   2.0000      -0.164728        -4.4825
  24   0.0000       0.054286         1.4772
  25   0.0000       0.079699         2.1687
  26   0.0000       0.094190         2.5630
  27   0.0000       0.109148         2.9701
  28   0.0000       0.118506         3.2247

MULLIKEN ATOMIC CHARGES
-----------------------
   0 C :    0.007391
   1 N :   -0.193356
   2 C :    0.013914
   3 N :   -0.153025
   4 C :   -0.118348
   5 H :   -0.041448
   6 H :   -0.037490
   7 H :    0.133103
   8 H :    0.110968
   9 C :   -0.030128
  10 H :    0.036903
  11 H :    0.031920
  12 H :    0.134202
  13 H :    0.033660
  14 H :    0.029519
  15 H :    0.042213
Sum of atomic charges:    0.0000000

LOEWDIN ATOMIC CHARGES
----------------------
   0 C :    0.022059
   1 N :   -0.026601
   2 C :    0.035358
   3 N :   -0.037356
   4 C :   -0.262863
   5 H :   -0.006866
   6 H :   -0.006465
   7 H :    0.086890
   8 H :    0.061974
   9 C :   -0.073465
  10 H :    0.027019
  11 H :    0.018950
  12 H :    0.084931
  13 H :    0.025252
  14 H :    0.024137
  15 H :    0.027048

  Mayer bond orders larger than 0.100000
B(  0-C ,  1-N ) :   1.0174 B(  0-C ,  9-C ) :   1.0709 B(  0-C , 10-H ) :   0.9557
B(  0-C , 11-H ) :   0.9531 B(  1-N ,  2-C ) :   1.1998 B(  1-N ,  7-H ) :   0.9266
B(  2-C ,  3-N ) :   1.1995 B(  2-C ,  4-C ) :   1.7509 B(  3-N ,  8-H ) :   0.9497
B(  3-N , 12-H ) :   0.9436 B(  4-C ,  5-H ) :   0.9434 B(  4-C ,  6-H ) :   0.9452
B(  9-C , 13-H ) :   0.9695 B(  9-C , 14-H ) :   0.9636 B(  9-C , 15-H ) :   0.9675

Dispersion correction           -0.010806995
FINAL SINGLE POINT ENERGY      -267.402153125806

DIPOLE MOMENT
-------------
                                X             Y             Z
Electronic contribution:      2.55781       0.89089       1.00672
Nuclear contribution   :     -3.31079      -1.42658      -0.45147
                        -----------------------------------------
Total Dipole Moment    :     -0.75298      -0.53569       0.55525
                        -----------------------------------------
Magnitude (a.u.)       :      1.07807
Magnitude (Debye)      :      2.74024

Rotational constants in cm-1:     0.225507     0.077571     0.068070
Rotational constants in MHz :  6760.542142  2325.533779  2040.680522

                             ****ORCA TERMINATED NORMALLY****
TOTAL RUN TIME: 0 days 0 hours 0 minutes 7 seconds 78 msec
