                         Program Version 5.0.0 -  RELEASE  -
|  1> !PBE0 D3BJ RIJCOSX def2-TZVP def2/J TightSCF xyzfile
|  2>
|  3> *xyzfile 0 1 D1.xyz
|  4>
|  5> %MaxCore 64000
|  6>
|  7> %pal nprocs 18
|  8> end
|  9>
| 10> %scf
| 11>   MaxIter 150
| 12> end
| 13>
| 14>
| 15>                          ****END OF INPUT****

CARTESIAN COORDINATES (ANGSTROEM)
---------------------------------
  C      3.913853   -1.658291    3.015134
  C      5.039266   -0.901154    2.492821
  C      4.084215    1.742081   -2.114724
  C      4.265245    2.500518   -0.795890
  H      4.868534    3.392674   -0.981134
  H      3.307640    2.824571   -0.387809
  C      4.982240    1.650257    0.247422
  C      6.210384   -1.417261    2.178244
  N      6.535913   -2.677122    2.556078
  N      7.076754   -0.700820    1.478906
  H      7.954643   -1.121554    1.207554
  H      6.756161    0.106637    0.960278
  H      4.842168    0.017609    2.115191
  H      5.993876   -3.126918    3.282784
  H      7.498441   -2.975482    2.468776
  F      4.368065    1.389270    1.313706
  O      6.128919    1.233512   -0.045620
  C      3.139159   -2.376572    1.910609
  H      3.267235   -0.939401    3.520693
  H      4.247195   -2.355095    3.790065
  C      1.997274    0.430918   -1.399218
  C      3.412746    0.376886   -1.965497
  H      4.047407   -0.246590   -1.326706
  H      3.390774   -0.118719   -2.942839
  H      5.068475    1.598504   -2.565728
  H      3.503356    2.363939   -2.804565
  C      2.399946   -1.389579    1.009490
  H      2.440750   -3.087118    2.362976
  H      3.844475   -2.970462    1.318677
  C      2.070177   -1.936705   -0.372401
  H      1.481611   -1.061542    1.509912
  H      3.008628   -0.490001    0.897451
  C      1.322238   -0.935775   -1.256413
  H      1.472747   -2.850902   -0.283997
  H      3.003539   -2.234041   -0.862535
  H      1.376444    1.058920   -2.047420
  H      2.015341    0.929780   -0.426535
  H      0.316648   -0.787213   -0.848278
  H      1.185611   -1.379252   -2.248613

 Total Charge           Charge          ....    0
 Multiplicity           Mult            ....    1
 Number of Electrons    NEL             ....  126
 Basis Dimension        Dim             ....  634

ORBITAL ENERGIES
----------------

  NO   OCC          E(Eh)            E(eV)
   0   2.0000     -24.854509      -676.3256
   1   2.0000     -19.232820      -523.3516
   2   2.0000     -14.365197      -390.8969
   3   2.0000     -14.339956      -390.2100
   4   2.0000     -10.418341      -283.4975
   5   2.0000     -10.258866      -279.1579
   6   2.0000     -10.240822      -278.6669
   7   2.0000     -10.239618      -278.6342
   8   2.0000     -10.223249      -278.1888
   9   2.0000     -10.218044      -278.0471
  10   2.0000     -10.211856      -277.8787
  11   2.0000     -10.203772      -277.6587
  12   2.0000     -10.196863      -277.4707
  13   2.0000     -10.188230      -277.2358
  14   2.0000     -10.183092      -277.0960
  15   2.0000     -10.115057      -275.2447
  16   2.0000      -1.368916       -37.2501
  17   2.0000      -1.089949       -29.6590
  18   2.0000      -0.962549       -26.1923
  19   2.0000      -0.870508       -23.6877
  20   2.0000      -0.855827       -23.2882
  21   2.0000      -0.826219       -22.4826
  22   2.0000      -0.797285       -21.6952
  23   2.0000      -0.767954       -20.8971
  24   2.0000      -0.730065       -19.8661
  25   2.0000      -0.708318       -19.2743
  26   2.0000      -0.681430       -18.5427
  27   2.0000      -0.654601       -17.8126
  28   2.0000      -0.622119       -16.9287
  29   2.0000      -0.604439       -16.4476
  30   2.0000      -0.584100       -15.8942
  31   2.0000      -0.575592       -15.6627
  32   2.0000      -0.574109       -15.6223
  33   2.0000      -0.567681       -15.4474
  34   2.0000      -0.542082       -14.7508
  35   2.0000      -0.529613       -14.4115
  36   2.0000      -0.502570       -13.6756
  37   2.0000      -0.494121       -13.4457
  38   2.0000      -0.490615       -13.3503
  39   2.0000      -0.472777       -12.8649
  40   2.0000      -0.460179       -12.5221
  41   2.0000      -0.450607       -12.2616
  42   2.0000      -0.440340       -11.9823
  43   2.0000      -0.430419       -11.7123
  44   2.0000      -0.427148       -11.6233
  45   2.0000      -0.420585       -11.4447
  46   2.0000      -0.403844       -10.9892
  47   2.0000      -0.400082       -10.8868
  48   2.0000      -0.382435       -10.4066
  49   2.0000      -0.377522       -10.2729
  50   2.0000      -0.373519       -10.1640
  51   2.0000      -0.371825       -10.1179
  52   2.0000      -0.359735        -9.7889
  53   2.0000      -0.348616        -9.4863
  54   2.0000      -0.346182        -9.4201
  55   2.0000      -0.333507        -9.0752
  56   2.0000      -0.322291        -8.7700
  57   2.0000      -0.318440        -8.6652
  58   2.0000      -0.313596        -8.5334
  59   2.0000      -0.308630        -8.3983
  60   2.0000      -0.302184        -8.2229
  61   2.0000      -0.253871        -6.9082
  62   2.0000      -0.150619        -4.0985
  63   0.0000      -0.043275        -1.1776
  64   0.0000       0.037349         1.0163
  65   0.0000       0.047678         1.2974
  66   0.0000       0.056298         1.5320
  67   0.0000       0.058743         1.5985

MULLIKEN ATOMIC CHARGES
-----------------------
   0 C :   -0.184814
   1 C :   -0.414257
   2 C :   -0.159617
   3 C :   -0.211925
   4 H :    0.145687
   5 H :    0.138767
   6 C :    0.381915
   7 C :    0.277669
   8 N :   -0.480646
   9 N :   -0.466246
  10 H :    0.203021
  11 H :    0.251500
  12 H :    0.125358
  13 H :    0.236174
  14 H :    0.214901
  15 F :   -0.084899
  16 O :   -0.368139
  17 C :   -0.083456
  18 H :    0.079290
  19 H :    0.076867
  20 C :   -0.256321
  21 C :   -0.278676
  22 H :    0.149826
  23 H :    0.107208
  24 H :    0.126466
  25 H :    0.110642
  26 C :   -0.240163
  27 H :    0.077232
  28 H :    0.093446
  29 C :   -0.213092
  30 H :    0.089289
  31 H :    0.063574
  32 C :   -0.141163
  33 H :    0.101546
  34 H :    0.112272
  35 H :    0.103077
  36 H :    0.120047
  37 H :    0.098665
  38 H :    0.098980
Sum of atomic charges:    0.0000000

LOEWDIN ATOMIC CHARGES
----------------------
   0 C :   -0.292453
   1 C :   -0.297025
   2 C :   -0.257410
   3 C :   -0.230503
   4 H :    0.161218
   5 H :    0.145454
   6 C :   -0.475649
   7 C :   -0.465135
   8 N :   -0.030204
   9 N :   -0.012664
  10 H :    0.155541
  11 H :    0.144692
  12 H :    0.114909
  13 H :    0.169176
  14 H :    0.158036
  15 F :    0.348845
  16 O :    0.088992
  17 C :   -0.262735
  18 H :    0.141697
  19 H :    0.126845
  20 C :   -0.275694
  21 C :   -0.270186
  22 H :    0.145495
  23 H :    0.142203
  24 H :    0.147168
  25 H :    0.142719
  26 C :   -0.272594
  27 H :    0.126306
  28 H :    0.139471
  29 C :   -0.275824
  30 H :    0.135133
  31 H :    0.134826
  32 C :   -0.270953
  33 H :    0.137247
  34 H :    0.136799
  35 H :    0.137295
  36 H :    0.134649
  37 H :    0.137902
  38 H :    0.136411

  Mayer bond orders larger than 0.100000
B(  0-C ,  1-C ) :   1.0487 B(  0-C , 17-C ) :   0.9529 B(  0-C , 18-H ) :   0.9610
B(  0-C , 19-H ) :   0.9720 B(  1-C ,  7-C ) :   1.6732 B(  1-C , 12-H ) :   1.0113
B(  2-C ,  3-C ) :   0.9821 B(  2-C , 21-C ) :   1.0067 B(  2-C , 24-H ) :   0.9522
B(  2-C , 25-H ) :   0.9531 B(  3-C ,  4-H ) :   0.9328 B(  3-C ,  5-H ) :   0.9634
B(  3-C ,  6-C ) :   0.9954 B(  6-C , 15-F ) :   1.1512 B(  6-C , 16-O ) :   1.9162
B(  7-C ,  8-N ) :   1.1592 B(  7-C ,  9-N ) :   1.2223 B(  8-N , 13-H ) :   0.9105
B(  8-N , 14-H ) :   0.9206 B(  9-N , 10-H ) :   0.9258 B(  9-N , 11-H ) :   0.8494
B( 11-H , 16-O ) :   0.1250 B( 17-C , 26-C ) :   1.0421 B( 17-C , 27-H ) :   0.9457
B( 17-C , 28-H ) :   0.9581 B( 20-C , 21-C ) :   0.9869 B( 20-C , 32-C ) :   0.9997
B( 20-C , 35-H ) :   0.9523 B( 20-C , 36-H ) :   0.9659 B( 21-C , 22-H ) :   0.9598
B( 21-C , 23-H ) :   0.9538 B( 26-C , 29-C ) :   1.0052 B( 26-C , 30-H ) :   0.9484
B( 26-C , 31-H ) :   0.9730 B( 29-C , 32-C ) :   0.9990 B( 29-C , 33-H ) :   0.9585
B( 29-C , 34-H ) :   0.9676 B( 32-C , 37-H ) :   0.9614 B( 32-C , 38-H ) :   0.9610

Dispersion correction           -0.038993874
FINAL SINGLE POINT ENERGY      -755.106072477294

DIPOLE MOMENT
-------------
                                X             Y             Z
Electronic contribution:     11.40396       8.94307       5.89404
Nuclear contribution   :    -11.48003      -8.36271      -6.78621
                        -----------------------------------------
Total Dipole Moment    :     -0.07607       0.58036      -0.89217
                        -----------------------------------------
Magnitude (a.u.)       :      1.06704
Magnitude (Debye)      :      2.71220

Rotational constants in cm-1:     0.020055     0.013548     0.009477
Rotational constants in MHz :   601.234832   406.162779   284.104317

                             ****ORCA TERMINATED NORMALLY****
TOTAL RUN TIME: 0 days 0 hours 1 minutes 22 seconds 949 msec
