                         Program Version 5.0.0 -  RELEASE  -
|  1> !PBE0 D3BJ RIJCOSX def2-TZVP def2/J TightSCF xyzfile
|  2>
|  3> *xyzfile 0 1 D6.xyz
|  4>
|  5> %MaxCore 64000
|  6>
|  7> %pal nprocs 18
|  8> end
|  9>
| 10> %scf
| 11>   MaxIter 150
| 12> end
| 13>
| 14>
| 15>                          ****END OF INPUT****

CARTESIAN COORDINATES (ANGSTROEM)
---------------------------------
  C      3.913853   -1.658291    3.015134
  N      5.039266   -0.901154    2.492821
  C      4.084215    1.742081   -2.114724
  C      4.265245    2.500518   -0.795890
  H      4.868534    3.392674   -0.981134
  H      3.307640    2.824571   -0.387809
  C      4.982240    1.650257    0.247422
  C      6.210384   -1.417261    2.178244
  N      6.535913   -2.677122    2.556078
  C      7.076754   -0.700820    1.478906
  H      7.954643   -1.121554    1.207554
  H      6.756161    0.106637    0.960278
  H      4.842168    0.017609    2.115191
  H      5.993876   -3.126918    3.282784
  H      7.498441   -2.975482    2.468776
  O      4.368065    1.389270    1.313706
  F      6.128919    1.233512   -0.045620
  C      3.139159   -2.376572    1.910609
  H      3.267235   -0.939401    3.520693
  H      4.247195   -2.355095    3.790065
  C      1.997274    0.430918   -1.399218
  C      3.412746    0.376886   -1.965497
  H      4.047407   -0.246590   -1.326706
  H      3.390774   -0.118719   -2.942839
  H      5.068475    1.598504   -2.565728
  H      3.503356    2.363939   -2.804565
  C      2.399946   -1.389579    1.009490
  H      2.440750   -3.087118    2.362976
  H      3.844475   -2.970462    1.318677
  C      2.070177   -1.936705   -0.372401
  H      1.481611   -1.061542    1.509912
  H      3.008628   -0.490001    0.897451
  C      1.322238   -0.935775   -1.256413
  H      1.472747   -2.850902   -0.283997
  H      3.003539   -2.234041   -0.862535
  H      1.376444    1.058920   -2.047420
  H      2.015341    0.929780   -0.426535
  H      0.316648   -0.787213   -0.848278
  H      1.185611   -1.379252   -2.248613

 Total Charge           Charge          ....    0
 Multiplicity           Mult            ....    1
 Number of Electrons    NEL             ....  126
 Basis Dimension        Dim             ....  634

ORBITAL ENERGIES
----------------

  NO   OCC          E(Eh)            E(eV)
   0   2.0000     -24.853843      -676.3074
   1   2.0000     -19.232745      -523.3496
   2   2.0000     -14.363342      -390.8464
   3   2.0000     -14.347697      -390.4207
   4   2.0000     -10.418342      -283.4975
   5   2.0000     -10.259300      -279.1697
   6   2.0000     -10.243896      -278.7506
   7   2.0000     -10.242942      -278.7246
   8   2.0000     -10.239427      -278.6290
   9   2.0000     -10.227706      -278.3100
  10   2.0000     -10.219793      -278.0947
  11   2.0000     -10.215864      -277.9878
  12   2.0000     -10.210204      -277.8338
  13   2.0000     -10.205005      -277.6923
  14   2.0000     -10.204522      -277.6791
  15   2.0000     -10.102547      -274.9043
  16   2.0000      -1.369623       -37.2693
  17   2.0000      -1.087849       -29.6019
  18   2.0000      -0.971120       -26.4255
  19   2.0000      -0.886672       -24.1276
  20   2.0000      -0.860235       -23.4082
  21   2.0000      -0.829004       -22.5584
  22   2.0000      -0.797814       -21.7096
  23   2.0000      -0.761102       -20.7106
  24   2.0000      -0.735150       -20.0044
  25   2.0000      -0.700090       -19.0504
  26   2.0000      -0.692744       -18.8505
  27   2.0000      -0.658828       -17.9276
  28   2.0000      -0.628819       -17.1110
  29   2.0000      -0.612194       -16.6587
  30   2.0000      -0.590978       -16.0813
  31   2.0000      -0.584909       -15.9162
  32   2.0000      -0.580167       -15.7871
  33   2.0000      -0.568747       -15.4764
  34   2.0000      -0.539888       -14.6911
  35   2.0000      -0.523866       -14.2551
  36   2.0000      -0.500677       -13.6241
  37   2.0000      -0.498174       -13.5560
  38   2.0000      -0.488447       -13.2913
  39   2.0000      -0.476152       -12.9568
  40   2.0000      -0.468822       -12.7573
  41   2.0000      -0.449970       -12.2443
  42   2.0000      -0.445187       -12.1142
  43   2.0000      -0.436402       -11.8751
  44   2.0000      -0.430072       -11.7028
  45   2.0000      -0.423091       -11.5129
  46   2.0000      -0.407047       -11.0763
  47   2.0000      -0.398039       -10.8312
  48   2.0000      -0.393576       -10.7097
  49   2.0000      -0.387767       -10.5517
  50   2.0000      -0.379197       -10.3185
  51   2.0000      -0.366571        -9.9749
  52   2.0000      -0.364718        -9.9245
  53   2.0000      -0.354516        -9.6469
  54   2.0000      -0.351569        -9.5667
  55   2.0000      -0.346237        -9.4216
  56   2.0000      -0.336065        -9.1448
  57   2.0000      -0.324631        -8.8336
  58   2.0000      -0.322881        -8.7860
  59   2.0000      -0.318686        -8.6719
  60   2.0000      -0.311781        -8.4840
  61   2.0000      -0.244229        -6.6458
  62   2.0000      -0.152270        -4.1435
  63   0.0000      -0.041476        -1.1286
  64   0.0000       0.034032         0.9261
  65   0.0000       0.048534         1.3207
  66   0.0000       0.053103         1.4450
  67   0.0000       0.056365         1.5338

MULLIKEN ATOMIC CHARGES
-----------------------
   0 C :   -0.171866
   1 N :   -0.281662
   2 C :   -0.189489
   3 C :   -0.207799
   4 H :    0.141725
   5 H :    0.149785
   6 C :    0.388284
   7 C :    0.300647
   8 N :   -0.486497
   9 C :   -0.544067
  10 H :    0.075026
  11 H :    0.093232
  12 H :    0.244667
  13 H :    0.218589
  14 H :    0.237507
  15 O :   -0.381532
  16 F :   -0.079137
  17 C :   -0.090553
  18 H :    0.113562
  19 H :    0.102825
  20 C :   -0.260126
  21 C :   -0.260989
  22 H :    0.140287
  23 H :    0.109824
  24 H :    0.127090
  25 H :    0.114298
  26 C :   -0.282207
  27 H :    0.088941
  28 H :    0.104624
  29 C :   -0.212349
  30 H :    0.089399
  31 H :    0.093696
  32 C :   -0.144932
  33 H :    0.103427
  34 H :    0.115729
  35 H :    0.103619
  36 H :    0.135410
  37 H :    0.100225
  38 H :    0.100789
Sum of atomic charges:   -0.0000000

LOEWDIN ATOMIC CHARGES
----------------------
   0 C :   -0.298068
   1 N :    0.128553
   2 C :   -0.263798
   3 C :   -0.227272
   4 H :    0.155769
   5 H :    0.155510
   6 C :   -0.474532
   7 C :   -0.469874
   8 N :   -0.027730
   9 C :   -0.368723
  10 H :    0.092565
  11 H :    0.086834
  12 H :    0.167739
  13 H :    0.156469
  14 H :    0.172670
  15 O :    0.076577
  16 F :    0.360101
  17 C :   -0.272476
  18 H :    0.137005
  19 H :    0.123845
  20 C :   -0.273826
  21 C :   -0.269205
  22 H :    0.144002
  23 H :    0.142423
  24 H :    0.144046
  25 H :    0.143965
  26 C :   -0.274812
  27 H :    0.132160
  28 H :    0.142245
  29 C :   -0.275500
  30 H :    0.136695
  31 H :    0.139227
  32 C :   -0.270202
  33 H :    0.137298
  34 H :    0.137670
  35 H :    0.137641
  36 H :    0.139706
  37 H :    0.138430
  38 H :    0.136873

  Mayer bond orders larger than 0.100000
B(  0-C ,  1-N ) :   1.0067 B(  0-C , 17-C ) :   0.9466 B(  0-C , 18-H ) :   0.9690
B(  0-C , 19-H ) :   0.9789 B(  1-N ,  7-C ) :   1.2563 B(  1-N , 12-H ) :   0.8582
B(  2-C ,  3-C ) :   0.9718 B(  2-C , 21-C ) :   0.9924 B(  2-C , 24-H ) :   0.9608
B(  2-C , 25-H ) :   0.9520 B(  3-C ,  4-H ) :   0.9337 B(  3-C ,  5-H ) :   0.9676
B(  3-C ,  6-C ) :   1.0053 B(  6-C , 15-O ) :   1.9041 B(  6-C , 16-F ) :   1.1486
B(  7-C ,  8-N ) :   1.1409 B(  7-C ,  9-C ) :   1.6571 B(  8-N , 13-H ) :   0.9132
B(  8-N , 14-H ) :   0.9191 B(  9-C , 10-H ) :   0.9926 B(  9-C , 11-H ) :   1.0102
B( 12-H , 15-O ) :   0.1129 B( 17-C , 26-C ) :   1.0096 B( 17-C , 27-H ) :   0.9451
B( 17-C , 28-H ) :   0.9548 B( 20-C , 21-C ) :   0.9859 B( 20-C , 32-C ) :   0.9958
B( 20-C , 35-H ) :   0.9511 B( 20-C , 36-H ) :   0.9655 B( 21-C , 22-H ) :   0.9614
B( 21-C , 23-H ) :   0.9540 B( 26-C , 29-C ) :   0.9992 B( 26-C , 30-H ) :   0.9493
B( 26-C , 31-H ) :   0.9838 B( 29-C , 32-C ) :   1.0005 B( 29-C , 33-H ) :   0.9591
B( 29-C , 34-H ) :   0.9671 B( 32-C , 37-H ) :   0.9617 B( 32-C , 38-H ) :   0.9615

Dispersion correction           -0.038962809
FINAL SINGLE POINT ENERGY      -755.095757663712

DIPOLE MOMENT
-------------
                                X             Y             Z
Electronic contribution:     12.41550       8.51236       4.40282
Nuclear contribution   :    -13.25777      -8.13937      -5.31678
                        -----------------------------------------
Total Dipole Moment    :     -0.84226       0.37299      -0.91396
                        -----------------------------------------
Magnitude (a.u.)       :      1.29763
Magnitude (Debye)      :      3.29831

Rotational constants in cm-1:     0.020021     0.013636     0.009443
Rotational constants in MHz :   600.208195   408.782966   283.102361

                             ****ORCA TERMINATED NORMALLY****
TOTAL RUN TIME: 0 days 0 hours 1 minutes 43 seconds 46 msec
