                         Program Version 5.0.0 -  RELEASE  -
|  1> !LC-BLYP RIJCOSX def2-SVPD def2/J TightSCF
|  2> *xyz -1 1
|  3> C         -0.81136       -2.90878       -4.60763
|  4> C         -1.91658       -2.48508       -3.64367
|  5> H         -2.55452       -1.71243       -4.09199
|  6> C         -1.36353       -1.98134       -2.29361
|  7> H         -2.55345       -3.35567       -3.45881
|  8> O         -0.35039       -2.74969       -1.79601
|  9> H         -2.22622       -1.90839       -1.60204
| 10> H         -1.05135       -0.91567       -2.44333
| 11> H         -1.24783       -3.24801       -5.52377
| 12> H         -0.24047       -3.70079       -4.16978
| 13> H         -0.17107       -2.07453       -4.80501
| 14> *
| 15>
| 16> %MaxCore 64000
| 17> %pal nprocs 4
| 18> end
| 19>
| 20> %scf
| 21>   MaxIter 150
| 22> end
| 23>
| 24>
| 25>                          ****END OF INPUT****

CARTESIAN COORDINATES (ANGSTROEM)
---------------------------------
  C     -0.811360   -2.908780   -4.607630
  C     -1.916580   -2.485080   -3.643670
  H     -2.554520   -1.712430   -4.091990
  C     -1.363530   -1.981340   -2.293610
  H     -2.553450   -3.355670   -3.458810
  O     -0.350390   -2.749690   -1.796010
  H     -2.226220   -1.908390   -1.602040
  H     -1.051350   -0.915670   -2.443330
  H     -1.247830   -3.248010   -5.523770
  H     -0.240470   -3.700790   -4.169780
  H     -0.171070   -2.074530   -4.805010

 Total Charge           Charge          ....   -1
 Multiplicity           Mult            ....    1
 Number of Electrons    NEL             ....   34
 Basis Dimension        Dim             ....  139

ORBITAL ENERGIES
----------------

  NO   OCC          E(Eh)            E(eV)
   0   2.0000     -18.627101      -506.8692
   1   2.0000      -9.902934      -269.4725
   2   2.0000      -9.898839      -269.3611
   3   2.0000      -9.894544      -269.2442
   4   2.0000      -0.775425       -21.1004
   5   2.0000      -0.683392       -18.5960
   6   2.0000      -0.570379       -15.5208
   7   2.0000      -0.464626       -12.6431
   8   2.0000      -0.382633       -10.4120
   9   2.0000      -0.371248       -10.1022
  10   2.0000      -0.316579        -8.6146
  11   2.0000      -0.289818        -7.8863
  12   2.0000      -0.261982        -7.1289
  13   2.0000      -0.248286        -6.7562
  14   2.0000      -0.213004        -5.7961
  15   2.0000      -0.071961        -1.9582
  16   2.0000      -0.067443        -1.8352
  17   0.0000       0.216868         5.9013
  18   0.0000       0.240920         6.5558
  19   0.0000       0.259549         7.0627
  20   0.0000       0.287065         7.8114
  21   0.0000       0.308626         8.3981

MULLIKEN ATOMIC CHARGES
-----------------------
   0 C :    0.835742
   1 C :   -0.334018
   2 H :   -0.173777
   3 C :    0.401459
   4 H :   -0.131756
   5 O :   -0.777685
   6 H :   -0.228571
   7 H :   -0.153526
   8 H :   -0.198206
   9 H :   -0.088412
  10 H :   -0.151250
Sum of atomic charges:   -1.0000000

LOEWDIN ATOMIC CHARGES
----------------------
   0 C :    0.071366
   1 C :   -0.125523
   2 H :   -0.005100
   3 C :   -0.244752
   4 H :    0.001904
   5 O :   -0.544792
   6 H :   -0.027587
   7 H :   -0.020644
   8 H :   -0.046221
   9 H :   -0.032421
  10 H :   -0.026230

  Mayer bond orders larger than 0.100000
B(  0-C ,  1-C ) :   1.2930 B(  0-C ,  4-H ) :   0.1032 B(  0-C ,  8-H ) :   0.7258
B(  0-C ,  9-H ) :   0.7734 B(  0-C , 10-H ) :   0.7634 B(  1-C ,  2-H ) :   0.9659
B(  1-C ,  3-C ) :   1.0613 B(  1-C ,  4-H ) :   0.9044 B(  1-C ,  6-H ) :   0.1652
B(  1-C ,  7-H ) :   0.1615 B(  1-C ,  8-H ) :   0.2479 B(  1-C ,  9-H ) :   0.2250
B(  1-C , 10-H ) :   0.2217 B(  2-H ,  3-C ) :   0.1040 B(  3-C ,  4-H ) :   0.1170
B(  3-C ,  5-O ) :   1.2992 B(  3-C ,  6-H ) :   0.9325 B(  3-C ,  7-H ) :   0.9203

FINAL SINGLE POINT ENERGY      -193.110350724240

DIPOLE MOMENT
-------------
                                X             Y             Z
Electronic contribution:      1.18683      -0.49638       2.47079
Nuclear contribution   :     -2.20255       0.75707      -4.26861
                        -----------------------------------------
Total Dipole Moment    :     -1.01572       0.26069      -1.79782
                        -----------------------------------------
Magnitude (a.u.)       :      2.08130
Magnitude (Debye)      :      5.29024

Rotational constants in cm-1:     0.480704     0.187939     0.150770
Rotational constants in MHz : 14411.155440  5634.276828  4519.982802

                             ****ORCA TERMINATED NORMALLY****
TOTAL RUN TIME: 0 days 0 hours 0 minutes 11 seconds 168 msec
