                         Program Version 5.0.0 -  RELEASE  -
|  1> !LC-BLYP RIJCOSX def2-SVPD def2/J TightSCF
|  2> *xyz 1 1
|  3> C          1.64703       -2.34528       -5.02041
|  4> C          0.21763       -1.81402       -4.92439
|  5> C          2.20996       -2.81239       -3.66571
|  6> H          2.30838       -1.58870       -5.45713
|  7> H          1.67429       -3.20348       -5.69739
|  8> C          2.48901       -1.66851       -2.73754
|  9> N          3.59631       -0.94761       -2.95225
| 10> N          1.66394       -1.41369       -1.77781
| 11> H          0.81164       -1.96318       -1.70275
| 12> H          1.84550       -0.63508       -1.15875
| 13> H          4.20535       -1.17600       -3.73383
| 14> H          3.81723       -0.12585       -2.40604
| 15> H          3.14311       -3.36280       -3.81152
| 16> H          1.48768       -3.45893       -3.16521
| 17> H         -0.11459       -1.50684       -5.89401
| 18> H          0.19193       -0.97796       -4.25713
| 19> H         -0.42543       -2.58523       -4.55479
| 20> *
| 21>
| 22> %MaxCore 64000
| 23> %pal nprocs 4
| 24> end
| 25>
| 26> %scf
| 27>   MaxIter 150
| 28> end
| 29>
| 30>
| 31>                          ****END OF INPUT****

CARTESIAN COORDINATES (ANGSTROEM)
---------------------------------
  C      1.647030   -2.345280   -5.020410
  C      0.217630   -1.814020   -4.924390
  C      2.209960   -2.812390   -3.665710
  H      2.308380   -1.588700   -5.457130
  H      1.674290   -3.203480   -5.697390
  C      2.489010   -1.668510   -2.737540
  N      3.596310   -0.947610   -2.952250
  N      1.663940   -1.413690   -1.777810
  H      0.811640   -1.963180   -1.702750
  H      1.845500   -0.635080   -1.158750
  H      4.205350   -1.176000   -3.733830
  H      3.817230   -0.125850   -2.406040
  H      3.143110   -3.362800   -3.811520
  H      1.487680   -3.458930   -3.165210
  H     -0.114590   -1.506840   -5.894010
  H      0.191930   -0.977960   -4.257130
  H     -0.425430   -2.585230   -4.554790

 Total Charge           Charge          ....    1
 Multiplicity           Mult            ....    1
 Number of Electrons    NEL             ....   48
 Basis Dimension        Dim             ....  208

ORBITAL ENERGIES
----------------

  NO   OCC          E(Eh)            E(eV)
   0   2.0000     -14.438148      -392.8820
   1   2.0000     -14.428455      -392.6182
   2   2.0000     -10.407558      -283.2041
   3   2.0000     -10.278175      -279.6834
   4   2.0000     -10.246241      -278.8144
   5   2.0000     -10.211424      -277.8670
   6   2.0000      -1.297786       -35.3146
   7   2.0000      -1.200376       -32.6639
   8   2.0000      -1.077525       -29.3209
   9   2.0000      -0.990542       -26.9540
  10   2.0000      -0.936335       -25.4790
  11   2.0000      -0.891973       -24.2718
  12   2.0000      -0.873240       -23.7621
  13   2.0000      -0.837723       -22.7956
  14   2.0000      -0.803637       -21.8681
  15   2.0000      -0.763311       -20.7708
  16   2.0000      -0.730080       -19.8665
  17   2.0000      -0.702941       -19.1280
  18   2.0000      -0.674317       -18.3491
  19   2.0000      -0.661968       -18.0131
  20   2.0000      -0.605106       -16.4658
  21   2.0000      -0.599132       -16.3032
  22   2.0000      -0.594796       -16.1852
  23   2.0000      -0.582988       -15.8639
  24   0.0000      -0.128190        -3.4882
  25   0.0000      -0.097374        -2.6497
  26   0.0000      -0.058923        -1.6034
  27   0.0000      -0.052649        -1.4327
  28   0.0000      -0.028743        -0.7821

MULLIKEN ATOMIC CHARGES
-----------------------
   0 C :   -0.114135
   1 C :    1.012706
   2 C :    0.197740
   3 H :   -0.108348
   4 H :   -0.134161
   5 C :    0.359300
   6 N :    0.234715
   7 N :    0.291176
   8 H :    0.059465
   9 H :   -0.122110
  10 H :    0.013854
  11 H :   -0.163479
  12 H :   -0.117744
  13 H :   -0.025680
  14 H :   -0.150457
  15 H :   -0.200142
  16 H :   -0.032701
Sum of atomic charges:    1.0000000

LOEWDIN ATOMIC CHARGES
----------------------
   0 C :   -0.054060
   1 C :    0.130013
   2 C :    0.032095
   3 H :    0.031411
   4 H :    0.044765
   5 C :   -0.070280
   6 N :    0.293572
   7 N :    0.300046
   8 H :    0.061945
   9 H :    0.056831
  10 H :    0.052427
  11 H :    0.043642
  12 H :    0.052886
  13 H :    0.042293
  14 H :    0.004738
  15 H :   -0.020801
  16 H :   -0.001523

  Mayer bond orders larger than 0.100000
B(  0-C ,  1-C ) :   1.3241 B(  0-C ,  2-C ) :   1.1755 B(  0-C ,  3-H ) :   0.8587
B(  0-C ,  4-H ) :   0.9318 B(  0-C , 13-H ) :   0.1183 B(  0-C , 14-H ) :   0.2520
B(  0-C , 15-H ) :   0.2539 B(  0-C , 16-H ) :   0.2257 B(  1-C , 14-H ) :   0.7205
B(  1-C , 15-H ) :   0.7287 B(  1-C , 16-H ) :   0.7214 B(  2-C ,  3-H ) :   0.1336
B(  2-C ,  4-H ) :   0.1159 B(  2-C ,  5-C ) :   1.1208 B(  2-C ,  6-N ) :   0.1408
B(  2-C ,  7-N ) :   0.1194 B(  2-C , 12-H ) :   0.8707 B(  2-C , 13-H ) :   0.7891
B(  5-C ,  6-N ) :   1.2069 B(  5-C ,  7-N ) :   1.2409 B(  5-C ,  9-H ) :  -0.1478
B(  5-C , 10-H ) :  -0.1018 B(  5-C , 11-H ) :  -0.1486 B(  5-C , 12-H ) :   0.1151
B(  5-C , 13-H ) :   0.1817 B(  6-N ,  7-N ) :   0.1571 B(  6-N , 10-H ) :   1.1054
B(  6-N , 11-H ) :   1.2740 B(  7-N ,  8-H ) :   1.0754 B(  7-N ,  9-H ) :   1.2633
B(  8-H ,  9-H ) :  -0.1749 B( 10-H , 11-H ) :  -0.1856

FINAL SINGLE POINT ENERGY      -267.434952315512

DIPOLE MOMENT
-------------
                                X             Y             Z
Electronic contribution:      3.27520       1.28100       4.38100
Nuclear contribution   :     -2.54148      -0.64126      -3.14660
                        -----------------------------------------
Total Dipole Moment    :      0.73371       0.63975       1.23439
                        -----------------------------------------
Magnitude (a.u.)       :      1.57205
Magnitude (Debye)      :      3.99584

Rotational constants in cm-1:     0.179759     0.078784     0.067518
Rotational constants in MHz :  5389.046501  2361.884510  2024.132984

                             ****ORCA TERMINATED NORMALLY****
TOTAL RUN TIME: 0 days 0 hours 0 minutes 26 seconds 914 msec
