                         Program Version 5.0.0 -  RELEASE  -
|  1> !LC-BLYP RIJCOSX def2-SVPD def2/J TightSCF
|  2> *xyz 0 1
|  3> C         -0.81136       -2.90878       -4.60763
|  4> C         -1.91658       -2.48508       -3.64367
|  5> H         -2.55452       -1.71243       -4.09199
|  6> C         -1.36353       -1.98134       -2.29361
|  7> H         -2.55345       -3.35567       -3.45881
|  8> F         -0.35039       -2.74969       -1.79601
|  9> H         -2.22622       -1.90839       -1.60204
| 10> H         -1.05135       -0.91567       -2.44333
| 11> H         -1.24783       -3.24801       -5.52377
| 12> H         -0.24047       -3.70079       -4.16978
| 13> H         -0.17107       -2.07453       -4.80501
| 14> *
| 15>
| 16> %MaxCore 64000
| 17> %pal nprocs 4
| 18> end
| 19>
| 20> %scf
| 21>   MaxIter 150
| 22> end
| 23>
| 24>
| 25>                          ****END OF INPUT****

CARTESIAN COORDINATES (ANGSTROEM)
---------------------------------
  C     -0.811360   -2.908780   -4.607630
  C     -1.916580   -2.485080   -3.643670
  H     -2.554520   -1.712430   -4.091990
  C     -1.363530   -1.981340   -2.293610
  H     -2.553450   -3.355670   -3.458810
  F     -0.350390   -2.749690   -1.796010
  H     -2.226220   -1.908390   -1.602040
  H     -1.051350   -0.915670   -2.443330
  H     -1.247830   -3.248010   -5.523770
  H     -0.240470   -3.700790   -4.169780
  H     -0.171070   -2.074530   -4.805010

 Total Charge           Charge          ....    0
 Multiplicity           Mult            ....    1
 Number of Electrons    NEL             ....   34
 Basis Dimension        Dim             ....  139

ORBITAL ENERGIES
----------------

  NO   OCC          E(Eh)            E(eV)
   0   2.0000     -24.466615      -665.7704
   1   2.0000     -10.164466      -276.5892
   2   2.0000     -10.092342      -274.6266
   3   2.0000     -10.071233      -274.0522
   4   2.0000      -1.268889       -34.5282
   5   2.0000      -0.892964       -24.2988
   6   2.0000      -0.793898       -21.6031
   7   2.0000      -0.698964       -19.0198
   8   2.0000      -0.617151       -16.7935
   9   2.0000      -0.603220       -16.4144
  10   2.0000      -0.581035       -15.8108
  11   2.0000      -0.540814       -14.7163
  12   2.0000      -0.499371       -13.5886
  13   2.0000      -0.475233       -12.9318
  14   2.0000      -0.455806       -12.4031
  15   2.0000      -0.426546       -11.6069
  16   2.0000      -0.419637       -11.4189
  17   0.0000       0.072781         1.9805
  18   0.0000       0.098224         2.6728
  19   0.0000       0.108218         2.9447
  20   0.0000       0.127821         3.4782
  21   0.0000       0.151010         4.1092

MULLIKEN ATOMIC CHARGES
-----------------------
   0 C :    0.857765
   1 C :   -0.285274
   2 H :   -0.156465
   3 C :    0.733882
   4 H :   -0.133705
   5 F :   -0.360544
   6 H :   -0.162489
   7 H :   -0.086620
   8 H :   -0.171778
   9 H :   -0.093664
  10 H :   -0.141108
Sum of atomic charges:   -0.0000000

LOEWDIN ATOMIC CHARGES
----------------------
   0 C :    0.107760
   1 C :   -0.077706
   2 H :    0.031879
   3 C :    0.065408
   4 H :    0.024337
   5 F :   -0.188587
   6 H :    0.033948
   7 H :    0.042751
   8 H :   -0.014914
   9 H :   -0.014066
  10 H :   -0.010810

  Mayer bond orders larger than 0.100000
B(  0-C ,  1-C ) :   1.3225 B(  0-C ,  8-H ) :   0.7528 B(  0-C ,  9-H ) :   0.7692
B(  0-C , 10-H ) :   0.7602 B(  1-C ,  2-H ) :   0.9319 B(  1-C ,  3-C ) :   1.1960
B(  1-C ,  4-H ) :   0.8934 B(  1-C ,  6-H ) :   0.1316 B(  1-C ,  7-H ) :   0.1347
B(  1-C ,  8-H ) :   0.2334 B(  1-C ,  9-H ) :   0.1967 B(  1-C , 10-H ) :   0.2060
B(  3-C ,  5-F ) :   0.8557 B(  3-C ,  6-H ) :   0.8901 B(  3-C ,  7-H ) :   0.8675

FINAL SINGLE POINT ENERGY      -217.705467957160

DIPOLE MOMENT
-------------
                                X             Y             Z
Electronic contribution:      2.56817      -0.68302       5.47040
Nuclear contribution   :     -3.10989       1.02097      -5.82098
                        -----------------------------------------
Total Dipole Moment    :     -0.54173       0.33795      -0.35057
                        -----------------------------------------
Magnitude (a.u.)       :      0.72841
Magnitude (Debye)      :      1.85147

Rotational constants in cm-1:     0.466172     0.177379     0.142652
Rotational constants in MHz : 13975.492374  5317.681709  4276.599690

                             ****ORCA TERMINATED NORMALLY****
TOTAL RUN TIME: 0 days 0 hours 0 minutes 10 seconds 33 msec
