                         Program Version 5.0.0 -  RELEASE  -
|  1> !LC-BLYP RIJCOSX def2-SVPD def2/J TightSCF
|  2> *xyz 0 1
|  3> C          1.64703       -2.34528       -5.02041
|  4> C          0.21763       -1.81402       -4.92439
|  5> C          2.20996       -2.81239       -3.66571
|  6> H          2.30838       -1.58870       -5.45713
|  7> H          1.67429       -3.20348       -5.69739
|  8> C          2.48901       -1.66851       -2.73754
|  9> C          3.59631       -0.94761       -2.95225
| 10> N          1.66394       -1.41369       -1.77781
| 11> H          0.81164       -1.96318       -1.70275
| 12> H          1.84550       -0.63508       -1.15875
| 13> H          4.20535       -1.17600       -3.73383
| 14> H          3.81723       -0.12585       -2.40604
| 15> H          3.14311       -3.36280       -3.81152
| 16> H          1.48768       -3.45893       -3.16521
| 17> H         -0.11459       -1.50684       -5.89401
| 18> H          0.19193       -0.97796       -4.25713
| 19> H         -0.42543       -2.58523       -4.55479
| 20> *
| 21>
| 22> %MaxCore 64000
| 23> %pal nprocs 4
| 24> end
| 25>
| 26> %scf
| 27>   MaxIter 150
| 28> end
| 29>
| 30>
| 31>                          ****END OF INPUT****

CARTESIAN COORDINATES (ANGSTROEM)
---------------------------------
  C      1.647030   -2.345280   -5.020410
  C      0.217630   -1.814020   -4.924390
  C      2.209960   -2.812390   -3.665710
  H      2.308380   -1.588700   -5.457130
  H      1.674290   -3.203480   -5.697390
  C      2.489010   -1.668510   -2.737540
  C      3.596310   -0.947610   -2.952250
  N      1.663940   -1.413690   -1.777810
  H      0.811640   -1.963180   -1.702750
  H      1.845500   -0.635080   -1.158750
  H      4.205350   -1.176000   -3.733830
  H      3.817230   -0.125850   -2.406040
  H      3.143110   -3.362800   -3.811520
  H      1.487680   -3.458930   -3.165210
  H     -0.114590   -1.506840   -5.894010
  H      0.191930   -0.977960   -4.257130
  H     -0.425430   -2.585230   -4.554790

 Total Charge           Charge          ....    0
 Multiplicity           Mult            ....    1
 Number of Electrons    NEL             ....   48
 Basis Dimension        Dim             ....  208

ORBITAL ENERGIES
----------------

  NO   OCC          E(Eh)            E(eV)
   0   2.0000     -14.194279      -386.2460
   1   2.0000     -10.107577      -275.0411
   2   2.0000     -10.082728      -274.3650
   3   2.0000     -10.080302      -274.2990
   4   2.0000     -10.067310      -273.9454
   5   2.0000     -10.015578      -272.5377
   6   2.0000      -1.034395       -28.1473
   7   2.0000      -0.897807       -24.4306
   8   2.0000      -0.832616       -22.6566
   9   2.0000      -0.782332       -21.2883
  10   2.0000      -0.712410       -19.3857
  11   2.0000      -0.666462       -18.1353
  12   2.0000      -0.633574       -17.2404
  13   2.0000      -0.591508       -16.0957
  14   2.0000      -0.560863       -15.2619
  15   2.0000      -0.534484       -14.5440
  16   2.0000      -0.507326       -13.8050
  17   2.0000      -0.491559       -13.3760
  18   2.0000      -0.476045       -12.9538
  19   2.0000      -0.458296       -12.4709
  20   2.0000      -0.437366       -11.9013
  21   2.0000      -0.427602       -11.6356
  22   2.0000      -0.421796       -11.4777
  23   2.0000      -0.280080        -7.6214
  24   0.0000       0.070405         1.9158
  25   0.0000       0.096441         2.6243
  26   0.0000       0.099130         2.6975
  27   0.0000       0.102888         2.7997
  28   0.0000       0.127632         3.4731

MULLIKEN ATOMIC CHARGES
-----------------------
   0 C :   -0.195469
   1 C :    0.975251
   2 C :    0.442836
   3 H :   -0.115562
   4 H :   -0.176449
   5 C :   -0.291716
   6 C :    0.633853
   7 N :    0.418418
   8 H :   -0.068288
   9 H :   -0.157223
  10 H :   -0.246760
  11 H :   -0.624782
  12 H :   -0.057146
  13 H :   -0.133615
  14 H :   -0.180935
  15 H :   -0.182120
  16 H :   -0.040294
Sum of atomic charges:   -0.0000000

LOEWDIN ATOMIC CHARGES
----------------------
   0 C :   -0.073745
   1 C :    0.109506
   2 C :   -0.006909
   3 H :    0.024637
   4 H :    0.021419
   5 C :   -0.279362
   6 C :    0.169140
   7 N :    0.184411
   8 H :    0.008605
   9 H :    0.016361
  10 H :   -0.079675
  11 H :   -0.090974
  12 H :    0.032695
  13 H :    0.017597
  14 H :   -0.015845
  15 H :   -0.021920
  16 H :   -0.015940

  Mayer bond orders larger than 0.100000
B(  0-C ,  1-C ) :   1.3039 B(  0-C ,  2-C ) :   1.1685 B(  0-C ,  3-H ) :   0.9018
B(  0-C ,  4-H ) :   0.9388 B(  0-C , 12-H ) :   0.1126 B(  0-C , 13-H ) :   0.1590
B(  0-C , 14-H ) :   0.2616 B(  0-C , 15-H ) :   0.2531 B(  0-C , 16-H ) :   0.2362
B(  1-C , 14-H ) :   0.7030 B(  1-C , 15-H ) :   0.7604 B(  1-C , 16-H ) :   0.7231
B(  2-C ,  3-H ) :   0.1544 B(  2-C ,  5-C ) :   1.0696 B(  2-C ,  6-C ) :   0.2399
B(  2-C ,  7-N ) :   0.1339 B(  2-C , 12-H ) :   0.8023 B(  2-C , 13-H ) :   0.6501
B(  5-C ,  6-C ) :   1.6890 B(  5-C ,  7-N ) :   1.2861 B(  5-C , 11-H ) :   0.1899
B(  5-C , 12-H ) :   0.1566 B(  5-C , 13-H ) :   0.2631 B(  6-C ,  7-N ) :   0.2718
B(  6-C , 10-H ) :   0.7729 B(  6-C , 11-H ) :   0.6206 B(  7-N ,  8-H ) :   1.0393
B(  7-N ,  9-H ) :   1.2035 B(  8-H ,  9-H ) :  -0.1611

FINAL SINGLE POINT ENERGY      -250.978933255189

DIPOLE MOMENT
-------------
                                X             Y             Z
Electronic contribution:      1.44671       0.27860       3.29003
Nuclear contribution   :     -2.15663      -0.43764      -3.01766
                        -----------------------------------------
Total Dipole Moment    :     -0.70992      -0.15904       0.27237
                        -----------------------------------------
Magnitude (a.u.)       :      0.77683
Magnitude (Debye)      :      1.97455

Rotational constants in cm-1:     0.184410     0.080989     0.069427
Rotational constants in MHz :  5528.462717  2427.993314  2081.376031

                             ****ORCA TERMINATED NORMALLY****
TOTAL RUN TIME: 0 days 0 hours 0 minutes 27 seconds 385 msec
