                         Program Version 5.0.0 -  RELEASE  -
|  1> !LC-BLYP RIJCOSX def2-SVPD def2/J TightSCF
|  2> *xyz 0 1
|  3> C          1.64703       -2.34528       -5.02041
|  4> C          0.21763       -1.81402       -4.92439
|  5> C          2.20996       -2.81239       -3.66571
|  6> H          2.30838       -1.58870       -5.45713
|  7> H          1.67429       -3.20348       -5.69739
|  8> C          2.48901       -1.66851       -2.73754
|  9> N          3.59631       -0.94761       -2.95225
| 10> C          1.66394       -1.41369       -1.77781
| 11> H          0.81164       -1.96318       -1.70275
| 12> H          1.84550       -0.63508       -1.15875
| 13> H          4.20535       -1.17600       -3.73383
| 14> H          3.81723       -0.12585       -2.40604
| 15> H          3.14311       -3.36280       -3.81152
| 16> H          1.48768       -3.45893       -3.16521
| 17> H         -0.11459       -1.50684       -5.89401
| 18> H          0.19193       -0.97796       -4.25713
| 19> H         -0.42543       -2.58523       -4.55479
| 20> *
| 21>
| 22> %MaxCore 64000
| 23> %pal nprocs 4
| 24> end
| 25>
| 26> %scf
| 27>   MaxIter 150
| 28> end
| 29>
| 30>
| 31>                          ****END OF INPUT****

CARTESIAN COORDINATES (ANGSTROEM)
---------------------------------
  C      1.647030   -2.345280   -5.020410
  C      0.217630   -1.814020   -4.924390
  C      2.209960   -2.812390   -3.665710
  H      2.308380   -1.588700   -5.457130
  H      1.674290   -3.203480   -5.697390
  C      2.489010   -1.668510   -2.737540
  N      3.596310   -0.947610   -2.952250
  C      1.663940   -1.413690   -1.777810
  H      0.811640   -1.963180   -1.702750
  H      1.845500   -0.635080   -1.158750
  H      4.205350   -1.176000   -3.733830
  H      3.817230   -0.125850   -2.406040
  H      3.143110   -3.362800   -3.811520
  H      1.487680   -3.458930   -3.165210
  H     -0.114590   -1.506840   -5.894010
  H      0.191930   -0.977960   -4.257130
  H     -0.425430   -2.585230   -4.554790

 Total Charge           Charge          ....    0
 Multiplicity           Mult            ....    1
 Number of Electrons    NEL             ....   48
 Basis Dimension        Dim             ....  208

ORBITAL ENERGIES
----------------

  NO   OCC          E(Eh)            E(eV)
   0   2.0000     -14.187393      -386.0586
   1   2.0000     -10.104194      -274.9491
   2   2.0000     -10.081547      -274.3328
   3   2.0000     -10.081039      -274.3190
   4   2.0000     -10.061832      -273.7964
   5   2.0000     -10.019770      -272.6518
   6   2.0000      -1.016545       -27.6616
   7   2.0000      -0.896568       -24.3969
   8   2.0000      -0.838708       -22.8224
   9   2.0000      -0.787631       -21.4325
  10   2.0000      -0.700245       -19.0546
  11   2.0000      -0.668720       -18.1968
  12   2.0000      -0.625665       -17.0252
  13   2.0000      -0.582513       -15.8510
  14   2.0000      -0.553436       -15.0597
  15   2.0000      -0.548709       -14.9311
  16   2.0000      -0.499918       -13.6035
  17   2.0000      -0.492509       -13.4019
  18   2.0000      -0.473882       -12.8950
  19   2.0000      -0.466028       -12.6813
  20   2.0000      -0.434229       -11.8160
  21   2.0000      -0.421585       -11.4719
  22   2.0000      -0.416923       -11.3450
  23   2.0000      -0.292536        -7.9603
  24   0.0000       0.071442         1.9440
  25   0.0000       0.096608         2.6288
  26   0.0000       0.098512         2.6806
  27   0.0000       0.104985         2.8568
  28   0.0000       0.130797         3.5592

MULLIKEN ATOMIC CHARGES
-----------------------
   0 C :   -0.100578
   1 C :    0.995337
   2 C :    0.373951
   3 H :   -0.141597
   4 H :   -0.160821
   5 C :   -0.183909
   6 N :    0.325648
   7 C :    0.574830
   8 H :   -0.184978
   9 H :   -0.547848
  10 H :   -0.145841
  11 H :   -0.204632
  12 H :   -0.202672
  13 H :    0.024219
  14 H :   -0.176535
  15 H :   -0.184509
  16 H :   -0.060064
Sum of atomic charges:    0.0000000

LOEWDIN ATOMIC CHARGES
----------------------
   0 C :   -0.077683
   1 C :    0.112608
   2 C :   -0.008503
   3 H :    0.019075
   4 H :    0.020747
   5 C :   -0.276705
   6 N :    0.186171
   7 C :    0.164847
   8 H :   -0.067085
   9 H :   -0.074265
  10 H :   -0.002457
  11 H :    0.001234
  12 H :    0.025877
  13 H :    0.026758
  14 H :   -0.017162
  15 H :   -0.021477
  16 H :   -0.011982

  Mayer bond orders larger than 0.100000
B(  0-C ,  1-C ) :   1.2979 B(  0-C ,  2-C ) :   1.1422 B(  0-C ,  3-H ) :   0.8611
B(  0-C ,  4-H ) :   0.8864 B(  0-C , 13-H ) :   0.1308 B(  0-C , 14-H ) :   0.2620
B(  0-C , 15-H ) :   0.2580 B(  0-C , 16-H ) :   0.2360 B(  1-C , 14-H ) :   0.7048
B(  1-C , 15-H ) :   0.7537 B(  1-C , 16-H ) :   0.7151 B(  2-C ,  3-H ) :   0.1545
B(  2-C ,  4-H ) :   0.1369 B(  2-C ,  5-C ) :   1.1367 B(  2-C ,  6-N ) :   0.1431
B(  2-C ,  7-C ) :   0.2099 B(  2-C , 12-H ) :   0.8439 B(  2-C , 13-H ) :   0.7472
B(  5-C ,  6-N ) :   1.2738 B(  5-C ,  7-C ) :   1.6692 B(  5-C ,  8-H ) :   0.1095
B(  5-C ,  9-H ) :   0.3048 B(  5-C , 12-H ) :   0.1789 B(  5-C , 13-H ) :   0.1993
B(  6-N ,  7-C ) :   0.2590 B(  6-N , 10-H ) :   1.1432 B(  6-N , 11-H ) :   1.2286
B(  7-C ,  8-H ) :   0.9012 B(  7-C ,  9-H ) :   0.4729 B( 10-H , 11-H ) :  -0.1652
B( 15-H , 16-H ) :   0.1064

FINAL SINGLE POINT ENERGY      -250.983403178907

DIPOLE MOMENT
-------------
                                X             Y             Z
Electronic contribution:      3.11658       0.69658       2.30374
Nuclear contribution   :     -2.61370      -0.54788      -2.73987
                        -----------------------------------------
Total Dipole Moment    :      0.50288       0.14870      -0.43613
                        -----------------------------------------
Magnitude (a.u.)       :      0.68206
Magnitude (Debye)      :      1.73365

Rotational constants in cm-1:     0.186678     0.079942     0.069329
Rotational constants in MHz :  5596.476267  2396.611465  2078.426257

                             ****ORCA TERMINATED NORMALLY****
TOTAL RUN TIME: 0 days 0 hours 0 minutes 27 seconds 511 msec
