                         Program Version 5.0.0 -  RELEASE  -
|  1> !LC-BLYP RIJCOSX def2-SVPD def2/J TightSCF xyzfile
|  2>
|  3> *xyzfile 0 1 D2.xyz
|  4>
|  5> %MaxCore 64000
|  6>
|  7> %pal nprocs 4
|  8> end
|  9>
| 10> %scf
| 11>   MaxIter 150
| 12> end
| 13>
| 14>
| 15>                          ****END OF INPUT****

CARTESIAN COORDINATES (ANGSTROEM)
---------------------------------
  C      1.647032   -2.345276   -5.020411
  C      0.217628   -1.814022   -4.924389
  C      2.209964   -2.812388   -3.665708
  C     -0.811356   -2.908780   -4.607625
  C     -1.916579   -2.485081   -3.643665
  H     -2.554525   -1.712428   -4.091993
  C     -1.363531   -1.981337   -2.293608
  H     -2.553448   -3.355667   -3.458815
  F     -0.350395   -2.749689   -1.796006
  H      2.308385   -1.588704   -5.457128
  H      1.674286   -3.203478   -5.697392
  C      2.489007   -1.668510   -2.737538
  N      3.596314   -0.947608   -2.952247
  C      1.663936   -1.413685   -1.777806
  H      0.811642   -1.963178   -1.702755
  H      1.845503   -0.635078   -1.158749
  H      4.205351   -1.176003   -3.733825
  H      3.817230   -0.125845   -2.406041
  H     -1.244829   -3.280884   -5.541040
  H     -0.306331   -3.757746   -4.142734
  H     -0.036244   -1.318555   -5.865303
  H      0.175004   -1.035382   -4.158095
  H      3.143106   -3.362803   -3.811524
  H      1.487683   -3.458935   -3.165211
  H     -2.226220   -1.908386   -1.602039
  H     -1.051353   -0.915671   -2.443331

 Total Charge           Charge          ....    0
 Multiplicity           Mult            ....    1
 Number of Electrons    NEL             ....   80
 Basis Dimension        Dim             ....  331

ORBITAL ENERGIES
----------------

  NO   OCC          E(Eh)            E(eV)
   0   2.0000     -24.478775      -666.1013
   1   2.0000     -14.173911      -385.6917
   2   2.0000     -10.167003      -276.6582
   3   2.0000     -10.092187      -274.6224
   4   2.0000     -10.086727      -274.4738
   5   2.0000     -10.079462      -274.2761
   6   2.0000     -10.076293      -274.1899
   7   2.0000     -10.072543      -274.0878
   8   2.0000     -10.070406      -274.0297
   9   2.0000      -9.985876      -271.7295
  10   2.0000      -1.292282       -35.1648
  11   2.0000      -1.002626       -27.2828
  12   2.0000      -0.917978       -24.9795
  13   2.0000      -0.881345       -23.9826
  14   2.0000      -0.829173       -22.5629
  15   2.0000      -0.804695       -21.8969
  16   2.0000      -0.762217       -20.7410
  17   2.0000      -0.707685       -19.2571
  18   2.0000      -0.676470       -18.4077
  19   2.0000      -0.673392       -18.3239
  20   2.0000      -0.633521       -17.2390
  21   2.0000      -0.620962       -16.8972
  22   2.0000      -0.603801       -16.4303
  23   2.0000      -0.594031       -16.1644
  24   2.0000      -0.568037       -15.4571
  25   2.0000      -0.552117       -15.0239
  26   2.0000      -0.546213       -14.8632
  27   2.0000      -0.534463       -14.5435
  28   2.0000      -0.504980       -13.7412
  29   2.0000      -0.485588       -13.2135
  30   2.0000      -0.470319       -12.7980
  31   2.0000      -0.457391       -12.4462
  32   2.0000      -0.450430       -12.2568
  33   2.0000      -0.438402       -11.9295
  34   2.0000      -0.426631       -11.6092
  35   2.0000      -0.421974       -11.4825
  36   2.0000      -0.408976       -11.1288
  37   2.0000      -0.405645       -11.0382
  38   2.0000      -0.389883       -10.6093
  39   2.0000      -0.275427        -7.4947
  40   0.0000       0.075117         2.0440
  41   0.0000       0.081339         2.2134
  42   0.0000       0.089816         2.4440
  43   0.0000       0.098740         2.6869
  44   0.0000       0.112410         3.0588

MULLIKEN ATOMIC CHARGES
-----------------------
   0 C :    0.467337
   1 C :    0.431258
   2 C :    0.598236
   3 C :    0.242441
   4 C :    0.427063
   5 H :   -0.214752
   6 C :    0.689837
   7 H :   -0.067241
   8 F :   -0.420907
   9 H :   -0.131925
  10 H :   -0.196821
  11 C :   -0.185532
  12 N :    0.316901
  13 C :    1.510051
  14 H :   -0.862278
  15 H :   -0.870897
  16 H :   -0.149868
  17 H :   -0.198315
  18 H :   -0.308623
  19 H :   -0.083416
  20 H :   -0.271121
  21 H :   -0.199056
  22 H :   -0.265204
  23 H :   -0.115508
  24 H :   -0.408990
  25 H :    0.267331
Sum of atomic charges:   -0.0000000

LOEWDIN ATOMIC CHARGES
----------------------
   0 C :   -0.029397
   1 C :   -0.024997
   2 C :    0.011340
   3 C :   -0.036222
   4 C :   -0.022330
   5 H :    0.038652
   6 C :    0.117427
   7 H :    0.028277
   8 F :   -0.173236
   9 H :    0.021097
  10 H :    0.025422
  11 C :   -0.252294
  12 N :    0.180836
  13 C :    0.196588
  14 H :   -0.188659
  15 H :   -0.067527
  16 H :   -0.007041
  17 H :   -0.002032
  18 H :    0.028574
  19 H :    0.010974
  20 H :    0.025185
  21 H :    0.002740
  22 H :    0.027648
  23 H :    0.005953
  24 H :    0.041474
  25 H :    0.041547

  Mayer bond orders larger than 0.100000
B(  0-C ,  1-C ) :   1.2305 B(  0-C ,  2-C ) :   1.0608 B(  0-C ,  3-C ) :   0.1086
B(  0-C ,  9-H ) :   0.6802 B(  0-C , 10-H ) :   0.7618 B(  0-C , 11-C ) :   0.1290
B(  0-C , 21-H ) :   0.2071 B(  0-C , 22-H ) :   0.1201 B(  0-C , 23-H ) :   0.1152
B(  1-C ,  2-C ) :   0.1762 B(  1-C ,  3-C ) :   1.1257 B(  1-C ,  9-H ) :   0.2234
B(  1-C , 18-H ) :   0.2293 B(  1-C , 19-H ) :   0.1047 B(  1-C , 20-H ) :   0.7716
B(  1-C , 21-H ) :   0.7130 B(  2-C ,  9-H ) :   0.1136 B(  2-C , 10-H ) :   0.1804
B(  2-C , 11-C ) :   1.2305 B(  2-C , 12-N ) :   0.1721 B(  2-C , 13-C ) :   0.1988
B(  2-C , 14-H ) :  -0.1652 B(  2-C , 21-H ) :  -0.1398 B(  2-C , 22-H ) :   0.7217
B(  2-C , 23-H ) :   0.7704 B(  3-C ,  4-C ) :   1.2437 B(  3-C ,  5-H ) :   0.1354
B(  3-C ,  7-H ) :   0.2539 B(  3-C , 18-H ) :   0.8193 B(  3-C , 19-H ) :   0.7469
B(  3-C , 20-H ) :   0.1418 B(  3-C , 21-H ) :   0.1836 B(  4-C ,  5-H ) :   0.8226
B(  4-C ,  6-C ) :   1.2335 B(  4-C ,  7-H ) :   0.6169 B(  4-C , 24-H ) :   0.1578
B(  5-H ,  6-C ) :   0.1207 B(  6-C ,  7-H ) :   0.1143 B(  6-C ,  8-F ) :   0.6777
B(  6-C , 14-H ) :   0.1064 B(  6-C , 24-H ) :   0.9760 B(  6-C , 25-H ) :   0.7312
B(  8-F , 14-H ) :   0.3570 B(  8-F , 24-H ) :  -0.1168 B(  9-H , 10-H ) :  -0.1131
B( 11-C , 12-N ) :   1.1281 B( 11-C , 13-C ) :   1.8774 B( 11-C , 14-H ) :   0.2431
B( 11-C , 15-H ) :   0.2544 B( 11-C , 21-H ) :   0.1413 B( 11-C , 22-H ) :   0.2577
B( 11-C , 23-H ) :   0.2141 B( 12-N , 13-C ) :   0.3646 B( 12-N , 16-H ) :   1.1499
B( 12-N , 17-H ) :   1.2411 B( 13-C , 14-H ) :   0.1609 B( 13-C , 15-H ) :   0.2534
B( 13-C , 23-H ) :  -0.1315 B( 14-H , 15-H ) :  -0.3320 B( 15-H , 21-H ) :  -0.1487
B( 16-H , 17-H ) :  -0.1658 B( 18-H , 19-H ) :  -0.1113 B( 19-H , 23-H ) :   0.1459
B( 20-H , 21-H ) :  -0.1235 B( 24-H , 25-H ) :  -0.1176

FINAL SINGLE POINT ENERGY      -467.490863893637

DIPOLE MOMENT
-------------
                                X             Y             Z
Electronic contribution:      0.38342      -1.30571       6.06103
Nuclear contribution   :     -0.73748       1.64619      -6.72655
                        -----------------------------------------
Total Dipole Moment    :     -0.35406       0.34048      -0.66553
                        -----------------------------------------
Magnitude (a.u.)       :      0.82717
Magnitude (Debye)      :      2.10250

Rotational constants in cm-1:     0.063169     0.031711     0.023958
Rotational constants in MHz :  1893.751676   950.657187   718.229932

                             ****ORCA TERMINATED NORMALLY****
TOTAL RUN TIME: 0 days 0 hours 1 minutes 37 seconds 778 msec
