                         Program Version 5.0.0 -  RELEASE  -
|  1> !wB97X-D3 def2-SVPD TightSCF RIJCOSX def2/J CPCM(Water)
|  2> * xyz -1 1
|  3> C         -1.79600       -6.42700       -0.93700
|  4> O         -1.71900       -7.64800       -1.03000
|  5> N         -0.82800       -5.60700       -1.35500
|  6> C          0.46600       -6.01600       -1.90500
|  7> C          1.48100       -6.46400       -0.83200
|  8> O          2.54500       -6.97100       -1.19400
|  9> C          1.03300       -4.83900       -2.72400
| 10> C          0.67200       -4.90600       -4.21000
| 11> O         -0.53200       -5.05100       -4.52200
| 12> O          1.62700       -4.81500       -5.01700
| 13> H         -1.01000       -4.61600       -1.29100
| 14> H          0.31900       -6.86700       -2.57400
| 15> H          0.64400       -3.92400       -2.32000
| 16> H          2.11600       -4.83700       -2.65000
| 17> N          1.18500       -6.27800        0.46400
| 18> H         -2.64484       -6.01604       -0.51796
| 19> H          0.32606       -5.87011        0.71913
| 20> H          1.82684       -6.54947        1.15940
| 21> *
| 22> %MaxCore 64000
| 23> %pal nprocs 8
| 24> end
| 25> %scf
| 26>   Convergence VeryTight
| 27>   MaxIter 150
| 28> end
| 29>
| 30>                          ****END OF INPUT****

CARTESIAN COORDINATES (ANGSTROEM)
---------------------------------
  C     -1.796000   -6.427000   -0.937000
  O     -1.719000   -7.648000   -1.030000
  N     -0.828000   -5.607000   -1.355000
  C      0.466000   -6.016000   -1.905000
  C      1.481000   -6.464000   -0.832000
  O      2.545000   -6.971000   -1.194000
  C      1.033000   -4.839000   -2.724000
  C      0.672000   -4.906000   -4.210000
  O     -0.532000   -5.051000   -4.522000
  O      1.627000   -4.815000   -5.017000
  H     -1.010000   -4.616000   -1.291000
  H      0.319000   -6.867000   -2.574000
  H      0.644000   -3.924000   -2.320000
  H      2.116000   -4.837000   -2.650000
  N      1.185000   -6.278000    0.464000
  H     -2.644840   -6.016040   -0.517960
  H      0.326060   -5.870110    0.719130
  H      1.826840   -6.549470    1.159400

 Total Charge           Charge          ....   -1
 Multiplicity           Mult            ....    1
 Number of Electrons    NEL             ....   84
 Basis Dimension        Dim             ....  288

ORBITAL ENERGIES
----------------

  NO   OCC          E(Eh)            E(eV)
   0   2.0000     -19.224358      -523.1214
   1   2.0000     -19.223200      -523.0899
   2   2.0000     -19.183202      -522.0015
   3   2.0000     -19.183082      -521.9982
   4   2.0000     -14.473628      -393.8474
   5   2.0000     -14.459785      -393.4708
   6   2.0000     -10.409634      -283.2605
   7   2.0000     -10.394315      -282.8437
   8   2.0000     -10.374586      -282.3068
   9   2.0000     -10.350983      -281.6646
  10   2.0000     -10.287533      -279.9380
  11   2.0000      -1.158340       -31.5200
  12   2.0000      -1.150826       -31.3156
  13   2.0000      -1.131785       -30.7974
  14   2.0000      -1.049291       -28.5527
  15   2.0000      -1.035489       -28.1771
  16   2.0000      -1.019997       -27.7555
  17   2.0000      -0.893420       -24.3112
  18   2.0000      -0.789949       -21.4956
  19   2.0000      -0.729908       -19.8618
  20   2.0000      -0.698279       -19.0011
  21   2.0000      -0.671260       -18.2659
  22   2.0000      -0.654670       -17.8145
  23   2.0000      -0.610026       -16.5996
  24   2.0000      -0.601565       -16.3694
  25   2.0000      -0.565745       -15.3947
  26   2.0000      -0.547280       -14.8922
  27   2.0000      -0.538956       -14.6657
  28   2.0000      -0.530100       -14.4247
  29   2.0000      -0.519897       -14.1471
  30   2.0000      -0.517052       -14.0697
  31   2.0000      -0.507955       -13.8222
  32   2.0000      -0.485854       -13.2208
  33   2.0000      -0.469470       -12.7749
  34   2.0000      -0.450044       -12.2463
  35   2.0000      -0.394418       -10.7327
  36   2.0000      -0.379303       -10.3214
  37   2.0000      -0.370823       -10.0906
  38   2.0000      -0.357624        -9.7314
  39   2.0000      -0.348884        -9.4936
  40   2.0000      -0.333197        -9.0667
  41   2.0000      -0.328925        -8.9505
  42   0.0000       0.081082         2.2063
  43   0.0000       0.086629         2.3573
  44   0.0000       0.091486         2.4895
  45   0.0000       0.107531         2.9261
  46   0.0000       0.112511         3.0616

MULLIKEN ATOMIC CHARGES
-----------------------
   0 C :    0.951876
   1 O :   -0.470079
   2 N :   -0.163092
   3 C :    0.090721
   4 C :    0.428552
   5 O :   -0.553869
   6 C :    0.263473
   7 C :    0.565850
   8 O :   -0.744271
   9 O :   -0.708903
  10 H :   -0.090346
  11 H :   -0.043062
  12 H :   -0.086151
  13 H :    0.016704
  14 N :    0.333774
  15 H :   -0.549927
  16 H :   -0.050090
  17 H :   -0.191161
Sum of atomic charges:   -1.0000000

LOEWDIN ATOMIC CHARGES
----------------------
   0 C :    0.051085
   1 O :   -0.272408
   2 N :    0.044230
   3 C :   -0.005947
   4 C :   -0.114579
   5 O :   -0.258235
   6 C :    0.083591
   7 C :   -0.307182
   8 O :   -0.344468
   9 O :   -0.349014
  10 H :    0.054004
  11 H :    0.062505
  12 H :    0.025897
  13 H :    0.015942
  14 N :    0.282180
  15 H :    0.019558
  16 H :   -0.006505
  17 H :    0.019346

  Mayer bond orders larger than 0.100000
B(  0-C ,  1-O ) :   1.7383 B(  0-C ,  2-N ) :   1.1198 B(  0-C , 10-H ) :  -0.2061
B(  0-C , 15-H ) :   0.9261 B(  2-N ,  3-C ) :   0.7609 B(  2-N ,  6-C ) :   0.1452
B(  2-N , 10-H ) :   1.2504 B(  2-N , 11-H ) :   0.1314 B(  3-C ,  4-C ) :   0.9604
B(  3-C ,  6-C ) :   1.0954 B(  3-C , 10-H ) :  -0.1231 B(  3-C , 11-H ) :   0.8916
B(  3-C , 12-H ) :   0.2533 B(  3-C , 13-H ) :   0.1441 B(  4-C ,  5-O ) :   1.7165
B(  4-C , 11-H ) :   0.1044 B(  4-C , 14-N ) :   1.3154 B(  6-C ,  7-C ) :   0.9395
B(  6-C , 11-H ) :   0.1017 B(  6-C , 12-H ) :   0.7421 B(  6-C , 13-H ) :   0.8918
B(  7-C ,  8-O ) :   1.4907 B(  7-C ,  9-O ) :   1.4825 B(  7-C , 13-H ) :   0.1049
B(  8-O ,  9-O ) :   0.1615 B( 14-N , 16-H ) :   1.0653 B( 14-N , 17-H ) :   1.2539
B( 16-H , 17-H ) :  -0.1755

Dispersion correction           -0.007314838
FINAL SINGLE POINT ENERGY      -604.802125079359

DIPOLE MOMENT
-------------
                                X             Y             Z
Electronic contribution:     -0.34805      -1.33166      -0.27880
Nuclear contribution   :     -0.97685       2.55007       6.80863
                        -----------------------------------------
Total Dipole Moment    :     -1.32490       1.21840       6.52984
                        -----------------------------------------
Magnitude (a.u.)       :      6.77338
Magnitude (Debye)      :     17.21656

Rotational constants in cm-1:     0.047808     0.026840     0.019314
Rotational constants in MHz :  1433.255192   804.652133   579.010490

                             ****ORCA TERMINATED NORMALLY****
TOTAL RUN TIME: 0 days 0 hours 1 minutes 4 seconds 329 msec
