                         Program Version 5.0.0 -  RELEASE  -
|  1> !wB97X-D3 def2-SVPD TightSCF RIJCOSX def2/J CPCM(Water)
|  2> * xyz 1 1
|  3> C          8.98400       -1.72500       -2.31600
|  4> O          9.53900       -1.17700       -3.26700
|  5> N          7.95600       -1.16400       -1.66000
|  6> C          7.28900        0.08400       -2.05400
|  7> C          6.85500        0.91600       -0.82900
|  8> O          6.22200        0.36600        0.07600
|  9> C          6.11000       -0.24300       -2.99400
| 10> C          5.04600       -1.17100       -2.37800
| 11> C          3.92300       -1.59200       -3.33800
| 12> N          4.25100       -2.81100       -4.10000
| 13> C          4.85900       -2.91400       -5.27400
| 14> N          5.28900       -1.86400       -5.93700
| 15> N          5.03500       -4.09500       -5.80900
| 16> H          7.57900       -1.67600       -0.87400
| 17> H          8.00900        0.66300       -2.63000
| 18> H          5.63400        0.67800       -3.26900
| 19> H          6.52400       -0.72000       -3.88000
| 20> H          5.53800       -2.05900       -2.03100
| 21> H          4.57900       -0.65200       -1.54900
| 22> H          3.03300       -1.77400       -2.76600
| 23> H          3.66900       -0.76500       -4.00300
| 24> H          3.96300       -3.69400       -3.69800
| 25> H          5.15000       -0.96200       -5.52100
| 26> H          5.76100       -1.96200       -6.81500
| 27> H          4.64900       -4.89400       -5.32700
| 28> H          5.50800       -4.20500       -6.68400
| 29> N          7.15600        2.23000       -0.78000
| 30> H          9.32147       -2.65128       -2.01080
| 31> H          7.66226        2.64675       -1.51434
| 32> H          6.86942        2.77226       -0.00990
| 33> *
| 34> %MaxCore 64000
| 35> %pal nprocs 8
| 36> end
| 37> %scf
| 38>   Convergence VeryTight
| 39>   MaxIter 150
| 40> end
| 41>
| 42>                          ****END OF INPUT****

CARTESIAN COORDINATES (ANGSTROEM)
---------------------------------
  C      8.984000   -1.725000   -2.316000
  O      9.539000   -1.177000   -3.267000
  N      7.956000   -1.164000   -1.660000
  C      7.289000    0.084000   -2.054000
  C      6.855000    0.916000   -0.829000
  O      6.222000    0.366000    0.076000
  C      6.110000   -0.243000   -2.994000
  C      5.046000   -1.171000   -2.378000
  C      3.923000   -1.592000   -3.338000
  N      4.251000   -2.811000   -4.100000
  C      4.859000   -2.914000   -5.274000
  N      5.289000   -1.864000   -5.937000
  N      5.035000   -4.095000   -5.809000
  H      7.579000   -1.676000   -0.874000
  H      8.009000    0.663000   -2.630000
  H      5.634000    0.678000   -3.269000
  H      6.524000   -0.720000   -3.880000
  H      5.538000   -2.059000   -2.031000
  H      4.579000   -0.652000   -1.549000
  H      3.033000   -1.774000   -2.766000
  H      3.669000   -0.765000   -4.003000
  H      3.963000   -3.694000   -3.698000
  H      5.150000   -0.962000   -5.521000
  H      5.761000   -1.962000   -6.815000
  H      4.649000   -4.894000   -5.327000
  H      5.508000   -4.205000   -6.684000
  N      7.156000    2.230000   -0.780000
  H      9.321470   -2.651280   -2.010800
  H      7.662260    2.646750   -1.514340
  H      6.869420    2.772260   -0.009900

 Total Charge           Charge          ....    1
 Multiplicity           Mult            ....    1
 Number of Electrons    NEL             ....  108
 Basis Dimension        Dim             ....  414

ORBITAL ENERGIES
----------------

  NO   OCC          E(Eh)            E(eV)
   0   2.0000     -19.229140      -523.2515
   1   2.0000     -19.225089      -523.1413
   2   2.0000     -14.490163      -394.2974
   3   2.0000     -14.482965      -394.1015
   4   2.0000     -14.480314      -394.0294
   5   2.0000     -14.475939      -393.9103
   6   2.0000     -14.465071      -393.6146
   7   2.0000     -10.451399      -284.3970
   8   2.0000     -10.417409      -283.4721
   9   2.0000     -10.397812      -282.9389
  10   2.0000     -10.354031      -281.7475
  11   2.0000     -10.341930      -281.4182
  12   2.0000     -10.299747      -280.2704
  13   2.0000     -10.290543      -280.0199
  14   2.0000      -1.161502       -31.6061
  15   2.0000      -1.160798       -31.5869
  16   2.0000      -1.152570       -31.3630
  17   2.0000      -1.044833       -28.4314
  18   2.0000      -1.042719       -28.3738
  19   2.0000      -1.029697       -28.0195
  20   2.0000      -1.027563       -27.9614
  21   2.0000      -0.920832       -25.0571
  22   2.0000      -0.871680       -23.7196
  23   2.0000      -0.805475       -21.9181
  24   2.0000      -0.761404       -20.7188
  25   2.0000      -0.735439       -20.0123
  26   2.0000      -0.728137       -19.8136
  27   2.0000      -0.721425       -19.6310
  28   2.0000      -0.690321       -18.7846
  29   2.0000      -0.679017       -18.4770
  30   2.0000      -0.677799       -18.4438
  31   2.0000      -0.644918       -17.5491
  32   2.0000      -0.622777       -16.9466
  33   2.0000      -0.611763       -16.6469
  34   2.0000      -0.608965       -16.5708
  35   2.0000      -0.590966       -16.0810
  36   2.0000      -0.584424       -15.9030
  37   2.0000      -0.577355       -15.7106
  38   2.0000      -0.565624       -15.3914
  39   2.0000      -0.547815       -14.9068
  40   2.0000      -0.527931       -14.3657
  41   2.0000      -0.517492       -14.0817
  42   2.0000      -0.514735       -14.0067
  43   2.0000      -0.509491       -13.8640
  44   2.0000      -0.495653       -13.4874
  45   2.0000      -0.469513       -12.7761
  46   2.0000      -0.450630       -12.2623
  47   2.0000      -0.435871       -11.8606
  48   2.0000      -0.397816       -10.8251
  49   2.0000      -0.383879       -10.4459
  50   2.0000      -0.379554       -10.3282
  51   2.0000      -0.375336       -10.2134
  52   2.0000      -0.370751       -10.0886
  53   2.0000      -0.357920        -9.7395
  54   0.0000       0.073423         1.9979
  55   0.0000       0.081730         2.2240
  56   0.0000       0.089601         2.4382
  57   0.0000       0.093353         2.5403
  58   0.0000       0.097819         2.6618

MULLIKEN ATOMIC CHARGES
-----------------------
   0 C :    0.945603
   1 O :   -0.511432
   2 N :   -0.083028
   3 C :    0.519721
   4 C :    0.704337
   5 O :   -0.627496
   6 C :    0.025979
   7 C :    0.029371
   8 C :    1.036618
   9 N :   -0.673541
  10 C :    1.604401
  11 N :   -0.152944
  12 N :   -0.150555
  13 H :   -0.300564
  14 H :   -0.271116
  15 H :   -0.006553
  16 H :   -0.067812
  17 H :   -0.154992
  18 H :   -0.084126
  19 H :   -0.264260
  20 H :    0.052171
  21 H :   -0.073618
  22 H :    0.011443
  23 H :   -0.106741
  24 H :    0.032251
  25 H :   -0.030767
  26 N :    0.257480
  27 H :   -0.511306
  28 H :   -0.040744
  29 H :   -0.107781
Sum of atomic charges:    1.0000000

LOEWDIN ATOMIC CHARGES
----------------------
   0 C :    0.065272
   1 O :   -0.277601
   2 N :    0.056193
   3 C :   -0.009900
   4 C :   -0.091020
   5 O :   -0.248279
   6 C :    0.039771
   7 C :    0.005434
   8 C :    0.112552
   9 N :    0.056241
  10 C :   -0.041548
  11 N :    0.288086
  12 N :    0.266737
  13 H :    0.047502
  14 H :    0.042871
  15 H :    0.032131
  16 H :    0.012713
  17 H :    0.012412
  18 H :    0.011516
  19 H :    0.031346
  20 H :    0.036631
  21 H :    0.067934
  22 H :    0.005821
  23 H :    0.050477
  24 H :    0.049348
  25 H :    0.045757
  26 N :    0.280950
  27 H :    0.018624
  28 H :    0.013022
  29 H :    0.019007

  Mayer bond orders larger than 0.100000
B(  0-C ,  1-O ) :   1.7359 B(  0-C ,  2-N ) :   1.1167 B(  0-C , 13-H ) :  -0.2235
B(  0-C , 27-H ) :   0.9537 B(  2-N ,  3-C ) :   0.8028 B(  2-N , 13-H ) :   1.2903
B(  2-N , 14-H ) :   0.2558 B(  3-C ,  4-C ) :   0.8286 B(  3-C ,  6-C ) :   1.1091
B(  3-C , 13-H ) :  -0.1857 B(  3-C , 14-H ) :   0.7914 B(  4-C ,  5-O ) :   1.7015
B(  4-C , 26-N ) :   1.2695 B(  5-O , 26-N ) :   0.1206 B(  6-C ,  7-C ) :   1.1896
B(  6-C , 14-H ) :   0.4781 B(  6-C , 15-H ) :   0.9217 B(  6-C , 16-H ) :   0.8829
B(  6-C , 17-H ) :   0.1179 B(  6-C , 18-H ) :   0.1457 B(  7-C ,  8-C ) :   1.0431
B(  7-C , 15-H ) :   0.1780 B(  7-C , 16-H ) :   0.1145 B(  7-C , 17-H ) :   0.9345
B(  7-C , 18-H ) :   0.9571 B(  7-C , 19-H ) :   0.2489 B(  8-C ,  9-N ) :   0.8331
B(  8-C , 19-H ) :   0.8012 B(  8-C , 20-H ) :   0.7752 B(  8-C , 21-H ) :  -0.1202
B(  9-N , 10-C ) :   0.8203 B(  9-N , 11-N ) :   0.3324 B(  9-N , 12-N ) :   0.2723
B(  9-N , 19-H ) :   0.1470 B(  9-N , 20-H ) :   0.1302 B(  9-N , 21-H ) :   1.3092
B(  9-N , 23-H ) :  -0.1105 B( 10-C , 11-N ) :   0.7439 B( 10-C , 12-N ) :   0.7973
B( 10-C , 21-H ) :  -0.2313 B( 10-C , 22-H ) :  -0.1112 B( 10-C , 23-H ) :  -0.2715
B( 10-C , 24-H ) :  -0.1373 B( 10-C , 25-H ) :  -0.1555 B( 11-N , 12-N ) :   0.2107
B( 11-N , 22-H ) :   1.0497 B( 11-N , 23-H ) :   1.4536 B( 12-N , 24-H ) :   1.1624
B( 12-N , 25-H ) :   1.2684 B( 14-H , 16-H ) :  -0.1254 B( 14-H , 17-H ) :  -0.1185
B( 18-H , 19-H ) :  -0.1128 B( 19-H , 20-H ) :  -0.1518 B( 22-H , 23-H ) :  -0.2441
B( 24-H , 25-H ) :  -0.1871 B( 26-N , 28-H ) :   1.1203 B( 26-N , 29-H ) :   1.1708
B( 28-H , 29-H ) :  -0.1633

Dispersion correction           -0.012631078
FINAL SINGLE POINT ENERGY      -699.895230129089

DIPOLE MOMENT
-------------
                                X             Y             Z
Electronic contribution:      3.93224      -0.60413       1.59061
Nuclear contribution   :     -7.25817      -1.71907      -5.47631
                        -----------------------------------------
Total Dipole Moment    :     -3.32593      -2.32320      -3.88571
                        -----------------------------------------
Magnitude (a.u.)       :      5.61763
Magnitude (Debye)      :     14.27888

Rotational constants in cm-1:     0.031841     0.011854     0.009866
Rotational constants in MHz :   954.557824   355.369741   295.763950

                             ****ORCA TERMINATED NORMALLY****
TOTAL RUN TIME: 0 days 0 hours 2 minutes 58 seconds 101 msec
