                         Program Version 5.0.0 -  RELEASE  -
|  1> !wB97X-D3 def2-SVPD TightSCF RIJCOSX def2/J CPCM(Water)
|  2> * xyz 0 1
|  3> C         -1.79600       -6.42700       -0.93700
|  4> O         -1.71900       -7.64800       -1.03000
|  5> N         -0.82800       -5.60700       -1.35500
|  6> C          0.46600       -6.01600       -1.90500
|  7> C          1.48100       -6.46400       -0.83200
|  8> O          2.54500       -6.97100       -1.19400
|  9> C          1.03300       -4.83900       -2.72400
| 10> C          0.67200       -4.90600       -4.21000
| 11> F         -0.53200       -5.05100       -4.52200
| 12> O          1.62700       -4.81500       -5.01700
| 13> H         -1.01000       -4.61600       -1.29100
| 14> H          0.31900       -6.86700       -2.57400
| 15> H          0.64400       -3.92400       -2.32000
| 16> H          2.11600       -4.83700       -2.65000
| 17> N          1.18500       -6.27800        0.46400
| 18> H         -2.64484       -6.01604       -0.51796
| 19> H          0.32606       -5.87011        0.71913
| 20> H          1.82684       -6.54947        1.15940
| 21> *
| 22> %MaxCore 64000
| 23> %pal nprocs 8
| 24> end
| 25> %scf
| 26>   Convergence VeryTight
| 27>   MaxIter 150
| 28> end
| 29>
| 30>                          ****END OF INPUT****

CARTESIAN COORDINATES (ANGSTROEM)
---------------------------------
  C     -1.796000   -6.427000   -0.937000
  O     -1.719000   -7.648000   -1.030000
  N     -0.828000   -5.607000   -1.355000
  C      0.466000   -6.016000   -1.905000
  C      1.481000   -6.464000   -0.832000
  O      2.545000   -6.971000   -1.194000
  C      1.033000   -4.839000   -2.724000
  C      0.672000   -4.906000   -4.210000
  F     -0.532000   -5.051000   -4.522000
  O      1.627000   -4.815000   -5.017000
  H     -1.010000   -4.616000   -1.291000
  H      0.319000   -6.867000   -2.574000
  H      0.644000   -3.924000   -2.320000
  H      2.116000   -4.837000   -2.650000
  N      1.185000   -6.278000    0.464000
  H     -2.644840   -6.016040   -0.517960
  H      0.326060   -5.870110    0.719130
  H      1.826840   -6.549470    1.159400

 Total Charge           Charge          ....    0
 Multiplicity           Mult            ....    1
 Number of Electrons    NEL             ....   84
 Basis Dimension        Dim             ....  288

ORBITAL ENERGIES
----------------

  NO   OCC          E(Eh)            E(eV)
   0   2.0000     -24.885664      -677.1733
   1   2.0000     -19.271069      -524.3924
   2   2.0000     -19.230340      -523.2842
   3   2.0000     -19.229947      -523.2734
   4   2.0000     -14.483067      -394.1043
   5   2.0000     -14.465535      -393.6272
   6   2.0000     -10.491496      -285.4881
   7   2.0000     -10.418607      -283.5047
   8   2.0000     -10.401050      -283.0270
   9   2.0000     -10.370362      -282.1919
  10   2.0000     -10.330377      -281.1038
  11   2.0000      -1.436304       -39.0838
  12   2.0000      -1.165394       -31.7120
  13   2.0000      -1.159788       -31.5594
  14   2.0000      -1.157322       -31.4923
  15   2.0000      -1.059801       -28.8386
  16   2.0000      -1.026559       -27.9341
  17   2.0000      -0.925064       -25.1723
  18   2.0000      -0.829682       -22.5768
  19   2.0000      -0.773474       -21.0473
  20   2.0000      -0.739712       -20.1286
  21   2.0000      -0.709222       -19.2989
  22   2.0000      -0.686483       -18.6802
  23   2.0000      -0.671489       -18.2721
  24   2.0000      -0.660231       -17.9658
  25   2.0000      -0.653654       -17.7868
  26   2.0000      -0.618673       -16.8349
  27   2.0000      -0.614181       -16.7127
  28   2.0000      -0.573484       -15.6053
  29   2.0000      -0.554523       -15.0893
  30   2.0000      -0.545612       -14.8469
  31   2.0000      -0.531266       -14.4565
  32   2.0000      -0.523863       -14.2551
  33   2.0000      -0.517856       -14.0916
  34   2.0000      -0.500639       -13.6231
  35   2.0000      -0.485788       -13.2190
  36   2.0000      -0.463966       -12.6252
  37   2.0000      -0.410997       -11.1838
  38   2.0000      -0.401716       -10.9312
  39   2.0000      -0.384406       -10.4602
  40   2.0000      -0.375579       -10.2200
  41   2.0000      -0.360100        -9.7988
  42   0.0000       0.041357         1.1254
  43   0.0000       0.073859         2.0098
  44   0.0000       0.081546         2.2190
  45   0.0000       0.089307         2.4302
  46   0.0000       0.105122         2.8605

MULLIKEN ATOMIC CHARGES
-----------------------
   0 C :    0.954530
   1 O :   -0.465195
   2 N :   -0.163314
   3 C :    0.062929
   4 C :    0.440387
   5 O :   -0.554064
   6 C :    0.121111
   7 C :    0.967936
   8 F :   -0.416070
   9 O :   -0.514361
  10 H :   -0.091198
  11 H :    0.010685
  12 H :    0.004438
  13 H :    0.089761
  14 N :    0.322350
  15 H :   -0.542127
  16 H :   -0.043105
  17 H :   -0.184695
Sum of atomic charges:   -0.0000000

LOEWDIN ATOMIC CHARGES
----------------------
   0 C :    0.058919
   1 O :   -0.263310
   2 N :    0.042923
   3 C :    0.002663
   4 C :   -0.107354
   5 O :   -0.248610
   6 C :    0.131294
   7 C :    0.021563
   8 F :   -0.016790
   9 O :   -0.164926
  10 H :    0.058413
  11 H :    0.070666
  12 H :    0.045326
  13 H :    0.040104
  14 N :    0.287535
  15 H :    0.022497
  16 H :   -0.003640
  17 H :    0.022726

  Mayer bond orders larger than 0.100000
B(  0-C ,  1-O ) :   1.7395 B(  0-C ,  2-N ) :   1.1191 B(  0-C , 10-H ) :  -0.2056
B(  0-C , 15-H ) :   0.9271 B(  2-N ,  3-C ) :   0.7610 B(  2-N ,  6-C ) :   0.1415
B(  2-N , 10-H ) :   1.2497 B(  2-N , 11-H ) :   0.1391 B(  3-C ,  4-C ) :   0.9704
B(  3-C ,  6-C ) :   1.1113 B(  3-C , 10-H ) :  -0.1252 B(  3-C , 11-H ) :   0.8915
B(  3-C , 12-H ) :   0.2547 B(  3-C , 13-H ) :   0.1387 B(  4-C ,  5-O ) :   1.7200
B(  4-C , 11-H ) :   0.1013 B(  4-C , 14-N ) :   1.3204 B(  6-C ,  7-C ) :   0.9789
B(  6-C , 12-H ) :   0.7629 B(  6-C , 13-H ) :   0.9197 B(  7-C ,  8-F ) :   0.6919
B(  7-C ,  9-O ) :   1.8112 B(  8-F ,  9-O ) :   0.1014 B( 14-N , 16-H ) :   1.0634
B( 14-N , 17-H ) :   1.2581 B( 16-H , 17-H ) :  -0.1764

Dispersion correction           -0.007179909
FINAL SINGLE POINT ENERGY      -629.226798676807

DIPOLE MOMENT
-------------
                                X             Y             Z
Electronic contribution:     -1.74123       1.24124      -7.00972
Nuclear contribution   :     -0.02785       1.64483       9.33406
                        -----------------------------------------
Total Dipole Moment    :     -1.76908       2.88606       2.32434
                        -----------------------------------------
Magnitude (a.u.)       :      4.10628
Magnitude (Debye)      :     10.43734

Rotational constants in cm-1:     0.047083     0.026159     0.018845
Rotational constants in MHz :  1411.518407   784.224198   564.949808

                             ****ORCA TERMINATED NORMALLY****
TOTAL RUN TIME: 0 days 0 hours 1 minutes 5 seconds 282 msec
