                         Program Version 5.0.0 -  RELEASE  -
|  1> !wB97X-D3 def2-SVPD TightSCF RIJCOSX def2/J CPCM(Water)
|  2> * xyz 0 1
|  3> C          8.98400       -1.72500       -2.31600
|  4> O          9.53900       -1.17700       -3.26700
|  5> N          7.95600       -1.16400       -1.66000
|  6> C          7.28900        0.08400       -2.05400
|  7> C          6.85500        0.91600       -0.82900
|  8> O          6.22200        0.36600        0.07600
|  9> C          6.11000       -0.24300       -2.99400
| 10> C          5.04600       -1.17100       -2.37800
| 11> C          3.92300       -1.59200       -3.33800
| 12> C          4.25100       -2.81100       -4.10000
| 13> C          4.85900       -2.91400       -5.27400
| 14> N          5.28900       -1.86400       -5.93700
| 15> N          5.03500       -4.09500       -5.80900
| 16> H          7.57900       -1.67600       -0.87400
| 17> H          8.00900        0.66300       -2.63000
| 18> H          5.63400        0.67800       -3.26900
| 19> H          6.52400       -0.72000       -3.88000
| 20> H          5.53800       -2.05900       -2.03100
| 21> H          4.57900       -0.65200       -1.54900
| 22> H          3.03300       -1.77400       -2.76600
| 23> H          3.66900       -0.76500       -4.00300
| 24> H          3.96300       -3.69400       -3.69800
| 25> H          5.15000       -0.96200       -5.52100
| 26> H          5.76100       -1.96200       -6.81500
| 27> H          4.64900       -4.89400       -5.32700
| 28> H          5.50800       -4.20500       -6.68400
| 29> N          7.15600        2.23000       -0.78000
| 30> H          9.32147       -2.65128       -2.01080
| 31> H          7.66226        2.64675       -1.51434
| 32> H          6.86942        2.77226       -0.00990
| 33> *
| 34> %MaxCore 64000
| 35> %pal nprocs 8
| 36> end
| 37> %scf
| 38>   Convergence VeryTight
| 39>   MaxIter 150
| 40> end
| 41>
| 42>                          ****END OF INPUT****

CARTESIAN COORDINATES (ANGSTROEM)
---------------------------------
  C      8.984000   -1.725000   -2.316000
  O      9.539000   -1.177000   -3.267000
  N      7.956000   -1.164000   -1.660000
  C      7.289000    0.084000   -2.054000
  C      6.855000    0.916000   -0.829000
  O      6.222000    0.366000    0.076000
  C      6.110000   -0.243000   -2.994000
  C      5.046000   -1.171000   -2.378000
  C      3.923000   -1.592000   -3.338000
  C      4.251000   -2.811000   -4.100000
  C      4.859000   -2.914000   -5.274000
  N      5.289000   -1.864000   -5.937000
  N      5.035000   -4.095000   -5.809000
  H      7.579000   -1.676000   -0.874000
  H      8.009000    0.663000   -2.630000
  H      5.634000    0.678000   -3.269000
  H      6.524000   -0.720000   -3.880000
  H      5.538000   -2.059000   -2.031000
  H      4.579000   -0.652000   -1.549000
  H      3.033000   -1.774000   -2.766000
  H      3.669000   -0.765000   -4.003000
  H      3.963000   -3.694000   -3.698000
  H      5.150000   -0.962000   -5.521000
  H      5.761000   -1.962000   -6.815000
  H      4.649000   -4.894000   -5.327000
  H      5.508000   -4.205000   -6.684000
  N      7.156000    2.230000   -0.780000
  H      9.321470   -2.651280   -2.010800
  H      7.662260    2.646750   -1.514340
  H      6.869420    2.772260   -0.009900

 Total Charge           Charge          ....    0
 Multiplicity           Mult            ....    1
 Number of Electrons    NEL             ....  108
 Basis Dimension        Dim             ....  414

ORBITAL ENERGIES
----------------

  NO   OCC          E(Eh)            E(eV)
   0   2.0000     -19.225973      -523.1653
   1   2.0000     -19.222596      -523.0734
   2   2.0000     -14.472705      -393.8223
   3   2.0000     -14.462673      -393.5493
   4   2.0000     -14.429871      -392.6567
   5   2.0000     -14.425934      -392.5496
   6   2.0000     -10.413976      -283.3787
   7   2.0000     -10.395202      -282.8678
   8   2.0000     -10.348148      -281.5874
   9   2.0000     -10.333761      -281.1959
  10   2.0000     -10.288522      -279.9649
  11   2.0000     -10.268422      -279.4180
  12   2.0000     -10.267596      -279.3955
  13   2.0000     -10.211582      -277.8713
  14   2.0000      -1.158349       -31.5203
  15   2.0000      -1.149930       -31.2912
  16   2.0000      -1.078691       -29.3527
  17   2.0000      -1.040060       -28.3015
  18   2.0000      -1.025073       -27.8937
  19   2.0000      -0.976411       -26.5695
  20   2.0000      -0.912304       -24.8250
  21   2.0000      -0.872049       -23.7297
  22   2.0000      -0.816676       -22.2229
  23   2.0000      -0.764143       -20.7934
  24   2.0000      -0.731716       -19.9110
  25   2.0000      -0.712983       -19.4013
  26   2.0000      -0.690639       -18.7932
  27   2.0000      -0.676269       -18.4022
  28   2.0000      -0.669473       -18.2173
  29   2.0000      -0.648630       -17.6501
  30   2.0000      -0.640701       -17.4344
  31   2.0000      -0.617110       -16.7924
  32   2.0000      -0.595671       -16.2090
  33   2.0000      -0.575820       -15.6689
  34   2.0000      -0.565992       -15.4014
  35   2.0000      -0.559220       -15.2171
  36   2.0000      -0.552423       -15.0322
  37   2.0000      -0.530334       -14.4311
  38   2.0000      -0.524008       -14.2590
  39   2.0000      -0.513293       -13.9674
  40   2.0000      -0.509272       -13.8580
  41   2.0000      -0.505579       -13.7575
  42   2.0000      -0.487580       -13.2677
  43   2.0000      -0.472742       -12.8640
  44   2.0000      -0.457209       -12.4413
  45   2.0000      -0.434478       -11.8228
  46   2.0000      -0.420767       -11.4497
  47   2.0000      -0.410675       -11.1750
  48   2.0000      -0.380372       -10.3505
  49   2.0000      -0.374903       -10.2016
  50   2.0000      -0.368039       -10.0148
  51   2.0000      -0.357655        -9.7323
  52   2.0000      -0.353119        -9.6089
  53   2.0000      -0.247011        -6.7215
  54   0.0000       0.077160         2.0996
  55   0.0000       0.086750         2.3606
  56   0.0000       0.093641         2.5481
  57   0.0000       0.103005         2.8029
  58   0.0000       0.108317         2.9474

MULLIKEN ATOMIC CHARGES
-----------------------
   0 C :    0.944338
   1 O :   -0.511237
   2 N :   -0.081887
   3 C :    0.532897
   4 C :    0.724564
   5 O :   -0.630372
   6 C :    0.049818
   7 C :    0.048505
   8 C :    0.507136
   9 C :   -0.136976
  10 C :    1.022870
  11 N :   -0.169975
  12 N :   -0.082055
  13 H :   -0.302265
  14 H :   -0.306869
  15 H :   -0.039922
  16 H :   -0.071014
  17 H :   -0.161457
  18 H :   -0.157634
  19 H :   -0.070935
  20 H :   -0.037625
  21 H :   -0.378570
  22 H :    0.024112
  23 H :   -0.221907
  24 H :    0.034910
  25 H :   -0.123314
  26 N :    0.253775
  27 H :   -0.511699
  28 H :   -0.039727
  29 H :   -0.107484
Sum of atomic charges:    0.0000000

LOEWDIN ATOMIC CHARGES
----------------------
   0 C :    0.062810
   1 O :   -0.280395
   2 N :    0.056131
   3 C :   -0.013822
   4 C :   -0.092882
   5 O :   -0.251549
   6 C :    0.038309
   7 C :   -0.019265
   8 C :   -0.042036
   9 C :   -0.040881
  10 C :   -0.246928
  11 N :    0.212447
  12 N :    0.182448
  13 H :    0.046301
  14 H :    0.040359
  15 H :    0.027648
  16 H :    0.009504
  17 H :    0.002160
  18 H :   -0.001418
  19 H :    0.005327
  20 H :    0.013146
  21 H :   -0.059346
  22 H :   -0.015536
  23 H :    0.013596
  24 H :    0.019352
  25 H :    0.007813
  26 N :    0.279022
  27 H :    0.017758
  28 H :    0.012012
  29 H :    0.017917

  Mayer bond orders larger than 0.100000
B(  0-C ,  1-O ) :   1.7346 B(  0-C ,  2-N ) :   1.1209 B(  0-C , 13-H ) :  -0.2232
B(  0-C , 27-H ) :   0.9511 B(  2-N ,  3-C ) :   0.7970 B(  2-N , 13-H ) :   1.2909
B(  2-N , 14-H ) :   0.2526 B(  3-C ,  4-C ) :   0.8192 B(  3-C ,  6-C ) :   1.0893
B(  3-C , 13-H ) :  -0.1834 B(  3-C , 14-H ) :   0.8152 B(  4-C ,  5-O ) :   1.7004
B(  4-C , 14-H ) :  -0.1063 B(  4-C , 26-N ) :   1.2639 B(  5-O , 26-N ) :   0.1221
B(  6-C ,  7-C ) :   1.2059 B(  6-C , 14-H ) :   0.4817 B(  6-C , 15-H ) :   0.9302
B(  6-C , 16-H ) :   0.8789 B(  6-C , 17-H ) :   0.1442 B(  6-C , 18-H ) :   0.1176
B(  7-C ,  8-C ) :   1.1617 B(  7-C , 15-H ) :   0.1858 B(  7-C , 16-H ) :   0.1244
B(  7-C , 17-H ) :   0.9097 B(  7-C , 18-H ) :   0.9628 B(  7-C , 19-H ) :   0.2429
B(  7-C , 20-H ) :   0.1291 B(  8-C ,  9-C ) :   1.1500 B(  8-C , 19-H ) :   0.7125
B(  8-C , 20-H ) :   0.7826 B(  8-C , 21-H ) :   0.2844 B(  9-C , 10-C ) :   1.5757
B(  9-C , 11-N ) :   0.2503 B(  9-C , 12-N ) :   0.3464 B(  9-C , 19-H ) :   0.1822
B(  9-C , 20-H ) :   0.1278 B(  9-C , 21-H ) :   0.8811 B(  9-C , 22-H ) :  -0.1552
B( 10-C , 11-N ) :   0.8018 B( 10-C , 12-N ) :   0.8538 B( 10-C , 23-H ) :  -0.3241
B( 11-N , 12-N ) :   0.1509 B( 11-N , 22-H ) :   1.0185 B( 11-N , 23-H ) :   1.5596
B( 12-N , 21-H ) :   0.1311 B( 12-N , 24-H ) :   1.1436 B( 12-N , 25-H ) :   1.2380
B( 14-H , 16-H ) :  -0.1599 B( 14-H , 17-H ) :  -0.1369 B( 18-H , 19-H ) :  -0.1338
B( 22-H , 23-H ) :  -0.2416 B( 24-H , 25-H ) :  -0.1740 B( 26-N , 28-H ) :   1.1219
B( 26-N , 29-H ) :   1.1706 B( 28-H , 29-H ) :  -0.1638

Dispersion correction           -0.012660315
FINAL SINGLE POINT ENERGY      -683.341333997049

DIPOLE MOMENT
-------------
                                X             Y             Z
Electronic contribution:      7.59397       2.79035       4.72860
Nuclear contribution   :     -7.55835      -1.96823      -5.64694
                        -----------------------------------------
Total Dipole Moment    :      0.03561       0.82212      -0.91834
                        -----------------------------------------
Magnitude (a.u.)       :      1.23308
Magnitude (Debye)      :      3.13425

Rotational constants in cm-1:     0.032000     0.011985     0.009963
Rotational constants in MHz :   959.326480   359.295817   298.695599

                             ****ORCA TERMINATED NORMALLY****
TOTAL RUN TIME: 0 days 0 hours 2 minutes 36 seconds 648 msec
