                         Program Version 5.0.0 -  RELEASE  -
|  1> !wB97X-D3 def2-SVPD TightSCF RIJCOSX def2/J CPCM(Water)
|  2> * xyz 0 1
|  3> C         -1.79600       -6.42700       -0.93700
|  4> O         -1.71900       -7.64800       -1.03000
|  5> N         -0.82800       -5.60700       -1.35500
|  6> C          0.46600       -6.01600       -1.90500
|  7> C          1.48100       -6.46400       -0.83200
|  8> O          2.54500       -6.97100       -1.19400
|  9> C          1.03300       -4.83900       -2.72400
| 10> C          0.67200       -4.90600       -4.21000
| 11> O         -0.53200       -5.05100       -4.52200
| 12> F          1.62700       -4.81500       -5.01700
| 13> H         -1.01000       -4.61600       -1.29100
| 14> H          0.31900       -6.86700       -2.57400
| 15> H          0.64400       -3.92400       -2.32000
| 16> H          2.11600       -4.83700       -2.65000
| 17> N          1.18500       -6.27800        0.46400
| 18> H         -2.64484       -6.01604       -0.51796
| 19> H          0.32606       -5.87011        0.71913
| 20> H          1.82684       -6.54947        1.15940
| 21> *
| 22> %MaxCore 64000
| 23> %pal nprocs 8
| 24> end
| 25> %scf
| 26>   Convergence VeryTight
| 27>   MaxIter 150
| 28> end
| 29>
| 30>                          ****END OF INPUT****

CARTESIAN COORDINATES (ANGSTROEM)
---------------------------------
  C     -1.796000   -6.427000   -0.937000
  O     -1.719000   -7.648000   -1.030000
  N     -0.828000   -5.607000   -1.355000
  C      0.466000   -6.016000   -1.905000
  C      1.481000   -6.464000   -0.832000
  O      2.545000   -6.971000   -1.194000
  C      1.033000   -4.839000   -2.724000
  C      0.672000   -4.906000   -4.210000
  O     -0.532000   -5.051000   -4.522000
  F      1.627000   -4.815000   -5.017000
  H     -1.010000   -4.616000   -1.291000
  H      0.319000   -6.867000   -2.574000
  H      0.644000   -3.924000   -2.320000
  H      2.116000   -4.837000   -2.650000
  N      1.185000   -6.278000    0.464000
  H     -2.644840   -6.016040   -0.517960
  H      0.326060   -5.870110    0.719130
  H      1.826840   -6.549470    1.159400

 Total Charge           Charge          ....    0
 Multiplicity           Mult            ....    1
 Number of Electrons    NEL             ....   84
 Basis Dimension        Dim             ....  288

ORBITAL ENERGIES
----------------

  NO   OCC          E(Eh)            E(eV)
   0   2.0000     -24.883040      -677.1019
   1   2.0000     -19.271761      -524.4113
   2   2.0000     -19.229706      -523.2669
   3   2.0000     -19.229444      -523.2598
   4   2.0000     -14.481943      -394.0737
   5   2.0000     -14.465344      -393.6220
   6   2.0000     -10.491277      -285.4822
   7   2.0000     -10.418189      -283.4933
   8   2.0000     -10.400188      -283.0035
   9   2.0000     -10.369957      -282.1809
  10   2.0000     -10.330058      -281.0952
  11   2.0000      -1.433539       -39.0086
  12   2.0000      -1.165302       -31.7095
  13   2.0000      -1.160405       -31.5762
  14   2.0000      -1.156788       -31.4778
  15   2.0000      -1.058323       -28.7984
  16   2.0000      -1.026154       -27.9231
  17   2.0000      -0.923568       -25.1316
  18   2.0000      -0.832547       -22.6548
  19   2.0000      -0.770030       -20.9536
  20   2.0000      -0.738214       -20.0878
  21   2.0000      -0.707900       -19.2629
  22   2.0000      -0.685500       -18.6534
  23   2.0000      -0.669116       -18.2076
  24   2.0000      -0.661292       -17.9947
  25   2.0000      -0.644328       -17.5331
  26   2.0000      -0.629702       -17.1351
  27   2.0000      -0.610719       -16.6185
  28   2.0000      -0.574335       -15.6285
  29   2.0000      -0.553937       -15.0734
  30   2.0000      -0.545191       -14.8354
  31   2.0000      -0.528027       -14.3683
  32   2.0000      -0.522373       -14.2145
  33   2.0000      -0.514432       -13.9984
  34   2.0000      -0.503762       -13.7081
  35   2.0000      -0.482391       -13.1265
  36   2.0000      -0.465968       -12.6796
  37   2.0000      -0.413508       -11.2521
  38   2.0000      -0.399780       -10.8786
  39   2.0000      -0.384034       -10.4501
  40   2.0000      -0.375273       -10.2117
  41   2.0000      -0.359546        -9.7838
  42   0.0000       0.038459         1.0465
  43   0.0000       0.074614         2.0303
  44   0.0000       0.082725         2.2511
  45   0.0000       0.090862         2.4725
  46   0.0000       0.104257         2.8370

MULLIKEN ATOMIC CHARGES
-----------------------
   0 C :    0.956669
   1 O :   -0.465327
   2 N :   -0.180613
   3 C :    0.081633
   4 C :    0.451660
   5 O :   -0.553235
   6 C :    0.096733
   7 C :    0.955750
   8 O :   -0.544777
   9 F :   -0.385221
  10 H :   -0.083114
  11 H :   -0.013202
  12 H :   -0.006111
  13 H :    0.137337
  14 N :    0.322914
  15 H :   -0.543332
  16 H :   -0.044774
  17 H :   -0.182990
Sum of atomic charges:    0.0000000

LOEWDIN ATOMIC CHARGES
----------------------
   0 C :    0.058403
   1 O :   -0.264717
   2 N :    0.045846
   3 C :    0.006210
   4 C :   -0.108224
   5 O :   -0.249543
   6 C :    0.129597
   7 C :    0.025546
   8 O :   -0.162870
   9 F :   -0.020669
  10 H :    0.058883
  11 H :    0.069161
  12 H :    0.046558
  13 H :    0.037388
  14 N :    0.287366
  15 H :    0.022302
  16 H :   -0.003844
  17 H :    0.022606

  Mayer bond orders larger than 0.100000
B(  0-C ,  1-O ) :   1.7406 B(  0-C ,  2-N ) :   1.1154 B(  0-C , 10-H ) :  -0.2072
B(  0-C , 15-H ) :   0.9296 B(  2-N ,  3-C ) :   0.7511 B(  2-N ,  6-C ) :   0.1447
B(  2-N , 10-H ) :   1.2528 B(  2-N , 11-H ) :   0.1446 B(  3-C ,  4-C ) :   0.9566
B(  3-C ,  6-C ) :   1.1353 B(  3-C , 10-H ) :  -0.1231 B(  3-C , 11-H ) :   0.8889
B(  3-C , 12-H ) :   0.2827 B(  3-C , 13-H ) :   0.1353 B(  4-C ,  5-O ) :   1.7227
B(  4-C , 11-H ) :   0.1019 B(  4-C , 14-N ) :   1.3165 B(  6-C ,  7-C ) :   1.0270
B(  6-C , 12-H ) :   0.7688 B(  6-C , 13-H ) :   0.8700 B(  7-C ,  8-O ) :   1.7982
B(  7-C ,  9-F ) :   0.7090 B( 14-N , 16-H ) :   1.0670 B( 14-N , 17-H ) :   1.2551
B( 16-H , 17-H ) :  -0.1756

Dispersion correction           -0.007238494
FINAL SINGLE POINT ENERGY      -629.228415059685

DIPOLE MOMENT
-------------
                                X             Y             Z
Electronic contribution:      2.20423       1.68316      -7.93608
Nuclear contribution   :     -2.28766       1.39781       9.85217
                        -----------------------------------------
Total Dipole Moment    :     -0.08343       3.08097       1.91609
                        -----------------------------------------
Magnitude (a.u.)       :      3.62915
Magnitude (Debye)      :      9.22457

Rotational constants in cm-1:     0.047647     0.025536     0.018613
Rotational constants in MHz :  1428.421518   765.554700   557.994652

                             ****ORCA TERMINATED NORMALLY****
TOTAL RUN TIME: 0 days 0 hours 1 minutes 4 seconds 969 msec
