                         Program Version 5.0.0 -  RELEASE  -
|  1> !wB97X-D3 def2-SVPD TightSCF RIJCOSX def2/J CPCM(Water)
|  2> * xyz 0 1
|  3> C          8.98400       -1.72500       -2.31600
|  4> O          9.53900       -1.17700       -3.26700
|  5> N          7.95600       -1.16400       -1.66000
|  6> C          7.28900        0.08400       -2.05400
|  7> C          6.85500        0.91600       -0.82900
|  8> O          6.22200        0.36600        0.07600
|  9> C          6.11000       -0.24300       -2.99400
| 10> C          5.04600       -1.17100       -2.37800
| 11> C          3.92300       -1.59200       -3.33800
| 12> N          4.25100       -2.81100       -4.10000
| 13> C          4.85900       -2.91400       -5.27400
| 14> C          5.28900       -1.86400       -5.93700
| 15> N          5.03500       -4.09500       -5.80900
| 16> H          7.57900       -1.67600       -0.87400
| 17> H          8.00900        0.66300       -2.63000
| 18> H          5.63400        0.67800       -3.26900
| 19> H          6.52400       -0.72000       -3.88000
| 20> H          5.53800       -2.05900       -2.03100
| 21> H          4.57900       -0.65200       -1.54900
| 22> H          3.03300       -1.77400       -2.76600
| 23> H          3.66900       -0.76500       -4.00300
| 24> H          3.96300       -3.69400       -3.69800
| 25> H          5.15000       -0.96200       -5.52100
| 26> H          5.76100       -1.96200       -6.81500
| 27> H          4.64900       -4.89400       -5.32700
| 28> H          5.50800       -4.20500       -6.68400
| 29> N          7.15600        2.23000       -0.78000
| 30> H          9.32147       -2.65128       -2.01080
| 31> H          7.66226        2.64675       -1.51434
| 32> H          6.86942        2.77226       -0.00990
| 33> *
| 34> %MaxCore 64000
| 35> %pal nprocs 8
| 36> end
| 37> %scf
| 38>   Convergence VeryTight
| 39>   MaxIter 150
| 40> end
| 41>
| 42>                          ****END OF INPUT****

CARTESIAN COORDINATES (ANGSTROEM)
---------------------------------
  C      8.984000   -1.725000   -2.316000
  O      9.539000   -1.177000   -3.267000
  N      7.956000   -1.164000   -1.660000
  C      7.289000    0.084000   -2.054000
  C      6.855000    0.916000   -0.829000
  O      6.222000    0.366000    0.076000
  C      6.110000   -0.243000   -2.994000
  C      5.046000   -1.171000   -2.378000
  C      3.923000   -1.592000   -3.338000
  N      4.251000   -2.811000   -4.100000
  C      4.859000   -2.914000   -5.274000
  C      5.289000   -1.864000   -5.937000
  N      5.035000   -4.095000   -5.809000
  H      7.579000   -1.676000   -0.874000
  H      8.009000    0.663000   -2.630000
  H      5.634000    0.678000   -3.269000
  H      6.524000   -0.720000   -3.880000
  H      5.538000   -2.059000   -2.031000
  H      4.579000   -0.652000   -1.549000
  H      3.033000   -1.774000   -2.766000
  H      3.669000   -0.765000   -4.003000
  H      3.963000   -3.694000   -3.698000
  H      5.150000   -0.962000   -5.521000
  H      5.761000   -1.962000   -6.815000
  H      4.649000   -4.894000   -5.327000
  H      5.508000   -4.205000   -6.684000
  N      7.156000    2.230000   -0.780000
  H      9.321470   -2.651280   -2.010800
  H      7.662260    2.646750   -1.514340
  H      6.869420    2.772260   -0.009900

 Total Charge           Charge          ....    0
 Multiplicity           Mult            ....    1
 Number of Electrons    NEL             ....  108
 Basis Dimension        Dim             ....  414

ORBITAL ENERGIES
----------------

  NO   OCC          E(Eh)            E(eV)
   0   2.0000     -19.226595      -523.1822
   1   2.0000     -19.222875      -523.0810
   2   2.0000     -14.473178      -393.8352
   3   2.0000     -14.462946      -393.5568
   4   2.0000     -14.437690      -392.8695
   5   2.0000     -14.429297      -392.6411
   6   2.0000     -10.414384      -283.3898
   7   2.0000     -10.395512      -282.8763
   8   2.0000     -10.348740      -281.6035
   9   2.0000     -10.338979      -281.3379
  10   2.0000     -10.319556      -280.8094
  11   2.0000     -10.288797      -279.9724
  12   2.0000     -10.278002      -279.6787
  13   2.0000     -10.201566      -277.5987
  14   2.0000      -1.158889       -31.5350
  15   2.0000      -1.150262       -31.3002
  16   2.0000      -1.082195       -29.4480
  17   2.0000      -1.040605       -28.3163
  18   2.0000      -1.025396       -27.9024
  19   2.0000      -0.992210       -26.9994
  20   2.0000      -0.908301       -24.7161
  21   2.0000      -0.856381       -23.3033
  22   2.0000      -0.827850       -22.5269
  23   2.0000      -0.781603       -21.2685
  24   2.0000      -0.732361       -19.9285
  25   2.0000      -0.720370       -19.6023
  26   2.0000      -0.682649       -18.5758
  27   2.0000      -0.676644       -18.4124
  28   2.0000      -0.664536       -18.0829
  29   2.0000      -0.651146       -17.7186
  30   2.0000      -0.640880       -17.4392
  31   2.0000      -0.623348       -16.9622
  32   2.0000      -0.598547       -16.2873
  33   2.0000      -0.576845       -15.6968
  34   2.0000      -0.568840       -15.4789
  35   2.0000      -0.567567       -15.4443
  36   2.0000      -0.539590       -14.6830
  37   2.0000      -0.523892       -14.2558
  38   2.0000      -0.522219       -14.2103
  39   2.0000      -0.514486       -13.9999
  40   2.0000      -0.507535       -13.8107
  41   2.0000      -0.500239       -13.6122
  42   2.0000      -0.491481       -13.3739
  43   2.0000      -0.477286       -12.9876
  44   2.0000      -0.476452       -12.9649
  45   2.0000      -0.451462       -12.2849
  46   2.0000      -0.439409       -11.9569
  47   2.0000      -0.422317       -11.4918
  48   2.0000      -0.381130       -10.3711
  49   2.0000      -0.375920       -10.2293
  50   2.0000      -0.368612       -10.0304
  51   2.0000      -0.356830        -9.7098
  52   2.0000      -0.340115        -9.2550
  53   2.0000      -0.260389        -7.0855
  54   0.0000       0.077139         2.0991
  55   0.0000       0.086347         2.3496
  56   0.0000       0.093150         2.5348
  57   0.0000       0.102444         2.7876
  58   0.0000       0.106167         2.8889

MULLIKEN ATOMIC CHARGES
-----------------------
   0 C :    0.944243
   1 O :   -0.514739
   2 N :   -0.078055
   3 C :    0.531008
   4 C :    0.701971
   5 O :   -0.628766
   6 C :    0.069954
   7 C :    0.013810
   8 C :    1.106082
   9 N :   -0.630511
  10 C :    0.900966
  11 C :    0.201414
  12 N :    0.045719
  13 H :   -0.303042
  14 H :   -0.277541
  15 H :   -0.048212
  16 H :   -0.130185
  17 H :   -0.175408
  18 H :   -0.102607
  19 H :   -0.269994
  20 H :    0.046831
  21 H :   -0.219031
  22 H :   -0.027975
  23 H :   -0.640683
  24 H :   -0.048183
  25 H :   -0.060622
  26 N :    0.258159
  27 H :   -0.513045
  28 H :   -0.042496
  29 H :   -0.109063
Sum of atomic charges:   -0.0000000

LOEWDIN ATOMIC CHARGES
----------------------
   0 C :    0.063446
   1 O :   -0.280142
   2 N :    0.056016
   3 C :   -0.013206
   4 C :   -0.092859
   5 O :   -0.250797
   6 C :    0.039125
   7 C :    0.000428
   8 C :    0.092975
   9 N :   -0.002303
  10 C :   -0.256321
  11 C :    0.124621
  12 N :    0.187269
  13 H :    0.046584
  14 H :    0.041076
  15 H :    0.029253
  16 H :    0.000301
  17 H :    0.007020
  18 H :    0.005048
  19 H :    0.019105
  20 H :    0.024036
  21 H :    0.037784
  22 H :   -0.132031
  23 H :   -0.106444
  24 H :    0.014356
  25 H :    0.018018
  26 N :    0.279416
  27 H :    0.017934
  28 H :    0.012215
  29 H :    0.018076

  Mayer bond orders larger than 0.100000
B(  0-C ,  1-O ) :   1.7337 B(  0-C ,  2-N ) :   1.1218 B(  0-C , 13-H ) :  -0.2233
B(  0-C , 27-H ) :   0.9540 B(  2-N ,  3-C ) :   0.8060 B(  2-N , 13-H ) :   1.2866
B(  2-N , 14-H ) :   0.2534 B(  3-C ,  4-C ) :   0.8295 B(  3-C ,  6-C ) :   1.1063
B(  3-C , 13-H ) :  -0.1854 B(  3-C , 14-H ) :   0.7972 B(  4-C ,  5-O ) :   1.7004
B(  4-C , 26-N ) :   1.2666 B(  5-O , 26-N ) :   0.1195 B(  6-C ,  7-C ) :   1.2131
B(  6-C , 14-H ) :   0.4727 B(  6-C , 15-H ) :   0.9165 B(  6-C , 16-H ) :   0.9178
B(  6-C , 17-H ) :   0.1220 B(  6-C , 18-H ) :   0.1318 B(  7-C ,  8-C ) :   1.0340
B(  7-C , 15-H ) :   0.1814 B(  7-C , 16-H ) :   0.1251 B(  7-C , 17-H ) :   0.9229
B(  7-C , 18-H ) :   0.9478 B(  7-C , 19-H ) :   0.2820 B(  8-C ,  9-N ) :   0.8180
B(  8-C , 19-H ) :   0.7897 B(  8-C , 20-H ) :   0.7456 B(  8-C , 21-H ) :  -0.1347
B(  9-N , 10-C ) :   0.7437 B(  9-N , 11-C ) :   0.4489 B(  9-N , 12-N ) :   0.1589
B(  9-N , 19-H ) :   0.1104 B(  9-N , 20-H ) :   0.1249 B(  9-N , 21-H ) :   1.4759
B( 10-C , 11-C ) :   1.5680 B( 10-C , 12-N ) :   0.9589 B( 10-C , 21-H ) :  -0.3657
B( 10-C , 22-H ) :   0.2021 B( 10-C , 25-H ) :  -0.1073 B( 11-C , 12-N ) :   0.2839
B( 11-C , 22-H ) :   0.5944 B( 11-C , 23-H ) :   0.9464 B( 12-N , 23-H ) :   0.1118
B( 12-N , 24-H ) :   1.1142 B( 12-N , 25-H ) :   1.2311 B( 14-H , 16-H ) :  -0.1193
B( 14-H , 17-H ) :  -0.1252 B( 18-H , 19-H ) :  -0.1112 B( 19-H , 20-H ) :  -0.1503
B( 20-H , 22-H ) :   0.1239 B( 24-H , 25-H ) :  -0.1727 B( 26-N , 28-H ) :   1.1213
B( 26-N , 29-H ) :   1.1704 B( 28-H , 29-H ) :  -0.1634

Dispersion correction           -0.012637948
FINAL SINGLE POINT ENERGY      -683.327087922866

DIPOLE MOMENT
-------------
                                X             Y             Z
Electronic contribution:      6.35948       1.63807       7.00993
Nuclear contribution   :     -7.40822      -1.83126      -5.91263
                        -----------------------------------------
Total Dipole Moment    :     -1.04875      -0.19319       1.09730
                        -----------------------------------------
Magnitude (a.u.)       :      1.53012
Magnitude (Debye)      :      3.88926

Rotational constants in cm-1:     0.032086     0.012037     0.009969
Rotational constants in MHz :   961.911651   360.861470   298.871463

                             ****ORCA TERMINATED NORMALLY****
TOTAL RUN TIME: 0 days 0 hours 2 minutes 34 seconds 729 msec
