                         Program Version 5.0.0 -  RELEASE  -
|  1> !wB97X-D3 def2-SVPD TightSCF RIJCOSX def2/J CPCM(Water)
|  2> * xyz 0 1
|  3> C          8.98400       -1.72500       -2.31600
|  4> O          9.53900       -1.17700       -3.26700
|  5> N          7.95600       -1.16400       -1.66000
|  6> C          7.28900        0.08400       -2.05400
|  7> C          6.85500        0.91600       -0.82900
|  8> O          6.22200        0.36600        0.07600
|  9> C          6.11000       -0.24300       -2.99400
| 10> C          5.04600       -1.17100       -2.37800
| 11> C          3.92300       -1.59200       -3.33800
| 12> N          4.25100       -2.81100       -4.10000
| 13> C          4.85900       -2.91400       -5.27400
| 14> N          5.28900       -1.86400       -5.93700
| 15> C          5.03500       -4.09500       -5.80900
| 16> H          7.57900       -1.67600       -0.87400
| 17> H          8.00900        0.66300       -2.63000
| 18> H          5.63400        0.67800       -3.26900
| 19> H          6.52400       -0.72000       -3.88000
| 20> H          5.53800       -2.05900       -2.03100
| 21> H          4.57900       -0.65200       -1.54900
| 22> H          3.03300       -1.77400       -2.76600
| 23> H          3.66900       -0.76500       -4.00300
| 24> H          3.96300       -3.69400       -3.69800
| 25> H          5.15000       -0.96200       -5.52100
| 26> H          5.76100       -1.96200       -6.81500
| 27> H          4.64900       -4.89400       -5.32700
| 28> H          5.50800       -4.20500       -6.68400
| 29> N          7.15600        2.23000       -0.78000
| 30> H          9.32147       -2.65128       -2.01080
| 31> H          7.66226        2.64675       -1.51434
| 32> H          6.86942        2.77226       -0.00990
| 33> *
| 34> %MaxCore 64000
| 35> %pal nprocs 8
| 36> end
| 37> %scf
| 38>   Convergence VeryTight
| 39>   MaxIter 150
| 40> end
| 41>
| 42>                          ****END OF INPUT****

CARTESIAN COORDINATES (ANGSTROEM)
---------------------------------
  C      8.984000   -1.725000   -2.316000
  O      9.539000   -1.177000   -3.267000
  N      7.956000   -1.164000   -1.660000
  C      7.289000    0.084000   -2.054000
  C      6.855000    0.916000   -0.829000
  O      6.222000    0.366000    0.076000
  C      6.110000   -0.243000   -2.994000
  C      5.046000   -1.171000   -2.378000
  C      3.923000   -1.592000   -3.338000
  N      4.251000   -2.811000   -4.100000
  C      4.859000   -2.914000   -5.274000
  N      5.289000   -1.864000   -5.937000
  C      5.035000   -4.095000   -5.809000
  H      7.579000   -1.676000   -0.874000
  H      8.009000    0.663000   -2.630000
  H      5.634000    0.678000   -3.269000
  H      6.524000   -0.720000   -3.880000
  H      5.538000   -2.059000   -2.031000
  H      4.579000   -0.652000   -1.549000
  H      3.033000   -1.774000   -2.766000
  H      3.669000   -0.765000   -4.003000
  H      3.963000   -3.694000   -3.698000
  H      5.150000   -0.962000   -5.521000
  H      5.761000   -1.962000   -6.815000
  H      4.649000   -4.894000   -5.327000
  H      5.508000   -4.205000   -6.684000
  N      7.156000    2.230000   -0.780000
  H      9.321470   -2.651280   -2.010800
  H      7.662260    2.646750   -1.514340
  H      6.869420    2.772260   -0.009900

 Total Charge           Charge          ....    0
 Multiplicity           Mult            ....    1
 Number of Electrons    NEL             ....  108
 Basis Dimension        Dim             ....  414

ORBITAL ENERGIES
----------------

  NO   OCC          E(Eh)            E(eV)
   0   2.0000     -19.227210      -523.1990
   1   2.0000     -19.223331      -523.0934
   2   2.0000     -14.473847      -393.8534
   3   2.0000     -14.463501      -393.5719
   4   2.0000     -14.436309      -392.8319
   5   2.0000     -14.431643      -392.7050
   6   2.0000     -10.415284      -283.4143
   7   2.0000     -10.396010      -282.8898
   8   2.0000     -10.350603      -281.6542
   9   2.0000     -10.339738      -281.3586
  10   2.0000     -10.320829      -280.8440
  11   2.0000     -10.293269      -280.0941
  12   2.0000     -10.278976      -279.7052
  13   2.0000     -10.199980      -277.5556
  14   2.0000      -1.159529       -31.5524
  15   2.0000      -1.150773       -31.3141
  16   2.0000      -1.081222       -29.4215
  17   2.0000      -1.041421       -28.3385
  18   2.0000      -1.025949       -27.9175
  19   2.0000      -0.992517       -27.0078
  20   2.0000      -0.913353       -24.8536
  21   2.0000      -0.867543       -23.6070
  22   2.0000      -0.821010       -22.3408
  23   2.0000      -0.773292       -21.0424
  24   2.0000      -0.732900       -19.9432
  25   2.0000      -0.715932       -19.4815
  26   2.0000      -0.701972       -19.1016
  27   2.0000      -0.677980       -18.4488
  28   2.0000      -0.677284       -18.4298
  29   2.0000      -0.646829       -17.6011
  30   2.0000      -0.639247       -17.3948
  31   2.0000      -0.609792       -16.5933
  32   2.0000      -0.593391       -16.1470
  33   2.0000      -0.582957       -15.8631
  34   2.0000      -0.572154       -15.5691
  35   2.0000      -0.567863       -15.4523
  36   2.0000      -0.551629       -15.0106
  37   2.0000      -0.527444       -14.3525
  38   2.0000      -0.517744       -14.0885
  39   2.0000      -0.514732       -14.0066
  40   2.0000      -0.510919       -13.9028
  41   2.0000      -0.497048       -13.5254
  42   2.0000      -0.488084       -13.2814
  43   2.0000      -0.482145       -13.1198
  44   2.0000      -0.477680       -12.9983
  45   2.0000      -0.453977       -12.3533
  46   2.0000      -0.439886       -11.9699
  47   2.0000      -0.426254       -11.5990
  48   2.0000      -0.381596       -10.3838
  49   2.0000      -0.376867       -10.2551
  50   2.0000      -0.369150       -10.0451
  51   2.0000      -0.359094        -9.7714
  52   2.0000      -0.343401        -9.3444
  53   2.0000      -0.257332        -7.0024
  54   0.0000       0.075963         2.0671
  55   0.0000       0.085175         2.3177
  56   0.0000       0.092783         2.5248
  57   0.0000       0.100847         2.7442
  58   0.0000       0.108012         2.9392

MULLIKEN ATOMIC CHARGES
-----------------------
   0 C :    0.945282
   1 O :   -0.511505
   2 N :   -0.082651
   3 C :    0.518751
   4 C :    0.704282
   5 O :   -0.627414
   6 C :    0.045494
   7 C :    0.046459
   8 C :    1.053701
   9 N :   -0.506780
  10 C :    0.636108
  11 N :    0.163928
  12 C :    0.293992
  13 H :   -0.302311
  14 H :   -0.278310
  15 H :   -0.012256
  16 H :   -0.098169
  17 H :   -0.179963
  18 H :   -0.114344
  19 H :   -0.314228
  20 H :    0.006574
  21 H :   -0.130858
  22 H :   -0.101179
  23 H :   -0.168752
  24 H :   -0.204246
  25 H :   -0.378157
  26 N :    0.258558
  27 H :   -0.512159
  28 H :   -0.041715
  29 H :   -0.108131
Sum of atomic charges:   -0.0000000

LOEWDIN ATOMIC CHARGES
----------------------
   0 C :    0.064153
   1 O :   -0.278955
   2 N :    0.056084
   3 C :   -0.012120
   4 C :   -0.092015
   5 O :   -0.249898
   6 C :    0.037058
   7 C :   -0.003808
   8 C :    0.089492
   9 N :   -0.000362
  10 C :   -0.262968
  11 N :    0.210855
  12 C :    0.101993
  13 H :    0.046885
  14 H :    0.041608
  15 H :    0.029711
  16 H :    0.009587
  17 H :    0.007860
  18 H :    0.005657
  19 H :    0.018886
  20 H :    0.025008
  21 H :    0.043503
  22 H :   -0.022230
  23 H :    0.023274
  24 H :   -0.107172
  25 H :   -0.111206
  26 N :    0.279966
  27 H :    0.018223
  28 H :    0.012509
  29 H :    0.018425

  Mayer bond orders larger than 0.100000
B(  0-C ,  1-O ) :   1.7356 B(  0-C ,  2-N ) :   1.1190 B(  0-C , 13-H ) :  -0.2237
B(  0-C , 27-H ) :   0.9526 B(  2-N ,  3-C ) :   0.8026 B(  2-N , 13-H ) :   1.2908
B(  2-N , 14-H ) :   0.2537 B(  3-C ,  4-C ) :   0.8279 B(  3-C ,  6-C ) :   1.0993
B(  3-C , 13-H ) :  -0.1861 B(  3-C , 14-H ) :   0.7987 B(  4-C ,  5-O ) :   1.7016
B(  4-C , 26-N ) :   1.2674 B(  5-O , 26-N ) :   0.1204 B(  6-C ,  7-C ) :   1.1771
B(  6-C , 14-H ) :   0.4772 B(  6-C , 15-H ) :   0.9150 B(  6-C , 16-H ) :   0.9054
B(  6-C , 17-H ) :   0.1193 B(  6-C , 18-H ) :   0.1301 B(  7-C ,  8-C ) :   1.0384
B(  7-C , 15-H ) :   0.1775 B(  7-C , 16-H ) :   0.1205 B(  7-C , 17-H ) :   0.9214
B(  7-C , 18-H ) :   0.9557 B(  7-C , 19-H ) :   0.2714 B(  8-C ,  9-N ) :   0.8823
B(  8-C , 19-H ) :   0.7660 B(  8-C , 20-H ) :   0.7642 B(  8-C , 21-H ) :  -0.1386
B(  9-N , 10-C ) :   0.9788 B(  9-N , 11-N ) :   0.2042 B(  9-N , 12-C ) :   0.2112
B(  9-N , 19-H ) :   0.1574 B(  9-N , 20-H ) :   0.1573 B(  9-N , 21-H ) :   1.2515
B( 10-C , 11-N ) :   0.9786 B( 10-C , 12-C ) :   1.5262 B( 10-C , 21-H ) :  -0.1861
B( 10-C , 23-H ) :  -0.2070 B( 10-C , 24-H ) :   0.1542 B( 10-C , 25-H ) :   0.1181
B( 11-N , 12-C ) :   0.2113 B( 11-N , 20-H ) :   0.1043 B( 11-N , 22-H ) :   1.0151
B( 11-N , 23-H ) :   1.3758 B( 12-C , 24-H ) :   0.7645 B( 12-C , 25-H ) :   0.7894
B( 14-H , 16-H ) :  -0.1332 B( 14-H , 17-H ) :  -0.1272 B( 18-H , 19-H ) :  -0.1161
B( 19-H , 20-H ) :  -0.1615 B( 22-H , 23-H ) :  -0.2212 B( 24-H , 25-H ) :   0.1801
B( 26-N , 28-H ) :   1.1208 B( 26-N , 29-H ) :   1.1701 B( 28-H , 29-H ) :  -0.1633

Dispersion correction           -0.012687743
FINAL SINGLE POINT ENERGY      -683.325780029554

DIPOLE MOMENT
-------------
                                X             Y             Z
Electronic contribution:      6.67687       4.53024       6.90702
Nuclear contribution   :     -7.44496      -2.15394      -5.89412
                        -----------------------------------------
Total Dipole Moment    :     -0.76809       2.37630       1.01290
                        -----------------------------------------
Magnitude (a.u.)       :      2.69495
Magnitude (Debye)      :      6.85001

Rotational constants in cm-1:     0.031911     0.012175     0.010091
Rotational constants in MHz :   956.656764   365.000364   302.514628

                             ****ORCA TERMINATED NORMALLY****
TOTAL RUN TIME: 0 days 0 hours 2 minutes 46 seconds 822 msec
