                         Program Version 5.0.0 -  RELEASE  -
|  1> !LC-PBE RIJCOSX def2-TZVP def2/J TightSCF
|  2> *xyz -1 1
|  3> C         -2.79070       -0.78527        5.70281
|  4> C         -2.45380        0.05510        6.94145
|  5> C         -2.07842        1.48042        6.56410
|  6> H         -1.62558       -0.38216        7.49891
|  7> H         -3.32527        0.08775        7.59917
|  8> O         -0.90125        1.85816        6.82810
|  9> O         -2.93658        2.17731        5.96415
| 10> H         -1.94052       -0.82114        5.05412
| 11> H         -3.61590       -0.34261        5.18514
| 12> H         -3.05063       -1.77815        6.00536
| 13> *
| 14> %MaxCore 64000
| 15>
| 16> %pal nprocs 4
| 17> end
| 18>
| 19> %scf
| 20>   MaxIter 150
| 21> end
| 22>
| 23>
| 24>                          ****END OF INPUT****

CARTESIAN COORDINATES (ANGSTROEM)
---------------------------------
  C     -2.790700   -0.785270    5.702810
  C     -2.453800    0.055100    6.941450
  C     -2.078420    1.480420    6.564100
  H     -1.625580   -0.382160    7.498910
  H     -3.325270    0.087750    7.599170
  O     -0.901250    1.858160    6.828100
  O     -2.936580    2.177310    5.964150
  H     -1.940520   -0.821140    5.054120
  H     -3.615900   -0.342610    5.185140
  H     -3.050630   -1.778150    6.005360

 Total Charge           Charge          ....   -1
 Multiplicity           Mult            ....    1
 Number of Electrons    NEL             ....   40
 Basis Dimension        Dim             ....  185

ORBITAL ENERGIES
----------------

  NO   OCC          E(Eh)            E(eV)
   0   2.0000     -18.699182      -508.8306
   1   2.0000     -18.697567      -508.7867
   2   2.0000      -9.995034      -271.9787
   3   2.0000      -9.949799      -270.7478
   4   2.0000      -9.938518      -270.4408
   5   2.0000      -0.978178       -26.6176
   6   2.0000      -0.874728       -23.8026
   7   2.0000      -0.782023       -21.2799
   8   2.0000      -0.637996       -17.3607
   9   2.0000      -0.469250       -12.7689
  10   2.0000      -0.436826       -11.8866
  11   2.0000      -0.399689       -10.8761
  12   2.0000      -0.370153       -10.0724
  13   2.0000      -0.349323        -9.5056
  14   2.0000      -0.342541        -9.3210
  15   2.0000      -0.306971        -8.3531
  16   2.0000      -0.294415        -8.0114
  17   2.0000      -0.168486        -4.5847
  18   2.0000      -0.166282        -4.5248
  19   2.0000      -0.153752        -4.1838
  20   0.0000       0.265556         7.2261
  21   0.0000       0.307630         8.3710
  22   0.0000       0.329355         8.9622
  23   0.0000       0.332155         9.0384
  24   0.0000       0.350297         9.5321

MULLIKEN ATOMIC CHARGES
-----------------------
   0 C :   -0.430351
   1 C :   -0.218433
   2 C :    0.159159
   3 H :    0.089923
   4 H :    0.079659
   5 O :   -0.520921
   6 O :   -0.517867
   7 H :    0.127063
   8 H :    0.139416
   9 H :    0.092352
Sum of atomic charges:   -1.0000000

LOEWDIN ATOMIC CHARGES
----------------------
   0 C :   -0.342261
   1 C :   -0.303292
   2 C :   -0.704405
   3 H :    0.128869
   4 H :    0.130025
   5 O :   -0.130014
   6 O :   -0.119717
   7 H :    0.117810
   8 H :    0.121244
   9 H :    0.101742

  Mayer bond orders larger than 0.100000
B(  0-C ,  1-C ) :   0.9487 B(  0-C ,  7-H ) :   0.9809 B(  0-C ,  8-H ) :   0.9685
B(  0-C ,  9-H ) :   0.9803 B(  1-C ,  2-C ) :   0.9420 B(  1-C ,  3-H ) :   0.9681
B(  1-C ,  4-H ) :   0.9671 B(  2-C ,  5-O ) :   1.8886 B(  2-C ,  6-O ) :   1.8574

FINAL SINGLE POINT ENERGY      -267.151774880671

DIPOLE MOMENT
-------------
                                X             Y             Z
Electronic contribution:      1.62584       5.50597       0.68574
Nuclear contribution   :     -2.24498      -7.51881      -0.57245
                        -----------------------------------------
Total Dipole Moment    :     -0.61914      -2.01284       0.11328
                        -----------------------------------------
Magnitude (a.u.)       :      2.10896
Magnitude (Debye)      :      5.36054

Rotational constants in cm-1:     0.305589     0.135336     0.107479
Rotational constants in MHz :  9161.317320  4057.276612  3222.126231

                             ****ORCA TERMINATED NORMALLY****
TOTAL RUN TIME: 0 days 0 hours 0 minutes 24 seconds 916 msec
