                         Program Version 5.0.0 -  RELEASE  -
|  1> !LC-PBE RIJCOSX def2-TZVP def2/J TightSCF
|  2> *xyz 1 1
|  3> C         -0.69912        3.48945        3.75516
|  4> H         -0.96672        4.34901        3.14049
|  5> N         -1.08067        3.79296        5.15686
|  6> C          0.77696        3.13839        3.61741
|  7> H         -1.33146        2.65651        3.44632
|  8> H         -0.87449        4.76274        5.42734
|  9> H         -0.68079        3.13476        5.83900
| 10> H         -2.05755        3.53169        5.34620
| 11> H          0.99957        2.92898        2.59199
| 12> H          0.99576        2.27685        4.21303
| 13> H          1.37223        3.96279        3.95046
| 14> *
| 15> %MaxCore 64000
| 16>
| 17> %pal nprocs 4
| 18> end
| 19>
| 20> %scf
| 21>   MaxIter 150
| 22> end
| 23>
| 24>
| 25>                          ****END OF INPUT****

CARTESIAN COORDINATES (ANGSTROEM)
---------------------------------
  C     -0.699120    3.489450    3.755160
  H     -0.966720    4.349010    3.140490
  N     -1.080670    3.792960    5.156860
  C      0.776960    3.138390    3.617410
  H     -1.331460    2.656510    3.446320
  H     -0.874490    4.762740    5.427340
  H     -0.680790    3.134760    5.839000
  H     -2.057550    3.531690    5.346200
  H      0.999570    2.928980    2.591990
  H      0.995760    2.276850    4.213030
  H      1.372230    3.962790    3.950460

 Total Charge           Charge          ....    1
 Multiplicity           Mult            ....    1
 Number of Electrons    NEL             ....   26
 Basis Dimension        Dim             ....  141

ORBITAL ENERGIES
----------------

  NO   OCC          E(Eh)            E(eV)
   0   2.0000     -14.550436      -395.9375
   1   2.0000     -10.369696      -282.1738
   2   2.0000     -10.285549      -279.8840
   3   2.0000      -1.392664       -37.8963
   4   2.0000      -1.141067       -31.0500
   5   2.0000      -1.008565       -27.4444
   6   2.0000      -0.964199       -26.2372
   7   2.0000      -0.914591       -24.8873
   8   2.0000      -0.841736       -22.9048
   9   2.0000      -0.784988       -21.3606
  10   2.0000      -0.715673       -19.4745
  11   2.0000      -0.699827       -19.0433
  12   2.0000      -0.679529       -18.4909
  13   0.0000      -0.106993        -2.9114
  14   0.0000      -0.045953        -1.2504
  15   0.0000      -0.042072        -1.1448
  16   0.0000      -0.022937        -0.6242
  17   0.0000       0.014588         0.3970

MULLIKEN ATOMIC CHARGES
-----------------------
   0 C :   -0.274928
   1 H :    0.222305
   2 N :   -0.313374
   3 C :   -0.453992
   4 H :    0.210885
   5 H :    0.356002
   6 H :    0.338479
   7 H :    0.346081
   8 H :    0.208422
   9 H :    0.179749
  10 H :    0.180370
Sum of atomic charges:    1.0000000

LOEWDIN ATOMIC CHARGES
----------------------
   0 C :   -0.298413
   1 H :    0.161057
   2 N :    0.157971
   3 C :   -0.298985
   4 H :    0.159297
   5 H :    0.230301
   6 H :    0.229181
   7 H :    0.231575
   8 H :    0.153644
   9 H :    0.136501
  10 H :    0.137870

  Mayer bond orders larger than 0.100000
B(  0-C ,  1-H ) :   0.9523 B(  0-C ,  2-N ) :   0.8633 B(  0-C ,  3-C ) :   0.9848
B(  0-C ,  4-H ) :   0.9504 B(  2-N ,  5-H ) :   0.8620 B(  2-N ,  6-H ) :   0.8702
B(  2-N ,  7-H ) :   0.8731 B(  3-C ,  8-H ) :   0.9540 B(  3-C ,  9-H ) :   0.9544
B(  3-C , 10-H ) :   0.9530

FINAL SINGLE POINT ENERGY      -135.125356950871

DIPOLE MOMENT
-------------
                                X             Y             Z
Electronic contribution:     -1.35524       0.57496       1.12755
Nuclear contribution   :      0.33986      -0.24565       0.10678
                        -----------------------------------------
Total Dipole Moment    :     -1.01538       0.32930       1.23433
                        -----------------------------------------
Magnitude (a.u.)       :      1.63188
Magnitude (Debye)      :      4.14790

Rotational constants in cm-1:     1.016237     0.277523     0.247812
Rotational constants in MHz : 30466.024354  8319.937961  7429.230177

                             ****ORCA TERMINATED NORMALLY****
TOTAL RUN TIME: 0 days 0 hours 0 minutes 17 seconds 357 msec
