                         Program Version 5.0.0 -  RELEASE  -
|  1> !LC-PBE RIJCOSX def2-TZVP def2/J TightSCF xyzfile
|  2>
|  3> *xyzfile 0 1 B.xyz
|  4>
|  5> %MaxCore 64000
|  6>
|  7> %pal nprocs 18
|  8> end
|  9>
| 10> %scf
| 11>   MaxIter 150
| 12> end
| 13>
| 14>
| 15>                          ****END OF INPUT****

CARTESIAN COORDINATES (ANGSTROEM)
---------------------------------
  C     -0.699123    3.489451    3.755163
  H     -0.966716    4.349013    3.140491
  N     -1.080669    3.792957    5.156857
  C      0.776956    3.138391    3.617408
  H     -1.331455    2.656510    3.446323
  H      1.371398    3.888342    4.149744
  H      1.046926    3.232057    2.561331
  C      1.118917    1.731170    4.115155
  H      2.200573    1.654226    4.254882
  C      0.659466    0.635182    3.153306
  H      0.677024    1.576674    5.103150
  H      1.312288    0.638870    2.274207
  H     -0.339563    0.868049    2.772876
  C      0.639957   -0.771175    3.755619
  C     -0.341821   -0.965537    4.915046
  H      1.648266   -1.028665    4.097015
  H      0.398568   -1.482386    2.958453
  H     -0.279892   -2.005646    5.252547
  C     -1.789164   -0.639231    4.557496
  H     -0.032380   -0.352918    5.765118
  H     -2.107151   -1.270102    3.719619
  H     -1.856352    0.391636    4.197604
  C     -2.790700   -0.785275    5.702812
  H     -2.867308   -1.835651    6.001675
  H     -3.774554   -0.486577    5.334807
  C     -2.453797    0.055101    6.941445
  C     -2.078419    1.480421    6.564098
  H     -1.625584   -0.382163    7.498914
  H     -3.325274    0.087746    7.599175
  H     -0.874488    4.762737    5.427344
  H     -0.680793    3.134762    5.839000
  H     -2.057550    3.531691    5.346197
  O     -0.901252    1.858156    6.828104
  O     -2.936582    2.177309    5.964151

 Total Charge           Charge          ....    0
 Multiplicity           Mult            ....    1
 Number of Electrons    NEL             ....  104
 Basis Dimension        Dim             ....  529

ORBITAL ENERGIES
----------------

  NO   OCC          E(Eh)            E(eV)
   0   2.0000     -18.910380      -514.5776
   1   2.0000     -18.908366      -514.5228
   2   2.0000     -14.295763      -389.0075
   3   2.0000     -10.194560      -277.4081
   4   2.0000     -10.185897      -277.1724
   5   2.0000     -10.138319      -275.8777
   6   2.0000     -10.113048      -275.1900
   7   2.0000     -10.110060      -275.1087
   8   2.0000     -10.103516      -274.9307
   9   2.0000     -10.094838      -274.6945
  10   2.0000     -10.094151      -274.6758
  11   2.0000     -10.092581      -274.6331
  12   2.0000     -10.086940      -274.4796
  13   2.0000      -1.199800       -32.6482
  14   2.0000      -1.156094       -31.4589
  15   2.0000      -1.088562       -29.6213
  16   2.0000      -1.005125       -27.3508
  17   2.0000      -0.974752       -26.5244
  18   2.0000      -0.944006       -25.6877
  19   2.0000      -0.891734       -24.2653
  20   2.0000      -0.857595       -23.3364
  21   2.0000      -0.815286       -22.1851
  22   2.0000      -0.773101       -21.0371
  23   2.0000      -0.751683       -20.4543
  24   2.0000      -0.732567       -19.9342
  25   2.0000      -0.706011       -19.2115
  26   2.0000      -0.697219       -18.9723
  27   2.0000      -0.646738       -17.5986
  28   2.0000      -0.632892       -17.2219
  29   2.0000      -0.622337       -16.9347
  30   2.0000      -0.620460       -16.8836
  31   2.0000      -0.592906       -16.1338
  32   2.0000      -0.588955       -16.0263
  33   2.0000      -0.575985       -15.6733
  34   2.0000      -0.563769       -15.3409
  35   2.0000      -0.546605       -14.8739
  36   2.0000      -0.540314       -14.7027
  37   2.0000      -0.538758       -14.6604
  38   2.0000      -0.522542       -14.2191
  39   2.0000      -0.517555       -14.0834
  40   2.0000      -0.495052       -13.4711
  41   2.0000      -0.488793       -13.3007
  42   2.0000      -0.481983       -13.1154
  43   2.0000      -0.464847       -12.6491
  44   2.0000      -0.451954       -12.2983
  45   2.0000      -0.448752       -12.2112
  46   2.0000      -0.432870       -11.7790
  47   2.0000      -0.425765       -11.5857
  48   2.0000      -0.419878       -11.4255
  49   2.0000      -0.378486       -10.2991
  50   2.0000      -0.367249        -9.9934
  51   2.0000      -0.364321        -9.9137
  52   0.0000       0.086266         2.3474
  53   0.0000       0.120940         3.2909
  54   0.0000       0.129258         3.5173
  55   0.0000       0.133447         3.6313
  56   0.0000       0.142166         3.8685

MULLIKEN ATOMIC CHARGES
-----------------------
   0 C :   -0.286248
   1 H :    0.179870
   2 N :   -0.301435
   3 C :   -0.283047
   4 H :    0.198575
   5 H :    0.159274
   6 H :    0.160549
   7 C :   -0.335995
   8 H :    0.154668
   9 C :   -0.352415
  10 H :    0.199273
  11 H :    0.156319
  12 H :    0.158235
  13 C :   -0.244988
  14 C :   -0.362603
  15 H :    0.147005
  16 H :    0.148708
  17 H :    0.147945
  18 C :   -0.317677
  19 H :    0.204743
  20 H :    0.149734
  21 H :    0.134130
  22 C :   -0.254897
  23 H :    0.139786
  24 H :    0.154913
  25 C :   -0.312003
  26 C :    0.252196
  27 H :    0.167255
  28 H :    0.153055
  29 H :    0.283938
  30 H :    0.307861
  31 H :    0.318975
  32 O :   -0.518824
  33 O :   -0.506878
Sum of atomic charges:   -0.0000000

LOEWDIN ATOMIC CHARGES
----------------------
   0 C :   -0.291963
   1 H :    0.141846
   2 N :    0.127699
   3 C :   -0.289003
   4 H :    0.150549
   5 H :    0.146162
   6 H :    0.153821
   7 C :   -0.281218
   8 H :    0.146736
   9 C :   -0.289211
  10 H :    0.153411
  11 H :    0.143419
  12 H :    0.140213
  13 C :   -0.285351
  14 C :   -0.285436
  15 H :    0.144843
  16 H :    0.144492
  17 H :    0.144294
  18 C :   -0.286840
  19 H :    0.150561
  20 H :    0.143345
  21 H :    0.141173
  22 C :   -0.280034
  23 H :    0.141879
  24 H :    0.149174
  25 C :   -0.254043
  26 C :   -0.634586
  27 H :    0.147918
  28 H :    0.152396
  29 H :    0.194487
  30 H :    0.169138
  31 H :    0.184229
  32 O :   -0.070824
  33 O :   -0.063276

  Mayer bond orders larger than 0.100000
B(  0-C ,  1-H ) :   0.9807 B(  0-C ,  2-N ) :   0.8923 B(  0-C ,  3-C ) :   0.9360
B(  0-C ,  4-H ) :   0.9740 B(  2-N , 29-H ) :   0.8965 B(  2-N , 30-H ) :   0.7611
B(  2-N , 31-H ) :   0.7863 B(  3-C ,  5-H ) :   0.9772 B(  3-C ,  6-H ) :   0.9702
B(  3-C ,  7-C ) :   0.9411 B(  7-C ,  8-H ) :   0.9738 B(  7-C ,  9-C ) :   0.8686
B(  7-C , 10-H ) :   0.9833 B(  9-C , 11-H ) :   0.9731 B(  9-C , 12-H ) :   0.9972
B(  9-C , 13-C ) :   0.9406 B( 13-C , 14-C ) :   0.9474 B( 13-C , 15-H ) :   0.9874
B( 13-C , 16-H ) :   0.9870 B( 14-C , 17-H ) :   0.9768 B( 14-C , 18-C ) :   0.8736
B( 14-C , 19-H ) :   0.9776 B( 18-C , 20-H ) :   0.9745 B( 18-C , 21-H ) :   0.9828
B( 18-C , 22-C ) :   0.9708 B( 22-C , 23-H ) :   0.9809 B( 22-C , 24-H ) :   0.9764
B( 22-C , 25-C ) :   0.9248 B( 25-C , 26-C ) :   0.9330 B( 25-C , 27-H ) :   0.9882
B( 25-C , 28-H ) :   0.9625 B( 26-C , 32-O ) :   1.6529 B( 26-C , 33-O ) :   1.7147
B( 30-H , 32-O ) :   0.2076 B( 31-H , 33-O ) :   0.1617

FINAL SINGLE POINT ENERGY      -597.245406905200

DIPOLE MOMENT
-------------
                                X             Y             Z
Electronic contribution:     -4.65975       4.85421       6.67891
Nuclear contribution   :      5.60885      -3.40606      -8.06960
                        -----------------------------------------
Total Dipole Moment    :      0.94909       1.44815      -1.39068
                        -----------------------------------------
Magnitude (a.u.)       :      2.22079
Magnitude (Debye)      :      5.64480

Rotational constants in cm-1:     0.028465     0.023505     0.015110
Rotational constants in MHz :   853.363165   704.655786   452.976312

                             ****ORCA TERMINATED NORMALLY****
TOTAL RUN TIME: 0 days 0 hours 1 minutes 17 seconds 924 msec
