                         Program Version 5.0.0 -  RELEASE  -
|  1> !LC-PBE RIJCOSX def2-TZVP def2/J TightSCF
|  2> *xyz 0 1
|  3> C         -2.79070       -0.78527        5.70281
|  4> C         -2.45380        0.05510        6.94145
|  5> C         -2.07842        1.48042        6.56410
|  6> H         -1.62558       -0.38216        7.49891
|  7> H         -3.32527        0.08775        7.59917
|  8> F         -0.90125        1.85816        6.82810
|  9> O         -2.93658        2.17731        5.96415
| 10> H         -1.94052       -0.82114        5.05412
| 11> H         -3.61590       -0.34261        5.18514
| 12> H         -3.05063       -1.77815        6.00536
| 13> *
| 14> %MaxCore 64000
| 15>
| 16> %pal nprocs 4
| 17> end
| 18>
| 19> %scf
| 20>   MaxIter 150
| 21> end
| 22>
| 23>
| 24>                          ****END OF INPUT****

CARTESIAN COORDINATES (ANGSTROEM)
---------------------------------
  C     -2.790700   -0.785270    5.702810
  C     -2.453800    0.055100    6.941450
  C     -2.078420    1.480420    6.564100
  H     -1.625580   -0.382160    7.498910
  H     -3.325270    0.087750    7.599170
  F     -0.901250    1.858160    6.828100
  O     -2.936580    2.177310    5.964150
  H     -1.940520   -0.821140    5.054120
  H     -3.615900   -0.342610    5.185140
  H     -3.050630   -1.778150    6.005360

 Total Charge           Charge          ....    0
 Multiplicity           Mult            ....    1
 Number of Electrons    NEL             ....   40
 Basis Dimension        Dim             ....  185

ORBITAL ENERGIES
----------------

  NO   OCC          E(Eh)            E(eV)
   0   2.0000     -24.558477      -668.2701
   1   2.0000     -18.983781      -516.5749
   2   2.0000     -10.301674      -280.3228
   3   2.0000     -10.150147      -276.1995
   4   2.0000     -10.120364      -275.3891
   5   2.0000      -1.472211       -40.0609
   6   2.0000      -1.198376       -32.6095
   7   2.0000      -0.982681       -26.7401
   8   2.0000      -0.855415       -23.2770
   9   2.0000      -0.796017       -21.6607
  10   2.0000      -0.703553       -19.1446
  11   2.0000      -0.687114       -18.6973
  12   2.0000      -0.660280       -17.9671
  13   2.0000      -0.611595       -16.6424
  14   2.0000      -0.578055       -15.7297
  15   2.0000      -0.538837       -14.6625
  16   2.0000      -0.516075       -14.0431
  17   2.0000      -0.508233       -13.8297
  18   2.0000      -0.481665       -13.1068
  19   2.0000      -0.431371       -11.7382
  20   0.0000       0.067100         1.8259
  21   0.0000       0.119808         3.2601
  22   0.0000       0.157747         4.2925
  23   0.0000       0.172252         4.6872
  24   0.0000       0.185459         5.0466

MULLIKEN ATOMIC CHARGES
-----------------------
   0 C :   -0.452215
   1 C :   -0.283404
   2 C :    0.318841
   3 H :    0.150026
   4 H :    0.167057
   5 F :   -0.075765
   6 O :   -0.308129
   7 H :    0.152211
   8 H :    0.175939
   9 H :    0.155438
Sum of atomic charges:    0.0000000

LOEWDIN ATOMIC CHARGES
----------------------
   0 C :   -0.306527
   1 C :   -0.274543
   2 C :   -0.502366
   3 H :    0.147904
   4 H :    0.163163
   5 F :    0.321038
   6 O :    0.062494
   7 H :    0.127859
   8 H :    0.133951
   9 H :    0.127027

  Mayer bond orders larger than 0.100000
B(  0-C ,  1-C ) :   0.9585 B(  0-C ,  7-H ) :   0.9693 B(  0-C ,  8-H ) :   0.9619
B(  0-C ,  9-H ) :   0.9720 B(  1-C ,  2-C ) :   0.9760 B(  1-C ,  3-H ) :   0.9635
B(  1-C ,  4-H ) :   0.9462 B(  2-C ,  5-F ) :   1.1987 B(  2-C ,  6-O ) :   2.0689

FINAL SINGLE POINT ENERGY      -291.696191548997

DIPOLE MOMENT
-------------
                                X             Y             Z
Electronic contribution:      3.97956       7.38889       1.51251
Nuclear contribution   :     -3.69486      -8.49563      -1.04945
                        -----------------------------------------
Total Dipole Moment    :      0.28471      -1.10674       0.46305
                        -----------------------------------------
Magnitude (a.u.)       :      1.23303
Magnitude (Debye)      :      3.13411

Rotational constants in cm-1:     0.293725     0.129218     0.102393
Rotational constants in MHz :  8805.653529  3873.869810  3069.666716

                             ****ORCA TERMINATED NORMALLY****
TOTAL RUN TIME: 0 days 0 hours 0 minutes 22 seconds 975 msec
