                         Program Version 5.0.0 -  RELEASE  -
|  1> !LC-PBE RIJCOSX def2-TZVP def2/J TightSCF
|  2> *xyz 0 1
|  3> C         -0.69912        3.48945        3.75516
|  4> H         -0.96672        4.34901        3.14049
|  5> C         -1.08067        3.79296        5.15686
|  6> C          0.77696        3.13839        3.61741
|  7> H         -1.33146        2.65651        3.44632
|  8> H         -0.87449        4.76274        5.42734
|  9> H         -0.68079        3.13476        5.83900
| 10> H         -2.05755        3.53169        5.34620
| 11> H          0.99957        2.92898        2.59199
| 12> H          0.99576        2.27685        4.21303
| 13> H          1.37223        3.96279        3.95046
| 14> *
| 15> %MaxCore 64000
| 16>
| 17> %pal nprocs 4
| 18> end
| 19>
| 20> %scf
| 21>   MaxIter 150
| 22> end
| 23>
| 24>
| 25>                          ****END OF INPUT****

CARTESIAN COORDINATES (ANGSTROEM)
---------------------------------
  C     -0.699120    3.489450    3.755160
  H     -0.966720    4.349010    3.140490
  C     -1.080670    3.792960    5.156860
  C      0.776960    3.138390    3.617410
  H     -1.331460    2.656510    3.446320
  H     -0.874490    4.762740    5.427340
  H     -0.680790    3.134760    5.839000
  H     -2.057550    3.531690    5.346200
  H      0.999570    2.928980    2.591990
  H      0.995760    2.276850    4.213030
  H      1.372230    3.962790    3.950460

 Total Charge           Charge          ....    0
 Multiplicity           Mult            ....    1
 Number of Electrons    NEL             ....   26
 Basis Dimension        Dim             ....  141

ORBITAL ENERGIES
----------------

  NO   OCC          E(Eh)            E(eV)
   0   2.0000     -10.100799      -274.8567
   1   2.0000     -10.089257      -274.5426
   2   2.0000     -10.070919      -274.0436
   3   2.0000      -0.971050       -26.4236
   4   2.0000      -0.861471       -23.4418
   5   2.0000      -0.747848       -20.3500
   6   2.0000      -0.619690       -16.8626
   7   2.0000      -0.583609       -15.8808
   8   2.0000      -0.537789       -14.6340
   9   2.0000      -0.532153       -14.4806
  10   2.0000      -0.468934       -12.7603
  11   2.0000      -0.454769       -12.3749
  12   2.0000      -0.453033       -12.3276
  13   0.0000       0.123929         3.3723
  14   0.0000       0.167527         4.5586
  15   0.0000       0.173128         4.7111
  16   0.0000       0.178017         4.8441
  17   0.0000       0.201956         5.4955

MULLIKEN ATOMIC CHARGES
-----------------------
   0 C :   -0.223816
   1 H :    0.122179
   2 C :   -0.441231
   3 C :   -0.426721
   4 H :    0.121574
   5 H :    0.144531
   6 H :    0.138827
   7 H :    0.145439
   8 H :    0.141434
   9 H :    0.140164
  10 H :    0.137619
Sum of atomic charges:    0.0000000

LOEWDIN ATOMIC CHARGES
----------------------
   0 C :   -0.339750
   1 H :    0.139450
   2 C :   -0.331959
   3 C :   -0.327354
   4 H :    0.140483
   5 H :    0.114454
   6 H :    0.118950
   7 H :    0.119179
   8 H :    0.121231
   9 H :    0.122250
  10 H :    0.123066

  Mayer bond orders larger than 0.100000
B(  0-C ,  1-H ) :   0.9770 B(  0-C ,  2-C ) :   0.9412 B(  0-C ,  3-C ) :   0.9628
B(  0-C ,  4-H ) :   0.9827 B(  2-C ,  5-H ) :   0.9738 B(  2-C ,  6-H ) :   0.9780
B(  2-C ,  7-H ) :   0.9838 B(  3-C ,  8-H ) :   0.9812 B(  3-C ,  9-H ) :   0.9758
B(  3-C , 10-H ) :   0.9728

FINAL SINGLE POINT ENERGY      -118.732077803434

DIPOLE MOMENT
-------------
                                X             Y             Z
Electronic contribution:     -0.14943       0.11535      -0.39432
Nuclear contribution   :      0.10024      -0.14218       0.41628
                        -----------------------------------------
Total Dipole Moment    :     -0.04919      -0.02683       0.02197
                        -----------------------------------------
Magnitude (a.u.)       :      0.06018
Magnitude (Debye)      :      0.15298

Rotational constants in cm-1:     1.024179     0.291605     0.259489
Rotational constants in MHz : 30704.103454  8742.106283  7779.285909

                             ****ORCA TERMINATED NORMALLY****
TOTAL RUN TIME: 0 days 0 hours 0 minutes 17 seconds 657 msec
