                         Program Version 5.0.0 -  RELEASE  -
|  1> !LC-PBE RIJCOSX def2-TZVP def2/J TightSCF
|  2> *xyz 0 1
|  3> C         -2.79070       -0.78527        5.70281
|  4> C         -2.45380        0.05510        6.94145
|  5> C         -2.07842        1.48042        6.56410
|  6> H         -1.62558       -0.38216        7.49891
|  7> H         -3.32527        0.08775        7.59917
|  8> O         -0.90125        1.85816        6.82810
|  9> F         -2.93658        2.17731        5.96415
| 10> H         -1.94052       -0.82114        5.05412
| 11> H         -3.61590       -0.34261        5.18514
| 12> H         -3.05063       -1.77815        6.00536
| 13> *
| 14> %MaxCore 64000
| 15>
| 16> %pal nprocs 4
| 17> end
| 18>
| 19> %scf
| 20>   MaxIter 150
| 21> end
| 22>
| 23>
| 24>                          ****END OF INPUT****

CARTESIAN COORDINATES (ANGSTROEM)
---------------------------------
  C     -2.790700   -0.785270    5.702810
  C     -2.453800    0.055100    6.941450
  C     -2.078420    1.480420    6.564100
  H     -1.625580   -0.382160    7.498910
  H     -3.325270    0.087750    7.599170
  O     -0.901250    1.858160    6.828100
  F     -2.936580    2.177310    5.964150
  H     -1.940520   -0.821140    5.054120
  H     -3.615900   -0.342610    5.185140
  H     -3.050630   -1.778150    6.005360

 Total Charge           Charge          ....    0
 Multiplicity           Mult            ....    1
 Number of Electrons    NEL             ....   40
 Basis Dimension        Dim             ....  185

ORBITAL ENERGIES
----------------

  NO   OCC          E(Eh)            E(eV)
   0   2.0000     -24.561680      -668.3573
   1   2.0000     -18.981957      -516.5253
   2   2.0000     -10.301403      -280.3154
   3   2.0000     -10.149730      -276.1882
   4   2.0000     -10.124634      -275.5053
   5   2.0000      -1.477362       -40.2011
   6   2.0000      -1.193559       -32.4784
   7   2.0000      -0.986083       -26.8327
   8   2.0000      -0.852664       -23.2022
   9   2.0000      -0.803341       -21.8600
  10   2.0000      -0.707915       -19.2633
  11   2.0000      -0.694314       -18.8932
  12   2.0000      -0.652887       -17.7660
  13   2.0000      -0.611992       -16.6531
  14   2.0000      -0.578453       -15.7405
  15   2.0000      -0.542169       -14.7532
  16   2.0000      -0.520491       -14.1633
  17   2.0000      -0.510330       -13.8868
  18   2.0000      -0.483813       -13.1652
  19   2.0000      -0.424728       -11.5574
  20   0.0000       0.070458         1.9173
  21   0.0000       0.116187         3.1616
  22   0.0000       0.156247         4.2517
  23   0.0000       0.174588         4.7508
  24   0.0000       0.189775         5.1640

MULLIKEN ATOMIC CHARGES
-----------------------
   0 C :   -0.455418
   1 C :   -0.279048
   2 C :    0.311276
   3 H :    0.172975
   4 H :    0.154214
   5 O :   -0.311949
   6 F :   -0.072397
   7 H :    0.163265
   8 H :    0.157856
   9 H :    0.159226
Sum of atomic charges:    0.0000000

LOEWDIN ATOMIC CHARGES
----------------------
   0 C :   -0.312343
   1 C :   -0.270965
   2 C :   -0.505470
   3 H :    0.160651
   4 H :    0.155457
   5 O :    0.051941
   6 F :    0.333618
   7 H :    0.130456
   8 H :    0.127893
   9 H :    0.128760

  Mayer bond orders larger than 0.100000
B(  0-C ,  1-C ) :   0.9479 B(  0-C ,  7-H ) :   0.9661 B(  0-C ,  8-H ) :   0.9663
B(  0-C ,  9-H ) :   0.9715 B(  1-C ,  2-C ) :   0.9925 B(  1-C ,  3-H ) :   0.9629
B(  1-C ,  4-H ) :   0.9464 B(  2-C ,  5-O ) :   2.0784 B(  2-C ,  6-F ) :   1.1936

FINAL SINGLE POINT ENERGY      -291.693748449057

DIPOLE MOMENT
-------------
                                X             Y             Z
Electronic contribution:      0.54985       7.90339       0.06060
Nuclear contribution   :     -1.47571      -8.84360      -0.10748
                        -----------------------------------------
Total Dipole Moment    :     -0.92586      -0.94022      -0.04688
                        -----------------------------------------
Magnitude (a.u.)       :      1.32039
Magnitude (Debye)      :      3.35616

Rotational constants in cm-1:     0.283081     0.133379     0.103386
Rotational constants in MHz :  8486.545774  3998.599544  3099.448040

                             ****ORCA TERMINATED NORMALLY****
TOTAL RUN TIME: 0 days 0 hours 0 minutes 24 seconds 710 msec
