                         Program Version 5.0.0 -  RELEASE  -
|  1> !LC-PBE RIJCOSX def2-TZVP def2/J TightSCF xyzfile
|  2>
|  3> *xyzfile 0 1 D2.xyz
|  4>
|  5> %MaxCore 64000
|  6>
|  7> %pal nprocs 18
|  8> end
|  9>
| 10> %scf
| 11>   MaxIter 150
| 12> end
| 13>
| 14>
| 15>                          ****END OF INPUT****

CARTESIAN COORDINATES (ANGSTROEM)
---------------------------------
  C     -0.699123    3.489451    3.755163
  H     -0.966716    4.349013    3.140491
  C     -1.080669    3.792957    5.156857
  C      0.776956    3.138391    3.617408
  H     -1.331455    2.656510    3.446323
  H      1.371398    3.888342    4.149744
  H      1.046926    3.232057    2.561331
  C      1.118917    1.731170    4.115155
  H      2.200573    1.654226    4.254882
  C      0.659466    0.635182    3.153306
  H      0.677024    1.576674    5.103150
  H      1.312288    0.638870    2.274207
  H     -0.339563    0.868049    2.772876
  C      0.639957   -0.771175    3.755619
  C     -0.341821   -0.965537    4.915046
  H      1.648266   -1.028665    4.097015
  H      0.398568   -1.482386    2.958453
  H     -0.279892   -2.005646    5.252547
  C     -1.789164   -0.639231    4.557496
  H     -0.032380   -0.352918    5.765118
  H     -2.107151   -1.270102    3.719619
  H     -1.856352    0.391636    4.197604
  C     -2.790700   -0.785275    5.702812
  H     -2.867308   -1.835651    6.001675
  H     -3.774554   -0.486577    5.334807
  C     -2.453797    0.055101    6.941445
  C     -2.078419    1.480421    6.564098
  H     -1.625584   -0.382163    7.498914
  H     -3.325274    0.087746    7.599175
  H     -0.874488    4.762737    5.427344
  H     -0.680793    3.134762    5.839000
  H     -2.057550    3.531691    5.346197
  O     -0.901252    1.858156    6.828104
  F     -2.936582    2.177309    5.964151

 Total Charge           Charge          ....    0
 Multiplicity           Mult            ....    1
 Number of Electrons    NEL             ....  104
 Basis Dimension        Dim             ....  529

ORBITAL ENERGIES
----------------

  NO   OCC          E(Eh)            E(eV)
   0   2.0000     -24.573492      -668.6787
   1   2.0000     -18.992198      -516.8040
   2   2.0000     -10.315378      -280.6957
   3   2.0000     -10.152340      -276.2592
   4   2.0000     -10.137129      -275.8453
   5   2.0000     -10.120484      -275.3924
   6   2.0000     -10.109344      -275.0892
   7   2.0000     -10.105443      -274.9831
   8   2.0000     -10.097912      -274.7781
   9   2.0000     -10.090661      -274.5808
  10   2.0000     -10.088334      -274.5175
  11   2.0000     -10.081867      -274.3416
  12   2.0000     -10.024460      -272.7794
  13   2.0000      -1.493552       -40.6416
  14   2.0000      -1.213647       -33.0250
  15   2.0000      -1.017352       -27.6836
  16   2.0000      -0.987814       -26.8798
  17   2.0000      -0.955434       -25.9987
  18   2.0000      -0.923790       -25.1376
  19   2.0000      -0.876082       -23.8394
  20   2.0000      -0.848387       -23.0858
  21   2.0000      -0.822802       -22.3896
  22   2.0000      -0.786486       -21.4014
  23   2.0000      -0.771936       -21.0054
  24   2.0000      -0.723433       -19.6856
  25   2.0000      -0.721699       -19.6384
  26   2.0000      -0.714541       -19.4436
  27   2.0000      -0.691620       -18.8199
  28   2.0000      -0.667221       -18.1560
  29   2.0000      -0.632271       -17.2050
  30   2.0000      -0.626047       -17.0356
  31   2.0000      -0.605772       -16.4839
  32   2.0000      -0.599124       -16.3030
  33   2.0000      -0.574431       -15.6311
  34   2.0000      -0.565477       -15.3874
  35   2.0000      -0.558766       -15.2048
  36   2.0000      -0.546945       -14.8831
  37   2.0000      -0.540617       -14.7109
  38   2.0000      -0.524993       -14.2858
  39   2.0000      -0.511338       -13.9142
  40   2.0000      -0.507445       -13.8083
  41   2.0000      -0.500058       -13.6073
  42   2.0000      -0.482110       -13.1189
  43   2.0000      -0.473541       -12.8857
  44   2.0000      -0.465156       -12.6575
  45   2.0000      -0.454793       -12.3755
  46   2.0000      -0.447278       -12.1710
  47   2.0000      -0.436871       -11.8879
  48   2.0000      -0.429557       -11.6888
  49   2.0000      -0.418632       -11.3915
  50   2.0000      -0.416898       -11.3444
  51   2.0000      -0.384451       -10.4614
  52   0.0000       0.055348         1.5061
  53   0.0000       0.109321         2.9748
  54   0.0000       0.130734         3.5575
  55   0.0000       0.132762         3.6126
  56   0.0000       0.142757         3.8846

MULLIKEN ATOMIC CHARGES
-----------------------
   0 C :   -0.278508
   1 H :    0.133196
   2 C :   -0.522807
   3 C :   -0.243854
   4 H :    0.121082
   5 H :    0.145738
   6 H :    0.132176
   7 C :   -0.311425
   8 H :    0.144320
   9 C :   -0.361010
  10 H :    0.167638
  11 H :    0.154207
  12 H :    0.167693
  13 C :   -0.242857
  14 C :   -0.358965
  15 H :    0.148889
  16 H :    0.148699
  17 H :    0.153014
  18 C :   -0.342801
  19 H :    0.193789
  20 H :    0.164621
  21 H :    0.153116
  22 C :   -0.281047
  23 H :    0.161990
  24 H :    0.170794
  25 C :   -0.352095
  26 C :    0.356458
  27 H :    0.206540
  28 H :    0.184739
  29 H :    0.145855
  30 H :    0.212339
  31 H :    0.129775
  32 O :   -0.326698
  33 F :   -0.074600
Sum of atomic charges:    0.0000000

LOEWDIN ATOMIC CHARGES
----------------------
   0 C :   -0.322482
   1 H :    0.139267
   2 C :   -0.352117
   3 C :   -0.283648
   4 H :    0.134264
   5 H :    0.144810
   6 H :    0.140920
   7 C :   -0.280426
   8 H :    0.142216
   9 C :   -0.288892
  10 H :    0.147185
  11 H :    0.144065
  12 H :    0.140939
  13 C :   -0.285527
  14 C :   -0.286231
  15 H :    0.145914
  16 H :    0.143819
  17 H :    0.144700
  18 C :   -0.285010
  19 H :    0.147626
  20 H :    0.149792
  21 H :    0.144807
  22 C :   -0.278957
  23 H :    0.150649
  24 H :    0.149881
  25 C :   -0.244375
  26 C :   -0.482960
  27 H :    0.165131
  28 H :    0.160378
  29 H :    0.108326
  30 H :    0.109342
  31 H :    0.107913
  32 O :    0.077762
  33 F :    0.350919

  Mayer bond orders larger than 0.100000
B(  0-C ,  1-H ) :   0.9863 B(  0-C ,  2-C ) :   0.8760 B(  0-C ,  3-C ) :   0.9355
B(  0-C ,  4-H ) :   1.0139 B(  2-C , 29-H ) :   0.9731 B(  2-C , 30-H ) :   0.9586
B(  2-C , 31-H ) :   0.9899 B(  3-C ,  5-H ) :   0.9776 B(  3-C ,  6-H ) :   0.9827
B(  3-C ,  7-C ) :   0.9547 B(  7-C ,  8-H ) :   0.9771 B(  7-C ,  9-C ) :   0.8858
B(  7-C , 10-H ) :   0.9927 B(  9-C , 11-H ) :   0.9757 B(  9-C , 12-H ) :   0.9970
B(  9-C , 13-C ) :   0.9302 B( 13-C , 14-C ) :   0.9524 B( 13-C , 15-H ) :   0.9864
B( 13-C , 16-H ) :   0.9889 B( 14-C , 17-H ) :   0.9753 B( 14-C , 18-C ) :   0.8721
B( 14-C , 19-H ) :   0.9770 B( 18-C , 20-H ) :   0.9705 B( 18-C , 21-H ) :   0.9823
B( 18-C , 22-C ) :   0.9403 B( 22-C , 23-H ) :   0.9750 B( 22-C , 24-H ) :   0.9848
B( 22-C , 25-C ) :   0.9064 B( 25-C , 26-C ) :   0.9557 B( 25-C , 27-H ) :   0.9767
B( 25-C , 28-H ) :   0.9568 B( 26-C , 32-O ) :   1.9790 B( 26-C , 33-F ) :   1.1594

FINAL SINGLE POINT ENERGY      -605.135241817367

DIPOLE MOMENT
-------------
                                X             Y             Z
Electronic contribution:     -8.98056       2.97168       9.46163
Nuclear contribution   :      8.07181      -4.09641      -9.21610
                        -----------------------------------------
Total Dipole Moment    :     -0.90875      -1.12473       0.24553
                        -----------------------------------------
Magnitude (a.u.)       :      1.46667
Magnitude (Debye)      :      3.72799

Rotational constants in cm-1:     0.028400     0.023377     0.015073
Rotational constants in MHz :   851.414727   700.831775   451.871218

                             ****ORCA TERMINATED NORMALLY****
TOTAL RUN TIME: 0 days 0 hours 1 minutes 25 seconds 246 msec
