                         Program Version 5.0.0 -  RELEASE  -
|  1> !wB97X-D3 RIJCOSX def2-SVPD def2/J TightSCF
|  2> *xyz -1 1
|  3> C         -0.10608        1.76991       -4.08984
|  4> C         -0.25875        1.00432       -5.40983
|  5> C          0.39596       -0.37070       -5.33994
|  6> H          0.23915        1.56939       -6.20125
|  7> H         -1.30936        0.88869       -5.68245
|  8> O         -0.32633       -1.39040       -5.49128
|  9> O          1.61941       -0.40073       -5.03683
| 10> H         -0.57627        2.72718       -4.17630
| 11> H          0.93321        1.90140       -3.87192
| 12> H         -0.56868        1.21534       -3.30031
| 13> *
| 14> %MaxCore 64000
| 15>
| 16> %pal nprocs 18
| 17> end
| 18>
| 19> %scf
| 20>   MaxIter 150
| 21> end
| 22>
| 23>
| 24>                          ****END OF INPUT****

CARTESIAN COORDINATES (ANGSTROEM)
---------------------------------
  C     -0.106080    1.769910   -4.089840
  C     -0.258750    1.004320   -5.409830
  C      0.395960   -0.370700   -5.339940
  H      0.239150    1.569390   -6.201250
  H     -1.309360    0.888690   -5.682450
  O     -0.326330   -1.390400   -5.491280
  O      1.619410   -0.400730   -5.036830
  H     -0.576270    2.727180   -4.176300
  H      0.933210    1.901400   -3.871920
  H     -0.568680    1.215340   -3.300310

 Total Charge           Charge          ....   -1
 Multiplicity           Mult            ....    1
 Number of Electrons    NEL             ....   40
 Basis Dimension        Dim             ....  146

ORBITAL ENERGIES
----------------

  NO   OCC          E(Eh)            E(eV)
   0   2.0000     -18.982068      -516.5283
   1   2.0000     -18.980494      -516.4855
   2   2.0000     -10.176648      -276.9207
   3   2.0000     -10.128870      -275.6206
   4   2.0000     -10.117634      -275.3148
   5   2.0000      -0.926294       -25.2057
   6   2.0000      -0.829205       -22.5638
   7   2.0000      -0.717382       -19.5210
   8   2.0000      -0.582555       -15.8521
   9   2.0000      -0.424606       -11.5541
  10   2.0000      -0.395706       -10.7677
  11   2.0000      -0.360373        -9.8063
  12   2.0000      -0.331576        -9.0226
  13   2.0000      -0.313614        -8.5339
  14   2.0000      -0.307939        -8.3795
  15   2.0000      -0.275374        -7.4933
  16   2.0000      -0.260164        -7.0794
  17   2.0000      -0.142369        -3.8741
  18   2.0000      -0.138241        -3.7617
  19   2.0000      -0.123896        -3.3714
  20   0.0000       0.223373         6.0783
  21   0.0000       0.256005         6.9662
  22   0.0000       0.267197         7.2708
  23   0.0000       0.291201         7.9240
  24   0.0000       0.313956         8.5432

MULLIKEN ATOMIC CHARGES
-----------------------
   0 C :    0.490381
   1 C :   -0.296710
   2 C :    0.440330
   3 H :    0.008686
   4 H :   -0.052567
   5 O :   -0.695074
   6 O :   -0.730874
   7 H :   -0.072004
   8 H :   -0.027606
   9 H :   -0.064562
Sum of atomic charges:   -1.0000000

LOEWDIN ATOMIC CHARGES
----------------------
   0 C :    0.099342
   1 C :   -0.043296
   2 C :   -0.304253
   3 H :    0.009518
   4 H :    0.001956
   5 O :   -0.338419
   6 O :   -0.336075
   7 H :   -0.041729
   8 H :   -0.026756
   9 H :   -0.020289

  Mayer bond orders larger than 0.100000
B(  0-C ,  1-C ) :   1.2580 B(  0-C ,  7-H ) :   0.8587 B(  0-C ,  8-H ) :   0.8510
B(  0-C ,  9-H ) :   0.8736 B(  1-C ,  2-C ) :   1.0301 B(  1-C ,  3-H ) :   0.8919
B(  1-C ,  4-H ) :   0.9805 B(  1-C ,  7-H ) :   0.1429 B(  1-C ,  8-H ) :   0.1788
B(  1-C ,  9-H ) :   0.1522 B(  2-C ,  4-H ) :   0.1682 B(  2-C ,  5-O ) :   1.5063
B(  2-C ,  6-O ) :   1.5177

Dispersion correction           -0.001961723
FINAL SINGLE POINT ENERGY      -267.583402390632

DIPOLE MOMENT
-------------
                                X             Y             Z
Electronic contribution:      1.71178      -5.23492      -1.69802
Nuclear contribution   :     -2.46071       7.20791       1.95694
                        -----------------------------------------
Total Dipole Moment    :     -0.74893       1.97299       0.25891
                        -----------------------------------------
Magnitude (a.u.)       :      2.12618
Magnitude (Debye)      :      5.40432

Rotational constants in cm-1:     0.309435     0.135317     0.107436
Rotational constants in MHz :  9276.637721  4056.700783  3220.846587

                             ****ORCA TERMINATED NORMALLY****
TOTAL RUN TIME: 0 days 0 hours 0 minutes 7 seconds 451 msec
