                         Program Version 5.0.0 -  RELEASE  -
|  1> !wB97X-D3 RIJCOSX def2-SVPD def2/J TightSCF
|  2> *xyz 1 1
|  3> C          0.81607       -2.10149       -2.18655
|  4> H          1.69623       -2.36869       -1.60046
|  5> N          1.10055       -2.46749       -3.59927
|  6> C          0.51624       -0.61363       -2.03937
|  7> H         -0.02007       -2.71285       -1.84084
|  8> H          1.70061       -1.75723       -4.07838
|  9> H          0.29386       -2.35977       -4.25632
| 10> H          1.50132       -3.42848       -3.69491
| 11> H         -0.34841       -0.36504       -2.61858
| 12> H          1.35358       -0.04503       -2.38643
| 13> H          0.33317       -0.38682       -1.00984
| 14> *
| 15> %MaxCore 64000
| 16>
| 17> %pal nprocs 18
| 18> end
| 19>
| 20> %scf
| 21>   MaxIter 150
| 22> end
| 23>
| 24>
| 25>                          ****END OF INPUT****

CARTESIAN COORDINATES (ANGSTROEM)
---------------------------------
  C      0.816070   -2.101490   -2.186550
  H      1.696230   -2.368690   -1.600460
  N      1.100550   -2.467490   -3.599270
  C      0.516240   -0.613630   -2.039370
  H     -0.020070   -2.712850   -1.840840
  H      1.700610   -1.757230   -4.078380
  H      0.293860   -2.359770   -4.256320
  H      1.501320   -3.428480   -3.694910
  H     -0.348410   -0.365040   -2.618580
  H      1.353580   -0.045030   -2.386430
  H      0.333170   -0.386820   -1.009840

 Total Charge           Charge          ....    1
 Multiplicity           Mult            ....    1
 Number of Electrons    NEL             ....   26
 Basis Dimension        Dim             ....  124

ORBITAL ENERGIES
----------------

  NO   OCC          E(Eh)            E(eV)
   0   2.0000     -14.778048      -402.1311
   1   2.0000     -10.545007      -286.9442
   2   2.0000     -10.465691      -284.7859
   3   2.0000      -1.320018       -35.9195
   4   2.0000      -1.076242       -29.2860
   5   2.0000      -0.958103       -26.0713
   6   2.0000      -0.893615       -24.3165
   7   2.0000      -0.876892       -23.8615
   8   2.0000      -0.803547       -21.8656
   9   2.0000      -0.738266       -20.0892
  10   2.0000      -0.680719       -18.5233
  11   2.0000      -0.665594       -18.1117
  12   2.0000      -0.646393       -17.5893
  13   0.0000      -0.114766        -3.1229
  14   0.0000      -0.055118        -1.4998
  15   0.0000      -0.052907        -1.4397
  16   0.0000      -0.047162        -1.2833
  17   0.0000      -0.009700        -0.2640

MULLIKEN ATOMIC CHARGES
-----------------------
   0 C :    0.204641
   1 H :   -0.013178
   2 N :   -0.990827
   3 C :    0.458953
   4 H :   -0.027535
   5 H :    0.449077
   6 H :    0.412756
   7 H :    0.428708
   8 H :    0.040422
   9 H :    0.009476
  10 H :    0.027508
Sum of atomic charges:    1.0000000

LOEWDIN ATOMIC CHARGES
----------------------
   0 C :    0.051266
   1 H :    0.053425
   2 N :    0.299812
   3 C :    0.165863
   4 H :    0.054585
   5 H :    0.113950
   6 H :    0.118830
   7 H :    0.123602
   8 H :    0.001776
   9 H :    0.000516
  10 H :    0.016377

  Mayer bond orders larger than 0.100000
B(  0-C ,  1-H ) :   0.9417 B(  0-C ,  2-N ) :   0.6487 B(  0-C ,  3-C ) :   1.2923
B(  0-C ,  4-H ) :   0.9574 B(  0-C ,  8-H ) :   0.1211 B(  0-C ,  9-H ) :   0.1284
B(  0-C , 10-H ) :   0.1636 B(  2-N ,  4-H ) :   0.1009 B(  2-N ,  5-H ) :   0.6561
B(  2-N ,  6-H ) :   0.7279 B(  2-N ,  7-H ) :   0.6673 B(  3-C ,  8-H ) :   0.8506
B(  3-C ,  9-H ) :   0.8669 B(  3-C , 10-H ) :   0.8565

Dispersion correction           -0.001532289
FINAL SINGLE POINT ENERGY      -135.405620218131

DIPOLE MOMENT
-------------
                                X             Y             Z
Electronic contribution:      0.42258      -1.44068      -1.08554
Nuclear contribution   :     -0.07506       0.54337      -0.16191
                        -----------------------------------------
Total Dipole Moment    :      0.34752      -0.89731      -1.24745
                        -----------------------------------------
Magnitude (a.u.)       :      1.57546
Magnitude (Debye)      :      4.00450

Rotational constants in cm-1:     0.999557     0.280801     0.246932
Rotational constants in MHz : 29965.963633  8418.199581  7402.841054

                             ****ORCA TERMINATED NORMALLY****
TOTAL RUN TIME: 0 days 0 hours 0 minutes 5 seconds 315 msec
