                         Program Version 5.0.0 -  RELEASE  -
|  1> !wB97X-D3 RIJCOSX def2-SVPD def2/J TightSCF xyzfile
|  2>
|  3> *xyzfile 0 1 B.xyz
|  4>
|  5> %MaxCore 64000
|  6>
|  7> %pal nprocs 18
|  8> end
|  9>
| 10> %scf
| 11>   MaxIter 150
| 12> end
| 13>
| 14>
| 15>                          ****END OF INPUT****

CARTESIAN COORDINATES (ANGSTROEM)
---------------------------------
  C      0.816067   -2.101491   -2.186546
  H      1.696232   -2.368691   -1.600457
  N      1.100552   -2.467492   -3.599269
  C      0.516243   -0.613634   -2.039373
  H     -0.020066   -2.712849   -1.840844
  C     -0.868621   -0.193925   -2.546303
  C     -0.984801    1.284739   -2.928686
  H     -0.764939    1.904116   -2.051568
  H     -2.032613    1.478953   -3.178952
  C     -0.106085    1.769914   -4.089836
  H     -0.347744    2.822196   -4.262942
  H      0.949683    1.745875   -3.808781
  C     -0.258747    1.004323   -5.409829
  C      0.395958   -0.370696   -5.339939
  H      0.239150    1.569393   -6.201253
  H     -1.309360    0.888694   -5.682455
  H      1.700606   -1.757225   -4.078378
  H      0.293855   -2.359766   -4.256324
  H      1.501324   -3.428479   -3.694915
  O     -0.326329   -1.390398   -5.491279
  O      1.619412   -0.400726   -5.036827
  H     -1.607271   -0.412651   -1.768955
  H     -1.157234   -0.796164   -3.409254
  H      1.299044   -0.056805   -2.558982
  H      0.612393   -0.365579   -0.979171

 Total Charge           Charge          ....    0
 Multiplicity           Mult            ....    1
 Number of Electrons    NEL             ....   80
 Basis Dimension        Dim             ....  326

ORBITAL ENERGIES
----------------

  NO   OCC          E(Eh)            E(eV)
   0   2.0000     -19.182058      -521.9703
   1   2.0000     -19.180746      -521.9346
   2   2.0000     -14.526395      -395.2833
   3   2.0000     -10.369037      -282.1558
   4   2.0000     -10.364768      -282.0397
   5   2.0000     -10.305299      -280.4214
   6   2.0000     -10.287119      -279.9267
   7   2.0000     -10.282697      -279.8064
   8   2.0000     -10.275995      -279.6240
   9   2.0000     -10.266089      -279.3545
  10   2.0000      -1.139042       -30.9949
  11   2.0000      -1.088374       -29.6162
  12   2.0000      -1.035017       -28.1642
  13   2.0000      -0.927747       -25.2453
  14   2.0000      -0.883724       -24.0473
  15   2.0000      -0.835724       -22.7412
  16   2.0000      -0.769991       -20.9525
  17   2.0000      -0.735818       -20.0226
  18   2.0000      -0.682929       -18.5834
  19   2.0000      -0.671071       -18.2608
  20   2.0000      -0.646222       -17.5846
  21   2.0000      -0.620038       -16.8721
  22   2.0000      -0.583798       -15.8860
  23   2.0000      -0.572711       -15.5843
  24   2.0000      -0.558595       -15.2001
  25   2.0000      -0.546892       -14.8817
  26   2.0000      -0.526449       -14.3254
  27   2.0000      -0.519221       -14.1287
  28   2.0000      -0.499968       -13.6048
  29   2.0000      -0.489315       -13.3149
  30   2.0000      -0.485911       -13.2223
  31   2.0000      -0.469892       -12.7864
  32   2.0000      -0.448330       -12.1997
  33   2.0000      -0.444540       -12.0966
  34   2.0000      -0.419618       -11.4184
  35   2.0000      -0.404639       -11.0108
  36   2.0000      -0.401063       -10.9135
  37   2.0000      -0.345660        -9.4059
  38   2.0000      -0.333535        -9.0759
  39   2.0000      -0.326456        -8.8833
  40   0.0000       0.065499         1.7823
  41   0.0000       0.096389         2.6229
  42   0.0000       0.105697         2.8762
  43   0.0000       0.109136         2.9697
  44   0.0000       0.118311         3.2194

MULLIKEN ATOMIC CHARGES
-----------------------
   0 C :    0.972234
   1 H :   -0.124982
   2 N :   -0.592283
   3 C :    0.023150
   4 H :   -0.145193
   5 C :    0.154970
   6 C :    0.310101
   7 H :   -0.056925
   8 H :    0.076875
   9 C :    0.020916
  10 H :   -0.190523
  11 H :    0.080289
  12 C :    0.251234
  13 C :    0.278279
  14 H :    0.037528
  15 H :   -0.039250
  16 H :    0.314103
  17 H :    0.255298
  18 H :    0.284165
  19 O :   -0.673172
  20 O :   -0.706750
  21 H :   -0.129263
  22 H :   -0.211456
  23 H :    0.010237
  24 H :   -0.199583
Sum of atomic charges:    0.0000000

LOEWDIN ATOMIC CHARGES
----------------------
   0 C :    0.088381
   1 H :    0.031847
   2 N :    0.307107
   3 C :   -0.001621
   4 H :    0.036790
   5 C :   -0.013666
   6 C :   -0.022909
   7 H :    0.022044
   8 H :    0.024587
   9 C :   -0.023673
  10 H :    0.019023
  11 H :    0.011402
  12 C :    0.044476
  13 C :   -0.197061
  14 H :    0.032912
  15 H :    0.026704
  16 H :   -0.022080
  17 H :   -0.019920
  18 H :    0.104579
  19 O :   -0.258844
  20 O :   -0.249886
  21 H :    0.023987
  22 H :   -0.003450
  23 H :    0.010520
  24 H :    0.028751

  Mayer bond orders larger than 0.100000
B(  0-C ,  1-H ) :   0.7850 B(  0-C ,  2-N ) :   0.6831 B(  0-C ,  3-C ) :   1.1420
B(  0-C ,  4-H ) :   0.8281 B(  1-H ,  2-N ) :   0.1041 B(  1-H ,  3-C ) :   0.1982
B(  2-N ,  4-H ) :   0.2015 B(  2-N , 13-C ) :   0.1211 B(  2-N , 16-H ) :   0.7684
B(  2-N , 17-H ) :   0.8695 B(  2-N , 18-H ) :   0.7898 B(  3-C ,  5-C ) :   1.1530
B(  3-C , 21-H ) :   0.2121 B(  3-C , 22-H ) :   0.1102 B(  3-C , 23-H ) :   0.8951
B(  3-C , 24-H ) :   0.9129 B(  5-C ,  6-C ) :   1.2287 B(  5-C ,  7-H ) :   0.1581
B(  5-C ,  8-H ) :   0.2016 B(  5-C , 21-H ) :   0.8023 B(  5-C , 22-H ) :   0.8752
B(  5-C , 23-H ) :   0.1038 B(  5-C , 24-H ) :   0.1705 B(  6-C ,  7-H ) :   0.8344
B(  6-C ,  8-H ) :   0.6905 B(  6-C ,  9-C ) :   1.2116 B(  6-C , 10-H ) :   0.1363
B(  6-C , 21-H ) :   0.1049 B(  7-H ,  9-C ) :   0.1498 B(  8-H ,  9-C ) :   0.1472
B(  9-C , 10-H ) :   0.9094 B(  9-C , 11-H ) :   0.8265 B(  9-C , 12-C ) :   1.2188
B(  9-C , 14-H ) :   0.1590 B(  9-C , 15-H ) :   0.1218 B( 10-H , 11-H ) :  -0.1002
B( 10-H , 12-C ) :   0.1102 B( 11-H , 12-C ) :   0.1040 B( 12-C , 13-C ) :   1.1675
B( 12-C , 14-H ) :   0.7292 B( 12-C , 15-H ) :   0.8582 B( 13-C , 14-H ) :   0.1731
B( 13-C , 15-H ) :   0.2478 B( 13-C , 19-O ) :   1.4341 B( 13-C , 20-O ) :   1.3538
B( 16-H , 20-O ) :   0.2185 B( 17-H , 19-O ) :   0.2266

Dispersion correction           -0.011303590
FINAL SINGLE POINT ENERGY      -480.561565091088

DIPOLE MOMENT
-------------
                                X             Y             Z
Electronic contribution:      2.29105      -3.10385      -6.22300
Nuclear contribution   :     -2.02598       1.95876       8.24116
                        -----------------------------------------
Total Dipole Moment    :      0.26508      -1.14509       2.01815
                        -----------------------------------------
Magnitude (a.u.)       :      2.33548
Magnitude (Debye)      :      5.93631

Rotational constants in cm-1:     0.052900     0.041948     0.028766
Rotational constants in MHz :  1585.892512  1257.572595   862.390225

                             ****ORCA TERMINATED NORMALLY****
TOTAL RUN TIME: 0 days 0 hours 0 minutes 47 seconds 898 msec
