                         Program Version 5.0.0 -  RELEASE  -
|  1> !wB97X-D3 RIJCOSX def2-SVPD def2/J TightSCF
|  2> *xyz 0 1
|  3> C         -0.10608        1.76991       -4.08984
|  4> C         -0.25875        1.00432       -5.40983
|  5> C          0.39596       -0.37070       -5.33994
|  6> H          0.23915        1.56939       -6.20125
|  7> H         -1.30936        0.88869       -5.68245
|  8> F         -0.32633       -1.39040       -5.49128
|  9> O          1.61941       -0.40073       -5.03683
| 10> H         -0.57627        2.72718       -4.17630
| 11> H          0.93321        1.90140       -3.87192
| 12> H         -0.56868        1.21534       -3.30031
| 13> *
| 14> %MaxCore 64000
| 15>
| 16> %pal nprocs 18
| 17> end
| 18>
| 19> %scf
| 20>   MaxIter 150
| 21> end
| 22>
| 23>
| 24>                          ****END OF INPUT****

CARTESIAN COORDINATES (ANGSTROEM)
---------------------------------
  C     -0.106080    1.769910   -4.089840
  C     -0.258750    1.004320   -5.409830
  C      0.395960   -0.370700   -5.339940
  H      0.239150    1.569390   -6.201250
  H     -1.309360    0.888690   -5.682450
  F     -0.326330   -1.390400   -5.491280
  O      1.619410   -0.400730   -5.036830
  H     -0.576270    2.727180   -4.176300
  H      0.933210    1.901400   -3.871920
  H     -0.568680    1.215340   -3.300310

 Total Charge           Charge          ....    0
 Multiplicity           Mult            ....    1
 Number of Electrons    NEL             ....   40
 Basis Dimension        Dim             ....  146

ORBITAL ENERGIES
----------------

  NO   OCC          E(Eh)            E(eV)
   0   2.0000     -24.875299      -676.8913
   1   2.0000     -19.254991      -523.9550
   2   2.0000     -10.476290      -285.0743
   3   2.0000     -10.325665      -280.9756
   4   2.0000     -10.297314      -280.2042
   5   2.0000      -1.423613       -38.7385
   6   2.0000      -1.140086       -31.0233
   7   2.0000      -0.914584       -24.8871
   8   2.0000      -0.799287       -21.7497
   9   2.0000      -0.748447       -20.3663
  10   2.0000      -0.658791       -17.9266
  11   2.0000      -0.643530       -17.5113
  12   2.0000      -0.614153       -16.7120
  13   2.0000      -0.569563       -15.4986
  14   2.0000      -0.537219       -14.6185
  15   2.0000      -0.500662       -13.6237
  16   2.0000      -0.478143       -13.0109
  17   2.0000      -0.473203       -12.8765
  18   2.0000      -0.444784       -12.1032
  19   2.0000      -0.393817       -10.7163
  20   0.0000       0.047875         1.3027
  21   0.0000       0.084772         2.3068
  22   0.0000       0.115206         3.1349
  23   0.0000       0.125450         3.4137
  24   0.0000       0.148576         4.0430

MULLIKEN ATOMIC CHARGES
-----------------------
   0 C :    0.476836
   1 C :   -0.397162
   2 C :    0.769300
   3 H :    0.091229
   4 H :    0.008180
   5 F :   -0.378379
   6 O :   -0.517319
   7 H :   -0.015837
   8 H :   -0.000745
   9 H :   -0.036102
Sum of atomic charges:    0.0000000

LOEWDIN ATOMIC CHARGES
----------------------
   0 C :    0.139187
   1 C :    0.001623
   2 C :    0.003655
   3 H :    0.041045
   4 H :    0.024889
   5 F :   -0.040257
   6 O :   -0.144787
   7 H :   -0.010925
   8 H :   -0.007522
   9 H :   -0.006908

  Mayer bond orders larger than 0.100000
B(  0-C ,  1-C ) :   1.2868 B(  0-C ,  7-H ) :   0.8701 B(  0-C ,  8-H ) :   0.8568
B(  0-C ,  9-H ) :   0.8746 B(  1-C ,  2-C ) :   1.0896 B(  1-C ,  3-H ) :   0.8860
B(  1-C ,  4-H ) :   0.9783 B(  1-C ,  7-H ) :   0.1306 B(  1-C ,  8-H ) :   0.1573
B(  1-C ,  9-H ) :   0.1381 B(  2-C ,  5-F ) :   0.7488 B(  2-C ,  6-O ) :   1.8267

Dispersion correction           -0.001915525
FINAL SINGLE POINT ENERGY      -292.115521881006

DIPOLE MOMENT
-------------
                                X             Y             Z
Electronic contribution:      0.82006      -8.15936      -2.57483
Nuclear contribution   :     -1.80992       8.85192       2.42184
                        -----------------------------------------
Total Dipole Moment    :     -0.98987       0.69256      -0.15299
                        -----------------------------------------
Magnitude (a.u.)       :      1.21774
Magnitude (Debye)      :      3.09524

Rotational constants in cm-1:     0.298360     0.128849     0.102271
Rotational constants in MHz :  8944.606599  3862.796179  3066.020510

                             ****ORCA TERMINATED NORMALLY****
TOTAL RUN TIME: 0 days 0 hours 0 minutes 7 seconds 436 msec
