                         Program Version 5.0.0 -  RELEASE  -
|  1> !wB97X-D3 RIJCOSX def2-SVPD def2/J TightSCF
|  2> *xyz 0 1
|  3> C          0.81607       -2.10149       -2.18655
|  4> H          1.69623       -2.36869       -1.60046
|  5> C          1.10055       -2.46749       -3.59927
|  6> C          0.51624       -0.61363       -2.03937
|  7> H         -0.02007       -2.71285       -1.84084
|  8> H          1.70061       -1.75723       -4.07838
|  9> H          0.29386       -2.35977       -4.25632
| 10> H          1.50132       -3.42848       -3.69491
| 11> H         -0.34841       -0.36504       -2.61858
| 12> H          1.35358       -0.04503       -2.38643
| 13> H          0.33317       -0.38682       -1.00984
| 14> *
| 15> %MaxCore 64000
| 16>
| 17> %pal nprocs 18
| 18> end
| 19>
| 20> %scf
| 21>   MaxIter 150
| 22> end
| 23>
| 24>
| 25>                          ****END OF INPUT****

CARTESIAN COORDINATES (ANGSTROEM)
---------------------------------
  C      0.816070   -2.101490   -2.186550
  H      1.696230   -2.368690   -1.600460
  C      1.100550   -2.467490   -3.599270
  C      0.516240   -0.613630   -2.039370
  H     -0.020070   -2.712850   -1.840840
  H      1.700610   -1.757230   -4.078380
  H      0.293860   -2.359770   -4.256320
  H      1.501320   -3.428480   -3.694910
  H     -0.348410   -0.365040   -2.618580
  H      1.353580   -0.045030   -2.386430
  H      0.333170   -0.386820   -1.009840

 Total Charge           Charge          ....    0
 Multiplicity           Mult            ....    1
 Number of Electrons    NEL             ....   26
 Basis Dimension        Dim             ....  124

ORBITAL ENERGIES
----------------

  NO   OCC          E(Eh)            E(eV)
   0   2.0000     -10.278387      -279.6891
   1   2.0000     -10.268698      -279.4255
   2   2.0000     -10.256010      -279.0802
   3   2.0000      -0.901014       -24.5178
   4   2.0000      -0.796138       -21.6640
   5   2.0000      -0.694514       -18.8987
   6   2.0000      -0.562679       -15.3113
   7   2.0000      -0.547362       -14.8945
   8   2.0000      -0.511186       -13.9101
   9   2.0000      -0.472861       -12.8672
  10   2.0000      -0.436135       -11.8678
  11   2.0000      -0.431492       -11.7415
  12   2.0000      -0.413826       -11.2608
  13   0.0000       0.097457         2.6519
  14   0.0000       0.123708         3.3663
  15   0.0000       0.131110         3.5677
  16   0.0000       0.164158         4.4670
  17   0.0000       0.182686         4.9711

MULLIKEN ATOMIC CHARGES
-----------------------
   0 C :   -0.546233
   1 H :   -0.055313
   2 C :    0.716068
   3 C :    0.540116
   4 H :   -0.079585
   5 H :   -0.173927
   6 H :   -0.155145
   7 H :   -0.127303
   8 H :   -0.028778
   9 H :   -0.019799
  10 H :   -0.070101
Sum of atomic charges:   -0.0000000

LOEWDIN ATOMIC CHARGES
----------------------
   0 C :   -0.121011
   1 H :    0.021120
   2 C :    0.095507
   3 C :    0.110759
   4 H :    0.021850
   5 H :   -0.029172
   6 H :   -0.026176
   7 H :   -0.022034
   8 H :   -0.014318
   9 H :   -0.015813
  10 H :   -0.020711

  Mayer bond orders larger than 0.100000
B(  0-C ,  1-H ) :   0.9506 B(  0-C ,  2-C ) :   1.2524 B(  0-C ,  3-C ) :   1.2468
B(  0-C ,  4-H ) :   0.9738 B(  0-C ,  5-H ) :   0.1630 B(  0-C ,  6-H ) :   0.1639
B(  0-C ,  7-H ) :   0.1700 B(  0-C ,  8-H ) :   0.1663 B(  0-C ,  9-H ) :   0.1504
B(  0-C , 10-H ) :   0.1665 B(  2-C ,  4-H ) :   0.1007 B(  2-C ,  5-H ) :   0.7613
B(  2-C ,  6-H ) :   0.7423 B(  2-C ,  7-H ) :   0.8226 B(  3-C ,  8-H ) :   0.8516
B(  3-C ,  9-H ) :   0.8573 B(  3-C , 10-H ) :   0.8607 B(  5-H ,  6-H ) :   0.2865

Dispersion correction           -0.001479541
FINAL SINGLE POINT ENERGY      -119.015508298288

DIPOLE MOMENT
-------------
                                X             Y             Z
Electronic contribution:     -0.01832      -0.30676       0.46040
Nuclear contribution   :      0.01737       0.30387      -0.47422
                        -----------------------------------------
Total Dipole Moment    :     -0.00095      -0.00289      -0.01382
                        -----------------------------------------
Magnitude (a.u.)       :      0.01415
Magnitude (Debye)      :      0.03596

Rotational constants in cm-1:     1.006891     0.295208     0.258491
Rotational constants in MHz : 30185.831813  8850.104914  7749.351732

                             ****ORCA TERMINATED NORMALLY****
TOTAL RUN TIME: 0 days 0 hours 0 minutes 5 seconds 598 msec
