                         Program Version 5.0.0 -  RELEASE  -
|  1> !wB97X-D3 RIJCOSX def2-SVPD def2/J TightSCF
|  2> *xyz 0 1
|  3> C         -0.10608        1.76991       -4.08984
|  4> C         -0.25875        1.00432       -5.40983
|  5> C          0.39596       -0.37070       -5.33994
|  6> H          0.23915        1.56939       -6.20125
|  7> H         -1.30936        0.88869       -5.68245
|  8> O         -0.32633       -1.39040       -5.49128
|  9> F          1.61941       -0.40073       -5.03683
| 10> H         -0.57627        2.72718       -4.17630
| 11> H          0.93321        1.90140       -3.87192
| 12> H         -0.56868        1.21534       -3.30031
| 13> *
| 14> %MaxCore 64000
| 15>
| 16> %pal nprocs 18
| 17> end
| 18>
| 19> %scf
| 20>   MaxIter 150
| 21> end
| 22>
| 23>
| 24>                          ****END OF INPUT****

CARTESIAN COORDINATES (ANGSTROEM)
---------------------------------
  C     -0.106080    1.769910   -4.089840
  C     -0.258750    1.004320   -5.409830
  C      0.395960   -0.370700   -5.339940
  H      0.239150    1.569390   -6.201250
  H     -1.309360    0.888690   -5.682450
  O     -0.326330   -1.390400   -5.491280
  F      1.619410   -0.400730   -5.036830
  H     -0.576270    2.727180   -4.176300
  H      0.933210    1.901400   -3.871920
  H     -0.568680    1.215340   -3.300310

 Total Charge           Charge          ....    0
 Multiplicity           Mult            ....    1
 Number of Electrons    NEL             ....   40
 Basis Dimension        Dim             ....  146

ORBITAL ENERGIES
----------------

  NO   OCC          E(Eh)            E(eV)
   0   2.0000     -24.874065      -676.8577
   1   2.0000     -19.255840      -523.9781
   2   2.0000     -10.475590      -285.0553
   3   2.0000     -10.325509      -280.9714
   4   2.0000     -10.302548      -280.3466
   5   2.0000      -1.422222       -38.7006
   6   2.0000      -1.140146       -31.0250
   7   2.0000      -0.919387       -25.0178
   8   2.0000      -0.796343       -21.6696
   9   2.0000      -0.752182       -20.4679
  10   2.0000      -0.660059       -17.9611
  11   2.0000      -0.647602       -17.6221
  12   2.0000      -0.606750       -16.5105
  13   2.0000      -0.569958       -15.5093
  14   2.0000      -0.538224       -14.6458
  15   2.0000      -0.504424       -13.7261
  16   2.0000      -0.484831       -13.1929
  17   2.0000      -0.476453       -12.9649
  18   2.0000      -0.450095       -12.2477
  19   2.0000      -0.390471       -10.6253
  20   0.0000       0.051208         1.3934
  21   0.0000       0.083333         2.2676
  22   0.0000       0.115578         3.1450
  23   0.0000       0.124449         3.3864
  24   0.0000       0.149159         4.0588

MULLIKEN ATOMIC CHARGES
-----------------------
   0 C :    0.461436
   1 C :   -0.377101
   2 C :    0.784938
   3 H :    0.081415
   4 H :   -0.006102
   5 O :   -0.491072
   6 F :   -0.400925
   7 H :   -0.012899
   8 H :   -0.009865
   9 H :   -0.029825
Sum of atomic charges:   -0.0000000

LOEWDIN ATOMIC CHARGES
----------------------
   0 C :    0.134254
   1 C :    0.006254
   2 C :   -0.001710
   3 H :    0.036184
   4 H :    0.036512
   5 O :   -0.143110
   6 F :   -0.041047
   7 H :   -0.010223
   8 H :   -0.012012
   9 H :   -0.005102

  Mayer bond orders larger than 0.100000
B(  0-C ,  1-C ) :   1.2611 B(  0-C ,  7-H ) :   0.8778 B(  0-C ,  8-H ) :   0.8482
B(  0-C ,  9-H ) :   0.8880 B(  1-C ,  2-C ) :   1.0630 B(  1-C ,  3-H ) :   0.8853
B(  1-C ,  4-H ) :   1.0095 B(  1-C ,  7-H ) :   0.1311 B(  1-C ,  8-H ) :   0.1490
B(  1-C ,  9-H ) :   0.1336 B(  2-C ,  4-H ) :   0.1187 B(  2-C ,  5-O ) :   1.8313
B(  2-C ,  6-F ) :   0.7273

Dispersion correction           -0.001926137
FINAL SINGLE POINT ENERGY      -292.116882094786

DIPOLE MOMENT
-------------
                                X             Y             Z
Electronic contribution:      4.07783      -6.47171      -1.80627
Nuclear contribution   :     -3.93139       7.77287       1.92635
                        -----------------------------------------
Total Dipole Moment    :      0.14645       1.30116       0.12008
                        -----------------------------------------
Magnitude (a.u.)       :      1.31487
Magnitude (Debye)      :      3.34214

Rotational constants in cm-1:     0.286068     0.133630     0.103472
Rotational constants in MHz :  8576.109806  4006.118234  3102.010802

                             ****ORCA TERMINATED NORMALLY****
TOTAL RUN TIME: 0 days 0 hours 0 minutes 7 seconds 33 msec
