                         Program Version 5.0.0 -  RELEASE  -
|  1> !wB97X-D3 RIJCOSX def2-SVPD def2/J TightSCF
|  2> *xyz -1 1
|  3> C          4.08422        1.74208       -2.11472
|  4> C          4.26524        2.50052       -0.79589
|  5> H          4.86853        3.39267       -0.98113
|  6> H          3.30764        2.82457       -0.38781
|  7> C          4.98224        1.65026        0.24742
|  8> O          4.36806        1.38927        1.31371
|  9> O          6.12892        1.23351       -0.04562
| 10> C          1.99727        0.43092       -1.39922
| 11> C          3.41275        0.37689       -1.96550
| 12> H          4.04741       -0.24659       -1.32671
| 13> H          3.39077       -0.11872       -2.94284
| 14> H          5.06847        1.59850       -2.56573
| 15> H          3.50336        2.36394       -2.80457
| 16> C          1.32224       -0.93577       -1.25641
| 17> H          1.37644        1.05892       -2.04742
| 18> H          2.01534        0.92978       -0.42653
| 19> H          1.30366       -1.42552       -2.20757
| 20> H          0.32075       -0.80379       -0.90357
| 21> H          1.87053       -1.53318       -0.55828
| 22> *
| 23> %MaxCore 64000
| 24> %pal nprocs 8
| 25> end
| 26> %scf
| 27>   MaxIter 150
| 28> end
| 29>
| 30>                          ****END OF INPUT****

CARTESIAN COORDINATES (ANGSTROEM)
---------------------------------
  C      4.084220    1.742080   -2.114720
  C      4.265240    2.500520   -0.795890
  H      4.868530    3.392670   -0.981130
  H      3.307640    2.824570   -0.387810
  C      4.982240    1.650260    0.247420
  O      4.368060    1.389270    1.313710
  O      6.128920    1.233510   -0.045620
  C      1.997270    0.430920   -1.399220
  C      3.412750    0.376890   -1.965500
  H      4.047410   -0.246590   -1.326710
  H      3.390770   -0.118720   -2.942840
  H      5.068470    1.598500   -2.565730
  H      3.503360    2.363940   -2.804570
  C      1.322240   -0.935770   -1.256410
  H      1.376440    1.058920   -2.047420
  H      2.015340    0.929780   -0.426530
  H      1.303660   -1.425520   -2.207570
  H      0.320750   -0.803790   -0.903570
  H      1.870530   -1.533180   -0.558280

 Total Charge           Charge          ....   -1
 Multiplicity           Mult            ....    1
 Number of Electrons    NEL             ....   64
 Basis Dimension        Dim             ....  254

ORBITAL ENERGIES
----------------

  NO   OCC          E(Eh)            E(eV)
   0   2.0000     -18.988124      -516.6931
   1   2.0000     -18.987325      -516.6714
   2   2.0000     -10.182174      -277.0710
   3   2.0000     -10.161986      -276.5217
   4   2.0000     -10.158205      -276.4188
   5   2.0000     -10.148858      -276.1645
   6   2.0000     -10.144933      -276.0577
   7   2.0000     -10.120003      -275.3793
   8   2.0000      -0.934551       -25.4304
   9   2.0000      -0.837783       -22.7972
  10   2.0000      -0.785940       -21.3865
  11   2.0000      -0.731587       -19.9075
  12   2.0000      -0.656892       -17.8749
  13   2.0000      -0.590871       -16.0784
  14   2.0000      -0.539781       -14.6882
  15   2.0000      -0.449962       -12.2441
  16   2.0000      -0.429318       -11.6823
  17   2.0000      -0.413006       -11.2385
  18   2.0000      -0.401079       -10.9139
  19   2.0000      -0.387200       -10.5363
  20   2.0000      -0.347498        -9.4559
  21   2.0000      -0.343862        -9.3570
  22   2.0000      -0.330113        -8.9828
  23   2.0000      -0.320281        -8.7153
  24   2.0000      -0.301183        -8.1956
  25   2.0000      -0.298023        -8.1096
  26   2.0000      -0.283395        -7.7116
  27   2.0000      -0.266582        -7.2541
  28   2.0000      -0.262481        -7.1425
  29   2.0000      -0.149650        -4.0722
  30   2.0000      -0.143364        -3.9011
  31   2.0000      -0.131026        -3.5654
  32   0.0000       0.198673         5.4062
  33   0.0000       0.217099         5.9076
  34   0.0000       0.230684         6.2772
  35   0.0000       0.247094         6.7238
  36   0.0000       0.256911         6.9909

MULLIKEN ATOMIC CHARGES
-----------------------
   0 C :    0.128677
   1 C :    0.179267
   2 H :   -0.095695
   3 H :    0.014496
   4 C :    0.435119
   5 O :   -0.692647
   6 O :   -0.711347
   7 C :   -0.493487
   8 C :   -0.208218
   9 H :    0.072757
  10 H :   -0.149738
  11 H :   -0.004316
  12 H :   -0.120099
  13 C :    0.874489
  14 H :   -0.047135
  15 H :   -0.039803
  16 H :   -0.024337
  17 H :   -0.087766
  18 H :   -0.030217
Sum of atomic charges:   -1.0000000

LOEWDIN ATOMIC CHARGES
----------------------
   0 C :   -0.045568
   1 C :    0.000946
   2 H :    0.012527
   3 H :   -0.001181
   4 C :   -0.307827
   5 O :   -0.327963
   6 O :   -0.322922
   7 C :   -0.082818
   8 C :   -0.045274
   9 H :    0.029213
  10 H :    0.011215
  11 H :    0.014973
  12 H :    0.004314
  13 C :    0.104307
  14 H :    0.013931
  15 H :    0.015020
  16 H :   -0.028329
  17 H :   -0.028787
  18 H :   -0.015776

  Mayer bond orders larger than 0.100000
B(  0-C ,  1-C ) :   1.1555 B(  0-C ,  2-H ) :   0.1595 B(  0-C ,  3-H ) :   0.1402
B(  0-C ,  8-C ) :   1.2388 B(  0-C ,  9-H ) :   0.1292 B(  0-C , 11-H ) :   0.8004
B(  0-C , 12-H ) :   0.8702 B(  1-C ,  2-H ) :   0.8263 B(  1-C ,  3-H ) :   0.8543
B(  1-C ,  4-C ) :   0.9980 B(  1-C , 11-H ) :   0.1166 B(  1-C , 12-H ) :   0.1057
B(  2-H ,  4-C ) :   0.1012 B(  3-H ,  4-C ) :   0.1978 B(  4-C ,  5-O ) :   1.4997
B(  4-C ,  6-O ) :   1.5222 B(  7-C ,  8-C ) :   1.2023 B(  7-C , 10-H ) :   0.1079
B(  7-C , 13-C ) :   1.2168 B(  7-C , 14-H ) :   0.9331 B(  7-C , 15-H ) :   0.9562
B(  7-C , 16-H ) :   0.1822 B(  7-C , 17-H ) :   0.3159 B(  7-C , 18-H ) :   0.2064
B(  8-C ,  9-H ) :   0.9346 B(  8-C , 10-H ) :   0.9456 B(  8-C , 11-H ) :   0.1825
B(  8-C , 12-H ) :   0.1621 B(  8-C , 14-H ) :   0.1458 B(  8-C , 15-H ) :   0.1420
B( 13-C , 16-H ) :   0.7983 B( 13-C , 17-H ) :   0.6791 B( 13-C , 18-H ) :   0.8058

Dispersion correction           -0.006310874
FINAL SINGLE POINT ENERGY      -385.423265995586

DIPOLE MOMENT
-------------
                                X             Y             Z
Electronic contribution:      7.88502       2.94433       6.11847
Nuclear contribution   :    -10.26134      -3.14086      -8.47900
                        -----------------------------------------
Total Dipole Moment    :     -2.37632      -0.19653      -2.36053
                        -----------------------------------------
Magnitude (a.u.)       :      3.35524
Magnitude (Debye)      :      8.52834

Rotational constants in cm-1:     0.105311     0.039378     0.034267
Rotational constants in MHz :  3157.156799  1180.514814  1027.294855

                             ****ORCA TERMINATED NORMALLY****
TOTAL RUN TIME: 0 days 0 hours 0 minutes 35 seconds 462 msec
