                         Program Version 5.0.0 -  RELEASE  -
|  1> !wB97X-D3 RIJCOSX def2-SVPD def2/J TightSCF
|  2> *xyz 1 1
|  3> C          3.91385       -1.65829        3.01513
|  4> N          5.03927       -0.90115        2.49282
|  5> C          6.21038       -1.41726        2.17824
|  6> N          6.53591       -2.67712        2.55608
|  7> N          7.07675       -0.70082        1.47891
|  8> H          7.95464       -1.12155        1.20755
|  9> H          6.75616        0.10664        0.96028
| 10> H          4.84217        0.01761        2.11519
| 11> H          5.99388       -3.12692        3.28278
| 12> H          7.49844       -2.97548        2.46878
| 13> C          3.13916       -2.37657        1.91061
| 14> H          3.26723       -0.93940        3.52069
| 15> H          4.24720       -2.35509        3.79006
| 16> C          1.99727        0.43092       -1.39922
| 17> C          3.41275        0.37689       -1.96550
| 18> C          2.39995       -1.38958        1.00949
| 19> H          2.44075       -3.08712        2.36298
| 20> H          3.84448       -2.97046        1.31868
| 21> C          2.07018       -1.93671       -0.37240
| 22> H          1.48161       -1.06154        1.50991
| 23> H          3.00863       -0.49000        0.89745
| 24> C          1.32224       -0.93577       -1.25641
| 25> H          1.47275       -2.85090       -0.28400
| 26> H          3.00354       -2.23404       -0.86254
| 27> H          1.37644        1.05892       -2.04742
| 28> H          2.01534        0.92978       -0.42653
| 29> H          0.31665       -0.78721       -0.84828
| 30> H          1.18561       -1.37925       -2.24861
| 31> H          3.39759       -0.11102       -2.91766
| 32> H          4.04439       -0.16810       -1.29548
| 33> H          3.78910        1.37189       -2.08055
| 34> *
| 35> %MaxCore 64000
| 36> %pal nprocs 8
| 37> end
| 38> %scf
| 39>   MaxIter 150
| 40> end
| 41>
| 42>                          ****END OF INPUT****

CARTESIAN COORDINATES (ANGSTROEM)
---------------------------------
  C      3.913850   -1.658290    3.015130
  N      5.039270   -0.901150    2.492820
  C      6.210380   -1.417260    2.178240
  N      6.535910   -2.677120    2.556080
  N      7.076750   -0.700820    1.478910
  H      7.954640   -1.121550    1.207550
  H      6.756160    0.106640    0.960280
  H      4.842170    0.017610    2.115190
  H      5.993880   -3.126920    3.282780
  H      7.498440   -2.975480    2.468780
  C      3.139160   -2.376570    1.910610
  H      3.267230   -0.939400    3.520690
  H      4.247200   -2.355090    3.790060
  C      1.997270    0.430920   -1.399220
  C      3.412750    0.376890   -1.965500
  C      2.399950   -1.389580    1.009490
  H      2.440750   -3.087120    2.362980
  H      3.844480   -2.970460    1.318680
  C      2.070180   -1.936710   -0.372400
  H      1.481610   -1.061540    1.509910
  H      3.008630   -0.490000    0.897450
  C      1.322240   -0.935770   -1.256410
  H      1.472750   -2.850900   -0.284000
  H      3.003540   -2.234040   -0.862540
  H      1.376440    1.058920   -2.047420
  H      2.015340    0.929780   -0.426530
  H      0.316650   -0.787210   -0.848280
  H      1.185610   -1.379250   -2.248610
  H      3.397590   -0.111020   -2.917660
  H      4.044390   -0.168100   -1.295480
  H      3.789100    1.371890   -2.080550

 Total Charge           Charge          ....    1
 Multiplicity           Mult            ....    1
 Number of Electrons    NEL             ....   88
 Basis Dimension        Dim             ....  380

ORBITAL ENERGIES
----------------

  NO   OCC          E(Eh)            E(eV)
   0   2.0000     -14.657962      -398.8634
   1   2.0000     -14.657705      -398.8564
   2   2.0000     -14.655120      -398.7861
   3   2.0000     -10.625068      -289.1228
   4   2.0000     -10.489467      -285.4329
   5   2.0000     -10.424693      -283.6703
   6   2.0000     -10.406103      -283.1645
   7   2.0000     -10.387539      -282.6593
   8   2.0000     -10.374909      -282.3156
   9   2.0000     -10.374728      -282.3107
  10   2.0000     -10.367290      -282.1083
  11   2.0000      -1.323994       -36.0277
  12   2.0000      -1.211999       -32.9802
  13   2.0000      -1.194986       -32.5172
  14   2.0000      -1.053721       -28.6732
  15   2.0000      -1.014024       -27.5930
  16   2.0000      -0.971709       -26.4416
  17   2.0000      -0.935614       -25.4593
  18   2.0000      -0.911364       -24.7995
  19   2.0000      -0.889007       -24.1911
  20   2.0000      -0.867037       -23.5933
  21   2.0000      -0.839048       -22.8317
  22   2.0000      -0.818877       -22.2828
  23   2.0000      -0.789401       -21.4807
  24   2.0000      -0.781739       -21.2722
  25   2.0000      -0.759012       -20.6538
  26   2.0000      -0.754101       -20.5201
  27   2.0000      -0.726055       -19.7570
  28   2.0000      -0.693782       -18.8788
  29   2.0000      -0.684949       -18.6384
  30   2.0000      -0.661593       -18.0029
  31   2.0000      -0.649389       -17.6708
  32   2.0000      -0.636175       -17.3112
  33   2.0000      -0.608276       -16.5520
  34   2.0000      -0.595213       -16.1966
  35   2.0000      -0.583064       -15.8660
  36   2.0000      -0.570193       -15.5157
  37   2.0000      -0.564783       -15.3685
  38   2.0000      -0.554018       -15.0756
  39   2.0000      -0.544857       -14.8263
  40   2.0000      -0.534462       -14.5434
  41   2.0000      -0.508569       -13.8389
  42   2.0000      -0.506675       -13.7873
  43   2.0000      -0.504252       -13.7214
  44   0.0000      -0.086510        -2.3541
  45   0.0000      -0.073249        -1.9932
  46   0.0000      -0.045342        -1.2338
  47   0.0000      -0.030045        -0.8176
  48   0.0000      -0.016772        -0.4564

MULLIKEN ATOMIC CHARGES
-----------------------
   0 C :    0.928630
   1 N :   -0.504789
   2 C :    1.418042
   3 N :   -0.021677
   4 N :   -0.115191
   5 H :    0.008278
   6 H :   -0.037840
   7 H :   -0.213113
   8 H :    0.003974
   9 H :   -0.138887
  10 C :    0.267592
  11 H :   -0.278125
  12 H :   -0.094070
  13 C :   -0.400599
  14 C :    0.818545
  15 C :   -0.098377
  16 H :   -0.030927
  17 H :   -0.027391
  18 C :   -0.044860
  19 H :    0.008059
  20 H :   -0.254203
  21 C :    0.253495
  22 H :   -0.156638
  23 H :    0.055749
  24 H :   -0.257440
  25 H :    0.102336
  26 H :    0.046214
  27 H :   -0.000460
  28 H :    0.034032
  29 H :   -0.225319
  30 H :   -0.045039
Sum of atomic charges:    1.0000000

LOEWDIN ATOMIC CHARGES
----------------------
   0 C :    0.076905
   1 N :    0.044498
   2 C :   -0.022326
   3 N :    0.274878
   4 N :    0.256212
   5 H :    0.041705
   6 H :    0.042586
   7 H :    0.056148
   8 H :    0.015565
   9 H :    0.036596
  10 C :   -0.009656
  11 H :    0.046904
  12 H :    0.024179
  13 C :   -0.076855
  14 C :    0.121257
  15 C :   -0.041676
  16 H :    0.041880
  17 H :    0.022610
  18 C :   -0.037519
  19 H :    0.044620
  20 H :   -0.012115
  21 C :   -0.031074
  22 H :    0.034176
  23 H :    0.019593
  24 H :    0.028033
  25 H :    0.007971
  26 H :    0.028747
  27 H :    0.030353
  28 H :   -0.005632
  29 H :   -0.044728
  30 H :   -0.013834

  Mayer bond orders larger than 0.100000
B(  0-C ,  1-N ) :   0.8903 B(  0-C ,  7-H ) :  -0.1678 B(  0-C , 10-C ) :   1.0741
B(  0-C , 11-H ) :   0.7417 B(  0-C , 12-H ) :   0.8294 B(  0-C , 15-C ) :   0.1142
B(  1-N ,  2-C ) :   1.0416 B(  1-N ,  3-N ) :   0.1959 B(  1-N ,  4-N ) :   0.2713
B(  1-N ,  7-H ) :   1.2935 B(  1-N , 11-H ) :   0.2670 B(  2-C ,  3-N ) :   0.9076
B(  2-C ,  4-N ) :   0.8196 B(  2-C ,  6-H ) :  -0.1711 B(  2-C ,  7-H ) :  -0.2805
B(  2-C ,  9-H ) :  -0.1232 B(  3-N ,  4-N ) :   0.1368 B(  3-N ,  8-H ) :   1.0379
B(  3-N ,  9-H ) :   1.2513 B(  4-N ,  5-H ) :   1.1380 B(  4-N ,  6-H ) :   1.1755
B(  5-H ,  6-H ) :  -0.1591 B(  8-H ,  9-H ) :  -0.1913 B( 10-C , 12-H ) :   0.1301
B( 10-C , 15-C ) :   1.1247 B( 10-C , 16-H ) :   0.9167 B( 10-C , 17-H ) :   0.8957
B( 10-C , 19-H ) :   0.1073 B( 11-H , 12-H ) :  -0.1699 B( 13-C , 14-C ) :   1.2353
B( 13-C , 21-C ) :   1.1653 B( 13-C , 24-H ) :   1.0434 B( 13-C , 25-H ) :   0.8701
B( 13-C , 26-H ) :   0.1032 B( 13-C , 27-H ) :   0.1387 B( 13-C , 28-H ) :   0.2100
B( 13-C , 29-H ) :   0.2190 B( 13-C , 30-H ) :   0.2168 B( 14-C , 28-H ) :   0.7503
B( 14-C , 29-H ) :   0.8316 B( 14-C , 30-H ) :   0.7464 B( 15-C , 16-H ) :   0.1536
B( 15-C , 18-C ) :   1.2262 B( 15-C , 19-H ) :   0.8776 B( 15-C , 20-H ) :   0.9705
B( 15-C , 22-H ) :   0.1487 B( 15-C , 23-H ) :   0.1377 B( 18-C , 21-C ) :   1.1832
B( 18-C , 22-H ) :   0.9418 B( 18-C , 23-H ) :   0.9037 B( 18-C , 26-H ) :   0.1013
B( 18-C , 27-H ) :   0.2249 B( 21-C , 24-H ) :   0.1323 B( 21-C , 25-H ) :   0.1058
B( 21-C , 26-H ) :   0.8503 B( 21-C , 27-H ) :   0.7419

Dispersion correction           -0.011381478
FINAL SINGLE POINT ENERGY      -480.533591853948

DIPOLE MOMENT
-------------
                                X             Y             Z
Electronic contribution:     10.08088      -2.08703       8.68268
Nuclear contribution   :     -6.88183       1.63170      -6.72806
                        -----------------------------------------
Total Dipole Moment    :      3.19905      -0.45533       1.95462
                        -----------------------------------------
Magnitude (a.u.)       :      3.77648
Magnitude (Debye)      :      9.59905

Rotational constants in cm-1:     0.051078     0.016872     0.014086
Rotational constants in MHz :  1531.282302   505.802227   422.292033

                             ****ORCA TERMINATED NORMALLY****
TOTAL RUN TIME: 0 days 0 hours 1 minutes 32 seconds 874 msec
