                         Program Version 5.0.0 -  RELEASE  -
|  1> !wB97X-D3 RIJCOSX def2-SVPD def2/J TightSCF
|  2> *xyz -1 1
|  3> C          4.08422        1.74208       -2.11472
|  4> C          4.26524        2.50052       -0.79589
|  5> H          4.86853        3.39267       -0.98113
|  6> H          3.30764        2.82457       -0.38781
|  7> C          4.98224        1.65026        0.24742
|  8> O          4.36806        1.38927        1.31371
|  9> O          6.12892        1.23351       -0.04562
| 10> C          3.13916       -2.37657        1.91061
| 11> C          1.99727        0.43092       -1.39922
| 12> C          3.41275        0.37689       -1.96550
| 13> H          4.04741       -0.24659       -1.32671
| 14> H          3.39077       -0.11872       -2.94284
| 15> H          5.06847        1.59850       -2.56573
| 16> H          3.50336        2.36394       -2.80457
| 17> C          2.39995       -1.38958        1.00949
| 18> C          2.07018       -1.93671       -0.37240
| 19> H          1.48161       -1.06154        1.50991
| 20> H          3.00863       -0.49000        0.89745
| 21> C          1.32224       -0.93577       -1.25641
| 22> H          1.47275       -2.85090       -0.28400
| 23> H          3.00354       -2.23404       -0.86254
| 24> H          1.37644        1.05892       -2.04742
| 25> H          2.01534        0.92978       -0.42653
| 26> H          0.31665       -0.78721       -0.84828
| 27> H          1.18561       -1.37925       -2.24861
| 28> H          4.03659       -2.69929        1.42546
| 29> H          2.51297       -3.22286        2.10186
| 30> H          3.38580       -1.89904        2.83583
| 31> *
| 32> %MaxCore 64000
| 33> %pal nprocs 8
| 34> end
| 35> %scf
| 36>   MaxIter 150
| 37> end
| 38>
| 39>                          ****END OF INPUT****

CARTESIAN COORDINATES (ANGSTROEM)
---------------------------------
  C      4.084220    1.742080   -2.114720
  C      4.265240    2.500520   -0.795890
  H      4.868530    3.392670   -0.981130
  H      3.307640    2.824570   -0.387810
  C      4.982240    1.650260    0.247420
  O      4.368060    1.389270    1.313710
  O      6.128920    1.233510   -0.045620
  C      3.139160   -2.376570    1.910610
  C      1.997270    0.430920   -1.399220
  C      3.412750    0.376890   -1.965500
  H      4.047410   -0.246590   -1.326710
  H      3.390770   -0.118720   -2.942840
  H      5.068470    1.598500   -2.565730
  H      3.503360    2.363940   -2.804570
  C      2.399950   -1.389580    1.009490
  C      2.070180   -1.936710   -0.372400
  H      1.481610   -1.061540    1.509910
  H      3.008630   -0.490000    0.897450
  C      1.322240   -0.935770   -1.256410
  H      1.472750   -2.850900   -0.284000
  H      3.003540   -2.234040   -0.862540
  H      1.376440    1.058920   -2.047420
  H      2.015340    0.929780   -0.426530
  H      0.316650   -0.787210   -0.848280
  H      1.185610   -1.379250   -2.248610
  H      4.036590   -2.699290    1.425460
  H      2.512970   -3.222860    2.101860
  H      3.385800   -1.899040    2.835830

 Total Charge           Charge          ....   -1
 Multiplicity           Mult            ....    1
 Number of Electrons    NEL             ....   88
 Basis Dimension        Dim             ....  362

ORBITAL ENERGIES
----------------

  NO   OCC          E(Eh)            E(eV)
   0   2.0000     -18.996071      -516.9094
   1   2.0000     -18.993785      -516.8472
   2   2.0000     -10.188980      -277.2563
   3   2.0000     -10.172197      -276.7995
   4   2.0000     -10.167271      -276.6655
   5   2.0000     -10.158752      -276.4337
   6   2.0000     -10.153282      -276.2849
   7   2.0000     -10.151802      -276.2446
   8   2.0000     -10.151035      -276.2237
   9   2.0000     -10.148372      -276.1513
  10   2.0000     -10.124456      -275.5005
  11   2.0000      -0.941794       -25.6275
  12   2.0000      -0.845181       -22.9985
  13   2.0000      -0.807702       -21.9787
  14   2.0000      -0.770206       -20.9584
  15   2.0000      -0.733637       -19.9633
  16   2.0000      -0.682573       -18.5737
  17   2.0000      -0.637616       -17.3504
  18   2.0000      -0.594276       -16.1711
  19   2.0000      -0.560216       -15.2443
  20   2.0000      -0.530250       -14.4288
  21   2.0000      -0.459107       -12.4929
  22   2.0000      -0.452182       -12.3045
  23   2.0000      -0.429888       -11.6978
  24   2.0000      -0.416485       -11.3331
  25   2.0000      -0.410915       -11.1816
  26   2.0000      -0.397890       -10.8271
  27   2.0000      -0.390032       -10.6133
  28   2.0000      -0.362037        -9.8515
  29   2.0000      -0.352637        -9.5958
  30   2.0000      -0.343264        -9.3407
  31   2.0000      -0.336066        -9.1448
  32   2.0000      -0.329351        -8.9621
  33   2.0000      -0.317117        -8.6292
  34   2.0000      -0.304524        -8.2865
  35   2.0000      -0.303765        -8.2659
  36   2.0000      -0.295302        -8.0356
  37   2.0000      -0.281830        -7.6690
  38   2.0000      -0.278154        -7.5690
  39   2.0000      -0.268200        -7.2981
  40   2.0000      -0.266926        -7.2634
  41   2.0000      -0.156604        -4.2614
  42   2.0000      -0.150059        -4.0833
  43   2.0000      -0.138241        -3.7617
  44   0.0000       0.192475         5.2375
  45   0.0000       0.205727         5.5981
  46   0.0000       0.216397         5.8885
  47   0.0000       0.217691         5.9237
  48   0.0000       0.240793         6.5523

MULLIKEN ATOMIC CHARGES
-----------------------
   0 C :    0.292838
   1 C :    0.205015
   2 H :   -0.158442
   3 H :    0.094379
   4 C :    0.442448
   5 O :   -0.704538
   6 O :   -0.713111
   7 C :    1.057115
   8 C :   -0.190635
   9 C :   -0.168629
  10 H :    0.025049
  11 H :   -0.155830
  12 H :   -0.017377
  13 H :   -0.124322
  14 C :   -0.007834
  15 C :   -0.125160
  16 H :   -0.097045
  17 H :   -0.687558
  18 C :    0.584727
  19 H :   -0.363483
  20 H :    0.120256
  21 H :   -0.283052
  22 H :    0.133062
  23 H :   -0.022424
  24 H :   -0.010747
  25 H :   -0.043440
  26 H :   -0.032630
  27 H :   -0.048627
Sum of atomic charges:   -1.0000000

LOEWDIN ATOMIC CHARGES
----------------------
   0 C :   -0.040240
   1 C :    0.005589
   2 H :    0.013238
   3 H :    0.000897
   4 C :   -0.295214
   5 O :   -0.313780
   6 O :   -0.315210
   7 C :    0.117118
   8 C :   -0.037894
   9 C :   -0.033537
  10 H :    0.017891
  11 H :    0.016341
  12 H :    0.016097
  13 H :    0.005629
  14 C :   -0.071876
  15 C :   -0.053833
  16 H :    0.025093
  17 H :   -0.021250
  18 C :   -0.047699
  19 H :    0.010154
  20 H :    0.016141
  21 H :    0.015843
  22 H :    0.010741
  23 H :    0.013188
  24 H :    0.010771
  25 H :   -0.016361
  26 H :   -0.031339
  27 H :   -0.016499

  Mayer bond orders larger than 0.100000
B(  0-C ,  1-C ) :   1.1487 B(  0-C ,  2-H ) :   0.1657 B(  0-C ,  3-H ) :   0.1335
B(  0-C ,  9-C ) :   1.2175 B(  0-C , 12-H ) :   0.7272 B(  0-C , 13-H ) :   0.8625
B(  1-C ,  2-H ) :   0.8554 B(  1-C ,  3-H ) :   0.8065 B(  1-C ,  4-C ) :   1.0054
B(  1-C , 12-H ) :   0.1100 B(  1-C , 13-H ) :   0.1001 B(  2-H ,  4-C ) :   0.1013
B(  3-H ,  4-C ) :   0.1938 B(  4-C ,  5-O ) :   1.4968 B(  4-C ,  6-O ) :   1.4888
B(  5-O , 17-H ) :   0.1418 B(  7-C , 14-C ) :   1.2514 B(  7-C , 25-H ) :   0.7814
B(  7-C , 26-H ) :   0.6962 B(  7-C , 27-H ) :   0.6589 B(  8-C ,  9-C ) :   1.2010
B(  8-C , 11-H ) :   0.1548 B(  8-C , 18-C ) :   1.1371 B(  8-C , 21-H ) :   1.0106
B(  8-C , 22-H ) :   0.8747 B(  8-C , 23-H ) :   0.2722 B(  8-C , 24-H ) :   0.1289
B(  9-C , 10-H ) :   0.9208 B(  9-C , 11-H ) :   0.9189 B(  9-C , 12-H ) :   0.2374
B(  9-C , 13-H ) :   0.1546 B(  9-C , 21-H ) :   0.1222 B( 14-C , 15-C ) :   1.1954
B( 14-C , 16-H ) :   0.7026 B( 14-C , 17-H ) :   0.5086 B( 14-C , 20-H ) :   0.1124
B( 14-C , 25-H ) :   0.2444 B( 14-C , 26-H ) :   0.2830 B( 14-C , 27-H ) :   0.3501
B( 15-C , 16-H ) :   0.1804 B( 15-C , 17-H ) :   0.2443 B( 15-C , 18-C ) :   1.1066
B( 15-C , 19-H ) :   1.0416 B( 15-C , 20-H ) :   0.8407 B( 15-C , 23-H ) :   0.1332
B( 15-C , 24-H ) :   0.1945 B( 16-H , 17-H ) :   0.3273 B( 18-C , 23-H ) :   0.6866
B( 18-C , 24-H ) :   0.7602

Dispersion correction           -0.011866246
FINAL SINGLE POINT ENERGY      -503.264034980365

DIPOLE MOMENT
-------------
                                X             Y             Z
Electronic contribution:      7.82295       7.02962       2.17870
Nuclear contribution   :    -10.58896      -8.33040      -3.74608
                        -----------------------------------------
Total Dipole Moment    :     -2.76601      -1.30079      -1.56738
                        -----------------------------------------
Magnitude (a.u.)       :      3.43505
Magnitude (Debye)      :      8.73119

Rotational constants in cm-1:     0.042828     0.024669     0.017892
Rotational constants in MHz :  1283.963339   739.557818   536.380459

                             ****ORCA TERMINATED NORMALLY****
TOTAL RUN TIME: 0 days 0 hours 1 minutes 37 seconds 565 msec
