                         Program Version 5.0.0 -  RELEASE  -
|  1> !wB97X-D3 RIJCOSX def2-SVPD def2/J TightSCF
|  2> *xyz 1 1
|  3> C          3.91385       -1.65829        3.01513
|  4> N          5.03927       -0.90115        2.49282
|  5> C          4.08422        1.74208       -2.11472
|  6> C          4.26524        2.50052       -0.79589
|  7> C          6.21038       -1.41726        2.17824
|  8> N          6.53591       -2.67712        2.55608
|  9> N          7.07675       -0.70082        1.47891
| 10> H          7.95464       -1.12155        1.20755
| 11> H          6.75616        0.10664        0.96028
| 12> H          4.84217        0.01761        2.11519
| 13> H          5.99388       -3.12692        3.28278
| 14> H          7.49844       -2.97548        2.46878
| 15> C          3.13916       -2.37657        1.91061
| 16> H          3.26723       -0.93940        3.52069
| 17> H          4.24720       -2.35509        3.79006
| 18> C          1.99727        0.43092       -1.39922
| 19> C          3.41275        0.37689       -1.96550
| 20> H          4.04741       -0.24659       -1.32671
| 21> H          3.39077       -0.11872       -2.94284
| 22> H          5.06847        1.59850       -2.56573
| 23> H          3.50336        2.36394       -2.80457
| 24> C          2.39995       -1.38958        1.00949
| 25> H          2.44075       -3.08712        2.36298
| 26> H          3.84448       -2.97046        1.31868
| 27> C          2.07018       -1.93671       -0.37240
| 28> H          1.48161       -1.06154        1.50991
| 29> H          3.00863       -0.49000        0.89745
| 30> C          1.32224       -0.93577       -1.25641
| 31> H          1.47275       -2.85090       -0.28400
| 32> H          3.00354       -2.23404       -0.86254
| 33> H          1.37644        1.05892       -2.04742
| 34> H          2.01534        0.92978       -0.42653
| 35> H          0.31665       -0.78721       -0.84828
| 36> H          1.18561       -1.37925       -2.24861
| 37> H          4.73963        3.44035       -0.98715
| 38> H          4.87389        1.92223       -0.13253
| 39> H          3.30865        2.66865       -0.34693
| 40> *
| 41> %MaxCore 64000
| 42> %pal nprocs 8
| 43> end
| 44> %scf
| 45>   MaxIter 150
| 46> end
| 47>
| 48>                          ****END OF INPUT****

CARTESIAN COORDINATES (ANGSTROEM)
---------------------------------
  C      3.913850   -1.658290    3.015130
  N      5.039270   -0.901150    2.492820
  C      4.084220    1.742080   -2.114720
  C      4.265240    2.500520   -0.795890
  C      6.210380   -1.417260    2.178240
  N      6.535910   -2.677120    2.556080
  N      7.076750   -0.700820    1.478910
  H      7.954640   -1.121550    1.207550
  H      6.756160    0.106640    0.960280
  H      4.842170    0.017610    2.115190
  H      5.993880   -3.126920    3.282780
  H      7.498440   -2.975480    2.468780
  C      3.139160   -2.376570    1.910610
  H      3.267230   -0.939400    3.520690
  H      4.247200   -2.355090    3.790060
  C      1.997270    0.430920   -1.399220
  C      3.412750    0.376890   -1.965500
  H      4.047410   -0.246590   -1.326710
  H      3.390770   -0.118720   -2.942840
  H      5.068470    1.598500   -2.565730
  H      3.503360    2.363940   -2.804570
  C      2.399950   -1.389580    1.009490
  H      2.440750   -3.087120    2.362980
  H      3.844480   -2.970460    1.318680
  C      2.070180   -1.936710   -0.372400
  H      1.481610   -1.061540    1.509910
  H      3.008630   -0.490000    0.897450
  C      1.322240   -0.935770   -1.256410
  H      1.472750   -2.850900   -0.284000
  H      3.003540   -2.234040   -0.862540
  H      1.376440    1.058920   -2.047420
  H      2.015340    0.929780   -0.426530
  H      0.316650   -0.787210   -0.848280
  H      1.185610   -1.379250   -2.248610
  H      4.739630    3.440350   -0.987150
  H      4.873890    1.922230   -0.132530
  H      3.308650    2.668650   -0.346930

 Total Charge           Charge          ....    1
 Multiplicity           Mult            ....    1
 Number of Electrons    NEL             ....  104
 Basis Dimension        Dim             ....  452

ORBITAL ENERGIES
----------------

  NO   OCC          E(Eh)            E(eV)
   0   2.0000     -14.655828      -398.8053
   1   2.0000     -14.655364      -398.7927
   2   2.0000     -14.653406      -398.7394
   3   2.0000     -10.623023      -289.0671
   4   2.0000     -10.487727      -285.3856
   5   2.0000     -10.423104      -283.6271
   6   2.0000     -10.404392      -283.1179
   7   2.0000     -10.386299      -282.6256
   8   2.0000     -10.376811      -282.3674
   9   2.0000     -10.375169      -282.3227
  10   2.0000     -10.374717      -282.3104
  11   2.0000     -10.373249      -282.2705
  12   2.0000     -10.371418      -282.2206
  13   2.0000      -1.321917       -35.9712
  14   2.0000      -1.209876       -32.9224
  15   2.0000      -1.193096       -32.4658
  16   2.0000      -1.052210       -28.6321
  17   2.0000      -1.019735       -27.7484
  18   2.0000      -0.992275       -27.0012
  19   2.0000      -0.955330       -25.9959
  20   2.0000      -0.928885       -25.2762
  21   2.0000      -0.902822       -24.5670
  22   2.0000      -0.886913       -24.1341
  23   2.0000      -0.867917       -23.6172
  24   2.0000      -0.844269       -22.9737
  25   2.0000      -0.822274       -22.3752
  26   2.0000      -0.789024       -21.4704
  27   2.0000      -0.785927       -21.3862
  28   2.0000      -0.779427       -21.2093
  29   2.0000      -0.753869       -20.5138
  30   2.0000      -0.751322       -20.4445
  31   2.0000      -0.724137       -19.7048
  32   2.0000      -0.690435       -18.7877
  33   2.0000      -0.684804       -18.6345
  34   2.0000      -0.666118       -18.1260
  35   2.0000      -0.655473       -17.8363
  36   2.0000      -0.638723       -17.3805
  37   2.0000      -0.637144       -17.3376
  38   2.0000      -0.620682       -16.8896
  39   2.0000      -0.595804       -16.2126
  40   2.0000      -0.585576       -15.9343
  41   2.0000      -0.578199       -15.7336
  42   2.0000      -0.569591       -15.4993
  43   2.0000      -0.560146       -15.2424
  44   2.0000      -0.557887       -15.1809
  45   2.0000      -0.539152       -14.6711
  46   2.0000      -0.533599       -14.5200
  47   2.0000      -0.530257       -14.4290
  48   2.0000      -0.518366       -14.1055
  49   2.0000      -0.501975       -13.6594
  50   2.0000      -0.499567       -13.5939
  51   2.0000      -0.493101       -13.4180
  52   0.0000      -0.084669        -2.3040
  53   0.0000      -0.071993        -1.9590
  54   0.0000      -0.043813        -1.1922
  55   0.0000      -0.029196        -0.7945
  56   0.0000      -0.018086        -0.4921

MULLIKEN ATOMIC CHARGES
-----------------------
   0 C :    0.984312
   1 N :   -0.293407
   2 C :   -0.095700
   3 C :    1.207969
   4 C :    1.365233
   5 N :   -0.016834
   6 N :    0.043761
   7 H :    0.015644
   8 H :   -0.190599
   9 H :   -0.401794
  10 H :    0.005389
  11 H :   -0.136026
  12 C :    0.312936
  13 H :   -0.263421
  14 H :   -0.139586
  15 C :   -0.192004
  16 C :   -0.002506
  17 H :   -0.137275
  18 H :   -0.081229
  19 H :   -0.094844
  20 H :   -0.031227
  21 C :   -0.048634
  22 H :   -0.032048
  23 H :   -0.017274
  24 C :   -0.050292
  25 H :    0.007050
  26 H :   -0.286676
  27 C :    0.601020
  28 H :   -0.288425
  29 H :    0.113978
  30 H :   -0.362821
  31 H :    0.126172
  32 H :    0.018171
  33 H :    0.016071
  34 H :   -0.014780
  35 H :   -0.615047
  36 H :   -0.025258
Sum of atomic charges:    1.0000000

LOEWDIN ATOMIC CHARGES
----------------------
   0 C :    0.077877
   1 N :    0.046949
   2 C :   -0.069400
   3 C :    0.123938
   4 C :   -0.021127
   5 N :    0.274660
   6 N :    0.259365
   7 H :    0.042485
   8 H :    0.034033
   9 H :    0.051342
  10 H :    0.015363
  11 H :    0.036351
  12 C :   -0.009171
  13 H :    0.047055
  14 H :    0.023778
  15 C :   -0.037543
  16 C :   -0.046948
  17 H :    0.001041
  18 H :    0.033394
  19 H :    0.020196
  20 H :    0.031172
  21 C :   -0.040252
  22 H :    0.041636
  23 H :    0.022724
  24 C :   -0.035522
  25 H :    0.044575
  26 H :   -0.011099
  27 C :   -0.023709
  28 H :    0.033469
  29 H :    0.018233
  30 H :    0.034939
  31 H :   -0.000563
  32 H :    0.029819
  33 H :    0.030922
  34 H :   -0.009353
  35 H :   -0.046020
  36 H :   -0.024608

  Mayer bond orders larger than 0.100000
B(  0-C ,  1-N ) :   0.8763 B(  0-C ,  9-H ) :  -0.2141 B(  0-C , 12-C ) :   1.0732
B(  0-C , 13-H ) :   0.7282 B(  0-C , 14-H ) :   0.8290 B(  0-C , 21-C ) :   0.1136
B(  1-N ,  4-C ) :   1.1242 B(  1-N ,  5-N ) :   0.1969 B(  1-N ,  6-N ) :   0.1490
B(  1-N ,  9-H ) :   1.3175 B(  1-N , 13-H ) :   0.2567 B(  2-C ,  3-C ) :   1.1296
B(  2-C , 16-C ) :   1.1510 B(  2-C , 19-H ) :   0.7882 B(  2-C , 20-H ) :   0.8911
B(  2-C , 34-H ) :   0.2049 B(  2-C , 35-H ) :   0.3518 B(  2-C , 36-H ) :   0.2268
B(  3-C , 34-H ) :   0.7046 B(  3-C , 35-H ) :   0.4908 B(  3-C , 36-H ) :   0.6130
B(  4-C ,  5-N ) :   0.8894 B(  4-C ,  6-N ) :   0.8470 B(  4-C ,  8-H ) :  -0.2058
B(  4-C ,  9-H ) :  -0.3520 B(  4-C , 11-H ) :  -0.1155 B(  5-N ,  6-N ) :   0.1328
B(  5-N , 10-H ) :   1.0401 B(  5-N , 11-H ) :   1.2420 B(  6-N ,  7-H ) :   1.1789
B(  6-N ,  8-H ) :   1.2058 B(  7-H ,  8-H ) :  -0.2237 B( 10-H , 11-H ) :  -0.1905
B( 12-C , 14-H ) :   0.1366 B( 12-C , 21-C ) :   1.1320 B( 12-C , 22-H ) :   0.8990
B( 12-C , 23-H ) :   0.8986 B( 12-C , 25-H ) :   0.1006 B( 13-H , 14-H ) :  -0.1789
B( 15-C , 16-C ) :   1.2211 B( 15-C , 17-H ) :   0.1222 B( 15-C , 18-H ) :   0.1828
B( 15-C , 27-C ) :   1.1692 B( 15-C , 30-H ) :   1.0695 B( 15-C , 31-H ) :   0.8402
B( 15-C , 32-H ) :   0.2630 B( 15-C , 33-H ) :   0.1372 B( 16-C , 17-H ) :   0.9124
B( 16-C , 18-H ) :   0.9181 B( 16-C , 19-H ) :   0.2695 B( 16-C , 20-H ) :   0.1224
B( 16-C , 30-H ) :   0.1244 B( 16-C , 31-H ) :   0.1120 B( 21-C , 22-H ) :   0.1616
B( 21-C , 24-C ) :   1.2449 B( 21-C , 25-H ) :   0.8188 B( 21-C , 26-H ) :   0.9911
B( 21-C , 28-H ) :   0.1326 B( 21-C , 29-H ) :   0.1239 B( 24-C , 25-H ) :   0.1047
B( 24-C , 27-C ) :   1.1330 B( 24-C , 28-H ) :   1.0353 B( 24-C , 29-H ) :   0.8532
B( 24-C , 32-H ) :   0.1052 B( 24-C , 33-H ) :   0.2146 B( 25-H , 26-H ) :   0.1273
B( 26-H , 31-H ) :   0.1214 B( 27-C , 32-H ) :   0.6832 B( 27-C , 33-H ) :   0.7240
B( 35-H , 36-H ) :   0.2755

Dispersion correction           -0.015121562
FINAL SINGLE POINT ENERGY      -559.093138903452

DIPOLE MOMENT
-------------
                                X             Y             Z
Electronic contribution:      9.06673      -5.77724       9.17416
Nuclear contribution   :     -5.98847       4.49964      -6.74598
                        -----------------------------------------
Total Dipole Moment    :      3.07826      -1.27759       2.42818
                        -----------------------------------------
Magnitude (a.u.)       :      4.12359
Magnitude (Debye)      :     10.48133

Rotational constants in cm-1:     0.028337     0.014100     0.010615
Rotational constants in MHz :   849.536347   422.710017   318.239994

                             ****ORCA TERMINATED NORMALLY****
TOTAL RUN TIME: 0 days 0 hours 2 minutes 46 seconds 770 msec
