                         Program Version 5.0.0 -  RELEASE  -
|  1> !wB97X-D3 RIJCOSX def2-SVPD def2/J TightSCF
|  2> *xyz -1 1
|  3> C          3.91385       -1.65829        3.01513
|  4> C          4.08422        1.74208       -2.11472
|  5> C          4.26524        2.50052       -0.79589
|  6> H          4.86853        3.39267       -0.98113
|  7> H          3.30764        2.82457       -0.38781
|  8> C          4.98224        1.65026        0.24742
|  9> O          4.36806        1.38927        1.31371
| 10> O          6.12892        1.23351       -0.04562
| 11> C          3.13916       -2.37657        1.91061
| 12> C          1.99727        0.43092       -1.39922
| 13> C          3.41275        0.37689       -1.96550
| 14> H          4.04741       -0.24659       -1.32671
| 15> H          3.39077       -0.11872       -2.94284
| 16> H          5.06847        1.59850       -2.56573
| 17> H          3.50336        2.36394       -2.80457
| 18> C          2.39995       -1.38958        1.00949
| 19> H          2.44075       -3.08712        2.36298
| 20> H          3.84448       -2.97046        1.31868
| 21> C          2.07018       -1.93671       -0.37240
| 22> H          1.48161       -1.06154        1.50991
| 23> H          3.00863       -0.49000        0.89745
| 24> C          1.32224       -0.93577       -1.25641
| 25> H          1.47275       -2.85090       -0.28400
| 26> H          3.00354       -2.23404       -0.86254
| 27> H          1.37644        1.05892       -2.04742
| 28> H          2.01534        0.92978       -0.42653
| 29> H          0.31665       -0.78721       -0.84828
| 30> H          1.18561       -1.37925       -2.24861
| 31> H          4.59802       -0.96242        2.57629
| 32> H          4.45705       -2.37561        3.59417
| 33> H          3.22883       -1.13399        3.64819
| 34> *
| 35> %MaxCore 64000
| 36> %pal nprocs 8
| 37> end
| 38> %scf
| 39>   MaxIter 150
| 40> end
| 41>
| 42>                          ****END OF INPUT****

CARTESIAN COORDINATES (ANGSTROEM)
---------------------------------
  C      3.913850   -1.658290    3.015130
  C      4.084220    1.742080   -2.114720
  C      4.265240    2.500520   -0.795890
  H      4.868530    3.392670   -0.981130
  H      3.307640    2.824570   -0.387810
  C      4.982240    1.650260    0.247420
  O      4.368060    1.389270    1.313710
  O      6.128920    1.233510   -0.045620
  C      3.139160   -2.376570    1.910610
  C      1.997270    0.430920   -1.399220
  C      3.412750    0.376890   -1.965500
  H      4.047410   -0.246590   -1.326710
  H      3.390770   -0.118720   -2.942840
  H      5.068470    1.598500   -2.565730
  H      3.503360    2.363940   -2.804570
  C      2.399950   -1.389580    1.009490
  H      2.440750   -3.087120    2.362980
  H      3.844480   -2.970460    1.318680
  C      2.070180   -1.936710   -0.372400
  H      1.481610   -1.061540    1.509910
  H      3.008630   -0.490000    0.897450
  C      1.322240   -0.935770   -1.256410
  H      1.472750   -2.850900   -0.284000
  H      3.003540   -2.234040   -0.862540
  H      1.376440    1.058920   -2.047420
  H      2.015340    0.929780   -0.426530
  H      0.316650   -0.787210   -0.848280
  H      1.185610   -1.379250   -2.248610
  H      4.598020   -0.962420    2.576290
  H      4.457050   -2.375610    3.594170
  H      3.228830   -1.133990    3.648190

 Total Charge           Charge          ....   -1
 Multiplicity           Mult            ....    1
 Number of Electrons    NEL             ....   96
 Basis Dimension        Dim             ....  398

ORBITAL ENERGIES
----------------

  NO   OCC          E(Eh)            E(eV)
   0   2.0000     -18.999449      -517.0013
   1   2.0000     -18.996671      -516.9257
   2   2.0000     -10.191878      -277.3351
   3   2.0000     -10.172358      -276.8039
   4   2.0000     -10.167273      -276.6656
   5   2.0000     -10.163418      -276.5607
   6   2.0000     -10.159564      -276.4558
   7   2.0000     -10.152863      -276.2734
   8   2.0000     -10.149710      -276.1876
   9   2.0000     -10.149504      -276.1820
  10   2.0000     -10.140885      -275.9475
  11   2.0000     -10.126280      -275.5501
  12   2.0000      -0.944992       -25.7145
  13   2.0000      -0.848380       -23.0856
  14   2.0000      -0.809549       -22.0290
  15   2.0000      -0.777869       -21.1669
  16   2.0000      -0.748125       -20.3575
  17   2.0000      -0.700323       -19.0568
  18   2.0000      -0.657540       -17.8926
  19   2.0000      -0.618518       -16.8307
  20   2.0000      -0.575164       -15.6510
  21   2.0000      -0.560120       -15.2416
  22   2.0000      -0.531925       -14.4744
  23   2.0000      -0.461249       -12.5512
  24   2.0000      -0.454898       -12.3784
  25   2.0000      -0.431461       -11.7407
  26   2.0000      -0.425113       -11.5679
  27   2.0000      -0.420691       -11.4476
  28   2.0000      -0.399194       -10.8626
  29   2.0000      -0.385220       -10.4824
  30   2.0000      -0.377968       -10.2850
  31   2.0000      -0.364252        -9.9118
  32   2.0000      -0.348490        -9.4829
  33   2.0000      -0.344930        -9.3860
  34   2.0000      -0.338009        -9.1977
  35   2.0000      -0.323551        -8.8043
  36   2.0000      -0.318946        -8.6790
  37   2.0000      -0.316285        -8.6066
  38   2.0000      -0.301179        -8.1955
  39   2.0000      -0.297526        -8.0961
  40   2.0000      -0.291224        -7.9246
  41   2.0000      -0.281215        -7.6523
  42   2.0000      -0.275508        -7.4970
  43   2.0000      -0.269588        -7.3359
  44   2.0000      -0.268541        -7.3074
  45   2.0000      -0.159725        -4.3463
  46   2.0000      -0.153119        -4.1666
  47   2.0000      -0.141483        -3.8500
  48   0.0000       0.192227         5.2308
  49   0.0000       0.204197         5.5565
  50   0.0000       0.212986         5.7956
  51   0.0000       0.215267         5.8577
  52   0.0000       0.230623         6.2756

MULLIKEN ATOMIC CHARGES
-----------------------
   0 C :    0.923804
   1 C :    0.318372
   2 C :    0.216531
   3 H :   -0.151169
   4 H :    0.125702
   5 C :    0.370047
   6 O :   -0.704329
   7 O :   -0.706163
   8 C :   -0.155575
   9 C :   -0.201266
  10 C :   -0.170526
  11 H :    0.024976
  12 H :   -0.157226
  13 H :   -0.013524
  14 H :   -0.117478
  15 C :    0.526119
  16 H :   -0.096289
  17 H :   -0.088941
  18 C :   -0.107967
  19 H :   -0.040692
  20 H :   -0.764880
  21 C :    0.628455
  22 H :   -0.381591
  23 H :    0.140417
  24 H :   -0.351456
  25 H :    0.197899
  26 H :    0.004327
  27 H :   -0.015615
  28 H :   -0.203034
  29 H :   -0.060556
  30 H :    0.011630
Sum of atomic charges:   -1.0000000

LOEWDIN ATOMIC CHARGES
----------------------
   0 C :    0.117108
   1 C :   -0.039617
   2 C :    0.006432
   3 H :    0.013890
   4 H :    0.001385
   5 C :   -0.290579
   6 O :   -0.307129
   7 O :   -0.312541
   8 C :   -0.084041
   9 C :   -0.037603
  10 C :   -0.033410
  11 H :    0.017979
  12 H :    0.016588
  13 H :    0.016281
  14 H :    0.005972
  15 C :   -0.036669
  16 H :    0.008055
  17 H :    0.015724
  18 C :   -0.052306
  19 H :    0.031071
  20 H :   -0.018364
  21 C :   -0.046947
  22 H :    0.011977
  23 H :    0.015495
  24 H :    0.015664
  25 H :    0.011089
  26 H :    0.013431
  27 H :    0.010787
  28 H :   -0.021545
  29 H :   -0.031678
  30 H :   -0.016501

  Mayer bond orders larger than 0.100000
B(  0-C ,  8-C ) :   1.1756 B(  0-C , 28-H ) :   0.8263 B(  0-C , 29-H ) :   0.6536
B(  0-C , 30-H ) :   0.7274 B(  1-C ,  2-C ) :   1.1544 B(  1-C ,  3-H ) :   0.1654
B(  1-C ,  4-H ) :   0.1250 B(  1-C , 10-C ) :   1.2150 B(  1-C , 13-H ) :   0.7226
B(  1-C , 14-H ) :   0.8531 B(  2-C ,  3-H ) :   0.8215 B(  2-C ,  4-H ) :   0.8012
B(  2-C ,  5-C ) :   1.0381 B(  2-C , 13-H ) :   0.1068 B(  2-C , 14-H ) :   0.1044
B(  3-H ,  5-C ) :   0.1532 B(  4-H ,  5-C ) :   0.1950 B(  5-C ,  6-O ) :   1.5211
B(  5-C ,  7-O ) :   1.4611 B(  6-O , 20-H ) :   0.1291 B(  8-C , 15-C ) :   1.1315
B(  8-C , 16-H ) :   0.8377 B(  8-C , 17-H ) :   0.9338 B(  8-C , 19-H ) :   0.1071
B(  8-C , 28-H ) :   0.2055 B(  8-C , 29-H ) :   0.2712 B(  8-C , 30-H ) :   0.1961
B(  9-C , 10-C ) :   1.1988 B(  9-C , 11-H ) :   0.1002 B(  9-C , 12-H ) :   0.1603
B(  9-C , 21-C ) :   1.1361 B(  9-C , 24-H ) :   1.0489 B(  9-C , 25-H ) :   0.8378
B(  9-C , 26-H ) :   0.2677 B(  9-C , 27-H ) :   0.1383 B( 10-C , 11-H ) :   0.9294
B( 10-C , 12-H ) :   0.9108 B( 10-C , 13-H ) :   0.2390 B( 10-C , 14-H ) :   0.1586
B( 10-C , 24-H ) :   0.1120 B( 15-C , 16-H ) :   0.2226 B( 15-C , 17-H ) :   0.1443
B( 15-C , 18-C ) :   1.2051 B( 15-C , 19-H ) :   0.5920 B( 15-C , 20-H ) :   0.4119
B( 15-C , 23-H ) :   0.1178 B( 18-C , 19-H ) :   0.1179 B( 18-C , 20-H ) :   0.1968
B( 18-C , 21-C ) :   1.0910 B( 18-C , 22-H ) :   1.0711 B( 18-C , 23-H ) :   0.8302
B( 18-C , 26-H ) :   0.1178 B( 18-C , 27-H ) :   0.2093 B( 19-H , 20-H ) :   0.3762
B( 21-C , 26-H ) :   0.6847 B( 21-C , 27-H ) :   0.7239 B( 28-H , 30-H ) :   0.1011

Dispersion correction           -0.013705924
FINAL SINGLE POINT ENERGY      -542.544153500212

DIPOLE MOMENT
-------------
                                X             Y             Z
Electronic contribution:      7.09974       7.15451       0.29341
Nuclear contribution   :     -9.74185      -8.60984      -1.45569
                        -----------------------------------------
Total Dipole Moment    :     -2.64211      -1.45532      -1.16228
                        -----------------------------------------
Magnitude (a.u.)       :      3.23258
Magnitude (Debye)      :      8.21658

Rotational constants in cm-1:     0.032584     0.022194     0.014806
Rotational constants in MHz :   976.858159   665.350414   443.863530

                             ****ORCA TERMINATED NORMALLY****
TOTAL RUN TIME: 0 days 0 hours 2 minutes 2 seconds 388 msec
