                         Program Version 5.0.0 -  RELEASE  -
|  1> !wB97X-D3 RIJCOSX def2-SVPD def2/J TightSCF
|  2> *xyz -1 1
|  3> C          4.08422        1.74208       -2.11472
|  4> C          4.26524        2.50052       -0.79589
|  5> H          4.86853        3.39267       -0.98113
|  6> H          3.30764        2.82457       -0.38781
|  7> C          4.98224        1.65026        0.24742
|  8> O          4.36806        1.38927        1.31371
|  9> O          6.12892        1.23351       -0.04562
| 10> H          3.57911        2.36849       -2.81997
| 11> H          3.50424        0.85965       -1.94198
| 12> H          5.04288        1.46841       -2.50327
| 13> *
| 14> %MaxCore 64000
| 15> %pal nprocs 8
| 16> end
| 17> %scf
| 18>   MaxIter 150
| 19> end
| 20>
| 21>
| 22>                          ****END OF INPUT****

CARTESIAN COORDINATES (ANGSTROEM)
---------------------------------
  C      4.084220    1.742080   -2.114720
  C      4.265240    2.500520   -0.795890
  H      4.868530    3.392670   -0.981130
  H      3.307640    2.824570   -0.387810
  C      4.982240    1.650260    0.247420
  O      4.368060    1.389270    1.313710
  O      6.128920    1.233510   -0.045620
  H      3.579110    2.368490   -2.819970
  H      3.504240    0.859650   -1.941980
  H      5.042880    1.468410   -2.503270

 Total Charge           Charge          ....   -1
 Multiplicity           Mult            ....    1
 Number of Electrons    NEL             ....   40
 Basis Dimension        Dim             ....  146

ORBITAL ENERGIES
----------------

  NO   OCC          E(Eh)            E(eV)
   0   2.0000     -18.981169      -516.5039
   1   2.0000     -18.981135      -516.5029
   2   2.0000     -10.175764      -276.8966
   3   2.0000     -10.128934      -275.6223
   4   2.0000     -10.116175      -275.2751
   5   2.0000      -0.927782       -25.2462
   6   2.0000      -0.831183       -22.6176
   7   2.0000      -0.717410       -19.5217
   8   2.0000      -0.581969       -15.8362
   9   2.0000      -0.424706       -11.5568
  10   2.0000      -0.395215       -10.7544
  11   2.0000      -0.360157        -9.8004
  12   2.0000      -0.332197        -9.0395
  13   2.0000      -0.313789        -8.5386
  14   2.0000      -0.308171        -8.3858
  15   2.0000      -0.275814        -7.5053
  16   2.0000      -0.260866        -7.0985
  17   2.0000      -0.143040        -3.8923
  18   2.0000      -0.137524        -3.7422
  19   2.0000      -0.124564        -3.3896
  20   0.0000       0.223355         6.0778
  21   0.0000       0.256209         6.9718
  22   0.0000       0.266911         7.2630
  23   0.0000       0.291717         7.9380
  24   0.0000       0.314444         8.5564

MULLIKEN ATOMIC CHARGES
-----------------------
   0 C :    0.490743
   1 C :   -0.298295
   2 H :    0.004682
   3 H :   -0.051618
   4 C :    0.441018
   5 O :   -0.698829
   6 O :   -0.722757
   7 H :   -0.069518
   8 H :   -0.066415
   9 H :   -0.029011
Sum of atomic charges:   -1.0000000

LOEWDIN ATOMIC CHARGES
----------------------
   0 C :    0.098968
   1 C :   -0.043695
   2 H :    0.010113
   3 H :    0.000975
   4 C :   -0.308521
   5 O :   -0.338174
   6 O :   -0.331128
   7 H :   -0.041647
   8 H :   -0.020635
   9 H :   -0.026254

  Mayer bond orders larger than 0.100000
B(  0-C ,  1-C ) :   1.2548 B(  0-C ,  7-H ) :   0.8585 B(  0-C ,  8-H ) :   0.8754
B(  0-C ,  9-H ) :   0.8489 B(  1-C ,  2-H ) :   0.8980 B(  1-C ,  3-H ) :   0.9782
B(  1-C ,  4-C ) :   1.0292 B(  1-C ,  7-H ) :   0.1417 B(  1-C ,  8-H ) :   0.1540
B(  1-C ,  9-H ) :   0.1770 B(  3-H ,  4-C ) :   0.1750 B(  4-C ,  5-O ) :   1.5005
B(  4-C ,  6-O ) :   1.5271

Dispersion correction           -0.001959198
FINAL SINGLE POINT ENERGY      -267.583971533549

DIPOLE MOMENT
-------------
                                X             Y             Z
Electronic contribution:      2.40141      -1.43388       5.04888
Nuclear contribution   :     -3.31311       2.28398      -6.76358
                        -----------------------------------------
Total Dipole Moment    :     -0.91170       0.85010      -1.71470
                        -----------------------------------------
Magnitude (a.u.)       :      2.11992
Magnitude (Debye)      :      5.38841

Rotational constants in cm-1:     0.309287     0.135287     0.107346
Rotational constants in MHz :  9272.201029  4055.789113  3218.155789

                             ****ORCA TERMINATED NORMALLY****
TOTAL RUN TIME: 0 days 0 hours 0 minutes 11 seconds 922 msec
