                         Program Version 5.0.0 -  RELEASE  -
|  1> !wB97X-D3 RIJCOSX def2-SVPD def2/J TightSCF
|  2> *xyz 1 1
|  3> C          3.91385       -1.65829        3.01513
|  4> N          5.03927       -0.90115        2.49282
|  5> C          4.08422        1.74208       -2.11472
|  6> C          6.21038       -1.41726        2.17824
|  7> N          6.53591       -2.67712        2.55608
|  8> N          7.07675       -0.70082        1.47891
|  9> H          7.95464       -1.12155        1.20755
| 10> H          6.75616        0.10664        0.96028
| 11> H          4.84217        0.01761        2.11519
| 12> H          5.99388       -3.12692        3.28278
| 13> H          7.49844       -2.97548        2.46878
| 14> C          3.13916       -2.37657        1.91061
| 15> H          3.26723       -0.93940        3.52069
| 16> H          4.24720       -2.35509        3.79006
| 17> C          1.99727        0.43092       -1.39922
| 18> C          3.41275        0.37689       -1.96550
| 19> H          4.04741       -0.24659       -1.32671
| 20> H          3.39077       -0.11872       -2.94284
| 21> C          2.39995       -1.38958        1.00949
| 22> H          2.44075       -3.08712        2.36298
| 23> H          3.84448       -2.97046        1.31868
| 24> C          2.07018       -1.93671       -0.37240
| 25> H          1.48161       -1.06154        1.50991
| 26> H          3.00863       -0.49000        0.89745
| 27> C          1.32224       -0.93577       -1.25641
| 28> H          1.47275       -2.85090       -0.28400
| 29> H          3.00354       -2.23404       -0.86254
| 30> H          1.37644        1.05892       -2.04742
| 31> H          2.01534        0.92978       -0.42653
| 32> H          0.31665       -0.78721       -0.84828
| 33> H          1.18561       -1.37925       -2.24861
| 34> H          3.48097        2.37022       -2.73636
| 35> H          5.04852        1.61832       -2.56161
| 36> H          4.19316        2.19326       -1.15063
| 37> *
| 38> %MaxCore 64000
| 39> %pal nprocs 8
| 40> end
| 41> %scf
| 42>   MaxIter 150
| 43> end
| 44>
| 45>                          ****END OF INPUT****

CARTESIAN COORDINATES (ANGSTROEM)
---------------------------------
  C      3.913850   -1.658290    3.015130
  N      5.039270   -0.901150    2.492820
  C      4.084220    1.742080   -2.114720
  C      6.210380   -1.417260    2.178240
  N      6.535910   -2.677120    2.556080
  N      7.076750   -0.700820    1.478910
  H      7.954640   -1.121550    1.207550
  H      6.756160    0.106640    0.960280
  H      4.842170    0.017610    2.115190
  H      5.993880   -3.126920    3.282780
  H      7.498440   -2.975480    2.468780
  C      3.139160   -2.376570    1.910610
  H      3.267230   -0.939400    3.520690
  H      4.247200   -2.355090    3.790060
  C      1.997270    0.430920   -1.399220
  C      3.412750    0.376890   -1.965500
  H      4.047410   -0.246590   -1.326710
  H      3.390770   -0.118720   -2.942840
  C      2.399950   -1.389580    1.009490
  H      2.440750   -3.087120    2.362980
  H      3.844480   -2.970460    1.318680
  C      2.070180   -1.936710   -0.372400
  H      1.481610   -1.061540    1.509910
  H      3.008630   -0.490000    0.897450
  C      1.322240   -0.935770   -1.256410
  H      1.472750   -2.850900   -0.284000
  H      3.003540   -2.234040   -0.862540
  H      1.376440    1.058920   -2.047420
  H      2.015340    0.929780   -0.426530
  H      0.316650   -0.787210   -0.848280
  H      1.185610   -1.379250   -2.248610
  H      3.480970    2.370220   -2.736360
  H      5.048520    1.618320   -2.561610
  H      4.193160    2.193260   -1.150630

 Total Charge           Charge          ....    1
 Multiplicity           Mult            ....    1
 Number of Electrons    NEL             ....   96
 Basis Dimension        Dim             ....  416

ORBITAL ENERGIES
----------------

  NO   OCC          E(Eh)            E(eV)
   0   2.0000     -14.657508      -398.8511
   1   2.0000     -14.657170      -398.8419
   2   2.0000     -14.654695      -398.7745
   3   2.0000     -10.624583      -289.1096
   4   2.0000     -10.488952      -285.4189
   5   2.0000     -10.424081      -283.6537
   6   2.0000     -10.405318      -283.1431
   7   2.0000     -10.386693      -282.6363
   8   2.0000     -10.377801      -282.3943
   9   2.0000     -10.374702      -282.3100
  10   2.0000     -10.373307      -282.2720
  11   2.0000     -10.362507      -281.9782
  12   2.0000      -1.323498       -36.0142
  13   2.0000      -1.211489       -32.9663
  14   2.0000      -1.194535       -32.5049
  15   2.0000      -1.053174       -28.6583
  16   2.0000      -1.016648       -27.6644
  17   2.0000      -0.982213       -26.7274
  18   2.0000      -0.945327       -25.7236
  19   2.0000      -0.923298       -25.1242
  20   2.0000      -0.888592       -24.1798
  21   2.0000      -0.884233       -24.0612
  22   2.0000      -0.852408       -23.1952
  23   2.0000      -0.826197       -22.4820
  24   2.0000      -0.804137       -21.8817
  25   2.0000      -0.788726       -21.4623
  26   2.0000      -0.781180       -21.2570
  27   2.0000      -0.757280       -20.6066
  28   2.0000      -0.753753       -20.5107
  29   2.0000      -0.725624       -19.7452
  30   2.0000      -0.692389       -18.8409
  31   2.0000      -0.684989       -18.6395
  32   2.0000      -0.664222       -18.0744
  33   2.0000      -0.651613       -17.7313
  34   2.0000      -0.630414       -17.1545
  35   2.0000      -0.624132       -16.9835
  36   2.0000      -0.612079       -16.6555
  37   2.0000      -0.585677       -15.9371
  38   2.0000      -0.575265       -15.6538
  39   2.0000      -0.569319       -15.4920
  40   2.0000      -0.566649       -15.4193
  41   2.0000      -0.545294       -14.8382
  42   2.0000      -0.542007       -14.7488
  43   2.0000      -0.539665       -14.6850
  44   2.0000      -0.523281       -14.2392
  45   2.0000      -0.505183       -13.7467
  46   2.0000      -0.502021       -13.6607
  47   2.0000      -0.498492       -13.5647
  48   0.0000      -0.086311        -2.3486
  49   0.0000      -0.074106        -2.0165
  50   0.0000      -0.046598        -1.2680
  51   0.0000      -0.030012        -0.8167
  52   0.0000      -0.017598        -0.4789

MULLIKEN ATOMIC CHARGES
-----------------------
   0 C :    0.941360
   1 N :   -0.486341
   2 C :    0.947594
   3 C :    1.429929
   4 N :   -0.023611
   5 N :   -0.103326
   6 H :    0.005698
   7 H :   -0.054439
   8 H :   -0.241709
   9 H :    0.006327
  10 H :   -0.138386
  11 C :    0.283901
  12 H :   -0.274158
  13 H :   -0.100224
  14 C :   -0.138731
  15 C :   -0.468944
  16 H :   -0.173166
  17 H :   -0.035114
  18 C :   -0.089014
  19 H :   -0.034831
  20 H :   -0.021666
  21 C :   -0.021889
  22 H :    0.007562
  23 H :   -0.262860
  24 C :    0.459467
  25 H :   -0.227381
  26 H :    0.077084
  27 H :   -0.321426
  28 H :    0.119563
  29 H :    0.048937
  30 H :   -0.006488
  31 H :    0.033584
  32 H :   -0.062763
  33 H :   -0.074536
Sum of atomic charges:    1.0000000

LOEWDIN ATOMIC CHARGES
----------------------
   0 C :    0.077038
   1 N :    0.044710
   2 C :    0.118753
   3 C :   -0.022017
   4 N :    0.274833
   5 N :    0.256541
   6 H :    0.041743
   7 H :    0.041875
   8 H :    0.055903
   9 H :    0.015529
  10 H :    0.036526
  11 C :   -0.009477
  12 H :    0.046885
  13 H :    0.024078
  14 C :   -0.044205
  15 C :   -0.089769
  16 H :   -0.004030
  17 H :    0.032404
  18 C :   -0.041282
  19 H :    0.041784
  20 H :    0.022712
  21 C :   -0.036788
  22 H :    0.044474
  23 H :   -0.011522
  24 C :   -0.026603
  25 H :    0.033749
  26 H :    0.018009
  27 H :    0.032047
  28 H :    0.012109
  29 H :    0.029362
  30 H :    0.030727
  31 H :   -0.007730
  32 H :   -0.016152
  33 H :   -0.022217

  Mayer bond orders larger than 0.100000
B(  0-C ,  1-N ) :   0.8865 B(  0-C ,  8-H ) :  -0.1782 B(  0-C , 11-C ) :   1.0720
B(  0-C , 12-H ) :   0.7390 B(  0-C , 13-H ) :   0.8266 B(  0-C , 18-C ) :   0.1150
B(  1-N ,  3-C ) :   1.0457 B(  1-N ,  4-N ) :   0.1997 B(  1-N ,  5-N ) :   0.2629
B(  1-N ,  8-H ) :   1.3032 B(  1-N , 12-H ) :   0.2646 B(  2-C , 15-C ) :   1.2258
B(  2-C , 31-H ) :   0.7798 B(  2-C , 32-H ) :   0.6475 B(  2-C , 33-H ) :   0.7983
B(  3-C ,  4-N ) :   0.9040 B(  3-C ,  5-N ) :   0.8121 B(  3-C ,  7-H ) :  -0.1816
B(  3-C ,  8-H ) :  -0.2941 B(  3-C , 10-H ) :  -0.1231 B(  4-N ,  5-N ) :   0.1379
B(  4-N ,  9-H ) :   1.0363 B(  4-N , 10-H ) :   1.2512 B(  5-N ,  6-H ) :   1.1451
B(  5-N ,  7-H ) :   1.1847 B(  6-H ,  7-H ) :  -0.1650 B(  9-H , 10-H ) :  -0.1918
B( 11-C , 13-H ) :   0.1348 B( 11-C , 18-C ) :   1.1207 B( 11-C , 19-H ) :   0.9138
B( 11-C , 20-H ) :   0.8977 B( 11-C , 22-H ) :   0.1067 B( 12-H , 13-H ) :  -0.1709
B( 14-C , 15-C ) :   1.2331 B( 14-C , 16-H ) :   0.1470 B( 14-C , 17-H ) :   0.1746
B( 14-C , 24-C ) :   1.1611 B( 14-C , 27-H ) :   1.0362 B( 14-C , 28-H ) :   0.8605
B( 14-C , 29-H ) :   0.1917 B( 14-C , 30-H ) :   0.1391 B( 15-C , 16-H ) :   0.9458
B( 15-C , 17-H ) :   0.9230 B( 15-C , 27-H ) :   0.1145 B( 15-C , 31-H ) :   0.2065
B( 15-C , 32-H ) :   0.3313 B( 15-C , 33-H ) :   0.2150 B( 18-C , 19-H ) :   0.1540
B( 18-C , 21-C ) :   1.2374 B( 18-C , 22-H ) :   0.8757 B( 18-C , 23-H ) :   0.9567
B( 18-C , 25-H ) :   0.1455 B( 18-C , 26-H ) :   0.1349 B( 21-C , 24-C ) :   1.1508
B( 21-C , 25-H ) :   0.9819 B( 21-C , 26-H ) :   0.8840 B( 21-C , 30-H ) :   0.2211
B( 23-H , 28-H ) :   0.1174 B( 24-C , 29-H ) :   0.7618 B( 24-C , 30-H ) :   0.7184

Dispersion correction           -0.012878222
FINAL SINGLE POINT ENERGY      -519.813064207893

DIPOLE MOMENT
-------------
                                X             Y             Z
Electronic contribution:      9.40833      -4.11466       9.81205
Nuclear contribution   :     -6.23649       3.21675      -7.47061
                        -----------------------------------------
Total Dipole Moment    :      3.17184      -0.89790       2.34144
                        -----------------------------------------
Magnitude (a.u.)       :      4.04341
Magnitude (Debye)      :     10.27753

Rotational constants in cm-1:     0.036011     0.015251     0.011792
Rotational constants in MHz :  1079.582821   457.209208   353.506163

                             ****ORCA TERMINATED NORMALLY****
TOTAL RUN TIME: 0 days 0 hours 1 minutes 58 seconds 973 msec
