                         Program Version 5.0.0 -  RELEASE  -
|  1> !wB97X-D3 RIJCOSX def2-SVPD def2/J TightSCF
|  2> *xyz 1 1
|  3> C          3.91385       -1.65829        3.01513
|  4> N          5.03927       -0.90115        2.49282
|  5> C          6.21038       -1.41726        2.17824
|  6> N          6.53591       -2.67712        2.55608
|  7> N          7.07675       -0.70082        1.47891
|  8> H          7.95464       -1.12155        1.20755
|  9> H          6.75616        0.10664        0.96028
| 10> H          4.84217        0.01761        2.11519
| 11> H          5.99388       -3.12692        3.28278
| 12> H          7.49844       -2.97548        2.46878
| 13> C          3.13916       -2.37657        1.91061
| 14> H          3.26723       -0.93940        3.52069
| 15> H          4.24720       -2.35509        3.79006
| 16> C          2.39995       -1.38958        1.00949
| 17> H          2.44075       -3.08712        2.36298
| 18> H          3.84448       -2.97046        1.31868
| 19> C          2.07018       -1.93671       -0.37240
| 20> H          1.48161       -1.06154        1.50991
| 21> H          3.00863       -0.49000        0.89745
| 22> C          1.32224       -0.93577       -1.25641
| 23> H          1.47275       -2.85090       -0.28400
| 24> H          3.00354       -2.23404       -0.86254
| 25> H          1.12209       -1.38090       -2.20862
| 26> H          1.92280       -0.06049       -1.39103
| 27> H          0.39898       -0.66619       -0.78757
| 28> *
| 29> %MaxCore 64000
| 30> %pal nprocs 8
| 31> end
| 32> %scf
| 33>   MaxIter 150
| 34> end
| 35>
| 36>                          ****END OF INPUT****

CARTESIAN COORDINATES (ANGSTROEM)
---------------------------------
  C      3.913850   -1.658290    3.015130
  N      5.039270   -0.901150    2.492820
  C      6.210380   -1.417260    2.178240
  N      6.535910   -2.677120    2.556080
  N      7.076750   -0.700820    1.478910
  H      7.954640   -1.121550    1.207550
  H      6.756160    0.106640    0.960280
  H      4.842170    0.017610    2.115190
  H      5.993880   -3.126920    3.282780
  H      7.498440   -2.975480    2.468780
  C      3.139160   -2.376570    1.910610
  H      3.267230   -0.939400    3.520690
  H      4.247200   -2.355090    3.790060
  C      2.399950   -1.389580    1.009490
  H      2.440750   -3.087120    2.362980
  H      3.844480   -2.970460    1.318680
  C      2.070180   -1.936710   -0.372400
  H      1.481610   -1.061540    1.509910
  H      3.008630   -0.490000    0.897450
  C      1.322240   -0.935770   -1.256410
  H      1.472750   -2.850900   -0.284000
  H      3.003540   -2.234040   -0.862540
  H      1.122090   -1.380900   -2.208620
  H      1.922800   -0.060490   -1.391030
  H      0.398980   -0.666190   -0.787570

 Total Charge           Charge          ....    1
 Multiplicity           Mult            ....    1
 Number of Electrons    NEL             ....   72
 Basis Dimension        Dim             ....  308

ORBITAL ENERGIES
----------------

  NO   OCC          E(Eh)            E(eV)
   0   2.0000     -14.659480      -398.9047
   1   2.0000     -14.659224      -398.8978
   2   2.0000     -14.656404      -398.8210
   3   2.0000     -10.626536      -289.1627
   4   2.0000     -10.490955      -285.4734
   5   2.0000     -10.426270      -283.7132
   6   2.0000     -10.408525      -283.2304
   7   2.0000     -10.390595      -282.7425
   8   2.0000     -10.365517      -282.0601
   9   2.0000      -1.325503       -36.0688
  10   2.0000      -1.213540       -33.0221
  11   2.0000      -1.196410       -32.5560
  12   2.0000      -1.054257       -28.6878
  13   2.0000      -1.001404       -27.2496
  14   2.0000      -0.946492       -25.7554
  15   2.0000      -0.919759       -25.0279
  16   2.0000      -0.890521       -24.2323
  17   2.0000      -0.865980       -23.5645
  18   2.0000      -0.832488       -22.6532
  19   2.0000      -0.802101       -21.8263
  20   2.0000      -0.789519       -21.4839
  21   2.0000      -0.782370       -21.2894
  22   2.0000      -0.756670       -20.5900
  23   2.0000      -0.727679       -19.8012
  24   2.0000      -0.691892       -18.8273
  25   2.0000      -0.686146       -18.6710
  26   2.0000      -0.655464       -17.8361
  27   2.0000      -0.626451       -17.0466
  28   2.0000      -0.621957       -16.9243
  29   2.0000      -0.587226       -15.9792
  30   2.0000      -0.574226       -15.6255
  31   2.0000      -0.563830       -15.3426
  32   2.0000      -0.548451       -14.9241
  33   2.0000      -0.537134       -14.6162
  34   2.0000      -0.527580       -14.3562
  35   2.0000      -0.525421       -14.2974
  36   0.0000      -0.087559        -2.3826
  37   0.0000      -0.073199        -1.9918
  38   0.0000      -0.044556        -1.2124
  39   0.0000      -0.030470        -0.8291
  40   0.0000      -0.013332        -0.3628

MULLIKEN ATOMIC CHARGES
-----------------------
   0 C :    0.897302
   1 N :   -0.489053
   2 C :    1.390045
   3 N :   -0.030493
   4 N :   -0.108901
   5 H :    0.011890
   6 H :   -0.031528
   7 H :   -0.222514
   8 H :    0.001156
   9 H :   -0.133092
  10 C :    0.091636
  11 H :   -0.289182
  12 H :   -0.051375
  13 C :   -0.046153
  14 H :   -0.064082
  15 H :   -0.025831
  16 C :   -0.357400
  17 H :   -0.004685
  18 H :   -0.177773
  19 C :    0.781087
  20 H :   -0.049601
  21 H :   -0.029140
  22 H :   -0.036161
  23 H :   -0.034223
  24 H :    0.008072
Sum of atomic charges:    1.0000000

LOEWDIN ATOMIC CHARGES
----------------------
   0 C :    0.075429
   1 N :    0.043260
   2 C :   -0.021956
   3 N :    0.274877
   4 N :    0.254897
   5 H :    0.041740
   6 H :    0.043949
   7 H :    0.055217
   8 H :    0.015716
   9 H :    0.036783
  10 C :   -0.014821
  11 H :    0.046598
  12 H :    0.024615
  13 C :   -0.051384
  14 H :    0.041842
  15 H :    0.021448
  16 C :   -0.084563
  17 H :    0.040033
  18 H :    0.006280
  19 C :    0.126688
  20 H :    0.032846
  21 H :    0.023585
  22 H :   -0.008593
  23 H :   -0.015167
  24 H :   -0.009319

  Mayer bond orders larger than 0.100000
B(  0-C ,  1-N ) :   0.8991 B(  0-C ,  7-H ) :  -0.1710 B(  0-C , 10-C ) :   1.0811
B(  0-C , 11-H ) :   0.7514 B(  0-C , 12-H ) :   0.8429 B(  0-C , 13-C ) :   0.1017
B(  1-N ,  2-C ) :   1.0517 B(  1-N ,  3-N ) :   0.1914 B(  1-N ,  4-N ) :   0.2591
B(  1-N ,  7-H ) :   1.3019 B(  1-N , 11-H ) :   0.2651 B(  2-C ,  3-N ) :   0.9190
B(  2-C ,  4-N ) :   0.8377 B(  2-C ,  6-H ) :  -0.1619 B(  2-C ,  7-H ) :  -0.2780
B(  2-C ,  9-H ) :  -0.1236 B(  3-N ,  4-N ) :   0.1251 B(  3-N ,  8-H ) :   1.0402
B(  3-N ,  9-H ) :   1.2472 B(  4-N ,  5-H ) :   1.1239 B(  4-N ,  6-H ) :   1.1813
B(  5-H ,  6-H ) :  -0.1549 B(  8-H ,  9-H ) :  -0.1877 B( 10-C , 12-H ) :   0.1166
B( 10-C , 13-C ) :   1.1720 B( 10-C , 14-H ) :   0.9536 B( 10-C , 15-H ) :   0.9236
B( 10-C , 17-H ) :   0.1427 B( 11-H , 12-H ) :  -0.1538 B( 13-C , 14-H ) :   0.1373
B( 13-C , 16-C ) :   1.2040 B( 13-C , 17-H ) :   0.8993 B( 13-C , 18-H ) :   0.9252
B( 13-C , 20-H ) :   0.1301 B( 13-C , 21-H ) :   0.1300 B( 16-C , 19-C ) :   1.2304
B( 16-C , 20-H ) :   0.9268 B( 16-C , 21-H ) :   0.9480 B( 16-C , 22-H ) :   0.2772
B( 16-C , 23-H ) :   0.1734 B( 16-C , 24-H ) :   0.1524 B( 17-H , 18-H ) :   0.1437
B( 19-C , 22-H ) :   0.7065 B( 19-C , 23-H ) :   0.8190 B( 19-C , 24-H ) :   0.8171

Dispersion correction           -0.007750354
FINAL SINGLE POINT ENERGY      -401.975801279213

DIPOLE MOMENT
-------------
                                X             Y             Z
Electronic contribution:     10.58971       0.46940       5.84065
Nuclear contribution   :     -7.76207      -0.34873      -4.79295
                        -----------------------------------------
Total Dipole Moment    :      2.82765       0.12067       1.04769
                        -----------------------------------------
Magnitude (a.u.)       :      3.01791
Magnitude (Debye)      :      7.67093

Rotational constants in cm-1:     0.090389     0.022892     0.020733
Rotational constants in MHz :  2709.783883   686.298683   621.572538

                             ****ORCA TERMINATED NORMALLY****
TOTAL RUN TIME: 0 days 0 hours 0 minutes 56 seconds 57 msec
