                         Program Version 5.0.0 -  RELEASE  -
|  1> !wB97X-D3 RIJCOSX def2-SVPD def2/J TightSCF
|  2> *xyz -1 1
|  3> C          4.08422        1.74208       -2.11472
|  4> C          4.26524        2.50052       -0.79589
|  5> H          4.86853        3.39267       -0.98113
|  6> H          3.30764        2.82457       -0.38781
|  7> C          4.98224        1.65026        0.24742
|  8> O          4.36806        1.38927        1.31371
|  9> O          6.12892        1.23351       -0.04562
| 10> C          1.99727        0.43092       -1.39922
| 11> C          3.41275        0.37689       -1.96550
| 12> H          4.04741       -0.24659       -1.32671
| 13> H          3.39077       -0.11872       -2.94284
| 14> H          5.06847        1.59850       -2.56573
| 15> H          3.50336        2.36394       -2.80457
| 16> C          2.39995       -1.38958        1.00949
| 17> C          2.07018       -1.93671       -0.37240
| 18> C          1.32224       -0.93577       -1.25641
| 19> H          1.47275       -2.85090       -0.28400
| 20> H          3.00354       -2.23404       -0.86254
| 21> H          1.37644        1.05892       -2.04742
| 22> H          2.01534        0.92978       -0.42653
| 23> H          0.31665       -0.78721       -0.84828
| 24> H          1.18561       -1.37925       -2.24861
| 25> H          2.98295       -0.49786        0.91024
| 26> H          2.95620       -2.12008        1.55891
| 27> H          1.49248       -1.16626        1.53057
| 28> *
| 29> %MaxCore 64000
| 30> %pal nprocs 8
| 31> end
| 32> %scf
| 33>   MaxIter 150
| 34> end
| 35>
| 36>                          ****END OF INPUT****

CARTESIAN COORDINATES (ANGSTROEM)
---------------------------------
  C      4.084220    1.742080   -2.114720
  C      4.265240    2.500520   -0.795890
  H      4.868530    3.392670   -0.981130
  H      3.307640    2.824570   -0.387810
  C      4.982240    1.650260    0.247420
  O      4.368060    1.389270    1.313710
  O      6.128920    1.233510   -0.045620
  C      1.997270    0.430920   -1.399220
  C      3.412750    0.376890   -1.965500
  H      4.047410   -0.246590   -1.326710
  H      3.390770   -0.118720   -2.942840
  H      5.068470    1.598500   -2.565730
  H      3.503360    2.363940   -2.804570
  C      2.399950   -1.389580    1.009490
  C      2.070180   -1.936710   -0.372400
  C      1.322240   -0.935770   -1.256410
  H      1.472750   -2.850900   -0.284000
  H      3.003540   -2.234040   -0.862540
  H      1.376440    1.058920   -2.047420
  H      2.015340    0.929780   -0.426530
  H      0.316650   -0.787210   -0.848280
  H      1.185610   -1.379250   -2.248610
  H      2.982950   -0.497860    0.910240
  H      2.956200   -2.120080    1.558910
  H      1.492480   -1.166260    1.530570

 Total Charge           Charge          ....   -1
 Multiplicity           Mult            ....    1
 Number of Electrons    NEL             ....   80
 Basis Dimension        Dim             ....  326

ORBITAL ENERGIES
----------------

  NO   OCC          E(Eh)            E(eV)
   0   2.0000     -18.994212      -516.8588
   1   2.0000     -18.992277      -516.8061
   2   2.0000     -10.187421      -277.2138
   3   2.0000     -10.170951      -276.7657
   4   2.0000     -10.167361      -276.6680
   5   2.0000     -10.158036      -276.4142
   6   2.0000     -10.150904      -276.2201
   7   2.0000     -10.147468      -276.1266
   8   2.0000     -10.138188      -275.8741
   9   2.0000     -10.123381      -275.4712
  10   2.0000      -0.940191       -25.5839
  11   2.0000      -0.843561       -22.9545
  12   2.0000      -0.803676       -21.8691
  13   2.0000      -0.761008       -20.7081
  14   2.0000      -0.709474       -19.3058
  15   2.0000      -0.658316       -17.9137
  16   2.0000      -0.612979       -16.6800
  17   2.0000      -0.562682       -15.3113
  18   2.0000      -0.529298       -14.4029
  19   2.0000      -0.458780       -12.4840
  20   2.0000      -0.449245       -12.2246
  21   2.0000      -0.428851       -11.6696
  22   2.0000      -0.413960       -11.2644
  23   2.0000      -0.395691       -10.7673
  24   2.0000      -0.385132       -10.4800
  25   2.0000      -0.362643        -9.8680
  26   2.0000      -0.351512        -9.5651
  27   2.0000      -0.345048        -9.3892
  28   2.0000      -0.337204        -9.1758
  29   2.0000      -0.320055        -8.7091
  30   2.0000      -0.311294        -8.4707
  31   2.0000      -0.307032        -8.3548
  32   2.0000      -0.298278        -8.1166
  33   2.0000      -0.285414        -7.7665
  34   2.0000      -0.280404        -7.6302
  35   2.0000      -0.267292        -7.2734
  36   2.0000      -0.266178        -7.2431
  37   2.0000      -0.155145        -4.2217
  38   2.0000      -0.148475        -4.0402
  39   2.0000      -0.136636        -3.7181
  40   0.0000       0.192602         5.2410
  41   0.0000       0.211662         5.7596
  42   0.0000       0.219159         5.9636
  43   0.0000       0.224534         6.1099
  44   0.0000       0.244722         6.6592

MULLIKEN ATOMIC CHARGES
-----------------------
   0 C :    0.272157
   1 C :    0.214354
   2 H :   -0.143773
   3 H :    0.056622
   4 C :    0.461729
   5 O :   -0.701788
   6 O :   -0.719451
   7 C :   -0.173410
   8 C :   -0.167513
   9 H :    0.027551
  10 H :   -0.160682
  11 H :   -0.021573
  12 H :   -0.121354
  13 C :    1.546352
  14 C :   -0.389426
  15 C :    0.374197
  16 H :   -0.332506
  17 H :    0.102886
  18 H :   -0.201107
  19 H :    0.069209
  20 H :   -0.029479
  21 H :   -0.017888
  22 H :   -0.963878
  23 H :   -0.009072
  24 H :    0.027843
Sum of atomic charges:   -1.0000000

LOEWDIN ATOMIC CHARGES
----------------------
   0 C :   -0.040735
   1 C :    0.005013
   2 H :    0.013048
   3 H :    0.000464
   4 C :   -0.295680
   5 O :   -0.314092
   6 O :   -0.316016
   7 C :   -0.039024
   8 C :   -0.033751
   9 H :    0.018325
  10 H :    0.016202
  11 H :    0.015948
  12 H :    0.005418
  13 C :    0.134898
  14 C :   -0.089003
  15 C :   -0.052287
  16 H :    0.004648
  17 H :    0.011447
  18 H :    0.016065
  19 H :    0.010818
  20 H :    0.012585
  21 H :    0.009681
  22 H :   -0.059014
  23 H :   -0.018053
  24 H :   -0.016907

  Mayer bond orders larger than 0.100000
B(  0-C ,  1-C ) :   1.1466 B(  0-C ,  2-H ) :   0.1641 B(  0-C ,  3-H ) :   0.1376
B(  0-C ,  8-C ) :   1.2176 B(  0-C , 11-H ) :   0.7379 B(  0-C , 12-H ) :   0.8688
B(  1-C ,  2-H ) :   0.8449 B(  1-C ,  3-H ) :   0.8298 B(  1-C ,  4-C ) :   0.9897
B(  1-C , 11-H ) :   0.1130 B(  2-H ,  4-C ) :   0.1020 B(  3-H ,  4-C ) :   0.1842
B(  4-C ,  5-O ) :   1.4789 B(  4-C ,  6-O ) :   1.4960 B(  5-O , 22-H ) :   0.1419
B(  7-C ,  8-C ) :   1.1890 B(  7-C , 10-H ) :   0.1468 B(  7-C , 15-C ) :   1.1690
B(  7-C , 18-H ) :   0.9588 B(  7-C , 19-H ) :   0.9126 B(  7-C , 20-H ) :   0.2733
B(  7-C , 21-H ) :   0.1303 B(  8-C ,  9-H ) :   0.9323 B(  8-C , 10-H ) :   0.9273
B(  8-C , 11-H ) :   0.2319 B(  8-C , 12-H ) :   0.1535 B(  8-C , 18-H ) :   0.1271
B( 13-C , 14-C ) :   1.0625 B( 13-C , 17-H ) :   0.1088 B( 13-C , 23-H ) :   0.6316
B( 13-C , 24-H ) :   0.5258 B( 14-C , 15-C ) :   1.1247 B( 14-C , 16-H ) :   1.0554
B( 14-C , 17-H ) :   0.8596 B( 14-C , 20-H ) :   0.1410 B( 14-C , 21-H ) :   0.1026
B( 14-C , 22-H ) :   0.4123 B( 14-C , 23-H ) :   0.2034 B( 14-C , 24-H ) :   0.2199
B( 15-C , 16-H ) :   0.1291 B( 15-C , 17-H ) :   0.1027 B( 15-C , 20-H ) :   0.7109
B( 15-C , 21-H ) :   0.8527 B( 19-H , 22-H ) :   0.1044 B( 22-H , 23-H ) :   0.1907
B( 22-H , 24-H ) :   0.3038

Dispersion correction           -0.010311886
FINAL SINGLE POINT ENERGY      -463.983579384952

DIPOLE MOMENT
-------------
                                X             Y             Z
Electronic contribution:      8.28108       5.37477       3.69331
Nuclear contribution   :    -11.01582      -6.33392      -5.63219
                        -----------------------------------------
Total Dipole Moment    :     -2.73473      -0.95915      -1.93888
                        -----------------------------------------
Magnitude (a.u.)       :      3.48683
Magnitude (Debye)      :      8.86283

Rotational constants in cm-1:     0.059641     0.028339     0.022398
Rotational constants in MHz :  1787.983768   849.588441   671.487724

                             ****ORCA TERMINATED NORMALLY****
TOTAL RUN TIME: 0 days 0 hours 1 minutes 16 seconds 362 msec
