                         Program Version 5.0.0 -  RELEASE  -
|  1> !wB97X-D3 RIJCOSX def2-SVPD def2/J TightSCF
|  2> *xyz -1 1
|  3> C          4.08422        1.74208       -2.11472
|  4> C          4.26524        2.50052       -0.79589
|  5> H          4.86853        3.39267       -0.98113
|  6> H          3.30764        2.82457       -0.38781
|  7> C          4.98224        1.65026        0.24742
|  8> O          4.36806        1.38927        1.31371
|  9> O          6.12892        1.23351       -0.04562
| 10> C          1.99727        0.43092       -1.39922
| 11> C          3.41275        0.37689       -1.96550
| 12> H          4.04741       -0.24659       -1.32671
| 13> H          3.39077       -0.11872       -2.94284
| 14> H          5.06847        1.59850       -2.56573
| 15> H          3.50336        2.36394       -2.80457
| 16> H          1.38433        1.04154       -2.02878
| 17> H          2.02294        0.84749       -0.41397
| 18> H          1.59172       -0.55838       -1.35771
| 19> *
| 20> %MaxCore 64000
| 21> %pal nprocs 8
| 22> end
| 23> %scf
| 24>   MaxIter 150
| 25> end
| 26>
| 27>                          ****END OF INPUT****

CARTESIAN COORDINATES (ANGSTROEM)
---------------------------------
  C      4.084220    1.742080   -2.114720
  C      4.265240    2.500520   -0.795890
  H      4.868530    3.392670   -0.981130
  H      3.307640    2.824570   -0.387810
  C      4.982240    1.650260    0.247420
  O      4.368060    1.389270    1.313710
  O      6.128920    1.233510   -0.045620
  C      1.997270    0.430920   -1.399220
  C      3.412750    0.376890   -1.965500
  H      4.047410   -0.246590   -1.326710
  H      3.390770   -0.118720   -2.942840
  H      5.068470    1.598500   -2.565730
  H      3.503360    2.363940   -2.804570
  H      1.384330    1.041540   -2.028780
  H      2.022940    0.847490   -0.413970
  H      1.591720   -0.558380   -1.357710

 Total Charge           Charge          ....   -1
 Multiplicity           Mult            ....    1
 Number of Electrons    NEL             ....   56
 Basis Dimension        Dim             ....  218

ORBITAL ENERGIES
----------------

  NO   OCC          E(Eh)            E(eV)
   0   2.0000     -18.986944      -516.6610
   1   2.0000     -18.986210      -516.6410
   2   2.0000     -10.181061      -277.0408
   3   2.0000     -10.147837      -276.1367
   4   2.0000     -10.143768      -276.0260
   5   2.0000     -10.142980      -276.0045
   6   2.0000     -10.118856      -275.3481
   7   2.0000      -0.933424       -25.3998
   8   2.0000      -0.836666       -22.7668
   9   2.0000      -0.770690       -20.9715
  10   2.0000      -0.694897       -18.9091
  11   2.0000      -0.615186       -16.7400
  12   2.0000      -0.537473       -14.6254
  13   2.0000      -0.434105       -11.8126
  14   2.0000      -0.426271       -11.5994
  15   2.0000      -0.412506       -11.2249
  16   2.0000      -0.364176        -9.9097
  17   2.0000      -0.352522        -9.5926
  18   2.0000      -0.348461        -9.4821
  19   2.0000      -0.329295        -8.9606
  20   2.0000      -0.303171        -8.2497
  21   2.0000      -0.299226        -8.1423
  22   2.0000      -0.284436        -7.7399
  23   2.0000      -0.268082        -7.2949
  24   2.0000      -0.260941        -7.1006
  25   2.0000      -0.148552        -4.0423
  26   2.0000      -0.142260        -3.8711
  27   2.0000      -0.129928        -3.5355
  28   0.0000       0.207258         5.6398
  29   0.0000       0.231782         6.3071
  30   0.0000       0.238360         6.4861
  31   0.0000       0.252821         6.8796
  32   0.0000       0.272639         7.4189

MULLIKEN ATOMIC CHARGES
-----------------------
   0 C :   -0.033075
   1 C :    0.145045
   2 H :   -0.053026
   3 H :   -0.016357
   4 C :    0.421703
   5 O :   -0.690987
   6 O :   -0.710145
   7 C :    0.706652
   8 C :   -0.451607
   9 H :    0.082255
  10 H :   -0.140286
  11 H :    0.004406
  12 H :   -0.110396
  13 H :    0.000403
  14 H :   -0.080331
  15 H :   -0.074256
Sum of atomic charges:   -1.0000000

LOEWDIN ATOMIC CHARGES
----------------------
   0 C :   -0.050746
   1 C :   -0.000108
   2 H :    0.012434
   3 H :   -0.000204
   4 C :   -0.308265
   5 O :   -0.328427
   6 O :   -0.323356
   7 C :    0.113177
   8 C :   -0.079910
   9 H :    0.024423
  10 H :    0.005712
  11 H :    0.013829
  12 H :    0.003343
  13 H :   -0.027593
  14 H :   -0.025241
  15 H :   -0.029067

  Mayer bond orders larger than 0.100000
B(  0-C ,  1-C ) :   1.1865 B(  0-C ,  2-H ) :   0.1536 B(  0-C ,  3-H ) :   0.1486
B(  0-C ,  8-C ) :   1.2254 B(  0-C ,  9-H ) :   0.1491 B(  0-C , 10-H ) :   0.1387
B(  0-C , 11-H ) :   0.8896 B(  0-C , 12-H ) :   0.8906 B(  1-C ,  2-H ) :   0.8187
B(  1-C ,  3-H ) :   0.8715 B(  1-C ,  4-C ) :   0.9990 B(  1-C , 11-H ) :   0.1319
B(  1-C , 12-H ) :   0.1123 B(  2-H ,  4-C ) :   0.1003 B(  3-H ,  4-C ) :   0.2135
B(  4-C ,  5-O ) :   1.5022 B(  4-C ,  6-O ) :   1.5308 B(  7-C ,  8-C ) :   1.2371
B(  7-C , 13-H ) :   0.7684 B(  7-C , 14-H ) :   0.8544 B(  7-C , 15-H ) :   0.7631
B(  8-C ,  9-H ) :   0.9151 B(  8-C , 10-H ) :   0.9511 B(  8-C , 11-H ) :   0.1014
B(  8-C , 12-H ) :   0.1548 B(  8-C , 13-H ) :   0.1943 B(  8-C , 14-H ) :   0.2024
B(  8-C , 15-H ) :   0.2140

Dispersion correction           -0.005063187
FINAL SINGLE POINT ENERGY      -346.143938152475

DIPOLE MOMENT
-------------
                                X             Y             Z
Electronic contribution:      6.07727       0.94085       5.99369
Nuclear contribution   :     -7.86199      -0.70595      -8.25765
                        -----------------------------------------
Total Dipole Moment    :     -1.78472       0.23490      -2.26396
                        -----------------------------------------
Magnitude (a.u.)       :      2.89239
Magnitude (Debye)      :      7.35187

Rotational constants in cm-1:     0.135717     0.060708     0.052881
Rotational constants in MHz :  4068.703475  1819.978148  1585.335756

                             ****ORCA TERMINATED NORMALLY****
TOTAL RUN TIME: 0 days 0 hours 0 minutes 27 seconds 301 msec
