                         Program Version 5.0.0 -  RELEASE  -
|  1> !wB97X-D3 RIJCOSX def2-SVPD def2/J TightSCF
|  2> *xyz 1 1
|  3> C          3.91385       -1.65829        3.01513
|  4> N          5.03927       -0.90115        2.49282
|  5> C          6.21038       -1.41726        2.17824
|  6> N          6.53591       -2.67712        2.55608
|  7> N          7.07675       -0.70082        1.47891
|  8> H          7.95464       -1.12155        1.20755
|  9> H          6.75616        0.10664        0.96028
| 10> H          4.84217        0.01761        2.11519
| 11> H          5.99388       -3.12692        3.28278
| 12> H          7.49844       -2.97548        2.46878
| 13> C          3.13916       -2.37657        1.91061
| 14> H          3.26723       -0.93940        3.52069
| 15> H          4.24720       -2.35509        3.79006
| 16> C          1.99727        0.43092       -1.39922
| 17> C          2.39995       -1.38958        1.00949
| 18> H          2.44075       -3.08712        2.36298
| 19> H          3.84448       -2.97046        1.31868
| 20> C          2.07018       -1.93671       -0.37240
| 21> H          1.48161       -1.06154        1.50991
| 22> H          3.00863       -0.49000        0.89745
| 23> C          1.32224       -0.93577       -1.25641
| 24> H          1.47275       -2.85090       -0.28400
| 25> H          3.00354       -2.23404       -0.86254
| 26> H          0.31665       -0.78721       -0.84828
| 27> H          1.18561       -1.37925       -2.24861
| 28> H          1.40357        1.05764       -2.03139
| 29> H          2.96811        0.30580       -1.83133
| 30> H          2.09191        0.88450       -0.43475
| 31> *
| 32> %MaxCore 64000
| 33> %pal nprocs 8
| 34> end
| 35> %scf
| 36>   MaxIter 150
| 37> end
| 38>
| 39>                          ****END OF INPUT****

CARTESIAN COORDINATES (ANGSTROEM)
---------------------------------
  C      3.913850   -1.658290    3.015130
  N      5.039270   -0.901150    2.492820
  C      6.210380   -1.417260    2.178240
  N      6.535910   -2.677120    2.556080
  N      7.076750   -0.700820    1.478910
  H      7.954640   -1.121550    1.207550
  H      6.756160    0.106640    0.960280
  H      4.842170    0.017610    2.115190
  H      5.993880   -3.126920    3.282780
  H      7.498440   -2.975480    2.468780
  C      3.139160   -2.376570    1.910610
  H      3.267230   -0.939400    3.520690
  H      4.247200   -2.355090    3.790060
  C      1.997270    0.430920   -1.399220
  C      2.399950   -1.389580    1.009490
  H      2.440750   -3.087120    2.362980
  H      3.844480   -2.970460    1.318680
  C      2.070180   -1.936710   -0.372400
  H      1.481610   -1.061540    1.509910
  H      3.008630   -0.490000    0.897450
  C      1.322240   -0.935770   -1.256410
  H      1.472750   -2.850900   -0.284000
  H      3.003540   -2.234040   -0.862540
  H      0.316650   -0.787210   -0.848280
  H      1.185610   -1.379250   -2.248610
  H      1.403570    1.057640   -2.031390
  H      2.968110    0.305800   -1.831330
  H      2.091910    0.884500   -0.434750

 Total Charge           Charge          ....    1
 Multiplicity           Mult            ....    1
 Number of Electrons    NEL             ....   80
 Basis Dimension        Dim             ....  344

ORBITAL ENERGIES
----------------

  NO   OCC          E(Eh)            E(eV)
   0   2.0000     -14.658743      -398.8847
   1   2.0000     -14.658426      -398.8760
   2   2.0000     -14.655744      -398.8031
   3   2.0000     -10.625795      -289.1426
   4   2.0000     -10.490056      -285.4489
   5   2.0000     -10.425318      -283.6873
   6   2.0000     -10.406720      -283.1812
   7   2.0000     -10.388345      -282.6812
   8   2.0000     -10.376245      -282.3520
   9   2.0000     -10.363725      -282.0113
  10   2.0000      -1.324746       -36.0482
  11   2.0000      -1.212750       -33.0006
  12   2.0000      -1.195716       -32.5371
  13   2.0000      -1.053958       -28.6797
  14   2.0000      -1.008315       -27.4377
  15   2.0000      -0.958562       -26.0838
  16   2.0000      -0.928642       -25.2696
  17   2.0000      -0.890284       -24.2259
  18   2.0000      -0.888996       -24.1908
  19   2.0000      -0.852972       -23.2106
  20   2.0000      -0.825422       -22.4609
  21   2.0000      -0.790690       -21.5158
  22   2.0000      -0.783026       -21.3072
  23   2.0000      -0.773980       -21.0611
  24   2.0000      -0.755501       -20.5582
  25   2.0000      -0.726887       -19.7796
  26   2.0000      -0.691402       -18.8140
  27   2.0000      -0.685038       -18.6408
  28   2.0000      -0.655525       -17.8377
  29   2.0000      -0.638708       -17.3801
  30   2.0000      -0.635029       -17.2800
  31   2.0000      -0.591663       -16.1000
  32   2.0000      -0.586151       -15.9500
  33   2.0000      -0.574089       -15.6217
  34   2.0000      -0.569004       -15.4834
  35   2.0000      -0.550265       -14.9735
  36   2.0000      -0.541718       -14.7409
  37   2.0000      -0.520297       -14.1580
  38   2.0000      -0.513342       -13.9687
  39   2.0000      -0.511773       -13.9261
  40   0.0000      -0.086976        -2.3667
  41   0.0000      -0.073326        -1.9953
  42   0.0000      -0.045116        -1.2277
  43   0.0000      -0.030352        -0.8259
  44   0.0000      -0.014035        -0.3819

MULLIKEN ATOMIC CHARGES
-----------------------
   0 C :    0.925859
   1 N :   -0.491709
   2 C :    1.396875
   3 N :   -0.030475
   4 N :   -0.108109
   5 H :    0.009935
   6 H :   -0.033861
   7 H :   -0.228044
   8 H :    0.002572
   9 H :   -0.133428
  10 C :    0.208750
  11 H :   -0.269282
  12 H :   -0.089110
  13 C :    0.662180
  14 C :   -0.080866
  15 H :   -0.036359
  16 H :   -0.007940
  17 C :    0.035141
  18 H :   -0.024212
  19 H :   -0.282722
  20 C :   -0.214359
  21 H :   -0.074318
  22 H :   -0.000084
  23 H :    0.042896
  24 H :   -0.066423
  25 H :   -0.121558
  26 H :    0.024407
  27 H :   -0.015754
Sum of atomic charges:    1.0000000

LOEWDIN ATOMIC CHARGES
----------------------
   0 C :    0.076525
   1 N :    0.043771
   2 C :   -0.021909
   3 N :    0.274778
   4 N :    0.254915
   5 H :    0.041634
   6 H :    0.043967
   7 H :    0.056213
   8 H :    0.015641
   9 H :    0.036681
  10 C :   -0.011401
  11 H :    0.046841
  12 H :    0.024232
  13 C :    0.120238
  14 C :   -0.046682
  15 H :    0.041966
  16 H :    0.022173
  17 C :   -0.043187
  18 H :    0.044536
  19 H :   -0.009493
  20 C :   -0.069704
  21 H :    0.033808
  22 H :    0.026233
  23 H :    0.027754
  24 H :    0.027415
  25 H :   -0.008832
  26 H :   -0.014276
  27 H :   -0.033833

  Mayer bond orders larger than 0.100000
B(  0-C ,  1-N ) :   0.8955 B(  0-C ,  7-H ) :  -0.1729 B(  0-C , 10-C ) :   1.0784
B(  0-C , 11-H ) :   0.7456 B(  0-C , 12-H ) :   0.8271 B(  0-C , 14-C ) :   0.1126
B(  1-N ,  2-C ) :   1.0519 B(  1-N ,  3-N ) :   0.1957 B(  1-N ,  4-N ) :   0.2606
B(  1-N ,  7-H ) :   1.3025 B(  1-N , 11-H ) :   0.2637 B(  2-C ,  3-N ) :   0.9142
B(  2-C ,  4-N ) :   0.8324 B(  2-C ,  6-H ) :  -0.1655 B(  2-C ,  7-H ) :  -0.2801
B(  2-C ,  9-H ) :  -0.1224 B(  3-N ,  4-N ) :   0.1259 B(  3-N ,  8-H ) :   1.0389
B(  3-N ,  9-H ) :   1.2476 B(  4-N ,  5-H ) :   1.1249 B(  4-N ,  6-H ) :   1.1842
B(  5-H ,  6-H ) :  -0.1554 B(  8-H ,  9-H ) :  -0.1892 B( 10-C , 12-H ) :   0.1292
B( 10-C , 14-C ) :   1.1641 B( 10-C , 15-H ) :   0.9255 B( 10-C , 16-H ) :   0.8926
B( 10-C , 18-H ) :   0.1072 B( 11-H , 12-H ) :  -0.1595 B( 13-C , 20-C ) :   1.2631
B( 13-C , 25-H ) :   0.8315 B( 13-C , 26-H ) :   0.7828 B( 13-C , 27-H ) :   0.8412
B( 14-C , 15-H ) :   0.1489 B( 14-C , 17-C ) :   1.2025 B( 14-C , 18-H ) :   0.8747
B( 14-C , 19-H ) :   0.9313 B( 14-C , 21-H ) :   0.1406 B( 14-C , 22-H ) :   0.1377
B( 17-C , 20-C ) :   1.1688 B( 17-C , 21-H ) :   0.9124 B( 17-C , 22-H ) :   0.9225
B( 17-C , 24-H ) :   0.2114 B( 18-H , 19-H ) :   0.1674 B( 20-C , 23-H ) :   0.8945
B( 20-C , 24-H ) :   0.8481 B( 20-C , 25-H ) :   0.1961 B( 20-C , 26-H ) :   0.1989
B( 20-C , 27-H ) :   0.1680

Dispersion correction           -0.009331300
FINAL SINGLE POINT ENERGY      -441.253761881029

DIPOLE MOMENT
-------------
                                X             Y             Z
Electronic contribution:     11.00907      -1.41549       7.12366
Nuclear contribution   :     -7.84703       1.20060      -5.62405
                        -----------------------------------------
Total Dipole Moment    :      3.16203      -0.21489       1.49961
                        -----------------------------------------
Magnitude (a.u.)       :      3.50620
Magnitude (Debye)      :      8.91206

Rotational constants in cm-1:     0.068282     0.018588     0.016433
Rotational constants in MHz :  2047.055736   557.258811   492.646936

                             ****ORCA TERMINATED NORMALLY****
TOTAL RUN TIME: 0 days 0 hours 1 minutes 13 seconds 711 msec
