                         Program Version 5.0.0 -  RELEASE  -
|  1> !wB97X-D3 RIJCOSX def2-SVPD def2/J TightSCF
|  2> *xyz 1 1
|  3> C          3.91385       -1.65829        3.01513
|  4> N          5.03927       -0.90115        2.49282
|  5> C          6.21038       -1.41726        2.17824
|  6> N          6.53591       -2.67712        2.55608
|  7> N          7.07675       -0.70082        1.47891
|  8> H          7.95464       -1.12155        1.20755
|  9> H          6.75616        0.10664        0.96028
| 10> H          4.84217        0.01761        2.11519
| 11> H          5.99388       -3.12692        3.28278
| 12> H          7.49844       -2.97548        2.46878
| 13> C          3.13916       -2.37657        1.91061
| 14> H          3.26723       -0.93940        3.52069
| 15> H          4.24720       -2.35509        3.79006
| 16> C          2.39995       -1.38958        1.00949
| 17> H          2.44075       -3.08712        2.36298
| 18> H          3.84448       -2.97046        1.31868
| 19> C          2.07018       -1.93671       -0.37240
| 20> H          1.48161       -1.06154        1.50991
| 21> H          3.00863       -0.49000        0.89745
| 22> H          1.55578       -1.18868       -0.93874
| 23> H          1.44721       -2.80112       -0.27443
| 24> H          2.97578       -2.20487       -0.87527
| 25> *
| 26> %MaxCore 64000
| 27> %pal nprocs 8
| 28> end
| 29> %scf
| 30>   MaxIter 150
| 31> end
| 32>
| 33>                          ****END OF INPUT****

CARTESIAN COORDINATES (ANGSTROEM)
---------------------------------
  C      3.913850   -1.658290    3.015130
  N      5.039270   -0.901150    2.492820
  C      6.210380   -1.417260    2.178240
  N      6.535910   -2.677120    2.556080
  N      7.076750   -0.700820    1.478910
  H      7.954640   -1.121550    1.207550
  H      6.756160    0.106640    0.960280
  H      4.842170    0.017610    2.115190
  H      5.993880   -3.126920    3.282780
  H      7.498440   -2.975480    2.468780
  C      3.139160   -2.376570    1.910610
  H      3.267230   -0.939400    3.520690
  H      4.247200   -2.355090    3.790060
  C      2.399950   -1.389580    1.009490
  H      2.440750   -3.087120    2.362980
  H      3.844480   -2.970460    1.318680
  C      2.070180   -1.936710   -0.372400
  H      1.481610   -1.061540    1.509910
  H      3.008630   -0.490000    0.897450
  H      1.555780   -1.188680   -0.938740
  H      1.447210   -2.801120   -0.274430
  H      2.975780   -2.204870   -0.875270

 Total Charge           Charge          ....    1
 Multiplicity           Mult            ....    1
 Number of Electrons    NEL             ....   64
 Basis Dimension        Dim             ....  272

ORBITAL ENERGIES
----------------

  NO   OCC          E(Eh)            E(eV)
   0   2.0000     -14.660174      -398.9236
   1   2.0000     -14.660043      -398.9200
   2   2.0000     -14.657138      -398.8410
   3   2.0000     -10.627307      -289.1837
   4   2.0000     -10.491984      -285.5014
   5   2.0000     -10.427564      -283.7484
   6   2.0000     -10.411914      -283.3226
   7   2.0000     -10.381440      -282.4933
   8   2.0000      -1.326280       -36.0899
   9   2.0000      -1.214351       -33.0442
  10   2.0000      -1.197137       -32.5758
  11   2.0000      -1.054335       -28.6899
  12   2.0000      -0.991458       -26.9790
  13   2.0000      -0.937333       -25.5061
  14   2.0000      -0.898755       -24.4564
  15   2.0000      -0.891120       -24.2486
  16   2.0000      -0.849389       -23.1131
  17   2.0000      -0.816909       -22.2292
  18   2.0000      -0.791087       -21.5266
  19   2.0000      -0.783368       -21.3165
  20   2.0000      -0.757567       -20.6145
  21   2.0000      -0.730108       -19.8672
  22   2.0000      -0.689888       -18.7728
  23   2.0000      -0.683680       -18.6039
  24   2.0000      -0.662806       -18.0359
  25   2.0000      -0.620861       -16.8945
  26   2.0000      -0.601985       -16.3808
  27   2.0000      -0.572904       -15.5895
  28   2.0000      -0.570316       -15.5191
  29   2.0000      -0.553902       -15.0724
  30   2.0000      -0.546353       -14.8670
  31   2.0000      -0.534822       -14.5533
  32   0.0000      -0.088329        -2.4036
  33   0.0000      -0.073725        -2.0062
  34   0.0000      -0.044934        -1.2227
  35   0.0000      -0.031118        -0.8468
  36   0.0000      -0.013420        -0.3652

MULLIKEN ATOMIC CHARGES
-----------------------
   0 C :    0.855608
   1 N :   -0.483374
   2 C :    1.390116
   3 N :   -0.029848
   4 N :   -0.111386
   5 H :    0.012261
   6 H :   -0.029576
   7 H :   -0.220737
   8 H :   -0.001472
   9 H :   -0.130911
  10 C :    0.040458
  11 H :   -0.291174
  12 H :   -0.058843
  13 C :   -0.384697
  14 H :   -0.074573
  15 H :   -0.023084
  16 C :    0.795637
  17 H :   -0.002989
  18 H :   -0.197000
  19 H :   -0.026157
  20 H :   -0.009453
  21 H :   -0.018804
Sum of atomic charges:    1.0000000

LOEWDIN ATOMIC CHARGES
----------------------
   0 C :    0.074419
   1 N :    0.043083
   2 C :   -0.021955
   3 N :    0.274878
   4 N :    0.255007
   5 H :    0.041847
   6 H :    0.044036
   7 H :    0.055220
   8 H :    0.015747
   9 H :    0.036893
  10 C :   -0.017923
  11 H :    0.046685
  12 H :    0.024701
  13 C :   -0.082837
  14 H :    0.041449
  15 H :    0.021606
  16 C :    0.129426
  17 H :    0.036435
  18 H :    0.002433
  19 H :   -0.005350
  20 H :   -0.003486
  21 H :   -0.012313

  Mayer bond orders larger than 0.100000
B(  0-C ,  1-N ) :   0.9051 B(  0-C ,  7-H ) :  -0.1664 B(  0-C , 10-C ) :   1.0940
B(  0-C , 11-H ) :   0.7534 B(  0-C , 12-H ) :   0.8607 B(  0-C , 13-C ) :   0.1004
B(  1-N ,  2-C ) :   1.0509 B(  1-N ,  3-N ) :   0.1885 B(  1-N ,  4-N ) :   0.2582
B(  1-N ,  7-H ) :   1.2975 B(  1-N , 11-H ) :   0.2673 B(  2-C ,  3-N ) :   0.9239
B(  2-C ,  4-N ) :   0.8370 B(  2-C ,  6-H ) :  -0.1609 B(  2-C ,  7-H ) :  -0.2764
B(  2-C ,  9-H ) :  -0.1235 B(  3-N ,  4-N ) :   0.1246 B(  3-N ,  8-H ) :   1.0419
B(  3-N ,  9-H ) :   1.2461 B(  4-N ,  5-H ) :   1.1234 B(  4-N ,  6-H ) :   1.1806
B(  5-H ,  6-H ) :  -0.1545 B(  8-H ,  9-H ) :  -0.1864 B( 10-C , 12-H ) :   0.1012
B( 10-C , 13-C ) :   1.1581 B( 10-C , 14-H ) :   0.9640 B( 10-C , 15-H ) :   0.9397
B( 10-C , 17-H ) :   0.1510 B( 11-H , 12-H ) :  -0.1471 B( 13-C , 14-H ) :   0.1230
B( 13-C , 16-C ) :   1.2915 B( 13-C , 17-H ) :   0.9176 B( 13-C , 18-H ) :   0.9431
B( 13-C , 19-H ) :   0.2836 B( 13-C , 20-H ) :   0.1853 B( 13-C , 21-H ) :   0.1818
B( 16-C , 19-H ) :   0.7185 B( 16-C , 20-H ) :   0.7866 B( 16-C , 21-H ) :   0.8228

Dispersion correction           -0.006568638
FINAL SINGLE POINT ENERGY      -362.696575675907

DIPOLE MOMENT
-------------
                                X             Y             Z
Electronic contribution:      8.56589       1.52364       3.75118
Nuclear contribution   :     -6.34535      -1.24643      -3.24642
                        -----------------------------------------
Total Dipole Moment    :      2.22054       0.27720       0.50476
                        -----------------------------------------
Magnitude (a.u.)       :      2.29400
Magnitude (Debye)      :      5.83089

Rotational constants in cm-1:     0.111793     0.033525     0.030804
Rotational constants in MHz :  3351.457473  1005.047666   923.494287

                             ****ORCA TERMINATED NORMALLY****
TOTAL RUN TIME: 0 days 0 hours 0 minutes 43 seconds 6 msec
