                         Program Version 5.0.0 -  RELEASE  -
|  1> !wB97X-D3 RIJCOSX def2-SVPD def2/J TightSCF
|  2> *xyz -1 1
|  3> C          4.08422        1.74208       -2.11472
|  4> C          4.26524        2.50052       -0.79589
|  5> H          4.86853        3.39267       -0.98113
|  6> H          3.30764        2.82457       -0.38781
|  7> C          4.98224        1.65026        0.24742
|  8> O          4.36806        1.38927        1.31371
|  9> O          6.12892        1.23351       -0.04562
| 10> C          1.99727        0.43092       -1.39922
| 11> C          3.41275        0.37689       -1.96550
| 12> H          4.04741       -0.24659       -1.32671
| 13> H          3.39077       -0.11872       -2.94284
| 14> H          5.06847        1.59850       -2.56573
| 15> H          3.50336        2.36394       -2.80457
| 16> C          2.07018       -1.93671       -0.37240
| 17> C          1.32224       -0.93577       -1.25641
| 18> H          1.37644        1.05892       -2.04742
| 19> H          2.01534        0.92978       -0.42653
| 20> H          0.31665       -0.78721       -0.84828
| 21> H          1.18561       -1.37925       -2.24861
| 22> H          3.05500       -2.09002       -0.76167
| 23> H          1.54206       -2.86723       -0.36163
| 24> H          2.13634       -1.55260        0.62409
| 25> *
| 26> %MaxCore 64000
| 27> %pal nprocs 8
| 28> end
| 29> %scf
| 30>   MaxIter 150
| 31> end
| 32>
| 33>                          ****END OF INPUT****

CARTESIAN COORDINATES (ANGSTROEM)
---------------------------------
  C      4.084220    1.742080   -2.114720
  C      4.265240    2.500520   -0.795890
  H      4.868530    3.392670   -0.981130
  H      3.307640    2.824570   -0.387810
  C      4.982240    1.650260    0.247420
  O      4.368060    1.389270    1.313710
  O      6.128920    1.233510   -0.045620
  C      1.997270    0.430920   -1.399220
  C      3.412750    0.376890   -1.965500
  H      4.047410   -0.246590   -1.326710
  H      3.390770   -0.118720   -2.942840
  H      5.068470    1.598500   -2.565730
  H      3.503360    2.363940   -2.804570
  C      2.070180   -1.936710   -0.372400
  C      1.322240   -0.935770   -1.256410
  H      1.376440    1.058920   -2.047420
  H      2.015340    0.929780   -0.426530
  H      0.316650   -0.787210   -0.848280
  H      1.185610   -1.379250   -2.248610
  H      3.055000   -2.090020   -0.761670
  H      1.542060   -2.867230   -0.361630
  H      2.136340   -1.552600    0.624090

 Total Charge           Charge          ....   -1
 Multiplicity           Mult            ....    1
 Number of Electrons    NEL             ....   72
 Basis Dimension        Dim             ....  290

ORBITAL ENERGIES
----------------

  NO   OCC          E(Eh)            E(eV)
   0   2.0000     -18.989216      -516.7228
   1   2.0000     -18.988322      -516.6985
   2   2.0000     -10.183152      -277.0977
   3   2.0000     -10.174561      -276.8639
   4   2.0000     -10.159690      -276.4592
   5   2.0000     -10.157699      -276.4050
   6   2.0000     -10.149684      -276.1869
   7   2.0000     -10.145823      -276.0819
   8   2.0000     -10.120861      -275.4026
   9   2.0000      -0.935541       -25.4574
  10   2.0000      -0.838780       -22.8244
  11   2.0000      -0.797433       -21.6992
  12   2.0000      -0.750970       -20.4349
  13   2.0000      -0.687931       -18.7196
  14   2.0000      -0.635076       -17.2813
  15   2.0000      -0.575253       -15.6534
  16   2.0000      -0.536236       -14.5917
  17   2.0000      -0.454141       -12.3578
  18   2.0000      -0.439186       -11.9509
  19   2.0000      -0.422606       -11.4997
  20   2.0000      -0.418679       -11.3928
  21   2.0000      -0.388185       -10.5631
  22   2.0000      -0.370339       -10.0774
  23   2.0000      -0.358386        -9.7522
  24   2.0000      -0.344140        -9.3645
  25   2.0000      -0.332784        -9.0555
  26   2.0000      -0.318076        -8.6553
  27   2.0000      -0.315821        -8.5939
  28   2.0000      -0.299992        -8.1632
  29   2.0000      -0.295746        -8.0477
  30   2.0000      -0.280864        -7.6427
  31   2.0000      -0.266220        -7.2442
  32   2.0000      -0.263146        -7.1606
  33   2.0000      -0.150644        -4.0992
  34   2.0000      -0.144324        -3.9272
  35   2.0000      -0.132025        -3.5926
  36   0.0000       0.193998         5.2790
  37   0.0000       0.212658         5.7867
  38   0.0000       0.222399         6.0518
  39   0.0000       0.230115         6.2617
  40   0.0000       0.252225         6.8634

MULLIKEN ATOMIC CHARGES
-----------------------
   0 C :    0.237917
   1 C :    0.181352
   2 H :   -0.115639
   3 H :    0.036785
   4 C :    0.459389
   5 O :   -0.700817
   6 O :   -0.714962
   7 C :   -0.076423
   8 C :   -0.214239
   9 H :    0.005432
  10 H :   -0.162350
  11 H :   -0.025272
  12 H :   -0.108184
  13 C :    0.689820
  14 C :   -0.164495
  15 H :   -0.069237
  16 H :   -0.020334
  17 H :   -0.112461
  18 H :   -0.011357
  19 H :   -0.059548
  20 H :   -0.091313
  21 H :    0.035933
Sum of atomic charges:   -1.0000000

LOEWDIN ATOMIC CHARGES
----------------------
   0 C :   -0.042499
   1 C :    0.002268
   2 H :    0.012611
   3 H :   -0.000952
   4 C :   -0.306906
   5 O :   -0.327964
   6 O :   -0.322045
   7 C :   -0.042577
   8 C :   -0.039472
   9 H :    0.016767
  10 H :    0.015540
  11 H :    0.015587
  12 H :    0.004772
  13 C :    0.118737
  14 C :   -0.089948
  15 H :    0.015549
  16 H :    0.018115
  17 H :    0.008998
  18 H :    0.009309
  19 H :   -0.027883
  20 H :   -0.030514
  21 H :   -0.007493

  Mayer bond orders larger than 0.100000
B(  0-C ,  1-C ) :   1.1490 B(  0-C ,  2-H ) :   0.1630 B(  0-C ,  3-H ) :   0.1349
B(  0-C ,  8-C ) :   1.2534 B(  0-C , 11-H ) :   0.7478 B(  0-C , 12-H ) :   0.8564
B(  1-C ,  2-H ) :   0.8374 B(  1-C ,  3-H ) :   0.8477 B(  1-C ,  4-C ) :   0.9835
B(  1-C , 11-H ) :   0.1183 B(  3-H ,  4-C ) :   0.1792 B(  4-C ,  5-O ) :   1.5177
B(  4-C ,  6-O ) :   1.5033 B(  7-C ,  8-C ) :   1.1868 B(  7-C , 10-H ) :   0.1391
B(  7-C , 14-C ) :   1.1613 B(  7-C , 15-H ) :   0.9165 B(  7-C , 16-H ) :   0.9385
B(  7-C , 17-H ) :   0.2567 B(  7-C , 18-H ) :   0.1122 B(  8-C ,  9-H ) :   0.9449
B(  8-C , 10-H ) :   0.9367 B(  8-C , 11-H ) :   0.2227 B(  8-C , 12-H ) :   0.1724
B(  8-C , 15-H ) :   0.1471 B(  8-C , 16-H ) :   0.1157 B( 13-C , 14-C ) :   1.2529
B( 13-C , 19-H ) :   0.8337 B( 13-C , 20-H ) :   0.7825 B( 13-C , 21-H ) :   0.7861
B( 14-C , 17-H ) :   0.8137 B( 14-C , 18-H ) :   0.9018 B( 14-C , 19-H ) :   0.1904
B( 14-C , 20-H ) :   0.2104 B( 14-C , 21-H ) :   0.2114

Dispersion correction           -0.007971101
FINAL SINGLE POINT ENERGY      -424.701726589337

DIPOLE MOMENT
-------------
                                X             Y             Z
Electronic contribution:      8.04091       4.90403       5.32690
Nuclear contribution   :    -10.71743      -5.64916      -7.59120
                        -----------------------------------------
Total Dipole Moment    :     -2.67652      -0.74513      -2.26430
                        -----------------------------------------
Magnitude (a.u.)       :      3.58413
Magnitude (Debye)      :      9.11014

Rotational constants in cm-1:     0.078105     0.031038     0.026427
Rotational constants in MHz :  2341.531514   930.482065   792.274319

                             ****ORCA TERMINATED NORMALLY****
TOTAL RUN TIME: 0 days 0 hours 0 minutes 52 seconds 659 msec
