                         Program Version 5.0.0 -  RELEASE  -
|  1> !wB97X-D3 RIJCOSX def2-SVPD def2/J TightSCF
|  2> *xyz 0 1
|  3> C          4.08422        1.74208       -2.11472
|  4> C          4.26524        2.50052       -0.79589
|  5> H          4.86853        3.39267       -0.98113
|  6> H          3.30764        2.82457       -0.38781
|  7> C          4.98224        1.65026        0.24742
|  8> F          4.36806        1.38927        1.31371
|  9> O          6.12892        1.23351       -0.04562
| 10> C          1.99727        0.43092       -1.39922
| 11> C          3.41275        0.37689       -1.96550
| 12> H          4.04741       -0.24659       -1.32671
| 13> H          3.39077       -0.11872       -2.94284
| 14> H          5.06847        1.59850       -2.56573
| 15> H          3.50336        2.36394       -2.80457
| 16> H          1.38433        1.04154       -2.02878
| 17> H          2.02294        0.84749       -0.41397
| 18> H          1.59172       -0.55838       -1.35771
| 19> *
| 20> %MaxCore 64000
| 21> %pal nprocs 8
| 22> end
| 23> %scf
| 24>   MaxIter 150
| 25> end
| 26>
| 27>                          ****END OF INPUT****

CARTESIAN COORDINATES (ANGSTROEM)
---------------------------------
  C      4.084220    1.742080   -2.114720
  C      4.265240    2.500520   -0.795890
  H      4.868530    3.392670   -0.981130
  H      3.307640    2.824570   -0.387810
  C      4.982240    1.650260    0.247420
  F      4.368060    1.389270    1.313710
  O      6.128920    1.233510   -0.045620
  C      1.997270    0.430920   -1.399220
  C      3.412750    0.376890   -1.965500
  H      4.047410   -0.246590   -1.326710
  H      3.390770   -0.118720   -2.942840
  H      5.068470    1.598500   -2.565730
  H      3.503360    2.363940   -2.804570
  H      1.384330    1.041540   -2.028780
  H      2.022940    0.847490   -0.413970
  H      1.591720   -0.558380   -1.357710

 Total Charge           Charge          ....    0
 Multiplicity           Mult            ....    1
 Number of Electrons    NEL             ....   56
 Basis Dimension        Dim             ....  218

ORBITAL ENERGIES
----------------

  NO   OCC          E(Eh)            E(eV)
   0   2.0000     -24.874651      -676.8737
   1   2.0000     -19.254883      -523.9520
   2   2.0000     -10.474965      -285.0383
   3   2.0000     -10.320784      -280.8428
   4   2.0000     -10.304022      -280.3867
   5   2.0000     -10.294334      -280.1231
   6   2.0000     -10.280967      -279.7593
   7   2.0000      -1.423361       -38.7316
   8   2.0000      -1.142834       -31.0981
   9   2.0000      -0.935422       -25.4541
  10   2.0000      -0.868462       -23.6321
  11   2.0000      -0.796539       -21.6749
  12   2.0000      -0.758012       -20.6266
  13   2.0000      -0.697927       -18.9916
  14   2.0000      -0.658594       -17.9212
  15   2.0000      -0.636371       -17.3165
  16   2.0000      -0.613265       -16.6878
  17   2.0000      -0.579880       -15.7793
  18   2.0000      -0.569411       -15.4945
  19   2.0000      -0.523286       -14.2393
  20   2.0000      -0.511286       -13.9128
  21   2.0000      -0.504292       -13.7225
  22   2.0000      -0.485967       -13.2238
  23   2.0000      -0.454667       -12.3721
  24   2.0000      -0.435409       -11.8481
  25   2.0000      -0.433225       -11.7887
  26   2.0000      -0.430878       -11.7248
  27   2.0000      -0.392920       -10.6919
  28   0.0000       0.049288         1.3412
  29   0.0000       0.084591         2.3018
  30   0.0000       0.110051         2.9946
  31   0.0000       0.115032         3.1302
  32   0.0000       0.116424         3.1680

MULLIKEN ATOMIC CHARGES
-----------------------
   0 C :    0.006321
   1 C :    0.024005
   2 H :    0.009585
   3 H :    0.038896
   4 C :    0.808223
   5 F :   -0.394329
   6 O :   -0.519588
   7 C :    0.707090
   8 C :   -0.438645
   9 H :    0.045478
  10 H :   -0.104679
  11 H :    0.017213
  12 H :   -0.060488
  13 H :    0.017895
  14 H :   -0.110977
  15 H :   -0.045999
Sum of atomic charges:   -0.0000000

LOEWDIN ATOMIC CHARGES
----------------------
   0 C :   -0.024904
   1 C :    0.042600
   2 H :    0.041561
   3 H :    0.019808
   4 C :   -0.004037
   5 F :   -0.037770
   6 O :   -0.137605
   7 C :    0.125038
   8 C :   -0.073361
   9 H :    0.021213
  10 H :    0.025048
  11 H :    0.029144
  12 H :    0.028439
  13 H :   -0.012442
  14 H :   -0.029224
  15 H :   -0.013507

  Mayer bond orders larger than 0.100000
B(  0-C ,  1-C ) :   1.2129 B(  0-C ,  2-H ) :   0.1502 B(  0-C ,  3-H ) :   0.1446
B(  0-C ,  8-C ) :   1.2236 B(  0-C ,  9-H ) :   0.1329 B(  0-C , 10-H ) :   0.1235
B(  0-C , 11-H ) :   0.8979 B(  0-C , 12-H ) :   0.8882 B(  1-C ,  2-H ) :   0.8357
B(  1-C ,  3-H ) :   0.8911 B(  1-C ,  4-C ) :   1.0683 B(  1-C , 11-H ) :   0.1147
B(  1-C , 12-H ) :   0.1086 B(  3-H ,  4-C ) :   0.1010 B(  4-C ,  5-F ) :   0.7046
B(  4-C ,  6-O ) :   1.8195 B(  7-C ,  8-C ) :   1.2513 B(  7-C , 13-H ) :   0.7758
B(  7-C , 14-H ) :   0.8499 B(  7-C , 15-H ) :   0.7807 B(  8-C ,  9-H ) :   0.9271
B(  8-C , 10-H ) :   0.9571 B(  8-C , 12-H ) :   0.1531 B(  8-C , 13-H ) :   0.1909
B(  8-C , 14-H ) :   0.1918 B(  8-C , 15-H ) :   0.2018

Dispersion correction           -0.004941118
FINAL SINGLE POINT ENERGY      -370.673883016843

DIPOLE MOMENT
-------------
                                X             Y             Z
Electronic contribution:      7.08937       1.28401      10.13251
Nuclear contribution   :     -8.08251      -0.78397     -10.54713
                        -----------------------------------------
Total Dipole Moment    :     -0.99315       0.50004      -0.41462
                        -----------------------------------------
Magnitude (a.u.)       :      1.18671
Magnitude (Debye)      :      3.01639

Rotational constants in cm-1:     0.130226     0.059358     0.051048
Rotational constants in MHz :  3904.073232  1779.517414  1530.385259

                             ****ORCA TERMINATED NORMALLY****
TOTAL RUN TIME: 0 days 0 hours 0 minutes 27 seconds 367 msec
