                         Program Version 5.0.0 -  RELEASE  -
|  1> !wB97X-D3 RIJCOSX def2-SVPD def2/J TightSCF
|  2> *xyz 0 1
|  3> C          3.91385       -1.65829        3.01513
|  4> C          5.03927       -0.90115        2.49282
|  5> C          6.21038       -1.41726        2.17824
|  6> N          6.53591       -2.67712        2.55608
|  7> N          7.07675       -0.70082        1.47891
|  8> H          7.95464       -1.12155        1.20755
|  9> H          6.75616        0.10664        0.96028
| 10> H          4.84217        0.01761        2.11519
| 11> H          5.99388       -3.12692        3.28278
| 12> H          7.49844       -2.97548        2.46878
| 13> C          3.13916       -2.37657        1.91061
| 14> H          3.26723       -0.93940        3.52069
| 15> H          4.24720       -2.35509        3.79006
| 16> C          2.39995       -1.38958        1.00949
| 17> H          2.44075       -3.08712        2.36298
| 18> H          3.84448       -2.97046        1.31868
| 19> H          1.87065       -1.92698        0.25058
| 20> H          3.10498       -0.72749        0.55181
| 21> H          1.70633       -0.82279        1.59477
| 22> *
| 23> %MaxCore 64000
| 24> %pal nprocs 8
| 25> end
| 26> %scf
| 27>   MaxIter 150
| 28> end
| 29>
| 30>
| 31>                          ****END OF INPUT****

CARTESIAN COORDINATES (ANGSTROEM)
---------------------------------
  C      3.913850   -1.658290    3.015130
  C      5.039270   -0.901150    2.492820
  C      6.210380   -1.417260    2.178240
  N      6.535910   -2.677120    2.556080
  N      7.076750   -0.700820    1.478910
  H      7.954640   -1.121550    1.207550
  H      6.756160    0.106640    0.960280
  H      4.842170    0.017610    2.115190
  H      5.993880   -3.126920    3.282780
  H      7.498440   -2.975480    2.468780
  C      3.139160   -2.376570    1.910610
  H      3.267230   -0.939400    3.520690
  H      4.247200   -2.355090    3.790060
  C      2.399950   -1.389580    1.009490
  H      2.440750   -3.087120    2.362980
  H      3.844480   -2.970460    1.318680
  H      1.870650   -1.926980    0.250580
  H      3.104980   -0.727490    0.551810
  H      1.706330   -0.822790    1.594770

 Total Charge           Charge          ....    0
 Multiplicity           Mult            ....    1
 Number of Electrons    NEL             ....   56
 Basis Dimension        Dim             ....  236

ORBITAL ENERGIES
----------------

  NO   OCC          E(Eh)            E(eV)
   0   2.0000     -14.439307      -392.9135
   1   2.0000     -14.437409      -392.8619
   2   2.0000     -10.334555      -281.2175
   3   2.0000     -10.265201      -279.3303
   4   2.0000     -10.263149      -279.2745
   5   2.0000     -10.256829      -279.1025
   6   2.0000     -10.210647      -277.8458
   7   2.0000      -1.071324       -29.1522
   8   2.0000      -0.977971       -26.6120
   9   2.0000      -0.898212       -24.4416
  10   2.0000      -0.830497       -22.5990
  11   2.0000      -0.764846       -20.8125
  12   2.0000      -0.701064       -19.0769
  13   2.0000      -0.673767       -18.3341
  14   2.0000      -0.644827       -17.5466
  15   2.0000      -0.610735       -16.6190
  16   2.0000      -0.573931       -15.6175
  17   2.0000      -0.541680       -14.7399
  18   2.0000      -0.538690       -14.6585
  19   2.0000      -0.507368       -13.8062
  20   2.0000      -0.492376       -13.3982
  21   2.0000      -0.467656       -12.7256
  22   2.0000      -0.455976       -12.4077
  23   2.0000      -0.423684       -11.5290
  24   2.0000      -0.407524       -11.0893
  25   2.0000      -0.403937       -10.9917
  26   2.0000      -0.363345        -9.8871
  27   2.0000      -0.248963        -6.7746
  28   0.0000       0.087532         2.3819
  29   0.0000       0.112021         3.0482
  30   0.0000       0.114564         3.1174
  31   0.0000       0.129368         3.5203
  32   0.0000       0.141132         3.8404

MULLIKEN ATOMIC CHARGES
-----------------------
   0 C :    0.227420
   1 C :   -0.322894
   2 C :    0.911349
   3 N :   -0.084135
   4 N :   -0.070439
   5 H :   -0.121542
   6 H :   -0.022506
   7 H :   -0.240118
   8 H :   -0.004611
   9 H :   -0.241403
  10 C :   -0.241937
  11 H :   -0.043116
  12 H :   -0.128151
  13 C :    0.654651
  14 H :   -0.103721
  15 H :   -0.045153
  16 H :   -0.036412
  17 H :   -0.116088
  18 H :    0.028804
Sum of atomic charges:    0.0000000

LOEWDIN ATOMIC CHARGES
----------------------
   0 C :   -0.067119
   1 C :   -0.042340
   2 C :   -0.216307
   3 N :    0.197458
   4 N :    0.170750
   5 H :   -0.006315
   6 H :    0.011107
   7 H :   -0.046007
   8 H :   -0.014010
   9 H :   -0.010584
  10 C :   -0.077114
  11 H :    0.017694
  12 H :    0.001487
  13 C :    0.114976
  14 H :    0.013197
  15 H :    0.016730
  16 H :   -0.021195
  17 H :   -0.025372
  18 H :   -0.017036

  Mayer bond orders larger than 0.100000
B(  0-C ,  1-C ) :   1.2174 B(  0-C ,  7-H ) :   0.3248 B(  0-C , 10-C ) :   1.0902
B(  0-C , 11-H ) :   0.7388 B(  0-C , 12-H ) :   0.9173 B(  0-C , 15-H ) :   0.1402
B(  1-C ,  2-C ) :   1.7760 B(  1-C ,  3-N ) :   0.2134 B(  1-C ,  4-N ) :   0.3169
B(  1-C ,  7-H ) :   0.7389 B(  1-C , 11-H ) :   0.2906 B(  1-C , 12-H ) :   0.2350
B(  2-C ,  3-N ) :   0.8441 B(  2-C ,  4-N ) :   0.7879 B(  2-C ,  7-H ) :   0.2175
B(  2-C ,  9-H ) :  -0.1534 B(  2-C , 12-H ) :  -0.1132 B(  3-N ,  4-N ) :   0.1008
B(  3-N ,  8-H ) :   1.0059 B(  3-N ,  9-H ) :   1.2993 B(  4-N ,  5-H ) :   1.1404
B(  4-N ,  6-H ) :   1.1488 B(  5-H ,  6-H ) :  -0.1490 B(  8-H ,  9-H ) :  -0.1768
B( 10-C , 13-C ) :   1.2585 B( 10-C , 14-H ) :   0.9865 B( 10-C , 15-H ) :   0.9564
B( 10-C , 16-H ) :   0.2031 B( 10-C , 17-H ) :   0.1993 B( 10-C , 18-H ) :   0.1963
B( 13-C , 16-H ) :   0.7975 B( 13-C , 17-H ) :   0.8447 B( 13-C , 18-H ) :   0.7818

Dispersion correction           -0.005293992
FINAL SINGLE POINT ENERGY      -306.948411393234

DIPOLE MOMENT
-------------
                                X             Y             Z
Electronic contribution:      6.09935       0.39337       1.08028
Nuclear contribution   :     -5.20491      -0.66934      -1.34917
                        -----------------------------------------
Total Dipole Moment    :      0.89445      -0.27597      -0.26890
                        -----------------------------------------
Magnitude (a.u.)       :      0.97391
Magnitude (Debye)      :      2.47549

Rotational constants in cm-1:     0.160002     0.049848     0.044470
Rotational constants in MHz :  4796.743477  1494.412607  1333.165890

                             ****ORCA TERMINATED NORMALLY****
TOTAL RUN TIME: 0 days 0 hours 0 minutes 31 seconds 690 msec
