                         Program Version 5.0.0 -  RELEASE  -
|  1> !wB97X-D3 RIJCOSX def2-SVPD def2/J TightSCF
|  2> *xyz 0 1
|  3> C          3.91385       -1.65829        3.01513
|  4> C          5.03927       -0.90115        2.49282
|  5> C          4.08422        1.74208       -2.11472
|  6> C          4.26524        2.50052       -0.79589
|  7> C          6.21038       -1.41726        2.17824
|  8> N          6.53591       -2.67712        2.55608
|  9> N          7.07675       -0.70082        1.47891
| 10> H          7.95464       -1.12155        1.20755
| 11> H          6.75616        0.10664        0.96028
| 12> H          4.84217        0.01761        2.11519
| 13> H          5.99388       -3.12692        3.28278
| 14> H          7.49844       -2.97548        2.46878
| 15> C          3.13916       -2.37657        1.91061
| 16> H          3.26723       -0.93940        3.52069
| 17> H          4.24720       -2.35509        3.79006
| 18> C          1.99727        0.43092       -1.39922
| 19> C          3.41275        0.37689       -1.96550
| 20> H          4.04741       -0.24659       -1.32671
| 21> H          3.39077       -0.11872       -2.94284
| 22> H          5.06847        1.59850       -2.56573
| 23> H          3.50336        2.36394       -2.80457
| 24> C          2.39995       -1.38958        1.00949
| 25> H          2.44075       -3.08712        2.36298
| 26> H          3.84448       -2.97046        1.31868
| 27> C          2.07018       -1.93671       -0.37240
| 28> H          1.48161       -1.06154        1.50991
| 29> H          3.00863       -0.49000        0.89745
| 30> C          1.32224       -0.93577       -1.25641
| 31> H          1.47275       -2.85090       -0.28400
| 32> H          3.00354       -2.23404       -0.86254
| 33> H          1.37644        1.05892       -2.04742
| 34> H          2.01534        0.92978       -0.42653
| 35> H          0.31665       -0.78721       -0.84828
| 36> H          1.18561       -1.37925       -2.24861
| 37> H          4.73963        3.44035       -0.98715
| 38> H          4.87389        1.92223       -0.13253
| 39> H          3.30865        2.66865       -0.34693
| 40> *
| 41> %MaxCore 64000
| 42> %pal nprocs 8
| 43> end
| 44> %scf
| 45>   MaxIter 150
| 46> end
| 47>
| 48>                          ****END OF INPUT****

CARTESIAN COORDINATES (ANGSTROEM)
---------------------------------
  C      3.913850   -1.658290    3.015130
  C      5.039270   -0.901150    2.492820
  C      4.084220    1.742080   -2.114720
  C      4.265240    2.500520   -0.795890
  C      6.210380   -1.417260    2.178240
  N      6.535910   -2.677120    2.556080
  N      7.076750   -0.700820    1.478910
  H      7.954640   -1.121550    1.207550
  H      6.756160    0.106640    0.960280
  H      4.842170    0.017610    2.115190
  H      5.993880   -3.126920    3.282780
  H      7.498440   -2.975480    2.468780
  C      3.139160   -2.376570    1.910610
  H      3.267230   -0.939400    3.520690
  H      4.247200   -2.355090    3.790060
  C      1.997270    0.430920   -1.399220
  C      3.412750    0.376890   -1.965500
  H      4.047410   -0.246590   -1.326710
  H      3.390770   -0.118720   -2.942840
  H      5.068470    1.598500   -2.565730
  H      3.503360    2.363940   -2.804570
  C      2.399950   -1.389580    1.009490
  H      2.440750   -3.087120    2.362980
  H      3.844480   -2.970460    1.318680
  C      2.070180   -1.936710   -0.372400
  H      1.481610   -1.061540    1.509910
  H      3.008630   -0.490000    0.897450
  C      1.322240   -0.935770   -1.256410
  H      1.472750   -2.850900   -0.284000
  H      3.003540   -2.234040   -0.862540
  H      1.376440    1.058920   -2.047420
  H      2.015340    0.929780   -0.426530
  H      0.316650   -0.787210   -0.848280
  H      1.185610   -1.379250   -2.248610
  H      4.739630    3.440350   -0.987150
  H      4.873890    1.922230   -0.132530
  H      3.308650    2.668650   -0.346930

 Total Charge           Charge          ....    0
 Multiplicity           Mult            ....    1
 Number of Electrons    NEL             ....  104
 Basis Dimension        Dim             ....  452

ORBITAL ENERGIES
----------------

  NO   OCC          E(Eh)            E(eV)
   0   2.0000     -14.440133      -392.9360
   1   2.0000     -14.438205      -392.8835
   2   2.0000     -10.335404      -281.2407
   3   2.0000     -10.280007      -279.7332
   4   2.0000     -10.276120      -279.6274
   5   2.0000     -10.274468      -279.5825
   6   2.0000     -10.274146      -279.5737
   7   2.0000     -10.270672      -279.4792
   8   2.0000     -10.269416      -279.4450
   9   2.0000     -10.266487      -279.3653
  10   2.0000     -10.264294      -279.3057
  11   2.0000     -10.264136      -279.3013
  12   2.0000     -10.211612      -277.8721
  13   2.0000      -1.072043       -29.1718
  14   2.0000      -0.978667       -26.6309
  15   2.0000      -0.923409       -25.1272
  16   2.0000      -0.903220       -24.5779
  17   2.0000      -0.877669       -23.8826
  18   2.0000      -0.838106       -22.8060
  19   2.0000      -0.802924       -21.8487
  20   2.0000      -0.770304       -20.9610
  21   2.0000      -0.736242       -20.0342
  22   2.0000      -0.703721       -19.1492
  23   2.0000      -0.682449       -18.5704
  24   2.0000      -0.674301       -18.3487
  25   2.0000      -0.649228       -17.6664
  26   2.0000      -0.641539       -17.4572
  27   2.0000      -0.612611       -16.6700
  28   2.0000      -0.574822       -15.6417
  29   2.0000      -0.572012       -15.5652
  30   2.0000      -0.565545       -15.3893
  31   2.0000      -0.547795       -14.9063
  32   2.0000      -0.537920       -14.6376
  33   2.0000      -0.528481       -14.3807
  34   2.0000      -0.516312       -14.0496
  35   2.0000      -0.502195       -13.6654
  36   2.0000      -0.490579       -13.3493
  37   2.0000      -0.486408       -13.2358
  38   2.0000      -0.479826       -13.0567
  39   2.0000      -0.462696       -12.5906
  40   2.0000      -0.456680       -12.4269
  41   2.0000      -0.447739       -12.1836
  42   2.0000      -0.433066       -11.7843
  43   2.0000      -0.427108       -11.6222
  44   2.0000      -0.415174       -11.2975
  45   2.0000      -0.407117       -11.0782
  46   2.0000      -0.402571       -10.9545
  47   2.0000      -0.391581       -10.6554
  48   2.0000      -0.391002       -10.6397
  49   2.0000      -0.389128       -10.5887
  50   2.0000      -0.363877        -9.9016
  51   2.0000      -0.249816        -6.7978
  52   0.0000       0.080898         2.2013
  53   0.0000       0.098245         2.6734
  54   0.0000       0.105286         2.8650
  55   0.0000       0.107381         2.9220
  56   0.0000       0.118069         3.2128

MULLIKEN ATOMIC CHARGES
-----------------------
   0 C :    0.457971
   1 C :   -0.113918
   2 C :   -0.087974
   3 C :    1.201444
   4 C :    0.812935
   5 N :   -0.051071
   6 N :    0.120499
   7 H :   -0.109272
   8 H :   -0.214530
   9 H :   -0.338694
  10 H :   -0.012089
  11 H :   -0.256838
  12 C :    0.354205
  13 H :   -0.035232
  14 H :   -0.188109
  15 C :   -0.217733
  16 C :   -0.017573
  17 H :   -0.099025
  18 H :   -0.089746
  19 H :   -0.102233
  20 H :   -0.055175
  21 C :   -0.057833
  22 H :   -0.078932
  23 H :   -0.059314
  24 C :   -0.063624
  25 H :    0.067575
  26 H :   -0.339919
  27 C :    0.617786
  28 H :   -0.321309
  29 H :    0.133302
  30 H :   -0.384517
  31 H :    0.155240
  32 H :    0.007044
  33 H :    0.001205
  34 H :   -0.026950
  35 H :   -0.577311
  36 H :   -0.030285
Sum of atomic charges:    0.0000000

LOEWDIN ATOMIC CHARGES
----------------------
   0 C :   -0.058602
   1 C :   -0.040029
   2 C :   -0.076920
   3 C :    0.126120
   4 C :   -0.213328
   5 N :    0.198630
   6 N :    0.175658
   7 H :   -0.004648
   8 H :    0.002042
   9 H :   -0.051583
  10 H :   -0.013728
  11 H :   -0.010244
  12 C :   -0.031165
  13 H :    0.021241
  14 H :    0.002331
  15 C :   -0.042385
  16 C :   -0.044978
  17 H :    0.013101
  18 H :    0.026682
  19 H :    0.016295
  20 H :    0.021214
  21 C :   -0.039480
  22 H :    0.019174
  23 H :    0.019335
  24 C :   -0.043789
  25 H :    0.034479
  26 H :   -0.005656
  27 C :   -0.036216
  28 H :    0.024321
  29 H :    0.016950
  30 H :    0.025312
  31 H :    0.001679
  32 H :    0.022102
  33 H :    0.020749
  34 H :   -0.017594
  35 H :   -0.030310
  36 H :   -0.026760

  Mayer bond orders larger than 0.100000
B(  0-C ,  1-C ) :   1.1070 B(  0-C ,  9-H ) :   0.3794 B(  0-C , 12-C ) :   1.0593
B(  0-C , 13-H ) :   0.7173 B(  0-C , 14-H ) :   0.7946 B(  0-C , 23-H ) :   0.1160
B(  1-C ,  4-C ) :   1.8219 B(  1-C ,  5-N ) :   0.2080 B(  1-C ,  6-N ) :   0.2492
B(  1-C ,  9-H ) :   0.5228 B(  1-C , 13-H ) :   0.2909 B(  1-C , 14-H ) :   0.2023
B(  2-C ,  3-C ) :   1.1333 B(  2-C , 16-C ) :   1.1468 B(  2-C , 19-H ) :   0.7862
B(  2-C , 20-H ) :   0.8898 B(  2-C , 34-H ) :   0.2092 B(  2-C , 35-H ) :   0.3418
B(  2-C , 36-H ) :   0.2235 B(  3-C , 34-H ) :   0.6940 B(  3-C , 35-H ) :   0.5002
B(  3-C , 36-H ) :   0.6136 B(  4-C ,  5-N ) :   0.8214 B(  4-C ,  6-N ) :   0.8209
B(  4-C ,  8-H ) :  -0.1625 B(  4-C ,  9-H ) :   0.2926 B(  4-C , 11-H ) :  -0.1575
B(  5-N , 10-H ) :   1.0051 B(  5-N , 11-H ) :   1.3054 B(  6-N ,  7-H ) :   1.1737
B(  6-N ,  8-H ) :   1.1894 B(  7-H ,  8-H ) :  -0.2099 B( 10-H , 11-H ) :  -0.1814
B( 12-C , 14-H ) :   0.1203 B( 12-C , 21-C ) :   1.1287 B( 12-C , 22-H ) :   0.8557
B( 12-C , 23-H ) :   0.9071 B( 12-C , 25-H ) :   0.1382 B( 15-C , 16-C ) :   1.2287
B( 15-C , 17-H ) :   0.1233 B( 15-C , 18-H ) :   0.1866 B( 15-C , 27-C ) :   1.1416
B( 15-C , 30-H ) :   1.0877 B( 15-C , 31-H ) :   0.8349 B( 15-C , 32-H ) :   0.2601
B( 15-C , 33-H ) :   0.1367 B( 16-C , 17-H ) :   0.9129 B( 16-C , 18-H ) :   0.9169
B( 16-C , 19-H ) :   0.2701 B( 16-C , 20-H ) :   0.1290 B( 16-C , 30-H ) :   0.1227
B( 16-C , 31-H ) :   0.1149 B( 21-C , 22-H ) :   0.1943 B( 21-C , 24-C ) :   1.2338
B( 21-C , 25-H ) :   0.7656 B( 21-C , 26-H ) :   1.0216 B( 21-C , 28-H ) :   0.1579
B( 24-C , 25-H ) :   0.1046 B( 24-C , 27-C ) :   1.1155 B( 24-C , 28-H ) :   1.0327
B( 24-C , 29-H ) :   0.8566 B( 24-C , 32-H ) :   0.1117 B( 24-C , 33-H ) :   0.2305
B( 25-H , 26-H ) :   0.1222 B( 26-H , 31-H ) :   0.1129 B( 27-C , 32-H ) :   0.6866
B( 27-C , 33-H ) :   0.7049 B( 35-H , 36-H ) :   0.2814

Dispersion correction           -0.015173939
FINAL SINGLE POINT ENERGY      -542.620433361501

DIPOLE MOMENT
-------------
                                X             Y             Z
Electronic contribution:      6.60668      -4.73747       6.03378
Nuclear contribution   :     -5.74127       4.44818      -6.27908
                        -----------------------------------------
Total Dipole Moment    :      0.86541      -0.28930      -0.24530
                        -----------------------------------------
Magnitude (a.u.)       :      0.94488
Magnitude (Debye)      :      2.40170

Rotational constants in cm-1:     0.028406     0.014217     0.010674
Rotational constants in MHz :   851.592033   426.215445   319.999211

                             ****ORCA TERMINATED NORMALLY****
TOTAL RUN TIME: 0 days 0 hours 2 minutes 38 seconds 308 msec
