                         Program Version 5.0.0 -  RELEASE  -
|  1> !wB97X-D3 RIJCOSX def2-SVPD def2/J TightSCF
|  2> *xyz 0 1
|  3> C          3.91385       -1.65829        3.01513
|  4> C          5.03927       -0.90115        2.49282
|  5> C          6.21038       -1.41726        2.17824
|  6> N          6.53591       -2.67712        2.55608
|  7> N          7.07675       -0.70082        1.47891
|  8> H          7.95464       -1.12155        1.20755
|  9> H          6.75616        0.10664        0.96028
| 10> H          4.84217        0.01761        2.11519
| 11> H          5.99388       -3.12692        3.28278
| 12> H          7.49844       -2.97548        2.46878
| 13> C          3.13916       -2.37657        1.91061
| 14> H          3.26723       -0.93940        3.52069
| 15> H          4.24720       -2.35509        3.79006
| 16> C          2.39995       -1.38958        1.00949
| 17> H          2.44075       -3.08712        2.36298
| 18> H          3.84448       -2.97046        1.31868
| 19> C          2.07018       -1.93671       -0.37240
| 20> H          1.48161       -1.06154        1.50991
| 21> H          3.00863       -0.49000        0.89745
| 22> C          1.32224       -0.93577       -1.25641
| 23> H          1.47275       -2.85090       -0.28400
| 24> H          3.00354       -2.23404       -0.86254
| 25> H          1.12209       -1.38090       -2.20862
| 26> H          1.92280       -0.06049       -1.39103
| 27> H          0.39898       -0.66619       -0.78757
| 28> *
| 29> %MaxCore 64000
| 30> %pal nprocs 8
| 31> end
| 32> %scf
| 33>   MaxIter 150
| 34> end
| 35>
| 36>                          ****END OF INPUT****

CARTESIAN COORDINATES (ANGSTROEM)
---------------------------------
  C      3.913850   -1.658290    3.015130
  C      5.039270   -0.901150    2.492820
  C      6.210380   -1.417260    2.178240
  N      6.535910   -2.677120    2.556080
  N      7.076750   -0.700820    1.478910
  H      7.954640   -1.121550    1.207550
  H      6.756160    0.106640    0.960280
  H      4.842170    0.017610    2.115190
  H      5.993880   -3.126920    3.282780
  H      7.498440   -2.975480    2.468780
  C      3.139160   -2.376570    1.910610
  H      3.267230   -0.939400    3.520690
  H      4.247200   -2.355090    3.790060
  C      2.399950   -1.389580    1.009490
  H      2.440750   -3.087120    2.362980
  H      3.844480   -2.970460    1.318680
  C      2.070180   -1.936710   -0.372400
  H      1.481610   -1.061540    1.509910
  H      3.008630   -0.490000    0.897450
  C      1.322240   -0.935770   -1.256410
  H      1.472750   -2.850900   -0.284000
  H      3.003540   -2.234040   -0.862540
  H      1.122090   -1.380900   -2.208620
  H      1.922800   -0.060490   -1.391030
  H      0.398980   -0.666190   -0.787570

 Total Charge           Charge          ....    0
 Multiplicity           Mult            ....    1
 Number of Electrons    NEL             ....   72
 Basis Dimension        Dim             ....  308

ORBITAL ENERGIES
----------------

  NO   OCC          E(Eh)            E(eV)
   0   2.0000     -14.439801      -392.9270
   1   2.0000     -14.437841      -392.8736
   2   2.0000     -10.335065      -281.2314
   3   2.0000     -10.271982      -279.5149
   4   2.0000     -10.266558      -279.3673
   5   2.0000     -10.264131      -279.3012
   6   2.0000     -10.263978      -279.2970
   7   2.0000     -10.262717      -279.2627
   8   2.0000     -10.211072      -277.8574
   9   2.0000      -1.071751       -29.1638
  10   2.0000      -0.978394       -26.6234
  11   2.0000      -0.909924       -24.7603
  12   2.0000      -0.872929       -23.7536
  13   2.0000      -0.817711       -22.2510
  14   2.0000      -0.765304       -20.8250
  15   2.0000      -0.708560       -19.2809
  16   2.0000      -0.682796       -18.5798
  17   2.0000      -0.670902       -18.2562
  18   2.0000      -0.644269       -17.5315
  19   2.0000      -0.612105       -16.6562
  20   2.0000      -0.574228       -15.6256
  21   2.0000      -0.564813       -15.3694
  22   2.0000      -0.539336       -14.6761
  23   2.0000      -0.522076       -14.2064
  24   2.0000      -0.508254       -13.8303
  25   2.0000      -0.500418       -13.6171
  26   2.0000      -0.483900       -13.1676
  27   2.0000      -0.466434       -12.6923
  28   2.0000      -0.460876       -12.5411
  29   2.0000      -0.430596       -11.7171
  30   2.0000      -0.419211       -11.4073
  31   2.0000      -0.405740       -11.0408
  32   2.0000      -0.398806       -10.8521
  33   2.0000      -0.393455       -10.7064
  34   2.0000      -0.363659        -9.8957
  35   2.0000      -0.249541        -6.7903
  36   0.0000       0.086917         2.3651
  37   0.0000       0.104603         2.8464
  38   0.0000       0.113319         3.0836
  39   0.0000       0.120546         3.2802
  40   0.0000       0.126779         3.4498

MULLIKEN ATOMIC CHARGES
-----------------------
   0 C :    0.394938
   1 C :   -0.268538
   2 C :    0.903002
   3 N :   -0.072712
   4 N :   -0.055780
   5 H :   -0.123131
   6 H :   -0.026857
   7 H :   -0.256377
   8 H :   -0.004665
   9 H :   -0.249191
  10 C :    0.126684
  11 H :   -0.061263
  12 H :   -0.121295
  13 C :   -0.069779
  14 H :   -0.107504
  15 H :   -0.083860
  16 C :   -0.347244
  17 H :    0.041432
  18 H :   -0.201255
  19 C :    0.796885
  20 H :   -0.076691
  21 H :   -0.028964
  22 H :   -0.054953
  23 H :   -0.039967
  24 H :   -0.012917
Sum of atomic charges:    0.0000000

LOEWDIN ATOMIC CHARGES
----------------------
   0 C :   -0.061512
   1 C :   -0.042159
   2 C :   -0.214922
   3 N :    0.197992
   4 N :    0.171192
   5 H :   -0.006146
   6 H :    0.011402
   7 H :   -0.049068
   8 H :   -0.013909
   9 H :   -0.010455
  10 C :   -0.037416
  11 H :    0.020507
  12 H :    0.002488
  13 C :   -0.050770
  14 H :    0.018800
  15 H :    0.017878
  16 C :   -0.092481
  17 H :    0.029084
  18 H :    0.011447
  19 C :    0.110417
  20 H :    0.022874
  21 H :    0.021854
  22 H :   -0.020740
  23 H :   -0.018459
  24 H :   -0.017901

  Mayer bond orders larger than 0.100000
B(  0-C ,  1-C ) :   1.1396 B(  0-C ,  7-H ) :   0.3527 B(  0-C , 10-C ) :   1.0873
B(  0-C , 11-H ) :   0.7408 B(  0-C , 12-H ) :   0.8272 B(  1-C ,  2-C ) :   1.8000
B(  1-C ,  3-N ) :   0.2141 B(  1-C ,  4-N ) :   0.3086 B(  1-C ,  7-H ) :   0.7248
B(  1-C , 11-H ) :   0.2783 B(  1-C , 12-H ) :   0.2028 B(  2-C ,  3-N ) :   0.8375
B(  2-C ,  4-N ) :   0.7983 B(  2-C ,  6-H ) :  -0.1016 B(  2-C ,  7-H ) :   0.2169
B(  2-C ,  9-H ) :  -0.1568 B(  2-C , 12-H ) :  -0.1135 B(  3-N ,  8-H ) :   1.0056
B(  3-N ,  9-H ) :   1.3025 B(  4-N ,  5-H ) :   1.1347 B(  4-N ,  6-H ) :   1.1503
B(  5-H ,  6-H ) :  -0.1490 B(  8-H ,  9-H ) :  -0.1808 B( 10-C , 12-H ) :   0.1067
B( 10-C , 13-C ) :   1.1924 B( 10-C , 14-H ) :   0.9281 B( 10-C , 15-H ) :   0.9414
B( 10-C , 16-C ) :   0.1031 B( 10-C , 17-H ) :   0.1825 B( 13-C , 14-H ) :   0.1666
B( 13-C , 16-C ) :   1.1822 B( 13-C , 17-H ) :   0.8519 B( 13-C , 18-H ) :   0.9564
B( 13-C , 20-H ) :   0.1444 B( 13-C , 21-H ) :   0.1229 B( 16-C , 19-C ) :   1.2038
B( 16-C , 20-H ) :   0.9292 B( 16-C , 21-H ) :   0.9565 B( 16-C , 22-H ) :   0.2901
B( 16-C , 23-H ) :   0.1745 B( 16-C , 24-H ) :   0.1561 B( 17-H , 18-H ) :   0.1544
B( 19-C , 22-H ) :   0.6884 B( 19-C , 23-H ) :   0.8183 B( 19-C , 24-H ) :   0.8225

Dispersion correction           -0.007739086
FINAL SINGLE POINT ENERGY      -385.504707268337

DIPOLE MOMENT
-------------
                                X             Y             Z
Electronic contribution:      8.49422      -0.07910       4.31749
Nuclear contribution   :     -7.57562      -0.20026      -4.55230
                        -----------------------------------------
Total Dipole Moment    :      0.91860      -0.27936      -0.23481
                        -----------------------------------------
Magnitude (a.u.)       :      0.98844
Magnitude (Debye)      :      2.51240

Rotational constants in cm-1:     0.091118     0.023031     0.020811
Rotational constants in MHz :  2731.647612   690.437735   623.884373

                             ****ORCA TERMINATED NORMALLY****
TOTAL RUN TIME: 0 days 0 hours 0 minutes 57 seconds 650 msec
