                         Program Version 5.0.0 -  RELEASE  -
|  1> !wB97X-D3 RIJCOSX def2-SVPD def2/J TightSCF
|  2> *xyz 0 1
|  3> C          4.08422        1.74208       -2.11472
|  4> C          4.26524        2.50052       -0.79589
|  5> H          4.86853        3.39267       -0.98113
|  6> H          3.30764        2.82457       -0.38781
|  7> C          4.98224        1.65026        0.24742
|  8> F          4.36806        1.38927        1.31371
|  9> O          6.12892        1.23351       -0.04562
| 10> C          3.13916       -2.37657        1.91061
| 11> C          1.99727        0.43092       -1.39922
| 12> C          3.41275        0.37689       -1.96550
| 13> H          4.04741       -0.24659       -1.32671
| 14> H          3.39077       -0.11872       -2.94284
| 15> H          5.06847        1.59850       -2.56573
| 16> H          3.50336        2.36394       -2.80457
| 17> C          2.39995       -1.38958        1.00949
| 18> C          2.07018       -1.93671       -0.37240
| 19> H          1.48161       -1.06154        1.50991
| 20> H          3.00863       -0.49000        0.89745
| 21> C          1.32224       -0.93577       -1.25641
| 22> H          1.47275       -2.85090       -0.28400
| 23> H          3.00354       -2.23404       -0.86254
| 24> H          1.37644        1.05892       -2.04742
| 25> H          2.01534        0.92978       -0.42653
| 26> H          0.31665       -0.78721       -0.84828
| 27> H          1.18561       -1.37925       -2.24861
| 28> H          4.03659       -2.69929        1.42546
| 29> H          2.51297       -3.22286        2.10186
| 30> H          3.38580       -1.89904        2.83583
| 31> *
| 32> %MaxCore 64000
| 33> %pal nprocs 8
| 34> end
| 35> %scf
| 36>   MaxIter 150
| 37> end
| 38>
| 39>                          ****END OF INPUT****

CARTESIAN COORDINATES (ANGSTROEM)
---------------------------------
  C      4.084220    1.742080   -2.114720
  C      4.265240    2.500520   -0.795890
  H      4.868530    3.392670   -0.981130
  H      3.307640    2.824570   -0.387810
  C      4.982240    1.650260    0.247420
  F      4.368060    1.389270    1.313710
  O      6.128920    1.233510   -0.045620
  C      3.139160   -2.376570    1.910610
  C      1.997270    0.430920   -1.399220
  C      3.412750    0.376890   -1.965500
  H      4.047410   -0.246590   -1.326710
  H      3.390770   -0.118720   -2.942840
  H      5.068470    1.598500   -2.565730
  H      3.503360    2.363940   -2.804570
  C      2.399950   -1.389580    1.009490
  C      2.070180   -1.936710   -0.372400
  H      1.481610   -1.061540    1.509910
  H      3.008630   -0.490000    0.897450
  C      1.322240   -0.935770   -1.256410
  H      1.472750   -2.850900   -0.284000
  H      3.003540   -2.234040   -0.862540
  H      1.376440    1.058920   -2.047420
  H      2.015340    0.929780   -0.426530
  H      0.316650   -0.787210   -0.848280
  H      1.185610   -1.379250   -2.248610
  H      4.036590   -2.699290    1.425460
  H      2.512970   -3.222860    2.101860
  H      3.385800   -1.899040    2.835830

 Total Charge           Charge          ....    0
 Multiplicity           Mult            ....    1
 Number of Electrons    NEL             ....   88
 Basis Dimension        Dim             ....  362

ORBITAL ENERGIES
----------------

  NO   OCC          E(Eh)            E(eV)
   0   2.0000     -24.875885      -676.9072
   1   2.0000     -19.255603      -523.9716
   2   2.0000     -10.475411      -285.0504
   3   2.0000     -10.320354      -280.8311
   4   2.0000     -10.303896      -280.3833
   5   2.0000     -10.291923      -280.0575
   6   2.0000     -10.289041      -279.9790
   7   2.0000     -10.285932      -279.8944
   8   2.0000     -10.281706      -279.7794
   9   2.0000     -10.280525      -279.7473
  10   2.0000     -10.267941      -279.4049
  11   2.0000      -1.424435       -38.7608
  12   2.0000      -1.143291       -31.1105
  13   2.0000      -0.941921       -25.6310
  14   2.0000      -0.914861       -24.8946
  15   2.0000      -0.874232       -23.7891
  16   2.0000      -0.832927       -22.6651
  17   2.0000      -0.788323       -21.4513
  18   2.0000      -0.762873       -20.7588
  19   2.0000      -0.726809       -19.7775
  20   2.0000      -0.700265       -19.0552
  21   2.0000      -0.665807       -18.1175
  22   2.0000      -0.657038       -17.8789
  23   2.0000      -0.637228       -17.3399
  24   2.0000      -0.611741       -16.6463
  25   2.0000      -0.583084       -15.8665
  26   2.0000      -0.580837       -15.8054
  27   2.0000      -0.558337       -15.1931
  28   2.0000      -0.538675       -14.6581
  29   2.0000      -0.534147       -14.5349
  30   2.0000      -0.520327       -14.1588
  31   2.0000      -0.502266       -13.6673
  32   2.0000      -0.499270       -13.5858
  33   2.0000      -0.483166       -13.1476
  34   2.0000      -0.463812       -12.6210
  35   2.0000      -0.462615       -12.5884
  36   2.0000      -0.450323       -12.2539
  37   2.0000      -0.440181       -11.9779
  38   2.0000      -0.434192       -11.8150
  39   2.0000      -0.424834       -11.5603
  40   2.0000      -0.410395       -11.1674
  41   2.0000      -0.405703       -11.0397
  42   2.0000      -0.404313       -11.0019
  43   2.0000      -0.392306       -10.6752
  44   0.0000       0.048448         1.3183
  45   0.0000       0.086282         2.3478
  46   0.0000       0.099638         2.7113
  47   0.0000       0.101949         2.7742
  48   0.0000       0.107022         2.9122

MULLIKEN ATOMIC CHARGES
-----------------------
   0 C :    0.312957
   1 C :    0.083037
   2 H :   -0.096895
   3 H :    0.149114
   4 C :    0.868516
   5 F :   -0.433003
   6 O :   -0.541695
   7 C :    1.058740
   8 C :   -0.134116
   9 C :   -0.136375
  10 H :   -0.024735
  11 H :   -0.125245
  12 H :   -0.009921
  13 H :   -0.069714
  14 C :    0.019553
  15 C :   -0.120354
  16 H :   -0.080435
  17 H :   -0.755876
  18 C :    0.571520
  19 H :   -0.336931
  20 H :    0.109822
  21 H :   -0.266478
  22 H :    0.058827
  23 H :   -0.005146
  24 H :    0.010513
  25 H :   -0.035347
  26 H :   -0.013147
  27 H :   -0.057186
Sum of atomic charges:   -0.0000000

LOEWDIN ATOMIC CHARGES
----------------------
   0 C :   -0.015818
   1 C :    0.047081
   2 H :    0.041124
   3 H :    0.020112
   4 C :   -0.001258
   5 F :   -0.038916
   6 O :   -0.134893
   7 C :    0.123576
   8 C :   -0.037929
   9 C :   -0.029416
  10 H :    0.013179
  11 H :    0.033161
  12 H :    0.030399
  13 H :    0.029456
  14 C :   -0.081786
  15 C :   -0.043798
  16 H :    0.030600
  17 H :   -0.024016
  18 C :   -0.033692
  19 H :    0.024352
  20 H :    0.018995
  21 H :    0.026626
  22 H :    0.002984
  23 H :    0.023588
  24 H :    0.022796
  25 H :   -0.013855
  26 H :   -0.016384
  27 H :   -0.016269

  Mayer bond orders larger than 0.100000
B(  0-C ,  1-C ) :   1.1689 B(  0-C ,  2-H ) :   0.1704 B(  0-C ,  3-H ) :   0.1298
B(  0-C ,  9-C ) :   1.2305 B(  0-C , 12-H ) :   0.7463 B(  0-C , 13-H ) :   0.8606
B(  1-C ,  2-H ) :   0.8800 B(  1-C ,  3-H ) :   0.8114 B(  1-C ,  4-C ) :   1.0687
B(  1-C , 13-H ) :   0.1010 B(  4-C ,  5-F ) :   0.6547 B(  4-C ,  6-O ) :   1.7815
B(  5-F , 17-H ) :   0.1029 B(  7-C , 14-C ) :   1.2591 B(  7-C , 25-H ) :   0.7898
B(  7-C , 26-H ) :   0.7081 B(  7-C , 27-H ) :   0.6557 B(  8-C ,  9-C ) :   1.1812
B(  8-C , 11-H ) :   0.1545 B(  8-C , 18-C ) :   1.1622 B(  8-C , 21-H ) :   0.9992
B(  8-C , 22-H ) :   0.8873 B(  8-C , 23-H ) :   0.2722 B(  8-C , 24-H ) :   0.1250
B(  9-C , 10-H ) :   0.9350 B(  9-C , 11-H ) :   0.9201 B(  9-C , 12-H ) :   0.2355
B(  9-C , 13-H ) :   0.1531 B(  9-C , 21-H ) :   0.1190 B( 14-C , 15-C ) :   1.2028
B( 14-C , 16-H ) :   0.7092 B( 14-C , 17-H ) :   0.4391 B( 14-C , 20-H ) :   0.1088
B( 14-C , 25-H ) :   0.2349 B( 14-C , 26-H ) :   0.2701 B( 14-C , 27-H ) :   0.3453
B( 15-C , 16-H ) :   0.1762 B( 15-C , 17-H ) :   0.2511 B( 15-C , 18-C ) :   1.1235
B( 15-C , 19-H ) :   1.0386 B( 15-C , 20-H ) :   0.8489 B( 15-C , 23-H ) :   0.1351
B( 15-C , 24-H ) :   0.1920 B( 16-H , 17-H ) :   0.3197 B( 18-C , 23-H ) :   0.6881
B( 18-C , 24-H ) :   0.7615

Dispersion correction           -0.011649619
FINAL SINGLE POINT ENERGY      -527.788613566813

DIPOLE MOMENT
-------------
                                X             Y             Z
Electronic contribution:     10.67178      10.23185       5.33490
Nuclear contribution   :    -11.66304      -9.73483      -5.70731
                        -----------------------------------------
Total Dipole Moment    :     -0.99126       0.49702      -0.37240
                        -----------------------------------------
Magnitude (a.u.)       :      1.16975
Magnitude (Debye)      :      2.97326

Rotational constants in cm-1:     0.041771     0.024453     0.017677
Rotational constants in MHz :  1252.269644   733.092347   529.935712

                             ****ORCA TERMINATED NORMALLY****
TOTAL RUN TIME: 0 days 0 hours 1 minutes 36 seconds 454 msec
