                         Program Version 5.0.0 -  RELEASE  -
|  1> !wB97X-D3 RIJCOSX def2-SVPD def2/J TightSCF
|  2> *xyz 0 1
|  3> C          3.91385       -1.65829        3.01513
|  4> C          5.03927       -0.90115        2.49282
|  5> C          4.08422        1.74208       -2.11472
|  6> C          6.21038       -1.41726        2.17824
|  7> N          6.53591       -2.67712        2.55608
|  8> N          7.07675       -0.70082        1.47891
|  9> H          7.95464       -1.12155        1.20755
| 10> H          6.75616        0.10664        0.96028
| 11> H          4.84217        0.01761        2.11519
| 12> H          5.99388       -3.12692        3.28278
| 13> H          7.49844       -2.97548        2.46878
| 14> C          3.13916       -2.37657        1.91061
| 15> H          3.26723       -0.93940        3.52069
| 16> H          4.24720       -2.35509        3.79006
| 17> C          1.99727        0.43092       -1.39922
| 18> C          3.41275        0.37689       -1.96550
| 19> H          4.04741       -0.24659       -1.32671
| 20> H          3.39077       -0.11872       -2.94284
| 21> C          2.39995       -1.38958        1.00949
| 22> H          2.44075       -3.08712        2.36298
| 23> H          3.84448       -2.97046        1.31868
| 24> C          2.07018       -1.93671       -0.37240
| 25> H          1.48161       -1.06154        1.50991
| 26> H          3.00863       -0.49000        0.89745
| 27> C          1.32224       -0.93577       -1.25641
| 28> H          1.47275       -2.85090       -0.28400
| 29> H          3.00354       -2.23404       -0.86254
| 30> H          1.37644        1.05892       -2.04742
| 31> H          2.01534        0.92978       -0.42653
| 32> H          0.31665       -0.78721       -0.84828
| 33> H          1.18561       -1.37925       -2.24861
| 34> H          3.48097        2.37022       -2.73636
| 35> H          5.04852        1.61832       -2.56161
| 36> H          4.19316        2.19326       -1.15063
| 37> *
| 38> %MaxCore 64000
| 39> %pal nprocs 8
| 40> end
| 41> %scf
| 42>   MaxIter 150
| 43> end
| 44>
| 45>                          ****END OF INPUT****

CARTESIAN COORDINATES (ANGSTROEM)
---------------------------------
  C      3.913850   -1.658290    3.015130
  C      5.039270   -0.901150    2.492820
  C      4.084220    1.742080   -2.114720
  C      6.210380   -1.417260    2.178240
  N      6.535910   -2.677120    2.556080
  N      7.076750   -0.700820    1.478910
  H      7.954640   -1.121550    1.207550
  H      6.756160    0.106640    0.960280
  H      4.842170    0.017610    2.115190
  H      5.993880   -3.126920    3.282780
  H      7.498440   -2.975480    2.468780
  C      3.139160   -2.376570    1.910610
  H      3.267230   -0.939400    3.520690
  H      4.247200   -2.355090    3.790060
  C      1.997270    0.430920   -1.399220
  C      3.412750    0.376890   -1.965500
  H      4.047410   -0.246590   -1.326710
  H      3.390770   -0.118720   -2.942840
  C      2.399950   -1.389580    1.009490
  H      2.440750   -3.087120    2.362980
  H      3.844480   -2.970460    1.318680
  C      2.070180   -1.936710   -0.372400
  H      1.481610   -1.061540    1.509910
  H      3.008630   -0.490000    0.897450
  C      1.322240   -0.935770   -1.256410
  H      1.472750   -2.850900   -0.284000
  H      3.003540   -2.234040   -0.862540
  H      1.376440    1.058920   -2.047420
  H      2.015340    0.929780   -0.426530
  H      0.316650   -0.787210   -0.848280
  H      1.185610   -1.379250   -2.248610
  H      3.480970    2.370220   -2.736360
  H      5.048520    1.618320   -2.561610
  H      4.193160    2.193260   -1.150630

 Total Charge           Charge          ....    0
 Multiplicity           Mult            ....    1
 Number of Electrons    NEL             ....   96
 Basis Dimension        Dim             ....  416

ORBITAL ENERGIES
----------------

  NO   OCC          E(Eh)            E(eV)
   0   2.0000     -14.440200      -392.9378
   1   2.0000     -14.438224      -392.8840
   2   2.0000     -10.335536      -281.2442
   3   2.0000     -10.277394      -279.6621
   4   2.0000     -10.274602      -279.5861
   5   2.0000     -10.274019      -279.5703
   6   2.0000     -10.270620      -279.4778
   7   2.0000     -10.268310      -279.4149
   8   2.0000     -10.266527      -279.3664
   9   2.0000     -10.264411      -279.3088
  10   2.0000     -10.264260      -279.3047
  11   2.0000     -10.211666      -277.8736
  12   2.0000      -1.072105       -29.1735
  13   2.0000      -0.978720       -26.6323
  14   2.0000      -0.920868       -25.0581
  15   2.0000      -0.898250       -24.4426
  16   2.0000      -0.866266       -23.5723
  17   2.0000      -0.826708       -22.4959
  18   2.0000      -0.786980       -21.4148
  19   2.0000      -0.747361       -20.3367
  20   2.0000      -0.709477       -19.3058
  21   2.0000      -0.693953       -18.8834
  22   2.0000      -0.675909       -18.3924
  23   2.0000      -0.650947       -17.7132
  24   2.0000      -0.642362       -17.4796
  25   2.0000      -0.612680       -16.6719
  26   2.0000      -0.575390       -15.6572
  27   2.0000      -0.573367       -15.6021
  28   2.0000      -0.560455       -15.2508
  29   2.0000      -0.537774       -14.6336
  30   2.0000      -0.527518       -14.3545
  31   2.0000      -0.523352       -14.2411
  32   2.0000      -0.512694       -13.9511
  33   2.0000      -0.497228       -13.5303
  34   2.0000      -0.490178       -13.3384
  35   2.0000      -0.473655       -12.8888
  36   2.0000      -0.464479       -12.6391
  37   2.0000      -0.456418       -12.4198
  38   2.0000      -0.443726       -12.0744
  39   2.0000      -0.434476       -11.8227
  40   2.0000      -0.420094       -11.4314
  41   2.0000      -0.410541       -11.1714
  42   2.0000      -0.404995       -11.0205
  43   2.0000      -0.395059       -10.7501
  44   2.0000      -0.391631       -10.6568
  45   2.0000      -0.389132       -10.5888
  46   2.0000      -0.363942        -9.9034
  47   2.0000      -0.249945        -6.8013
  48   0.0000       0.079980         2.1764
  49   0.0000       0.097285         2.6473
  50   0.0000       0.107341         2.9209
  51   0.0000       0.109969         2.9924
  52   0.0000       0.118627         3.2280

MULLIKEN ATOMIC CHARGES
-----------------------
   0 C :    0.426150
   1 C :   -0.250678
   2 C :    0.936998
   3 C :    0.893951
   4 N :   -0.062931
   5 N :   -0.041379
   6 H :   -0.122732
   7 H :   -0.053544
   8 H :   -0.254195
   9 H :   -0.003396
  10 H :   -0.253522
  11 C :    0.315125
  12 H :   -0.053122
  13 H :   -0.156724
  14 C :   -0.168587
  15 C :   -0.482220
  16 H :   -0.131639
  17 H :   -0.040087
  18 C :   -0.091824
  19 H :   -0.087939
  20 H :   -0.058250
  21 C :   -0.034038
  22 H :    0.061973
  23 H :   -0.307178
  24 C :    0.471971
  25 H :   -0.260874
  26 H :    0.093195
  27 H :   -0.345950
  28 H :    0.152688
  29 H :    0.038192
  30 H :   -0.021684
  31 H :    0.018841
  32 H :   -0.067895
  33 H :   -0.058694
Sum of atomic charges:   -0.0000000

LOEWDIN ATOMIC CHARGES
----------------------
   0 C :   -0.059481
   1 C :   -0.041327
   2 C :    0.113953
   3 C :   -0.214665
   4 N :    0.198486
   5 N :    0.172849
   6 H :   -0.005716
   7 H :    0.009141
   8 H :   -0.048639
   9 H :   -0.013786
  10 H :   -0.010307
  11 C :   -0.031752
  12 H :    0.020991
  13 H :    0.002377
  14 C :   -0.048961
  15 C :   -0.086022
  16 H :    0.008987
  17 H :    0.025769
  18 C :   -0.040414
  19 H :    0.019136
  20 H :    0.019283
  21 C :   -0.045068
  22 H :    0.034250
  23 H :   -0.005747
  24 C :   -0.039127
  25 H :    0.024527
  26 H :    0.016744
  27 H :    0.022065
  28 H :    0.014633
  29 H :    0.021627
  30 H :    0.020467
  31 H :   -0.017006
  32 H :   -0.019384
  33 H :   -0.017886

  Mayer bond orders larger than 0.100000
B(  0-C ,  1-C ) :   1.1297 B(  0-C ,  8-H ) :   0.3571 B(  0-C , 11-C ) :   1.0668
B(  0-C , 12-H ) :   0.7198 B(  0-C , 13-H ) :   0.8142 B(  0-C , 20-H ) :   0.1141
B(  1-C ,  3-C ) :   1.8257 B(  1-C ,  4-N ) :   0.2106 B(  1-C ,  5-N ) :   0.2940
B(  1-C ,  8-H ) :   0.6893 B(  1-C , 12-H ) :   0.2811 B(  1-C , 13-H ) :   0.2039
B(  2-C , 15-C ) :   1.2233 B(  2-C , 31-H ) :   0.7768 B(  2-C , 32-H ) :   0.6500
B(  2-C , 33-H ) :   0.7971 B(  3-C ,  4-N ) :   0.8229 B(  3-C ,  5-N ) :   0.7894
B(  3-C ,  7-H ) :  -0.1144 B(  3-C ,  8-H ) :   0.2317 B(  3-C , 10-H ) :  -0.1597
B(  3-C , 13-H ) :  -0.1137 B(  4-N ,  5-N ) :   0.1041 B(  4-N ,  9-H ) :   1.0031
B(  4-N , 10-H ) :   1.3078 B(  5-N ,  6-H ) :   1.1497 B(  5-N ,  7-H ) :   1.1539
B(  6-H ,  7-H ) :  -0.1587 B(  9-H , 10-H ) :  -0.1842 B( 11-C , 13-H ) :   0.1256
B( 11-C , 18-C ) :   1.1294 B( 11-C , 19-H ) :   0.8732 B( 11-C , 20-H ) :   0.9105
B( 11-C , 22-H ) :   0.1459 B( 14-C , 15-C ) :   1.2401 B( 14-C , 16-H ) :   0.1474
B( 14-C , 17-H ) :   0.1769 B( 14-C , 24-C ) :   1.1396 B( 14-C , 27-H ) :   1.0541
B( 14-C , 28-H ) :   0.8540 B( 14-C , 29-H ) :   0.1882 B( 14-C , 30-H ) :   0.1392
B( 15-C , 16-H ) :   0.9485 B( 15-C , 17-H ) :   0.9198 B( 15-C , 27-H ) :   0.1127
B( 15-C , 31-H ) :   0.2094 B( 15-C , 32-H ) :   0.3317 B( 15-C , 33-H ) :   0.2165
B( 18-C , 19-H ) :   0.1820 B( 18-C , 21-C ) :   1.2253 B( 18-C , 22-H ) :   0.8196
B( 18-C , 23-H ) :   0.9885 B( 18-C , 25-H ) :   0.1698 B( 18-C , 26-H ) :   0.1102
B( 21-C , 24-C ) :   1.1317 B( 21-C , 25-H ) :   0.9847 B( 21-C , 26-H ) :   0.8884
B( 21-C , 30-H ) :   0.2355 B( 23-H , 28-H ) :   0.1073 B( 24-C , 29-H ) :   0.7678
B( 24-C , 30-H ) :   0.7007

Dispersion correction           -0.012908751
FINAL SINGLE POINT ENERGY      -503.341268531210

DIPOLE MOMENT
-------------
                                X             Y             Z
Electronic contribution:      6.86818      -3.53909       6.80668
Nuclear contribution   :     -5.98587       3.22816      -7.03138
                        -----------------------------------------
Total Dipole Moment    :      0.88232      -0.31093      -0.22469
                        -----------------------------------------
Magnitude (a.u.)       :      0.96211
Magnitude (Debye)      :      2.44548

Rotational constants in cm-1:     0.036125     0.015379     0.011856
Rotational constants in MHz :  1083.013811   461.048409   355.441304

                             ****ORCA TERMINATED NORMALLY****
TOTAL RUN TIME: 0 days 0 hours 2 minutes 6 seconds 800 msec
