                         Program Version 5.0.0 -  RELEASE  -
|  1> !wB97X-D3 RIJCOSX def2-SVPD def2/J TightSCF
|  2> *xyz 0 1
|  3> C          3.91385       -1.65829        3.01513
|  4> C          5.03927       -0.90115        2.49282
|  5> C          6.21038       -1.41726        2.17824
|  6> N          6.53591       -2.67712        2.55608
|  7> N          7.07675       -0.70082        1.47891
|  8> H          7.95464       -1.12155        1.20755
|  9> H          6.75616        0.10664        0.96028
| 10> H          4.84217        0.01761        2.11519
| 11> H          5.99388       -3.12692        3.28278
| 12> H          7.49844       -2.97548        2.46878
| 13> C          3.13916       -2.37657        1.91061
| 14> H          3.26723       -0.93940        3.52069
| 15> H          4.24720       -2.35509        3.79006
| 16> C          1.99727        0.43092       -1.39922
| 17> C          3.41275        0.37689       -1.96550
| 18> C          2.39995       -1.38958        1.00949
| 19> H          2.44075       -3.08712        2.36298
| 20> H          3.84448       -2.97046        1.31868
| 21> C          2.07018       -1.93671       -0.37240
| 22> H          1.48161       -1.06154        1.50991
| 23> H          3.00863       -0.49000        0.89745
| 24> C          1.32224       -0.93577       -1.25641
| 25> H          1.47275       -2.85090       -0.28400
| 26> H          3.00354       -2.23404       -0.86254
| 27> H          1.37644        1.05892       -2.04742
| 28> H          2.01534        0.92978       -0.42653
| 29> H          0.31665       -0.78721       -0.84828
| 30> H          1.18561       -1.37925       -2.24861
| 31> H          3.39759       -0.11102       -2.91766
| 32> H          4.04439       -0.16810       -1.29548
| 33> H          3.78910        1.37189       -2.08055
| 34> *
| 35> %MaxCore 64000
| 36> %pal nprocs 8
| 37> end
| 38> %scf
| 39>   MaxIter 150
| 40> end
| 41>
| 42>                          ****END OF INPUT****

CARTESIAN COORDINATES (ANGSTROEM)
---------------------------------
  C      3.913850   -1.658290    3.015130
  C      5.039270   -0.901150    2.492820
  C      6.210380   -1.417260    2.178240
  N      6.535910   -2.677120    2.556080
  N      7.076750   -0.700820    1.478910
  H      7.954640   -1.121550    1.207550
  H      6.756160    0.106640    0.960280
  H      4.842170    0.017610    2.115190
  H      5.993880   -3.126920    3.282780
  H      7.498440   -2.975480    2.468780
  C      3.139160   -2.376570    1.910610
  H      3.267230   -0.939400    3.520690
  H      4.247200   -2.355090    3.790060
  C      1.997270    0.430920   -1.399220
  C      3.412750    0.376890   -1.965500
  C      2.399950   -1.389580    1.009490
  H      2.440750   -3.087120    2.362980
  H      3.844480   -2.970460    1.318680
  C      2.070180   -1.936710   -0.372400
  H      1.481610   -1.061540    1.509910
  H      3.008630   -0.490000    0.897450
  C      1.322240   -0.935770   -1.256410
  H      1.472750   -2.850900   -0.284000
  H      3.003540   -2.234040   -0.862540
  H      1.376440    1.058920   -2.047420
  H      2.015340    0.929780   -0.426530
  H      0.316650   -0.787210   -0.848280
  H      1.185610   -1.379250   -2.248610
  H      3.397590   -0.111020   -2.917660
  H      4.044390   -0.168100   -1.295480
  H      3.789100    1.371890   -2.080550

 Total Charge           Charge          ....    0
 Multiplicity           Mult            ....    1
 Number of Electrons    NEL             ....   88
 Basis Dimension        Dim             ....  380

ORBITAL ENERGIES
----------------

  NO   OCC          E(Eh)            E(eV)
   0   2.0000     -14.440109      -392.9353
   1   2.0000     -14.438047      -392.8792
   2   2.0000     -10.335449      -281.2419
   3   2.0000     -10.275293      -279.6049
   4   2.0000     -10.273418      -279.5539
   5   2.0000     -10.270770      -279.4819
   6   2.0000     -10.266603      -279.3685
   7   2.0000     -10.265495      -279.3383
   8   2.0000     -10.264412      -279.3089
   9   2.0000     -10.264246      -279.3043
  10   2.0000     -10.211530      -277.8699
  11   2.0000      -1.071994       -29.1704
  12   2.0000      -0.978608       -26.6293
  13   2.0000      -0.918350       -24.9896
  14   2.0000      -0.892857       -24.2959
  15   2.0000      -0.850745       -23.1499
  16   2.0000      -0.809480       -22.0271
  17   2.0000      -0.768318       -20.9070
  18   2.0000      -0.725167       -19.7328
  19   2.0000      -0.698395       -19.0043
  20   2.0000      -0.676049       -18.3962
  21   2.0000      -0.650626       -17.7044
  22   2.0000      -0.641984       -17.4693
  23   2.0000      -0.612613       -16.6700
  24   2.0000      -0.574810       -15.6414
  25   2.0000      -0.571806       -15.5596
  26   2.0000      -0.557534       -15.1713
  27   2.0000      -0.535158       -14.5624
  28   2.0000      -0.530829       -14.4446
  29   2.0000      -0.505077       -13.7438
  30   2.0000      -0.501655       -13.6507
  31   2.0000      -0.486678       -13.2432
  32   2.0000      -0.477892       -13.0041
  33   2.0000      -0.474204       -12.9037
  34   2.0000      -0.455263       -12.3883
  35   2.0000      -0.440279       -11.9806
  36   2.0000      -0.431501       -11.7417
  37   2.0000      -0.413525       -11.2526
  38   2.0000      -0.407763       -11.0958
  39   2.0000      -0.397495       -10.8164
  40   2.0000      -0.391799       -10.6614
  41   2.0000      -0.389693       -10.6041
  42   2.0000      -0.363836        -9.9005
  43   2.0000      -0.249864        -6.7992
  44   0.0000       0.083114         2.2617
  45   0.0000       0.099465         2.7066
  46   0.0000       0.109330         2.9750
  47   0.0000       0.112938         3.0732
  48   0.0000       0.120031         3.2662

MULLIKEN ATOMIC CHARGES
-----------------------
   0 C :    0.426197
   1 C :   -0.287337
   2 C :    0.901187
   3 N :   -0.064128
   4 N :   -0.057299
   5 H :   -0.122997
   6 H :   -0.031981
   7 H :   -0.235497
   8 H :   -0.001923
   9 H :   -0.253870
  10 C :    0.300713
  11 H :   -0.056000
  12 H :   -0.153893
  13 C :   -0.427568
  14 C :    0.815902
  15 C :   -0.099713
  16 H :   -0.084212
  17 H :   -0.067034
  18 C :   -0.054678
  19 H :    0.060066
  20 H :   -0.296770
  21 C :    0.261452
  22 H :   -0.187676
  23 H :    0.069684
  24 H :   -0.278672
  25 H :    0.130605
  26 H :    0.032931
  27 H :   -0.016308
  28 H :    0.026836
  29 H :   -0.191274
  30 H :   -0.056742
Sum of atomic charges:    0.0000000

LOEWDIN ATOMIC CHARGES
----------------------
   0 C :   -0.059630
   1 C :   -0.041517
   2 C :   -0.214852
   3 N :    0.198422
   4 N :    0.172514
   5 H :   -0.005833
   6 H :    0.010000
   7 H :   -0.048324
   8 H :   -0.013811
   9 H :   -0.010317
  10 C :   -0.032032
  11 H :    0.020984
  12 H :    0.002365
  13 C :   -0.082645
  14 C :    0.120846
  15 C :   -0.040801
  16 H :    0.019148
  17 H :    0.019156
  18 C :   -0.045879
  19 H :    0.034308
  20 H :   -0.006163
  21 C :   -0.043904
  22 H :    0.024816
  23 H :    0.018211
  24 H :    0.017433
  25 H :    0.010437
  26 H :    0.020808
  27 H :    0.019900
  28 H :   -0.013507
  29 H :   -0.031530
  30 H :   -0.018602

  Mayer bond orders larger than 0.100000
B(  0-C ,  1-C ) :   1.1332 B(  0-C ,  7-H ) :   0.3515 B(  0-C , 10-C ) :   1.0710
B(  0-C , 11-H ) :   0.7201 B(  0-C , 12-H ) :   0.8164 B(  0-C , 17-H ) :   0.1135
B(  1-C ,  2-C ) :   1.8191 B(  1-C ,  3-N ) :   0.2122 B(  1-C ,  4-N ) :   0.3056
B(  1-C ,  7-H ) :   0.7164 B(  1-C , 11-H ) :   0.2800 B(  1-C , 12-H ) :   0.2092
B(  2-C ,  3-N ) :   0.8258 B(  2-C ,  4-N ) :   0.7881 B(  2-C ,  6-H ) :  -0.1035
B(  2-C ,  7-H ) :   0.2196 B(  2-C ,  9-H ) :  -0.1595 B(  2-C , 12-H ) :  -0.1175
B(  3-N ,  4-N ) :   0.1039 B(  3-N ,  8-H ) :   1.0034 B(  3-N ,  9-H ) :   1.3076
B(  4-N ,  5-H ) :   1.1460 B(  4-N ,  6-H ) :   1.1440 B(  5-H ,  6-H ) :  -0.1533
B(  8-H ,  9-H ) :  -0.1841 B( 10-C , 12-H ) :   0.1221 B( 10-C , 15-C ) :   1.1367
B( 10-C , 16-H ) :   0.8780 B( 10-C , 17-H ) :   0.9090 B( 10-C , 19-H ) :   0.1460
B( 13-C , 14-C ) :   1.2360 B( 13-C , 21-C ) :   1.1519 B( 13-C , 24-H ) :   1.0482
B( 13-C , 25-H ) :   0.8696 B( 13-C , 27-H ) :   0.1389 B( 13-C , 28-H ) :   0.2123
B( 13-C , 29-H ) :   0.2193 B( 13-C , 30-H ) :   0.2206 B( 14-C , 28-H ) :   0.7480
B( 14-C , 29-H ) :   0.8318 B( 14-C , 30-H ) :   0.7405 B( 15-C , 16-H ) :   0.1830
B( 15-C , 18-C ) :   1.2135 B( 15-C , 19-H ) :   0.8229 B( 15-C , 20-H ) :   0.9995
B( 15-C , 22-H ) :   0.1698 B( 15-C , 23-H ) :   0.1150 B( 18-C , 21-C ) :   1.1630
B( 18-C , 22-H ) :   0.9430 B( 18-C , 23-H ) :   0.9093 B( 18-C , 26-H ) :   0.1044
B( 18-C , 27-H ) :   0.2394 B( 19-H , 20-H ) :   0.1031 B( 21-C , 23-H ) :   0.1019
B( 21-C , 24-H ) :   0.1383 B( 21-C , 25-H ) :   0.1037 B( 21-C , 26-H ) :   0.8563
B( 21-C , 27-H ) :   0.7270

Dispersion correction           -0.011403159
FINAL SINGLE POINT ENERGY      -464.061991998755

DIPOLE MOMENT
-------------
                                X             Y             Z
Electronic contribution:      7.51100      -1.97603       6.13543
Nuclear contribution   :     -6.63027       1.70074      -6.35040
                        -----------------------------------------
Total Dipole Moment    :      0.88073      -0.27529      -0.21497
                        -----------------------------------------
Magnitude (a.u.)       :      0.94746
Magnitude (Debye)      :      2.40826

Rotational constants in cm-1:     0.051309     0.017004     0.014160
Rotational constants in MHz :  1538.191643   509.760000   424.518662

                             ****ORCA TERMINATED NORMALLY****
TOTAL RUN TIME: 0 days 0 hours 1 minutes 42 seconds 651 msec
