                         Program Version 5.0.0 -  RELEASE  -
|  1> !wB97X-D3 RIJCOSX def2-SVPD def2/J TightSCF
|  2> *xyz 0 1
|  3> C          3.91385       -1.65829        3.01513
|  4> C          5.03927       -0.90115        2.49282
|  5> C          6.21038       -1.41726        2.17824
|  6> N          6.53591       -2.67712        2.55608
|  7> N          7.07675       -0.70082        1.47891
|  8> H          7.95464       -1.12155        1.20755
|  9> H          6.75616        0.10664        0.96028
| 10> H          4.84217        0.01761        2.11519
| 11> H          5.99388       -3.12692        3.28278
| 12> H          7.49844       -2.97548        2.46878
| 13> C          3.13916       -2.37657        1.91061
| 14> H          3.26723       -0.93940        3.52069
| 15> H          4.24720       -2.35509        3.79006
| 16> C          1.99727        0.43092       -1.39922
| 17> C          2.39995       -1.38958        1.00949
| 18> H          2.44075       -3.08712        2.36298
| 19> H          3.84448       -2.97046        1.31868
| 20> C          2.07018       -1.93671       -0.37240
| 21> H          1.48161       -1.06154        1.50991
| 22> H          3.00863       -0.49000        0.89745
| 23> C          1.32224       -0.93577       -1.25641
| 24> H          1.47275       -2.85090       -0.28400
| 25> H          3.00354       -2.23404       -0.86254
| 26> H          0.31665       -0.78721       -0.84828
| 27> H          1.18561       -1.37925       -2.24861
| 28> H          1.40357        1.05764       -2.03139
| 29> H          2.96811        0.30580       -1.83133
| 30> H          2.09191        0.88450       -0.43475
| 31> *
| 32> %MaxCore 64000
| 33> %pal nprocs 8
| 34> end
| 35> %scf
| 36>   MaxIter 150
| 37> end
| 38>
| 39>                          ****END OF INPUT****

CARTESIAN COORDINATES (ANGSTROEM)
---------------------------------
  C      3.913850   -1.658290    3.015130
  C      5.039270   -0.901150    2.492820
  C      6.210380   -1.417260    2.178240
  N      6.535910   -2.677120    2.556080
  N      7.076750   -0.700820    1.478910
  H      7.954640   -1.121550    1.207550
  H      6.756160    0.106640    0.960280
  H      4.842170    0.017610    2.115190
  H      5.993880   -3.126920    3.282780
  H      7.498440   -2.975480    2.468780
  C      3.139160   -2.376570    1.910610
  H      3.267230   -0.939400    3.520690
  H      4.247200   -2.355090    3.790060
  C      1.997270    0.430920   -1.399220
  C      2.399950   -1.389580    1.009490
  H      2.440750   -3.087120    2.362980
  H      3.844480   -2.970460    1.318680
  C      2.070180   -1.936710   -0.372400
  H      1.481610   -1.061540    1.509910
  H      3.008630   -0.490000    0.897450
  C      1.322240   -0.935770   -1.256410
  H      1.472750   -2.850900   -0.284000
  H      3.003540   -2.234040   -0.862540
  H      0.316650   -0.787210   -0.848280
  H      1.185610   -1.379250   -2.248610
  H      1.403570    1.057640   -2.031390
  H      2.968110    0.305800   -1.831330
  H      2.091910    0.884500   -0.434750

 Total Charge           Charge          ....    0
 Multiplicity           Mult            ....    1
 Number of Electrons    NEL             ....   80
 Basis Dimension        Dim             ....  344

ORBITAL ENERGIES
----------------

  NO   OCC          E(Eh)            E(eV)
   0   2.0000     -14.439796      -392.9268
   1   2.0000     -14.437755      -392.8713
   2   2.0000     -10.335010      -281.2299
   3   2.0000     -10.274778      -279.5909
   4   2.0000     -10.270793      -279.4825
   5   2.0000     -10.266209      -279.3577
   6   2.0000     -10.264158      -279.3019
   7   2.0000     -10.263975      -279.2970
   8   2.0000     -10.263889      -279.2946
   9   2.0000     -10.211069      -277.8573
  10   2.0000      -1.071702       -29.1625
  11   2.0000      -0.978346       -26.6222
  12   2.0000      -0.914138       -24.8750
  13   2.0000      -0.884644       -24.0724
  14   2.0000      -0.834850       -22.7174
  15   2.0000      -0.789561       -21.4850
  16   2.0000      -0.744038       -20.2463
  17   2.0000      -0.702324       -19.1112
  18   2.0000      -0.676901       -18.4194
  19   2.0000      -0.660604       -17.9759
  20   2.0000      -0.643747       -17.5173
  21   2.0000      -0.612295       -16.6614
  22   2.0000      -0.574253       -15.6262
  23   2.0000      -0.563941       -15.3456
  24   2.0000      -0.549047       -14.9403
  25   2.0000      -0.530790       -14.4435
  26   2.0000      -0.523936       -14.2570
  27   2.0000      -0.505609       -13.7583
  28   2.0000      -0.489115       -13.3095
  29   2.0000      -0.482097       -13.1185
  30   2.0000      -0.463537       -12.6135
  31   2.0000      -0.454322       -12.3627
  32   2.0000      -0.445375       -12.1193
  33   2.0000      -0.422350       -11.4927
  34   2.0000      -0.410632       -11.1739
  35   2.0000      -0.400534       -10.8991
  36   2.0000      -0.393099       -10.6968
  37   2.0000      -0.391935       -10.6651
  38   2.0000      -0.363603        -9.8941
  39   2.0000      -0.249500        -6.7892
  40   0.0000       0.085386         2.3235
  41   0.0000       0.101343         2.7577
  42   0.0000       0.110570         3.0088
  43   0.0000       0.117105         3.1866
  44   0.0000       0.124602         3.3906

MULLIKEN ATOMIC CHARGES
-----------------------
   0 C :    0.412791
   1 C :   -0.283815
   2 C :    0.904298
   3 N :   -0.070905
   4 N :   -0.055248
   5 H :   -0.124047
   6 H :   -0.028603
   7 H :   -0.248268
   8 H :   -0.003542
   9 H :   -0.249407
  10 C :    0.237844
  11 H :   -0.044647
  12 H :   -0.155128
  13 C :    0.647361
  14 C :   -0.093739
  15 H :   -0.078593
  16 H :   -0.050983
  17 C :    0.037696
  18 H :    0.026589
  19 H :   -0.319098
  20 C :   -0.213885
  21 H :   -0.102548
  22 H :    0.016046
  23 H :    0.029178
  24 H :   -0.084016
  25 H :   -0.142084
  26 H :    0.026745
  27 H :    0.010009
Sum of atomic charges:    0.0000000

LOEWDIN ATOMIC CHARGES
----------------------
   0 C :   -0.060283
   1 C :   -0.041512
   2 C :   -0.214767
   3 N :    0.198042
   4 N :    0.171303
   5 H :   -0.006136
   6 H :    0.011411
   7 H :   -0.048256
   8 H :   -0.013909
   9 H :   -0.010451
  10 C :   -0.033762
  11 H :    0.020788
  12 H :    0.002238
  13 C :    0.115256
  14 C :   -0.045595
  15 H :    0.019094
  16 H :    0.018764
  17 C :   -0.051422
  18 H :    0.033956
  19 H :   -0.003319
  20 C :   -0.082704
  21 H :    0.024260
  22 H :    0.024742
  23 H :    0.019665
  24 H :    0.016550
  25 H :   -0.019836
  26 H :   -0.013893
  27 H :   -0.030224

  Mayer bond orders larger than 0.100000
B(  0-C ,  1-C ) :   1.1478 B(  0-C ,  7-H ) :   0.3573 B(  0-C , 10-C ) :   1.0805
B(  0-C , 11-H ) :   0.7294 B(  0-C , 12-H ) :   0.8098 B(  0-C , 16-H ) :   0.1040
B(  1-C ,  2-C ) :   1.8073 B(  1-C ,  3-N ) :   0.2139 B(  1-C ,  4-N ) :   0.3039
B(  1-C ,  7-H ) :   0.7305 B(  1-C , 11-H ) :   0.2760 B(  1-C , 12-H ) :   0.2199
B(  2-C ,  3-N ) :   0.8336 B(  2-C ,  4-N ) :   0.7979 B(  2-C ,  6-H ) :  -0.1021
B(  2-C ,  7-H ) :   0.2183 B(  2-C ,  9-H ) :  -0.1590 B(  2-C , 12-H ) :  -0.1167
B(  3-N ,  8-H ) :   1.0045 B(  3-N ,  9-H ) :   1.3039 B(  4-N ,  5-H ) :   1.1354
B(  4-N ,  6-H ) :   1.1521 B(  5-H ,  6-H ) :  -0.1496 B(  8-H ,  9-H ) :  -0.1820
B( 10-C , 12-H ) :   0.1193 B( 10-C , 14-C ) :   1.1755 B( 10-C , 15-H ) :   0.8871
B( 10-C , 16-H ) :   0.9096 B( 10-C , 18-H ) :   0.1461 B( 13-C , 20-C ) :   1.2578
B( 13-C , 25-H ) :   0.8252 B( 13-C , 26-H ) :   0.7860 B( 13-C , 27-H ) :   0.8464
B( 14-C , 15-H ) :   0.1804 B( 14-C , 17-C ) :   1.1836 B( 14-C , 18-H ) :   0.8265
B( 14-C , 19-H ) :   0.9587 B( 14-C , 21-H ) :   0.1638 B( 14-C , 22-H ) :   0.1203
B( 17-C , 20-C ) :   1.1511 B( 17-C , 21-H ) :   0.9106 B( 17-C , 22-H ) :   0.9250
B( 17-C , 24-H ) :   0.2233 B( 18-H , 19-H ) :   0.1796 B( 20-C , 22-H ) :   0.1014
B( 20-C , 23-H ) :   0.9005 B( 20-C , 24-H ) :   0.8350 B( 20-C , 25-H ) :   0.2021
B( 20-C , 26-H ) :   0.2011 B( 20-C , 27-H ) :   0.1673

Dispersion correction           -0.009334210
FINAL SINGLE POINT ENERGY      -424.782287885090

DIPOLE MOMENT
-------------
                                X             Y             Z
Electronic contribution:      8.50534      -1.58693       5.08099
Nuclear contribution   :     -7.60865       1.30440      -5.31569
                        -----------------------------------------
Total Dipole Moment    :      0.89669      -0.28253      -0.23470
                        -----------------------------------------
Magnitude (a.u.)       :      0.96900
Magnitude (Debye)      :      2.46300

Rotational constants in cm-1:     0.068690     0.018715     0.016508
Rotational constants in MHz :  2059.281127   561.055004   494.902234

                             ****ORCA TERMINATED NORMALLY****
TOTAL RUN TIME: 0 days 0 hours 1 minutes 18 seconds 138 msec
