                         Program Version 5.0.0 -  RELEASE  -
|  1> !wB97X-D3 RIJCOSX def2-SVPD def2/J TightSCF
|  2> *xyz 0 1
|  3> C          3.91385       -1.65829        3.01513
|  4> C          4.08422        1.74208       -2.11472
|  5> C          4.26524        2.50052       -0.79589
|  6> H          4.86853        3.39267       -0.98113
|  7> H          3.30764        2.82457       -0.38781
|  8> C          4.98224        1.65026        0.24742
|  9> F          4.36806        1.38927        1.31371
| 10> O          6.12892        1.23351       -0.04562
| 11> C          3.13916       -2.37657        1.91061
| 12> C          1.99727        0.43092       -1.39922
| 13> C          3.41275        0.37689       -1.96550
| 14> H          4.04741       -0.24659       -1.32671
| 15> H          3.39077       -0.11872       -2.94284
| 16> H          5.06847        1.59850       -2.56573
| 17> H          3.50336        2.36394       -2.80457
| 18> C          2.39995       -1.38958        1.00949
| 19> H          2.44075       -3.08712        2.36298
| 20> H          3.84448       -2.97046        1.31868
| 21> C          2.07018       -1.93671       -0.37240
| 22> H          1.48161       -1.06154        1.50991
| 23> H          3.00863       -0.49000        0.89745
| 24> C          1.32224       -0.93577       -1.25641
| 25> H          1.47275       -2.85090       -0.28400
| 26> H          3.00354       -2.23404       -0.86254
| 27> H          1.37644        1.05892       -2.04742
| 28> H          2.01534        0.92978       -0.42653
| 29> H          0.31665       -0.78721       -0.84828
| 30> H          1.18561       -1.37925       -2.24861
| 31> H          4.59802       -0.96242        2.57629
| 32> H          4.45705       -2.37561        3.59417
| 33> H          3.22883       -1.13399        3.64819
| 34> *
| 35> %MaxCore 64000
| 36> %pal nprocs 8
| 37> end
| 38> %scf
| 39>   MaxIter 150
| 40> end
| 41>
| 42>                          ****END OF INPUT****

CARTESIAN COORDINATES (ANGSTROEM)
---------------------------------
  C      3.913850   -1.658290    3.015130
  C      4.084220    1.742080   -2.114720
  C      4.265240    2.500520   -0.795890
  H      4.868530    3.392670   -0.981130
  H      3.307640    2.824570   -0.387810
  C      4.982240    1.650260    0.247420
  F      4.368060    1.389270    1.313710
  O      6.128920    1.233510   -0.045620
  C      3.139160   -2.376570    1.910610
  C      1.997270    0.430920   -1.399220
  C      3.412750    0.376890   -1.965500
  H      4.047410   -0.246590   -1.326710
  H      3.390770   -0.118720   -2.942840
  H      5.068470    1.598500   -2.565730
  H      3.503360    2.363940   -2.804570
  C      2.399950   -1.389580    1.009490
  H      2.440750   -3.087120    2.362980
  H      3.844480   -2.970460    1.318680
  C      2.070180   -1.936710   -0.372400
  H      1.481610   -1.061540    1.509910
  H      3.008630   -0.490000    0.897450
  C      1.322240   -0.935770   -1.256410
  H      1.472750   -2.850900   -0.284000
  H      3.003540   -2.234040   -0.862540
  H      1.376440    1.058920   -2.047420
  H      2.015340    0.929780   -0.426530
  H      0.316650   -0.787210   -0.848280
  H      1.185610   -1.379250   -2.248610
  H      4.598020   -0.962420    2.576290
  H      4.457050   -2.375610    3.594170
  H      3.228830   -1.133990    3.648190

 Total Charge           Charge          ....    0
 Multiplicity           Mult            ....    1
 Number of Electrons    NEL             ....   96
 Basis Dimension        Dim             ....  398

ORBITAL ENERGIES
----------------

  NO   OCC          E(Eh)            E(eV)
   0   2.0000     -24.876609      -676.9269
   1   2.0000     -19.256191      -523.9876
   2   2.0000     -10.475908      -285.0640
   3   2.0000     -10.320546      -280.8363
   4   2.0000     -10.304022      -280.3867
   5   2.0000     -10.291973      -280.0588
   6   2.0000     -10.289035      -279.9789
   7   2.0000     -10.285619      -279.8859
   8   2.0000     -10.281369      -279.7703
   9   2.0000     -10.278637      -279.6959
  10   2.0000     -10.278401      -279.6895
  11   2.0000     -10.264390      -279.3082
  12   2.0000      -1.425135       -38.7799
  13   2.0000      -1.143851       -31.1258
  14   2.0000      -0.942206       -25.6387
  15   2.0000      -0.918100       -24.9828
  16   2.0000      -0.885839       -24.1049
  17   2.0000      -0.846593       -23.0370
  18   2.0000      -0.805998       -21.9323
  19   2.0000      -0.773460       -21.0469
  20   2.0000      -0.749717       -20.4008
  21   2.0000      -0.710851       -19.3432
  22   2.0000      -0.689597       -18.7649
  23   2.0000      -0.666597       -18.1390
  24   2.0000      -0.657649       -17.8955
  25   2.0000      -0.637928       -17.3589
  26   2.0000      -0.612187       -16.6585
  27   2.0000      -0.583218       -15.8702
  28   2.0000      -0.582370       -15.8471
  29   2.0000      -0.562456       -15.3052
  30   2.0000      -0.545069       -14.8321
  31   2.0000      -0.541774       -14.7424
  32   2.0000      -0.518097       -14.0981
  33   2.0000      -0.509277       -13.8581
  34   2.0000      -0.503275       -13.6948
  35   2.0000      -0.488842       -13.3021
  36   2.0000      -0.482680       -13.1344
  37   2.0000      -0.473062       -12.8727
  38   2.0000      -0.454961       -12.3801
  39   2.0000      -0.447557       -12.1786
  40   2.0000      -0.443017       -12.0551
  41   2.0000      -0.432959       -11.7814
  42   2.0000      -0.428561       -11.6617
  43   2.0000      -0.416258       -11.3270
  44   2.0000      -0.408779       -11.1235
  45   2.0000      -0.404776       -11.0145
  46   2.0000      -0.398259       -10.8372
  47   2.0000      -0.392442       -10.6789
  48   0.0000       0.047918         1.3039
  49   0.0000       0.087219         2.3733
  50   0.0000       0.098974         2.6932
  51   0.0000       0.101844         2.7713
  52   0.0000       0.106071         2.8863

MULLIKEN ATOMIC CHARGES
-----------------------
   0 C :    0.939440
   1 C :    0.333097
   2 C :    0.106061
   3 H :   -0.092291
   4 H :    0.175520
   5 C :    0.770908
   6 F :   -0.415299
   7 O :   -0.527348
   8 C :   -0.147681
   9 C :   -0.148561
  10 C :   -0.141638
  11 H :   -0.019840
  12 H :   -0.126851
  13 H :   -0.004396
  14 H :   -0.067481
  15 C :    0.515270
  16 H :   -0.065605
  17 H :   -0.074947
  18 C :   -0.097103
  19 H :   -0.021603
  20 H :   -0.806031
  21 C :    0.614483
  22 H :   -0.356650
  23 H :    0.130019
  24 H :   -0.335450
  25 H :    0.123262
  26 H :    0.020099
  27 H :    0.004888
  28 H :   -0.259729
  29 H :   -0.040157
  30 H :    0.015614
Sum of atomic charges:   -0.0000000

LOEWDIN ATOMIC CHARGES
----------------------
   0 C :    0.116587
   1 C :   -0.015488
   2 C :    0.047461
   3 H :    0.041479
   4 H :    0.020479
   5 C :   -0.000869
   6 F :   -0.040245
   7 O :   -0.134627
   8 C :   -0.075144
   9 C :   -0.037609
  10 C :   -0.029380
  11 H :    0.013424
  12 H :    0.033195
  13 H :    0.030450
  14 H :    0.029508
  15 C :   -0.044662
  16 H :    0.022772
  17 H :    0.022131
  18 C :   -0.042479
  19 H :    0.036584
  20 H :   -0.022469
  21 C :   -0.032980
  22 H :    0.025772
  23 H :    0.018341
  24 H :    0.026370
  25 H :    0.003512
  26 H :    0.023722
  27 H :    0.022748
  28 H :   -0.027668
  29 H :   -0.017955
  30 H :   -0.012959

  Mayer bond orders larger than 0.100000
B(  0-C ,  8-C ) :   1.1744 B(  0-C , 28-H ) :   0.8148 B(  0-C , 29-H ) :   0.6700
B(  0-C , 30-H ) :   0.7353 B(  1-C ,  2-C ) :   1.1710 B(  1-C ,  3-H ) :   0.1742
B(  1-C ,  4-H ) :   0.1248 B(  1-C , 10-C ) :   1.2296 B(  1-C , 13-H ) :   0.7404
B(  1-C , 14-H ) :   0.8536 B(  2-C ,  3-H ) :   0.8374 B(  2-C ,  4-H ) :   0.7974
B(  2-C ,  5-C ) :   1.1239 B(  2-C , 14-H ) :   0.1052 B(  3-H ,  5-C ) :   0.1377
B(  4-H ,  5-C ) :   0.1098 B(  5-C ,  6-F ) :   0.6879 B(  5-C ,  7-O ) :   1.7666
B(  8-C , 15-C ) :   1.1430 B(  8-C , 16-H ) :   0.8385 B(  8-C , 17-H ) :   0.9428
B(  8-C , 19-H ) :   0.1086 B(  8-C , 28-H ) :   0.2022 B(  8-C , 29-H ) :   0.2634
B(  8-C , 30-H ) :   0.1960 B(  9-C , 10-C ) :   1.1778 B(  9-C , 12-H ) :   0.1608
B(  9-C , 21-C ) :   1.1603 B(  9-C , 24-H ) :   1.0368 B(  9-C , 25-H ) :   0.8564
B(  9-C , 26-H ) :   0.2676 B(  9-C , 27-H ) :   0.1347 B( 10-C , 11-H ) :   0.9459
B( 10-C , 12-H ) :   0.9139 B( 10-C , 13-H ) :   0.2350 B( 10-C , 14-H ) :   0.1566
B( 10-C , 24-H ) :   0.1095 B( 15-C , 16-H ) :   0.2081 B( 15-C , 17-H ) :   0.1368
B( 15-C , 18-C ) :   1.2093 B( 15-C , 19-H ) :   0.5988 B( 15-C , 20-H ) :   0.4121
B( 15-C , 23-H ) :   0.1153 B( 18-C , 19-H ) :   0.1171 B( 18-C , 20-H ) :   0.1989
B( 18-C , 21-C ) :   1.1077 B( 18-C , 22-H ) :   1.0684 B( 18-C , 23-H ) :   0.8376
B( 18-C , 26-H ) :   0.1180 B( 18-C , 27-H ) :   0.2068 B( 19-H , 20-H ) :   0.3652
B( 21-C , 26-H ) :   0.6856 B( 21-C , 27-H ) :   0.7269

Dispersion correction           -0.013458880
FINAL SINGLE POINT ENERGY      -567.066468556271

DIPOLE MOMENT
-------------
                                X             Y             Z
Electronic contribution:      9.79925      10.69587       2.71166
Nuclear contribution   :    -10.77572     -10.21260      -3.09071
                        -----------------------------------------
Total Dipole Moment    :     -0.97647       0.48327      -0.37905
                        -----------------------------------------
Magnitude (a.u.)       :      1.15357
Magnitude (Debye)      :      2.93215

Rotational constants in cm-1:     0.031919     0.022089     0.014675
Rotational constants in MHz :   956.907177   662.224882   439.952194

                             ****ORCA TERMINATED NORMALLY****
TOTAL RUN TIME: 0 days 0 hours 1 minutes 54 seconds 887 msec
