                         Program Version 5.0.0 -  RELEASE  -
|  1> !wB97X-D3 RIJCOSX def2-SVPD def2/J TightSCF
|  2> *xyz 0 1
|  3> C          4.08422        1.74208       -2.11472
|  4> C          4.26524        2.50052       -0.79589
|  5> H          4.86853        3.39267       -0.98113
|  6> H          3.30764        2.82457       -0.38781
|  7> C          4.98224        1.65026        0.24742
|  8> F          4.36806        1.38927        1.31371
|  9> O          6.12892        1.23351       -0.04562
| 10> C          1.99727        0.43092       -1.39922
| 11> C          3.41275        0.37689       -1.96550
| 12> H          4.04741       -0.24659       -1.32671
| 13> H          3.39077       -0.11872       -2.94284
| 14> H          5.06847        1.59850       -2.56573
| 15> H          3.50336        2.36394       -2.80457
| 16> C          2.07018       -1.93671       -0.37240
| 17> C          1.32224       -0.93577       -1.25641
| 18> H          1.37644        1.05892       -2.04742
| 19> H          2.01534        0.92978       -0.42653
| 20> H          0.31665       -0.78721       -0.84828
| 21> H          1.18561       -1.37925       -2.24861
| 22> H          3.05500       -2.09002       -0.76167
| 23> H          1.54206       -2.86723       -0.36163
| 24> H          2.13634       -1.55260        0.62409
| 25> *
| 26> %MaxCore 64000
| 27> %pal nprocs 8
| 28> end
| 29> %scf
| 30>   MaxIter 150
| 31> end
| 32>
| 33>                          ****END OF INPUT****

CARTESIAN COORDINATES (ANGSTROEM)
---------------------------------
  C      4.084220    1.742080   -2.114720
  C      4.265240    2.500520   -0.795890
  H      4.868530    3.392670   -0.981130
  H      3.307640    2.824570   -0.387810
  C      4.982240    1.650260    0.247420
  F      4.368060    1.389270    1.313710
  O      6.128920    1.233510   -0.045620
  C      1.997270    0.430920   -1.399220
  C      3.412750    0.376890   -1.965500
  H      4.047410   -0.246590   -1.326710
  H      3.390770   -0.118720   -2.942840
  H      5.068470    1.598500   -2.565730
  H      3.503360    2.363940   -2.804570
  C      2.070180   -1.936710   -0.372400
  C      1.322240   -0.935770   -1.256410
  H      1.376440    1.058920   -2.047420
  H      2.015340    0.929780   -0.426530
  H      0.316650   -0.787210   -0.848280
  H      1.185610   -1.379250   -2.248610
  H      3.055000   -2.090020   -0.761670
  H      1.542060   -2.867230   -0.361630
  H      2.136340   -1.552600    0.624090

 Total Charge           Charge          ....    0
 Multiplicity           Mult            ....    1
 Number of Electrons    NEL             ....   72
 Basis Dimension        Dim             ....  290

ORBITAL ENERGIES
----------------

  NO   OCC          E(Eh)            E(eV)
   0   2.0000     -24.874193      -676.8612
   1   2.0000     -19.254504      -523.9417
   2   2.0000     -10.474479      -285.0251
   3   2.0000     -10.320102      -280.8243
   4   2.0000     -10.303940      -280.3845
   5   2.0000     -10.292249      -280.0663
   6   2.0000     -10.290210      -280.0109
   7   2.0000     -10.288042      -279.9519
   8   2.0000     -10.272806      -279.5373
   9   2.0000      -1.422746       -38.7149
  10   2.0000      -1.142386       -31.0859
  11   2.0000      -0.939940       -25.5771
  12   2.0000      -0.900587       -24.5062
  13   2.0000      -0.843918       -22.9642
  14   2.0000      -0.792378       -21.5617
  15   2.0000      -0.762118       -20.7383
  16   2.0000      -0.717260       -19.5176
  17   2.0000      -0.677352       -18.4317
  18   2.0000      -0.658248       -17.9118
  19   2.0000      -0.636306       -17.3148
  20   2.0000      -0.611728       -16.6460
  21   2.0000      -0.581077       -15.8119
  22   2.0000      -0.571923       -15.5628
  23   2.0000      -0.551721       -15.0131
  24   2.0000      -0.537198       -14.6179
  25   2.0000      -0.511011       -13.9053
  26   2.0000      -0.500836       -13.6284
  27   2.0000      -0.495093       -13.4722
  28   2.0000      -0.470335       -12.7985
  29   2.0000      -0.456418       -12.4198
  30   2.0000      -0.451373       -12.2825
  31   2.0000      -0.441545       -12.0151
  32   2.0000      -0.421269       -11.4633
  33   2.0000      -0.418034       -11.3753
  34   2.0000      -0.411171       -11.1885
  35   2.0000      -0.392320       -10.6756
  36   0.0000       0.049630         1.3505
  37   0.0000       0.085269         2.3203
  38   0.0000       0.102942         2.8012
  39   0.0000       0.106418         2.8958
  40   0.0000       0.109897         2.9905

MULLIKEN ATOMIC CHARGES
-----------------------
   0 C :    0.269109
   1 C :    0.061209
   2 H :   -0.063722
   3 H :    0.103552
   4 C :    0.859283
   5 F :   -0.414398
   6 O :   -0.530658
   7 C :   -0.042280
   8 C :   -0.194238
   9 H :   -0.039236
  10 H :   -0.131632
  11 H :   -0.014417
  12 H :   -0.059460
  13 C :    0.709906
  14 C :   -0.162107
  15 H :   -0.055836
  16 H :   -0.073872
  17 H :   -0.092967
  18 H :    0.010141
  19 H :   -0.070671
  20 H :   -0.073713
  21 H :    0.006008
Sum of atomic charges:   -0.0000000

LOEWDIN ATOMIC CHARGES
----------------------
   0 C :   -0.017515
   1 C :    0.044604
   2 H :    0.041066
   3 H :    0.018708
   4 C :   -0.002535
   5 F :   -0.038170
   6 O :   -0.137380
   7 C :   -0.043055
   8 C :   -0.035286
   9 H :    0.012021
  10 H :    0.033108
  11 H :    0.030270
  12 H :    0.029175
  13 C :    0.122073
  14 C :   -0.077251
  15 H :    0.026556
  16 H :    0.011561
  17 H :    0.019753
  18 H :    0.021432
  19 H :   -0.029028
  20 H :   -0.016967
  21 H :   -0.013139

  Mayer bond orders larger than 0.100000
B(  0-C ,  1-C ) :   1.1693 B(  0-C ,  2-H ) :   0.1631 B(  0-C ,  3-H ) :   0.1297
B(  0-C ,  8-C ) :   1.2629 B(  0-C , 11-H ) :   0.7658 B(  0-C , 12-H ) :   0.8561
B(  1-C ,  2-H ) :   0.8664 B(  1-C ,  3-H ) :   0.8490 B(  1-C ,  4-C ) :   1.0572
B(  4-C ,  5-F ) :   0.6864 B(  4-C ,  6-O ) :   1.8016 B(  7-C ,  8-C ) :   1.1707
B(  7-C , 10-H ) :   0.1364 B(  7-C , 14-C ) :   1.1838 B(  7-C , 15-H ) :   0.9177
B(  7-C , 16-H ) :   0.9315 B(  7-C , 17-H ) :   0.2551 B(  7-C , 18-H ) :   0.1126
B(  8-C ,  9-H ) :   0.9629 B(  8-C , 10-H ) :   0.9381 B(  8-C , 11-H ) :   0.2184
B(  8-C , 12-H ) :   0.1678 B(  8-C , 15-H ) :   0.1447 B(  8-C , 16-H ) :   0.1036
B( 13-C , 14-C ) :   1.2536 B( 13-C , 19-H ) :   0.8330 B( 13-C , 20-H ) :   0.7938
B( 13-C , 21-H ) :   0.7839 B( 14-C , 17-H ) :   0.8177 B( 14-C , 18-H ) :   0.8998
B( 14-C , 19-H ) :   0.1872 B( 14-C , 20-H ) :   0.2022 B( 14-C , 21-H ) :   0.2088

Dispersion correction           -0.007797591
FINAL SINGLE POINT ENERGY      -449.230795673396

DIPOLE MOMENT
-------------
                                X             Y             Z
Electronic contribution:     10.56488       6.94667       9.58550
Nuclear contribution   :    -11.59212      -6.46826      -9.98812
                        -----------------------------------------
Total Dipole Moment    :     -1.02723       0.47840      -0.40262
                        -----------------------------------------
Magnitude (a.u.)       :      1.20257
Magnitude (Debye)      :      3.05669

Rotational constants in cm-1:     0.075181     0.030584     0.025903
Rotational constants in MHz :  2253.876389   916.894315   776.546407

                             ****ORCA TERMINATED NORMALLY****
TOTAL RUN TIME: 0 days 0 hours 0 minutes 52 seconds 344 msec
