                         Program Version 5.0.0 -  RELEASE  -
|  1> !wB97X-D3 RIJCOSX def2-SVPD def2/J TightSCF
|  2> *xyz 0 1
|  3> C          4.08422        1.74208       -2.11472
|  4> C          4.26524        2.50052       -0.79589
|  5> H          4.86853        3.39267       -0.98113
|  6> H          3.30764        2.82457       -0.38781
|  7> C          4.98224        1.65026        0.24742
|  8> F          4.36806        1.38927        1.31371
|  9> O          6.12892        1.23351       -0.04562
| 10> C          1.99727        0.43092       -1.39922
| 11> C          3.41275        0.37689       -1.96550
| 12> H          4.04741       -0.24659       -1.32671
| 13> H          3.39077       -0.11872       -2.94284
| 14> H          5.06847        1.59850       -2.56573
| 15> H          3.50336        2.36394       -2.80457
| 16> C          2.39995       -1.38958        1.00949
| 17> C          2.07018       -1.93671       -0.37240
| 18> C          1.32224       -0.93577       -1.25641
| 19> H          1.47275       -2.85090       -0.28400
| 20> H          3.00354       -2.23404       -0.86254
| 21> H          1.37644        1.05892       -2.04742
| 22> H          2.01534        0.92978       -0.42653
| 23> H          0.31665       -0.78721       -0.84828
| 24> H          1.18561       -1.37925       -2.24861
| 25> H          2.98295       -0.49786        0.91024
| 26> H          2.95620       -2.12008        1.55891
| 27> H          1.49248       -1.16626        1.53057
| 28> *
| 29> %MaxCore 64000
| 30> %pal nprocs 8
| 31> end
| 32> %scf
| 33>   MaxIter 150
| 34> end
| 35>
| 36>                          ****END OF INPUT****

CARTESIAN COORDINATES (ANGSTROEM)
---------------------------------
  C      4.084220    1.742080   -2.114720
  C      4.265240    2.500520   -0.795890
  H      4.868530    3.392670   -0.981130
  H      3.307640    2.824570   -0.387810
  C      4.982240    1.650260    0.247420
  F      4.368060    1.389270    1.313710
  O      6.128920    1.233510   -0.045620
  C      1.997270    0.430920   -1.399220
  C      3.412750    0.376890   -1.965500
  H      4.047410   -0.246590   -1.326710
  H      3.390770   -0.118720   -2.942840
  H      5.068470    1.598500   -2.565730
  H      3.503360    2.363940   -2.804570
  C      2.399950   -1.389580    1.009490
  C      2.070180   -1.936710   -0.372400
  C      1.322240   -0.935770   -1.256410
  H      1.472750   -2.850900   -0.284000
  H      3.003540   -2.234040   -0.862540
  H      1.376440    1.058920   -2.047420
  H      2.015340    0.929780   -0.426530
  H      0.316650   -0.787210   -0.848280
  H      1.185610   -1.379250   -2.248610
  H      2.982950   -0.497860    0.910240
  H      2.956200   -2.120080    1.558910
  H      1.492480   -1.166260    1.530570

 Total Charge           Charge          ....    0
 Multiplicity           Mult            ....    1
 Number of Electrons    NEL             ....   80
 Basis Dimension        Dim             ....  326

ORBITAL ENERGIES
----------------

  NO   OCC          E(Eh)            E(eV)
   0   2.0000     -24.875625      -676.9002
   1   2.0000     -19.255413      -523.9664
   2   2.0000     -10.475271      -285.0466
   3   2.0000     -10.320399      -280.8323
   4   2.0000     -10.303997      -280.3860
   5   2.0000     -10.292149      -280.0636
   6   2.0000     -10.289487      -279.9912
   7   2.0000     -10.285768      -279.8900
   8   2.0000     -10.283145      -279.8186
   9   2.0000     -10.269481      -279.4468
  10   2.0000      -1.424271       -38.7564
  11   2.0000      -1.143157       -31.1069
  12   2.0000      -0.941536       -25.6205
  13   2.0000      -0.909946       -24.7609
  14   2.0000      -0.859796       -23.3962
  15   2.0000      -0.814723       -22.1697
  16   2.0000      -0.772948       -21.0330
  17   2.0000      -0.749446       -20.3935
  18   2.0000      -0.707092       -19.2410
  19   2.0000      -0.665305       -18.1039
  20   2.0000      -0.658728       -17.9249
  21   2.0000      -0.636975       -17.3330
  22   2.0000      -0.611648       -16.6438
  23   2.0000      -0.586322       -15.9546
  24   2.0000      -0.577413       -15.7122
  25   2.0000      -0.553757       -15.0685
  26   2.0000      -0.546875       -14.8812
  27   2.0000      -0.518812       -14.1176
  28   2.0000      -0.507582       -13.8120
  29   2.0000      -0.498058       -13.5528
  30   2.0000      -0.484411       -13.1815
  31   2.0000      -0.479840       -13.0571
  32   2.0000      -0.456595       -12.4246
  33   2.0000      -0.446201       -12.1418
  34   2.0000      -0.440936       -11.9985
  35   2.0000      -0.435612       -11.8536
  36   2.0000      -0.413306       -11.2466
  37   2.0000      -0.412658       -11.2290
  38   2.0000      -0.405631       -11.0378
  39   2.0000      -0.392511       -10.6808
  40   0.0000       0.048555         1.3213
  41   0.0000       0.086317         2.3488
  42   0.0000       0.100078         2.7233
  43   0.0000       0.106467         2.8971
  44   0.0000       0.107845         2.9346

MULLIKEN ATOMIC CHARGES
-----------------------
   0 C :    0.296702
   1 C :    0.084451
   2 H :   -0.086235
   3 H :    0.121167
   4 C :    0.875176
   5 F :   -0.422561
   6 O :   -0.543730
   7 C :   -0.122667
   8 C :   -0.137743
   9 H :   -0.024236
  10 H :   -0.129751
  11 H :   -0.012817
  12 H :   -0.066055
  13 C :    1.542401
  14 C :   -0.377348
  15 C :    0.365671
  16 H :   -0.308172
  17 H :    0.095703
  18 H :   -0.185857
  19 H :    0.004665
  20 H :   -0.012105
  21 H :    0.005007
  22 H :   -1.026752
  23 H :    0.010672
  24 H :    0.054414
Sum of atomic charges:   -0.0000000

LOEWDIN ATOMIC CHARGES
----------------------
   0 C :   -0.016079
   1 C :    0.046703
   2 H :    0.041133
   3 H :    0.019810
   4 C :   -0.001231
   5 F :   -0.038727
   6 O :   -0.134883
   7 C :   -0.039055
   8 C :   -0.029582
   9 H :    0.013559
  10 H :    0.033222
  11 H :    0.030403
  12 H :    0.029443
  13 C :    0.130785
  14 C :   -0.076523
  15 C :   -0.037833
  16 H :    0.019690
  17 H :    0.014582
  18 H :    0.027039
  19 H :    0.003158
  20 H :    0.023216
  21 H :    0.022062
  22 H :   -0.061660
  23 H :   -0.011098
  24 H :   -0.008136

  Mayer bond orders larger than 0.100000
B(  0-C ,  1-C ) :   1.1670 B(  0-C ,  2-H ) :   0.1673 B(  0-C ,  3-H ) :   0.1317
B(  0-C ,  8-C ) :   1.2309 B(  0-C , 11-H ) :   0.7558 B(  0-C , 12-H ) :   0.8643
B(  1-C ,  2-H ) :   0.8740 B(  1-C ,  3-H ) :   0.8339 B(  1-C ,  4-C ) :   1.0514
B(  4-C ,  5-F ) :   0.6587 B(  4-C ,  6-O ) :   1.7840 B(  5-F , 22-H ) :   0.1047
B(  7-C ,  8-C ) :   1.1699 B(  7-C , 10-H ) :   0.1458 B(  7-C , 15-C ) :   1.1932
B(  7-C , 18-H ) :   0.9519 B(  7-C , 19-H ) :   0.9149 B(  7-C , 20-H ) :   0.2725
B(  7-C , 21-H ) :   0.1284 B(  8-C ,  9-H ) :   0.9458 B(  8-C , 10-H ) :   0.9291
B(  8-C , 11-H ) :   0.2295 B(  8-C , 12-H ) :   0.1523 B(  8-C , 18-H ) :   0.1242
B( 13-C , 14-C ) :   1.0632 B( 13-C , 17-H ) :   0.1059 B( 13-C , 23-H ) :   0.6316
B( 13-C , 24-H ) :   0.5311 B( 14-C , 15-C ) :   1.1375 B( 14-C , 16-H ) :   1.0611
B( 14-C , 17-H ) :   0.8639 B( 14-C , 20-H ) :   0.1418 B( 14-C , 22-H ) :   0.4158
B( 14-C , 23-H ) :   0.2023 B( 14-C , 24-H ) :   0.2150 B( 15-C , 16-H ) :   0.1236
B( 15-C , 17-H ) :   0.1012 B( 15-C , 20-H ) :   0.7125 B( 15-C , 21-H ) :   0.8512
B( 22-H , 23-H ) :   0.1738 B( 22-H , 24-H ) :   0.2959

Dispersion correction           -0.010131848
FINAL SINGLE POINT ENERGY      -488.509200518031

DIPOLE MOMENT
-------------
                                X             Y             Z
Electronic contribution:     11.04841       7.87482       7.45543
Nuclear contribution   :    -12.04432      -7.40750      -7.84420
                        -----------------------------------------
Total Dipole Moment    :     -0.99590       0.46732      -0.38878
                        -----------------------------------------
Magnitude (a.u.)       :      1.16678
Magnitude (Debye)      :      2.96571

Rotational constants in cm-1:     0.057868     0.028005     0.022027
Rotational constants in MHz :  1734.835850   839.582138   660.349665

                             ****ORCA TERMINATED NORMALLY****
TOTAL RUN TIME: 0 days 0 hours 1 minutes 10 seconds 776 msec
