                         Program Version 5.0.0 -  RELEASE  -
|  1> !wB97X-D3 RIJCOSX def2-SVPD def2/J TightSCF
|  2> *xyz 0 1
|  3> C          4.08422        1.74208       -2.11472
|  4> C          4.26524        2.50052       -0.79589
|  5> H          4.86853        3.39267       -0.98113
|  6> H          3.30764        2.82457       -0.38781
|  7> C          4.98224        1.65026        0.24742
|  8> F          4.36806        1.38927        1.31371
|  9> O          6.12892        1.23351       -0.04562
| 10> H          3.57911        2.36849       -2.81997
| 11> H          3.50424        0.85965       -1.94198
| 12> H          5.04288        1.46841       -2.50327
| 13> *
| 14> %MaxCore 64000
| 15> %pal nprocs 8
| 16> end
| 17> %scf
| 18>   MaxIter 150
| 19> end
| 20>
| 21>
| 22>                          ****END OF INPUT****

CARTESIAN COORDINATES (ANGSTROEM)
---------------------------------
  C      4.084220    1.742080   -2.114720
  C      4.265240    2.500520   -0.795890
  H      4.868530    3.392670   -0.981130
  H      3.307640    2.824570   -0.387810
  C      4.982240    1.650260    0.247420
  F      4.368060    1.389270    1.313710
  O      6.128920    1.233510   -0.045620
  H      3.579110    2.368490   -2.819970
  H      3.504240    0.859650   -1.941980
  H      5.042880    1.468410   -2.503270

 Total Charge           Charge          ....    0
 Multiplicity           Mult            ....    1
 Number of Electrons    NEL             ....   40
 Basis Dimension        Dim             ....  146

ORBITAL ENERGIES
----------------

  NO   OCC          E(Eh)            E(eV)
   0   2.0000     -24.874958      -676.8820
   1   2.0000     -19.255589      -523.9712
   2   2.0000     -10.475544      -285.0540
   3   2.0000     -10.324442      -280.9424
   4   2.0000     -10.297242      -280.2022
   5   2.0000      -1.423923       -38.7469
   6   2.0000      -1.143477       -31.1156
   7   2.0000      -0.914627       -24.8883
   8   2.0000      -0.799217       -21.7478
   9   2.0000      -0.748414       -20.3654
  10   2.0000      -0.659081       -17.9345
  11   2.0000      -0.643711       -17.5163
  12   2.0000      -0.614269       -16.7151
  13   2.0000      -0.569188       -15.4884
  14   2.0000      -0.537879       -14.6364
  15   2.0000      -0.500742       -13.6259
  16   2.0000      -0.479160       -13.0386
  17   2.0000      -0.472822       -12.8661
  18   2.0000      -0.446360       -12.1461
  19   2.0000      -0.394360       -10.7311
  20   0.0000       0.049559         1.3486
  21   0.0000       0.085745         2.3332
  22   0.0000       0.114904         3.1267
  23   0.0000       0.125306         3.4098
  24   0.0000       0.148980         4.0539

MULLIKEN ATOMIC CHARGES
-----------------------
   0 C :    0.476984
   1 C :   -0.400900
   2 H :    0.088831
   3 H :    0.008397
   4 C :    0.768253
   5 F :   -0.379087
   6 O :   -0.509688
   7 H :   -0.013594
   8 H :   -0.037525
   9 H :   -0.001672
Sum of atomic charges:    0.0000000

LOEWDIN ATOMIC CHARGES
----------------------
   0 C :    0.138739
   1 C :    0.001490
   2 H :    0.041636
   3 H :    0.023856
   4 C :   -0.000653
   5 F :   -0.039611
   6 O :   -0.140229
   7 H :   -0.010911
   8 H :   -0.007230
   9 H :   -0.007087

  Mayer bond orders larger than 0.100000
B(  0-C ,  1-C ) :   1.2851 B(  0-C ,  7-H ) :   0.8699 B(  0-C ,  8-H ) :   0.8760
B(  0-C ,  9-H ) :   0.8544 B(  1-C ,  2-H ) :   0.8923 B(  1-C ,  3-H ) :   0.9766
B(  1-C ,  4-C ) :   1.0894 B(  1-C ,  7-H ) :   0.1298 B(  1-C ,  8-H ) :   0.1396
B(  1-C ,  9-H ) :   0.1562 B(  4-C ,  5-F ) :   0.7472 B(  4-C ,  6-O ) :   1.8354

Dispersion correction           -0.001915034
FINAL SINGLE POINT ENERGY      -292.116745513527

DIPOLE MOMENT
-------------
                                X             Y             Z
Electronic contribution:      1.89280      -2.02402       8.12574
Nuclear contribution   :     -2.87511       2.61564      -8.50037
                        -----------------------------------------
Total Dipole Moment    :     -0.98231       0.59162      -0.37463
                        -----------------------------------------
Magnitude (a.u.)       :      1.20635
Magnitude (Debye)      :      3.06631

Rotational constants in cm-1:     0.297822     0.128965     0.102219
Rotational constants in MHz :  8928.481997  3866.271686  3064.463504

                             ****ORCA TERMINATED NORMALLY****
TOTAL RUN TIME: 0 days 0 hours 0 minutes 12 seconds 292 msec
