                         Program Version 5.0.0 -  RELEASE  -
|  1> !wB97X-D3 RIJCOSX def2-SVPD def2/J TightSCF
|  2> *xyz 0 1
|  3> C          3.91385       -1.65829        3.01513
|  4> C          5.03927       -0.90115        2.49282
|  5> C          6.21038       -1.41726        2.17824
|  6> N          6.53591       -2.67712        2.55608
|  7> N          7.07675       -0.70082        1.47891
|  8> H          7.95464       -1.12155        1.20755
|  9> H          6.75616        0.10664        0.96028
| 10> H          4.84217        0.01761        2.11519
| 11> H          5.99388       -3.12692        3.28278
| 12> H          7.49844       -2.97548        2.46878
| 13> C          3.13916       -2.37657        1.91061
| 14> H          3.26723       -0.93940        3.52069
| 15> H          4.24720       -2.35509        3.79006
| 16> C          2.39995       -1.38958        1.00949
| 17> H          2.44075       -3.08712        2.36298
| 18> H          3.84448       -2.97046        1.31868
| 19> C          2.07018       -1.93671       -0.37240
| 20> H          1.48161       -1.06154        1.50991
| 21> H          3.00863       -0.49000        0.89745
| 22> H          1.55578       -1.18868       -0.93874
| 23> H          1.44721       -2.80112       -0.27443
| 24> H          2.97578       -2.20487       -0.87527
| 25> *
| 26> %MaxCore 64000
| 27> %pal nprocs 8
| 28> end
| 29> %scf
| 30>   MaxIter 150
| 31> end
| 32>
| 33>                          ****END OF INPUT****

CARTESIAN COORDINATES (ANGSTROEM)
---------------------------------
  C      3.913850   -1.658290    3.015130
  C      5.039270   -0.901150    2.492820
  C      6.210380   -1.417260    2.178240
  N      6.535910   -2.677120    2.556080
  N      7.076750   -0.700820    1.478910
  H      7.954640   -1.121550    1.207550
  H      6.756160    0.106640    0.960280
  H      4.842170    0.017610    2.115190
  H      5.993880   -3.126920    3.282780
  H      7.498440   -2.975480    2.468780
  C      3.139160   -2.376570    1.910610
  H      3.267230   -0.939400    3.520690
  H      4.247200   -2.355090    3.790060
  C      2.399950   -1.389580    1.009490
  H      2.440750   -3.087120    2.362980
  H      3.844480   -2.970460    1.318680
  C      2.070180   -1.936710   -0.372400
  H      1.481610   -1.061540    1.509910
  H      3.008630   -0.490000    0.897450
  H      1.555780   -1.188680   -0.938740
  H      1.447210   -2.801120   -0.274430
  H      2.975780   -2.204870   -0.875270

 Total Charge           Charge          ....    0
 Multiplicity           Mult            ....    1
 Number of Electrons    NEL             ....   64
 Basis Dimension        Dim             ....  272

ORBITAL ENERGIES
----------------

  NO   OCC          E(Eh)            E(eV)
   0   2.0000     -14.439688      -392.9239
   1   2.0000     -14.437698      -392.8697
   2   2.0000     -10.334892      -281.2267
   3   2.0000     -10.267531      -279.3937
   4   2.0000     -10.263913      -279.2953
   5   2.0000     -10.263650      -279.2881
   6   2.0000     -10.259566      -279.1770
   7   2.0000     -10.210911      -277.8530
   8   2.0000      -1.071622       -29.1603
   9   2.0000      -0.978271       -26.6201
  10   2.0000      -0.905399       -24.6372
  11   2.0000      -0.855298       -23.2738
  12   2.0000      -0.795034       -21.6340
  13   2.0000      -0.730696       -19.8832
  14   2.0000      -0.691492       -18.8165
  15   2.0000      -0.670669       -18.2498
  16   2.0000      -0.644184       -17.5291
  17   2.0000      -0.611831       -16.6488
  18   2.0000      -0.574083       -15.6216
  19   2.0000      -0.555199       -15.1077
  20   2.0000      -0.531316       -14.4579
  21   2.0000      -0.519021       -14.1233
  22   2.0000      -0.504755       -13.7351
  23   2.0000      -0.484827       -13.1928
  24   2.0000      -0.480597       -13.0777
  25   2.0000      -0.443204       -12.0602
  26   2.0000      -0.435122       -11.8403
  27   2.0000      -0.412666       -11.2292
  28   2.0000      -0.401080       -10.9140
  29   2.0000      -0.395591       -10.7646
  30   2.0000      -0.363549        -9.8927
  31   2.0000      -0.249396        -6.7864
  32   0.0000       0.087358         2.3771
  33   0.0000       0.107624         2.9286
  34   0.0000       0.113838         3.0977
  35   0.0000       0.123339         3.3562
  36   0.0000       0.136197         3.7061

MULLIKEN ATOMIC CHARGES
-----------------------
   0 C :    0.353063
   1 C :   -0.259474
   2 C :    0.907757
   3 N :   -0.074205
   4 N :   -0.057650
   5 H :   -0.122228
   6 H :   -0.026721
   7 H :   -0.266346
   8 H :   -0.005951
   9 H :   -0.247774
  10 C :    0.080470
  11 H :   -0.070215
  12 H :   -0.125690
  13 C :   -0.387242
  14 H :   -0.117444
  15 H :   -0.078990
  16 C :    0.821468
  17 H :    0.024493
  18 H :   -0.221156
  19 H :   -0.070229
  20 H :   -0.039081
  21 H :   -0.016854
Sum of atomic charges:   -0.0000000

LOEWDIN ATOMIC CHARGES
----------------------
   0 C :   -0.062826
   1 C :   -0.042359
   2 C :   -0.215033
   3 N :    0.197866
   4 N :    0.171087
   5 H :   -0.006193
   6 H :    0.011405
   7 H :   -0.049171
   8 H :   -0.013956
   9 H :   -0.010503
  10 C :   -0.040953
  11 H :    0.020405
  12 H :    0.002346
  13 C :   -0.084179
  14 H :    0.018128
  15 H :    0.017758
  16 C :    0.108859
  17 H :    0.024357
  18 H :    0.006832
  19 H :   -0.020296
  20 H :   -0.016507
  21 H :   -0.017067

  Mayer bond orders larger than 0.100000
B(  0-C ,  1-C ) :   1.1545 B(  0-C ,  7-H ) :   0.3504 B(  0-C , 10-C ) :   1.0982
B(  0-C , 11-H ) :   0.7375 B(  0-C , 12-H ) :   0.8479 B(  0-C , 15-H ) :   0.1059
B(  1-C ,  2-C ) :   1.7936 B(  1-C ,  3-N ) :   0.2145 B(  1-C ,  4-N ) :   0.3102
B(  1-C ,  7-H ) :   0.7156 B(  1-C , 11-H ) :   0.2847 B(  1-C , 12-H ) :   0.2030
B(  2-C ,  3-N ) :   0.8388 B(  2-C ,  4-N ) :   0.7973 B(  2-C ,  6-H ) :  -0.1014
B(  2-C ,  7-H ) :   0.2193 B(  2-C ,  9-H ) :  -0.1548 B(  2-C , 12-H ) :  -0.1121
B(  3-N ,  8-H ) :   1.0075 B(  3-N ,  9-H ) :   1.3010 B(  4-N ,  5-H ) :   1.1351
B(  4-N ,  6-H ) :   1.1494 B(  5-H ,  6-H ) :  -0.1487 B(  8-H ,  9-H ) :  -0.1793
B( 10-C , 13-C ) :   1.1720 B( 10-C , 14-H ) :   0.9430 B( 10-C , 15-H ) :   0.9598
B( 10-C , 17-H ) :   0.1872 B( 10-C , 18-H ) :   0.1130 B( 13-C , 14-H ) :   0.1476
B( 13-C , 16-C ) :   1.2539 B( 13-C , 17-H ) :   0.8743 B( 13-C , 18-H ) :   0.9619
B( 13-C , 19-H ) :   0.3033 B( 13-C , 20-H ) :   0.1947 B( 13-C , 21-H ) :   0.1748
B( 16-C , 19-H ) :   0.7041 B( 16-C , 20-H ) :   0.7852 B( 16-C , 21-H ) :   0.8287

Dispersion correction           -0.006549785
FINAL SINGLE POINT ENERGY      -346.225766287332

DIPOLE MOMENT
-------------
                                X             Y             Z
Electronic contribution:      7.14574       0.83929       2.84738
Nuclear contribution   :     -6.24213      -1.08224      -3.08485
                        -----------------------------------------
Total Dipole Moment    :      0.90361      -0.24296      -0.23748
                        -----------------------------------------
Magnitude (a.u.)       :      0.96536
Magnitude (Debye)      :      2.45376

Rotational constants in cm-1:     0.112920     0.033692     0.030869
Rotational constants in MHz :  3385.258272  1010.056490   925.433074

                             ****ORCA TERMINATED NORMALLY****
TOTAL RUN TIME: 0 days 0 hours 0 minutes 46 seconds 369 msec
