                         Program Version 5.0.0 -  RELEASE  -
|  1> !wB97X-D3 RIJCOSX def2-SVPD def2/J TightSCF
|  2> *xyz 0 1
|  3> C          4.08422        1.74208       -2.11472
|  4> C          4.26524        2.50052       -0.79589
|  5> H          4.86853        3.39267       -0.98113
|  6> H          3.30764        2.82457       -0.38781
|  7> C          4.98224        1.65026        0.24742
|  8> F          4.36806        1.38927        1.31371
|  9> O          6.12892        1.23351       -0.04562
| 10> C          1.99727        0.43092       -1.39922
| 11> C          3.41275        0.37689       -1.96550
| 12> H          4.04741       -0.24659       -1.32671
| 13> H          3.39077       -0.11872       -2.94284
| 14> H          5.06847        1.59850       -2.56573
| 15> H          3.50336        2.36394       -2.80457
| 16> C          1.32224       -0.93577       -1.25641
| 17> H          1.37644        1.05892       -2.04742
| 18> H          2.01534        0.92978       -0.42653
| 19> H          1.30366       -1.42552       -2.20757
| 20> H          0.32075       -0.80379       -0.90357
| 21> H          1.87053       -1.53318       -0.55828
| 22> *
| 23> %MaxCore 64000
| 24> %pal nprocs 8
| 25> end
| 26> %scf
| 27>   MaxIter 150
| 28> end
| 29>
| 30>                          ****END OF INPUT****

CARTESIAN COORDINATES (ANGSTROEM)
---------------------------------
  C      4.084220    1.742080   -2.114720
  C      4.265240    2.500520   -0.795890
  H      4.868530    3.392670   -0.981130
  H      3.307640    2.824570   -0.387810
  C      4.982240    1.650260    0.247420
  F      4.368060    1.389270    1.313710
  O      6.128920    1.233510   -0.045620
  C      1.997270    0.430920   -1.399220
  C      3.412750    0.376890   -1.965500
  H      4.047410   -0.246590   -1.326710
  H      3.390770   -0.118720   -2.942840
  H      5.068470    1.598500   -2.565730
  H      3.503360    2.363940   -2.804570
  C      1.322240   -0.935770   -1.256410
  H      1.376440    1.058920   -2.047420
  H      2.015340    0.929780   -0.426530
  H      1.303660   -1.425520   -2.207570
  H      0.320750   -0.803790   -0.903570
  H      1.870530   -1.533180   -0.558280

 Total Charge           Charge          ....    0
 Multiplicity           Mult            ....    1
 Number of Electrons    NEL             ....   64
 Basis Dimension        Dim             ....  254

ORBITAL ENERGIES
----------------

  NO   OCC          E(Eh)            E(eV)
   0   2.0000     -24.874368      -676.8660
   1   2.0000     -19.254662      -523.9460
   2   2.0000     -10.474644      -285.0296
   3   2.0000     -10.320258      -280.8285
   4   2.0000     -10.304081      -280.3883
   5   2.0000     -10.292802      -280.0814
   6   2.0000     -10.291866      -280.0559
   7   2.0000     -10.277026      -279.6521
   8   2.0000      -1.423002       -38.7218
   9   2.0000      -1.142581       -31.0912
  10   2.0000      -0.938192       -25.5295
  11   2.0000      -0.887924       -24.1616
  12   2.0000      -0.824630       -22.4393
  13   2.0000      -0.771973       -21.0065
  14   2.0000      -0.734118       -19.9764
  15   2.0000      -0.691217       -18.8090
  16   2.0000      -0.658439       -17.9170
  17   2.0000      -0.636763       -17.3272
  18   2.0000      -0.611958       -16.6522
  19   2.0000      -0.584003       -15.8915
  20   2.0000      -0.564603       -15.3636
  21   2.0000      -0.540013       -14.6945
  22   2.0000      -0.531851       -14.4724
  23   2.0000      -0.502323       -13.6689
  24   2.0000      -0.492796       -13.4097
  25   2.0000      -0.474953       -12.9241
  26   2.0000      -0.462227       -12.5778
  27   2.0000      -0.448238       -12.1972
  28   2.0000      -0.428882       -11.6705
  29   2.0000      -0.425473       -11.5777
  30   2.0000      -0.420199       -11.4342
  31   2.0000      -0.392561       -10.6821
  32   0.0000       0.049531         1.3478
  33   0.0000       0.085012         2.3133
  34   0.0000       0.103480         2.8158
  35   0.0000       0.110312         3.0017
  36   0.0000       0.112434         3.0595

MULLIKEN ATOMIC CHARGES
-----------------------
   0 C :    0.161401
   1 C :    0.061423
   2 H :   -0.037261
   3 H :    0.069686
   4 C :    0.825820
   5 F :   -0.398082
   6 O :   -0.522383
   7 C :   -0.466234
   8 C :   -0.191489
   9 H :    0.030844
  10 H :   -0.118544
  11 H :    0.007439
  12 H :   -0.071011
  13 C :    0.865660
  14 H :   -0.036555
  15 H :   -0.083089
  16 H :   -0.002758
  17 H :   -0.066206
  18 H :   -0.028663
Sum of atomic charges:   -0.0000000

LOEWDIN ATOMIC CHARGES
----------------------
   0 C :   -0.020382
   1 C :    0.043338
   2 H :    0.041229
   3 H :    0.018514
   4 C :   -0.003525
   5 F :   -0.037612
   6 O :   -0.137830
   7 C :   -0.084213
   8 C :   -0.040933
   9 H :    0.025358
  10 H :    0.029264
  11 H :    0.029832
  12 H :    0.028972
  13 C :    0.120256
  14 H :    0.025396
  15 H :    0.008469
  16 H :   -0.015500
  17 H :   -0.016558
  18 H :   -0.014076

  Mayer bond orders larger than 0.100000
B(  0-C ,  1-C ) :   1.1807 B(  0-C ,  2-H ) :   0.1569 B(  0-C ,  3-H ) :   0.1364
B(  0-C ,  8-C ) :   1.2430 B(  0-C ,  9-H ) :   0.1166 B(  0-C , 11-H ) :   0.8117
B(  0-C , 12-H ) :   0.8703 B(  1-C ,  2-H ) :   0.8495 B(  1-C ,  3-H ) :   0.8666
B(  1-C ,  4-C ) :   1.0663 B(  1-C , 11-H ) :   0.1000 B(  1-C , 12-H ) :   0.1030
B(  4-C ,  5-F ) :   0.6978 B(  4-C ,  6-O ) :   1.8125 B(  7-C ,  8-C ) :   1.1869
B(  7-C , 10-H ) :   0.1047 B(  7-C , 13-C ) :   1.2510 B(  7-C , 14-H ) :   0.9362
B(  7-C , 15-H ) :   0.9457 B(  7-C , 16-H ) :   0.1793 B(  7-C , 17-H ) :   0.3125
B(  7-C , 18-H ) :   0.2005 B(  8-C ,  9-H ) :   0.9555 B(  8-C , 10-H ) :   0.9472
B(  8-C , 11-H ) :   0.1799 B(  8-C , 12-H ) :   0.1593 B(  8-C , 14-H ) :   0.1428
B(  8-C , 15-H ) :   0.1252 B( 13-C , 16-H ) :   0.7996 B( 13-C , 17-H ) :   0.6861
B( 13-C , 18-H ) :   0.8071

Dispersion correction           -0.006171887
FINAL SINGLE POINT ENERGY      -409.952805263407

DIPOLE MOMENT
-------------
                                X             Y             Z
Electronic contribution:      9.88513       4.06399      10.49311
Nuclear contribution   :    -10.90432      -3.55765     -10.89527
                        -----------------------------------------
Total Dipole Moment    :     -1.01919       0.50634      -0.40217
                        -----------------------------------------
Magnitude (a.u.)       :      1.20701
Magnitude (Debye)      :      3.06796

Rotational constants in cm-1:     0.100657     0.038787     0.033381
Rotational constants in MHz :  3017.632956  1162.814205  1000.742793

                             ****ORCA TERMINATED NORMALLY****
TOTAL RUN TIME: 0 days 0 hours 0 minutes 40 seconds 272 msec
