                         Program Version 5.0.0 -  RELEASE  -
|  1> !wB97X-D3 RIJCOSX def2-SVPD def2/J TightSCF
|  2> *xyz 0 1
|  3> C          4.08422        1.74208       -2.11472
|  4> C          4.26524        2.50052       -0.79589
|  5> H          4.86853        3.39267       -0.98113
|  6> H          3.30764        2.82457       -0.38781
|  7> C          4.98224        1.65026        0.24742
|  8> O          4.36806        1.38927        1.31371
|  9> F          6.12892        1.23351       -0.04562
| 10> C          1.99727        0.43092       -1.39922
| 11> C          3.41275        0.37689       -1.96550
| 12> H          4.04741       -0.24659       -1.32671
| 13> H          3.39077       -0.11872       -2.94284
| 14> H          5.06847        1.59850       -2.56573
| 15> H          3.50336        2.36394       -2.80457
| 16> C          2.07018       -1.93671       -0.37240
| 17> C          1.32224       -0.93577       -1.25641
| 18> H          1.37644        1.05892       -2.04742
| 19> H          2.01534        0.92978       -0.42653
| 20> H          0.31665       -0.78721       -0.84828
| 21> H          1.18561       -1.37925       -2.24861
| 22> H          3.05500       -2.09002       -0.76167
| 23> H          1.54206       -2.86723       -0.36163
| 24> H          2.13634       -1.55260        0.62409
| 25> *
| 26> %MaxCore 64000
| 27> %pal nprocs 8
| 28> end
| 29> %scf
| 30>   MaxIter 150
| 31> end
| 32>
| 33>                          ****END OF INPUT****

CARTESIAN COORDINATES (ANGSTROEM)
---------------------------------
  C      4.084220    1.742080   -2.114720
  C      4.265240    2.500520   -0.795890
  H      4.868530    3.392670   -0.981130
  H      3.307640    2.824570   -0.387810
  C      4.982240    1.650260    0.247420
  O      4.368060    1.389270    1.313710
  F      6.128920    1.233510   -0.045620
  C      1.997270    0.430920   -1.399220
  C      3.412750    0.376890   -1.965500
  H      4.047410   -0.246590   -1.326710
  H      3.390770   -0.118720   -2.942840
  H      5.068470    1.598500   -2.565730
  H      3.503360    2.363940   -2.804570
  C      2.070180   -1.936710   -0.372400
  C      1.322240   -0.935770   -1.256410
  H      1.376440    1.058920   -2.047420
  H      2.015340    0.929780   -0.426530
  H      0.316650   -0.787210   -0.848280
  H      1.185610   -1.379250   -2.248610
  H      3.055000   -2.090020   -0.761670
  H      1.542060   -2.867230   -0.361630
  H      2.136340   -1.552600    0.624090

 Total Charge           Charge          ....    0
 Multiplicity           Mult            ....    1
 Number of Electrons    NEL             ....   72
 Basis Dimension        Dim             ....  290

ORBITAL ENERGIES
----------------

  NO   OCC          E(Eh)            E(eV)
   0   2.0000     -24.875637      -676.9005
   1   2.0000     -19.254755      -523.9485
   2   2.0000     -10.474602      -285.0284
   3   2.0000     -10.319966      -280.8205
   4   2.0000     -10.307875      -280.4916
   5   2.0000     -10.293930      -280.1121
   6   2.0000     -10.285651      -279.8868
   7   2.0000     -10.284126      -279.8453
   8   2.0000     -10.267960      -279.4054
   9   2.0000      -1.425603       -38.7926
  10   2.0000      -1.140063       -31.0227
  11   2.0000      -0.941515       -25.6199
  12   2.0000      -0.899206       -24.4686
  13   2.0000      -0.842403       -22.9230
  14   2.0000      -0.787872       -21.4391
  15   2.0000      -0.763921       -20.7873
  16   2.0000      -0.718345       -19.5472
  17   2.0000      -0.676019       -18.3954
  18   2.0000      -0.660296       -17.9676
  19   2.0000      -0.644373       -17.5343
  20   2.0000      -0.600716       -16.3463
  21   2.0000      -0.580358       -15.7924
  22   2.0000      -0.572853       -15.5881
  23   2.0000      -0.549163       -14.9435
  24   2.0000      -0.535595       -14.5743
  25   2.0000      -0.510574       -13.8934
  26   2.0000      -0.498145       -13.5552
  27   2.0000      -0.493480       -13.4283
  28   2.0000      -0.470358       -12.7991
  29   2.0000      -0.458574       -12.4784
  30   2.0000      -0.453765       -12.3476
  31   2.0000      -0.442184       -12.0324
  32   2.0000      -0.419827       -11.4241
  33   2.0000      -0.414204       -11.2711
  34   2.0000      -0.410031       -11.1575
  35   2.0000      -0.387444       -10.5429
  36   0.0000       0.052488         1.4283
  37   0.0000       0.085042         2.3141
  38   0.0000       0.104058         2.8316
  39   0.0000       0.106055         2.8859
  40   0.0000       0.111237         3.0269

MULLIKEN ATOMIC CHARGES
-----------------------
   0 C :    0.247843
   1 C :    0.082410
   2 H :   -0.050518
   3 H :    0.071143
   4 C :    0.869024
   5 O :   -0.521513
   6 F :   -0.410656
   7 C :   -0.063390
   8 C :   -0.165539
   9 H :   -0.031171
  10 H :   -0.141879
  11 H :   -0.035213
  12 H :   -0.072718
  13 C :    0.704373
  14 C :   -0.162592
  15 H :   -0.052775
  16 H :   -0.049439
  17 H :   -0.091273
  18 H :    0.006097
  19 H :   -0.076559
  20 H :   -0.072734
  21 H :    0.017079
Sum of atomic charges:   -0.0000000

LOEWDIN ATOMIC CHARGES
----------------------
   0 C :   -0.025500
   1 C :    0.047935
   2 H :    0.036372
   3 H :    0.029807
   4 C :   -0.007442
   5 O :   -0.142450
   6 F :   -0.031926
   7 C :   -0.038203
   8 C :   -0.037246
   9 H :    0.011098
  10 H :    0.031785
  11 H :    0.024949
  12 H :    0.029243
  13 C :    0.123160
  14 C :   -0.076680
  15 H :    0.026352
  16 H :    0.016654
  17 H :    0.020259
  18 H :    0.019919
  19 H :   -0.030617
  20 H :   -0.017704
  21 H :   -0.009763

  Mayer bond orders larger than 0.100000
B(  0-C ,  1-C ) :   1.1629 B(  0-C ,  2-H ) :   0.1650 B(  0-C ,  3-H ) :   0.1223
B(  0-C ,  8-C ) :   1.2571 B(  0-C , 11-H ) :   0.7508 B(  0-C , 12-H ) :   0.8658
B(  1-C ,  2-H ) :   0.8460 B(  1-C ,  3-H ) :   0.8968 B(  1-C ,  4-C ) :   1.0158
B(  3-H ,  4-C ) :   0.1145 B(  4-C ,  5-O ) :   1.8214 B(  4-C ,  6-F ) :   0.6306
B(  7-C ,  8-C ) :   1.1867 B(  7-C , 10-H ) :   0.1328 B(  7-C , 14-C ) :   1.1840
B(  7-C , 15-H ) :   0.9100 B(  7-C , 16-H ) :   0.9361 B(  7-C , 17-H ) :   0.2547
B(  7-C , 18-H ) :   0.1117 B(  8-C ,  9-H ) :   0.9371 B(  8-C , 10-H ) :   0.9404
B(  8-C , 11-H ) :   0.2160 B(  8-C , 12-H ) :   0.1668 B(  8-C , 15-H ) :   0.1458
B(  8-C , 16-H ) :   0.1060 B( 13-C , 14-C ) :   1.2565 B( 13-C , 19-H ) :   0.8328
B( 13-C , 20-H ) :   0.7930 B( 13-C , 21-H ) :   0.7842 B( 14-C , 17-H ) :   0.8137
B( 14-C , 18-H ) :   0.8991 B( 14-C , 19-H ) :   0.1873 B( 14-C , 20-H ) :   0.2030
B( 14-C , 21-H ) :   0.2095

Dispersion correction           -0.007853481
FINAL SINGLE POINT ENERGY      -449.230491946666

DIPOLE MOMENT
-------------
                                X             Y             Z
Electronic contribution:     13.66815       6.69895       7.21421
Nuclear contribution   :    -13.70050      -6.28176      -8.36052
                        -----------------------------------------
Total Dipole Moment    :     -0.03235       0.41719      -1.14631
                        -----------------------------------------
Magnitude (a.u.)       :      1.22029
Magnitude (Debye)      :      3.10173

Rotational constants in cm-1:     0.076721     0.029977     0.025728
Rotational constants in MHz :  2300.037836   898.696292   771.310985

                             ****ORCA TERMINATED NORMALLY****
TOTAL RUN TIME: 0 days 0 hours 0 minutes 52 seconds 553 msec
