                         Program Version 5.0.0 -  RELEASE  -
|  1> !wB97X-D3 RIJCOSX def2-SVPD def2/J TightSCF
|  2> *xyz 0 1
|  3> C          4.08422        1.74208       -2.11472
|  4> C          4.26524        2.50052       -0.79589
|  5> H          4.86853        3.39267       -0.98113
|  6> H          3.30764        2.82457       -0.38781
|  7> C          4.98224        1.65026        0.24742
|  8> O          4.36806        1.38927        1.31371
|  9> F          6.12892        1.23351       -0.04562
| 10> C          1.99727        0.43092       -1.39922
| 11> C          3.41275        0.37689       -1.96550
| 12> H          4.04741       -0.24659       -1.32671
| 13> H          3.39077       -0.11872       -2.94284
| 14> H          5.06847        1.59850       -2.56573
| 15> H          3.50336        2.36394       -2.80457
| 16> C          2.39995       -1.38958        1.00949
| 17> C          2.07018       -1.93671       -0.37240
| 18> C          1.32224       -0.93577       -1.25641
| 19> H          1.47275       -2.85090       -0.28400
| 20> H          3.00354       -2.23404       -0.86254
| 21> H          1.37644        1.05892       -2.04742
| 22> H          2.01534        0.92978       -0.42653
| 23> H          0.31665       -0.78721       -0.84828
| 24> H          1.18561       -1.37925       -2.24861
| 25> H          2.98295       -0.49786        0.91024
| 26> H          2.95620       -2.12008        1.55891
| 27> H          1.49248       -1.16626        1.53057
| 28> *
| 29> %MaxCore 64000
| 30> %pal nprocs 8
| 31> end
| 32> %scf
| 33>   MaxIter 150
| 34> end
| 35>
| 36>                          ****END OF INPUT****

CARTESIAN COORDINATES (ANGSTROEM)
---------------------------------
  C      4.084220    1.742080   -2.114720
  C      4.265240    2.500520   -0.795890
  H      4.868530    3.392670   -0.981130
  H      3.307640    2.824570   -0.387810
  C      4.982240    1.650260    0.247420
  O      4.368060    1.389270    1.313710
  F      6.128920    1.233510   -0.045620
  C      1.997270    0.430920   -1.399220
  C      3.412750    0.376890   -1.965500
  H      4.047410   -0.246590   -1.326710
  H      3.390770   -0.118720   -2.942840
  H      5.068470    1.598500   -2.565730
  H      3.503360    2.363940   -2.804570
  C      2.399950   -1.389580    1.009490
  C      2.070180   -1.936710   -0.372400
  C      1.322240   -0.935770   -1.256410
  H      1.472750   -2.850900   -0.284000
  H      3.003540   -2.234040   -0.862540
  H      1.376440    1.058920   -2.047420
  H      2.015340    0.929780   -0.426530
  H      0.316650   -0.787210   -0.848280
  H      1.185610   -1.379250   -2.248610
  H      2.982950   -0.497860    0.910240
  H      2.956200   -2.120080    1.558910
  H      1.492480   -1.166260    1.530570

 Total Charge           Charge          ....    0
 Multiplicity           Mult            ....    1
 Number of Electrons    NEL             ....   80
 Basis Dimension        Dim             ....  326

ORBITAL ENERGIES
----------------

  NO   OCC          E(Eh)            E(eV)
   0   2.0000     -24.877371      -676.9477
   1   2.0000     -19.257024      -524.0103
   2   2.0000     -10.476630      -285.0836
   3   2.0000     -10.320904      -280.8461
   4   2.0000     -10.308321      -280.5037
   5   2.0000     -10.294090      -280.1164
   6   2.0000     -10.285111      -279.8721
   7   2.0000     -10.281139      -279.7640
   8   2.0000     -10.276814      -279.6463
   9   2.0000     -10.256871      -279.1036
  10   2.0000      -1.427178       -38.8355
  11   2.0000      -1.142689       -31.0941
  12   2.0000      -0.942797       -25.6548
  13   2.0000      -0.907279       -24.6883
  14   2.0000      -0.856626       -23.3100
  15   2.0000      -0.809711       -22.0334
  16   2.0000      -0.771423       -20.9915
  17   2.0000      -0.747215       -20.3328
  18   2.0000      -0.707355       -19.2481
  19   2.0000      -0.665523       -18.1098
  20   2.0000      -0.658066       -17.9069
  21   2.0000      -0.642622       -17.4866
  22   2.0000      -0.603151       -16.4126
  23   2.0000      -0.585814       -15.9408
  24   2.0000      -0.574816       -15.6415
  25   2.0000      -0.552732       -15.0406
  26   2.0000      -0.542816       -14.7708
  27   2.0000      -0.517902       -14.0928
  28   2.0000      -0.505833       -13.7644
  29   2.0000      -0.487440       -13.2639
  30   2.0000      -0.484705       -13.1895
  31   2.0000      -0.477424       -12.9914
  32   2.0000      -0.468111       -12.7379
  33   2.0000      -0.445134       -12.1127
  34   2.0000      -0.434326       -11.8186
  35   2.0000      -0.432817       -11.7775
  36   2.0000      -0.408547       -11.1171
  37   2.0000      -0.406709       -11.0671
  38   2.0000      -0.402607       -10.9555
  39   2.0000      -0.389298       -10.5933
  40   0.0000       0.050349         1.3701
  41   0.0000       0.084777         2.3069
  42   0.0000       0.102045         2.7768
  43   0.0000       0.104590         2.8460
  44   0.0000       0.110449         3.0055

MULLIKEN ATOMIC CHARGES
-----------------------
   0 C :    0.276316
   1 C :    0.109590
   2 H :   -0.074130
   3 H :    0.088983
   4 C :    0.880644
   5 O :   -0.539290
   6 F :   -0.413646
   7 C :   -0.156933
   8 C :   -0.119231
   9 H :   -0.010823
  10 H :   -0.140777
  11 H :   -0.032120
  12 H :   -0.084544
  13 C :    1.533468
  14 C :   -0.371837
  15 C :    0.367790
  16 H :   -0.312807
  17 H :    0.090904
  18 H :   -0.186042
  19 H :    0.040031
  20 H :   -0.008864
  21 H :   -0.000678
  22 H :   -0.988966
  23 H :    0.006383
  24 H :    0.046579
Sum of atomic charges:   -0.0000000

LOEWDIN ATOMIC CHARGES
----------------------
   0 C :   -0.023941
   1 C :    0.050392
   2 H :    0.036568
   3 H :    0.031069
   4 C :    0.000906
   5 O :   -0.139561
   6 F :   -0.029096
   7 C :   -0.034501
   8 C :   -0.031224
   9 H :    0.013100
  10 H :    0.032050
  11 H :    0.025143
  12 H :    0.029568
  13 C :    0.134047
  14 C :   -0.079224
  15 C :   -0.038241
  16 H :    0.018071
  17 H :    0.011922
  18 H :    0.026718
  19 H :    0.008557
  20 H :    0.023583
  21 H :    0.020398
  22 H :   -0.066602
  23 H :   -0.011922
  24 H :   -0.007779

  Mayer bond orders larger than 0.100000
B(  0-C ,  1-C ) :   1.1615 B(  0-C ,  2-H ) :   0.1716 B(  0-C ,  3-H ) :   0.1248
B(  0-C ,  8-C ) :   1.2223 B(  0-C , 11-H ) :   0.7435 B(  0-C , 12-H ) :   0.8786
B(  1-C ,  2-H ) :   0.8489 B(  1-C ,  3-H ) :   0.8790 B(  1-C ,  4-C ) :   1.0337
B(  3-H ,  4-C ) :   0.1248 B(  4-C ,  5-O ) :   1.7755 B(  4-C ,  6-F ) :   0.6146
B(  5-O , 22-H ) :   0.1081 B(  7-C ,  8-C ) :   1.1872 B(  7-C ,  9-H ) :   0.1029
B(  7-C , 10-H ) :   0.1407 B(  7-C , 15-C ) :   1.1950 B(  7-C , 18-H ) :   0.9500
B(  7-C , 19-H ) :   0.9152 B(  7-C , 20-H ) :   0.2710 B(  7-C , 21-H ) :   0.1278
B(  8-C ,  9-H ) :   0.9220 B(  8-C , 10-H ) :   0.9340 B(  8-C , 11-H ) :   0.2236
B(  8-C , 12-H ) :   0.1500 B(  8-C , 18-H ) :   0.1251 B( 13-C , 14-C ) :   1.0646
B( 13-C , 17-H ) :   0.1067 B( 13-C , 23-H ) :   0.6333 B( 13-C , 24-H ) :   0.5320
B( 14-C , 15-C ) :   1.1355 B( 14-C , 16-H ) :   1.0571 B( 14-C , 17-H ) :   0.8633
B( 14-C , 20-H ) :   0.1409 B( 14-C , 21-H ) :   0.1003 B( 14-C , 22-H ) :   0.4124
B( 14-C , 23-H ) :   0.2010 B( 14-C , 24-H ) :   0.2166 B( 15-C , 16-H ) :   0.1241
B( 15-C , 20-H ) :   0.7096 B( 15-C , 21-H ) :   0.8517 B( 22-H , 23-H ) :   0.1804
B( 22-H , 24-H ) :   0.3004

Dispersion correction           -0.010164815
FINAL SINGLE POINT ENERGY      -488.509477083650

DIPOLE MOMENT
-------------
                                X             Y             Z
Electronic contribution:     14.20418       7.67832       5.07852
Nuclear contribution   :    -14.17722      -7.21883      -6.19767
                        -----------------------------------------
Total Dipole Moment    :      0.02696       0.45949      -1.11915
                        -----------------------------------------
Magnitude (a.u.)       :      1.21010
Magnitude (Debye)      :      3.07583

Rotational constants in cm-1:     0.058683     0.027390     0.021841
Rotational constants in MHz :  1759.272809   821.139052   654.772408

                             ****ORCA TERMINATED NORMALLY****
TOTAL RUN TIME: 0 days 0 hours 1 minutes 11 seconds 146 msec
