                         Program Version 5.0.0 -  RELEASE  -
|  1> !wB97X-D3 RIJCOSX def2-SVPD def2/J TightSCF
|  2> *xyz 0 1
|  3> C          3.91385       -1.65829        3.01513
|  4> N          5.03927       -0.90115        2.49282
|  5> C          4.08422        1.74208       -2.11472
|  6> C          4.26524        2.50052       -0.79589
|  7> C          6.21038       -1.41726        2.17824
|  8> C          6.53591       -2.67712        2.55608
|  9> N          7.07675       -0.70082        1.47891
| 10> H          7.95464       -1.12155        1.20755
| 11> H          6.75616        0.10664        0.96028
| 12> H          4.84217        0.01761        2.11519
| 13> H          5.99388       -3.12692        3.28278
| 14> H          7.49844       -2.97548        2.46878
| 15> C          3.13916       -2.37657        1.91061
| 16> H          3.26723       -0.93940        3.52069
| 17> H          4.24720       -2.35509        3.79006
| 18> C          1.99727        0.43092       -1.39922
| 19> C          3.41275        0.37689       -1.96550
| 20> H          4.04741       -0.24659       -1.32671
| 21> H          3.39077       -0.11872       -2.94284
| 22> H          5.06847        1.59850       -2.56573
| 23> H          3.50336        2.36394       -2.80457
| 24> C          2.39995       -1.38958        1.00949
| 25> H          2.44075       -3.08712        2.36298
| 26> H          3.84448       -2.97046        1.31868
| 27> C          2.07018       -1.93671       -0.37240
| 28> H          1.48161       -1.06154        1.50991
| 29> H          3.00863       -0.49000        0.89745
| 30> C          1.32224       -0.93577       -1.25641
| 31> H          1.47275       -2.85090       -0.28400
| 32> H          3.00354       -2.23404       -0.86254
| 33> H          1.37644        1.05892       -2.04742
| 34> H          2.01534        0.92978       -0.42653
| 35> H          0.31665       -0.78721       -0.84828
| 36> H          1.18561       -1.37925       -2.24861
| 37> H          4.73963        3.44035       -0.98715
| 38> H          4.87389        1.92223       -0.13253
| 39> H          3.30865        2.66865       -0.34693
| 40> *
| 41> %MaxCore 64000
| 42> %pal nprocs 8
| 43> end
| 44> %scf
| 45>   MaxIter 150
| 46> end
| 47>
| 48>                          ****END OF INPUT****

CARTESIAN COORDINATES (ANGSTROEM)
---------------------------------
  C      3.913850   -1.658290    3.015130
  N      5.039270   -0.901150    2.492820
  C      4.084220    1.742080   -2.114720
  C      4.265240    2.500520   -0.795890
  C      6.210380   -1.417260    2.178240
  C      6.535910   -2.677120    2.556080
  N      7.076750   -0.700820    1.478910
  H      7.954640   -1.121550    1.207550
  H      6.756160    0.106640    0.960280
  H      4.842170    0.017610    2.115190
  H      5.993880   -3.126920    3.282780
  H      7.498440   -2.975480    2.468780
  C      3.139160   -2.376570    1.910610
  H      3.267230   -0.939400    3.520690
  H      4.247200   -2.355090    3.790060
  C      1.997270    0.430920   -1.399220
  C      3.412750    0.376890   -1.965500
  H      4.047410   -0.246590   -1.326710
  H      3.390770   -0.118720   -2.942840
  H      5.068470    1.598500   -2.565730
  H      3.503360    2.363940   -2.804570
  C      2.399950   -1.389580    1.009490
  H      2.440750   -3.087120    2.362980
  H      3.844480   -2.970460    1.318680
  C      2.070180   -1.936710   -0.372400
  H      1.481610   -1.061540    1.509910
  H      3.008630   -0.490000    0.897450
  C      1.322240   -0.935770   -1.256410
  H      1.472750   -2.850900   -0.284000
  H      3.003540   -2.234040   -0.862540
  H      1.376440    1.058920   -2.047420
  H      2.015340    0.929780   -0.426530
  H      0.316650   -0.787210   -0.848280
  H      1.185610   -1.379250   -2.248610
  H      4.739630    3.440350   -0.987150
  H      4.873890    1.922230   -0.132530
  H      3.308650    2.668650   -0.346930

 Total Charge           Charge          ....    0
 Multiplicity           Mult            ....    1
 Number of Electrons    NEL             ....  104
 Basis Dimension        Dim             ....  452

ORBITAL ENERGIES
----------------

  NO   OCC          E(Eh)            E(eV)
   0   2.0000     -14.441908      -392.9843
   1   2.0000     -14.440249      -392.9392
   2   2.0000     -10.340405      -281.3767
   3   2.0000     -10.320781      -280.8427
   4   2.0000     -10.288233      -279.9571
   5   2.0000     -10.284833      -279.8645
   6   2.0000     -10.283677      -279.8331
   7   2.0000     -10.283199      -279.8201
   8   2.0000     -10.282945      -279.8131
   9   2.0000     -10.281502      -279.7739
  10   2.0000     -10.279843      -279.7288
  11   2.0000     -10.279608      -279.7224
  12   2.0000     -10.199694      -277.5478
  13   2.0000      -1.084700       -29.5162
  14   2.0000      -0.999206       -27.1898
  15   2.0000      -0.932133       -25.3646
  16   2.0000      -0.906076       -24.6556
  17   2.0000      -0.873744       -23.7758
  18   2.0000      -0.831565       -22.6280
  19   2.0000      -0.814538       -22.1647
  20   2.0000      -0.789998       -21.4969
  21   2.0000      -0.752109       -20.4659
  22   2.0000      -0.715335       -19.4652
  23   2.0000      -0.690565       -18.7912
  24   2.0000      -0.662985       -18.0407
  25   2.0000      -0.659988       -17.9592
  26   2.0000      -0.650577       -17.7031
  27   2.0000      -0.623675       -16.9711
  28   2.0000      -0.587717       -15.9926
  29   2.0000      -0.578822       -15.7506
  30   2.0000      -0.563493       -15.3334
  31   2.0000      -0.555202       -15.1078
  32   2.0000      -0.541316       -14.7300
  33   2.0000      -0.529988       -14.4217
  34   2.0000      -0.523838       -14.2543
  35   2.0000      -0.508293       -13.8314
  36   2.0000      -0.499100       -13.5812
  37   2.0000      -0.488950       -13.3050
  38   2.0000      -0.481700       -13.1077
  39   2.0000      -0.477472       -12.9927
  40   2.0000      -0.465042       -12.6544
  41   2.0000      -0.458101       -12.4656
  42   2.0000      -0.451263       -12.2795
  43   2.0000      -0.441485       -12.0134
  44   2.0000      -0.431335       -11.7372
  45   2.0000      -0.421950       -11.4819
  46   2.0000      -0.419454       -11.4139
  47   2.0000      -0.405640       -11.0380
  48   2.0000      -0.402937       -10.9645
  49   2.0000      -0.400722       -10.9042
  50   2.0000      -0.345620        -9.4048
  51   2.0000      -0.251976        -6.8566
  52   0.0000       0.072151         1.9633
  53   0.0000       0.094517         2.5719
  54   0.0000       0.099322         2.7027
  55   0.0000       0.103958         2.8288
  56   0.0000       0.115815         3.1515

MULLIKEN ATOMIC CHARGES
-----------------------
   0 C :    0.967581
   1 N :   -0.286647
   2 C :   -0.097163
   3 C :    1.200670
   4 C :    0.695630
   5 C :    0.511735
   6 N :    0.108116
   7 H :    0.006038
   8 H :   -0.324753
   9 H :   -0.548097
  10 H :   -0.111577
  11 H :   -0.572129
  12 C :    0.311797
  13 H :   -0.320435
  14 H :   -0.027102
  15 C :   -0.201870
  16 C :   -0.010218
  17 H :   -0.114055
  18 H :   -0.089712
  19 H :   -0.095690
  20 H :   -0.047461
  21 C :   -0.067686
  22 H :   -0.084986
  23 H :   -0.018070
  24 C :   -0.040577
  25 H :   -0.029940
  26 H :   -0.263296
  27 C :    0.613346
  28 H :   -0.304773
  29 H :    0.116311
  30 H :   -0.374509
  31 H :    0.135536
  32 H :    0.004527
  33 H :    0.000004
  34 H :   -0.028351
  35 H :   -0.581087
  36 H :   -0.031107
Sum of atomic charges:   -0.0000000

LOEWDIN ATOMIC CHARGES
----------------------
   0 C :    0.059283
   1 N :   -0.018064
   2 C :   -0.075080
   3 C :    0.124694
   4 C :   -0.229383
   5 C :    0.153282
   6 N :    0.180951
   7 H :    0.012723
   8 H :   -0.011824
   9 H :    0.016060
  10 H :   -0.118084
  11 H :   -0.104718
  12 C :   -0.015791
  13 H :    0.025818
  14 H :    0.015778
  15 C :   -0.042630
  16 C :   -0.044644
  17 H :    0.012104
  18 H :    0.028327
  19 H :    0.017962
  20 H :    0.022658
  21 C :   -0.046244
  22 H :    0.026627
  23 H :    0.020480
  24 C :   -0.041000
  25 H :    0.033678
  26 H :   -0.009627
  27 C :   -0.034471
  28 H :    0.026790
  29 H :    0.019586
  30 H :    0.026537
  31 H :    0.000089
  32 H :    0.022862
  33 H :    0.022562
  34 H :   -0.016012
  35 H :   -0.033941
  36 H :   -0.027338

  Mayer bond orders larger than 0.100000
B(  0-C ,  1-N ) :   0.8415 B(  0-C ,  9-H ) :  -0.2457 B(  0-C , 12-C ) :   1.0497
B(  0-C , 13-H ) :   0.7868 B(  0-C , 14-H ) :   0.7822 B(  0-C , 21-C ) :   0.1195
B(  1-N ,  4-C ) :   0.9349 B(  1-N ,  5-C ) :   0.3781 B(  1-N ,  9-H ) :   1.3632
B(  1-N , 13-H ) :   0.2229 B(  2-C ,  3-C ) :   1.1305 B(  2-C , 16-C ) :   1.1468
B(  2-C , 19-H ) :   0.7870 B(  2-C , 20-H ) :   0.8921 B(  2-C , 34-H ) :   0.2084
B(  2-C , 35-H ) :   0.3484 B(  2-C , 36-H ) :   0.2257 B(  3-C , 34-H ) :   0.6989
B(  3-C , 35-H ) :   0.5054 B(  3-C , 36-H ) :   0.6143 B(  4-C ,  5-C ) :   1.6975
B(  4-C ,  6-N ) :   0.8560 B(  4-C ,  8-H ) :  -0.1261 B(  4-C ,  9-H ) :  -0.3786
B(  4-C , 10-H ) :   0.3116 B(  4-C , 11-H ) :   0.2253 B(  5-C ,  6-N ) :   0.2160
B(  5-C , 10-H ) :   0.6421 B(  5-C , 11-H ) :   0.7630 B(  6-N ,  7-H ) :   1.1492
B(  6-N ,  8-H ) :   1.1773 B(  7-H ,  8-H ) :  -0.2332 B( 10-H , 14-H ) :   0.1291
B( 12-C , 14-H ) :   0.1246 B( 12-C , 21-C ) :   1.1316 B( 12-C , 22-H ) :   0.9152
B( 12-C , 23-H ) :   0.9148 B( 12-C , 25-H ) :   0.1027 B( 13-H , 14-H ) :  -0.2124
B( 15-C , 16-C ) :   1.2267 B( 15-C , 17-H ) :   0.1210 B( 15-C , 18-H ) :   0.1856
B( 15-C , 27-C ) :   1.1578 B( 15-C , 30-H ) :   1.0671 B( 15-C , 31-H ) :   0.8374
B( 15-C , 32-H ) :   0.2656 B( 15-C , 33-H ) :   0.1389 B( 16-C , 17-H ) :   0.9153
B( 16-C , 18-H ) :   0.9164 B( 16-C , 19-H ) :   0.2690 B( 16-C , 20-H ) :   0.1230
B( 16-C , 30-H ) :   0.1271 B( 16-C , 31-H ) :   0.1148 B( 21-C , 22-H ) :   0.1836
B( 21-C , 24-C ) :   1.2322 B( 21-C , 25-H ) :   0.8131 B( 21-C , 26-H ) :   1.0229
B( 21-C , 28-H ) :   0.1376 B( 21-C , 29-H ) :   0.1218 B( 24-C , 25-H ) :   0.1034
B( 24-C , 27-C ) :   1.1176 B( 24-C , 28-H ) :   1.0349 B( 24-C , 29-H ) :   0.8584
B( 24-C , 32-H ) :   0.1074 B( 24-C , 33-H ) :   0.2180 B( 25-H , 26-H ) :   0.1401
B( 26-H , 31-H ) :   0.1178 B( 27-C , 32-H ) :   0.6805 B( 27-C , 33-H ) :   0.7201
B( 35-H , 36-H ) :   0.2753

Dispersion correction           -0.015143785
FINAL SINGLE POINT ENERGY      -542.610936781039

DIPOLE MOMENT
-------------
                                X             Y             Z
Electronic contribution:      4.97373      -3.11039       5.71946
Nuclear contribution   :     -5.38442       4.02473      -6.26399
                        -----------------------------------------
Total Dipole Moment    :     -0.41069       0.91434      -0.54453
                        -----------------------------------------
Magnitude (a.u.)       :      1.14070
Magnitude (Debye)      :      2.89944

Rotational constants in cm-1:     0.028421     0.014451     0.010803
Rotational constants in MHz :   852.030150   433.222823   323.878047

                             ****ORCA TERMINATED NORMALLY****
TOTAL RUN TIME: 0 days 0 hours 2 minutes 22 seconds 183 msec
