                         Program Version 5.0.0 -  RELEASE  -
|  1> !wB97X-D3 RIJCOSX def2-SVPD def2/J TightSCF
|  2> *xyz 0 1
|  3> C          4.08422        1.74208       -2.11472
|  4> C          4.26524        2.50052       -0.79589
|  5> H          4.86853        3.39267       -0.98113
|  6> H          3.30764        2.82457       -0.38781
|  7> C          4.98224        1.65026        0.24742
|  8> O          4.36806        1.38927        1.31371
|  9> F          6.12892        1.23351       -0.04562
| 10> C          1.99727        0.43092       -1.39922
| 11> C          3.41275        0.37689       -1.96550
| 12> H          4.04741       -0.24659       -1.32671
| 13> H          3.39077       -0.11872       -2.94284
| 14> H          5.06847        1.59850       -2.56573
| 15> H          3.50336        2.36394       -2.80457
| 16> H          1.38433        1.04154       -2.02878
| 17> H          2.02294        0.84749       -0.41397
| 18> H          1.59172       -0.55838       -1.35771
| 19> *
| 20> %MaxCore 64000
| 21> %pal nprocs 8
| 22> end
| 23> %scf
| 24>   MaxIter 150
| 25> end
| 26>
| 27>                          ****END OF INPUT****

CARTESIAN COORDINATES (ANGSTROEM)
---------------------------------
  C      4.084220    1.742080   -2.114720
  C      4.265240    2.500520   -0.795890
  H      4.868530    3.392670   -0.981130
  H      3.307640    2.824570   -0.387810
  C      4.982240    1.650260    0.247420
  O      4.368060    1.389270    1.313710
  F      6.128920    1.233510   -0.045620
  C      1.997270    0.430920   -1.399220
  C      3.412750    0.376890   -1.965500
  H      4.047410   -0.246590   -1.326710
  H      3.390770   -0.118720   -2.942840
  H      5.068470    1.598500   -2.565730
  H      3.503360    2.363940   -2.804570
  H      1.384330    1.041540   -2.028780
  H      2.022940    0.847490   -0.413970
  H      1.591720   -0.558380   -1.357710

 Total Charge           Charge          ....    0
 Multiplicity           Mult            ....    1
 Number of Electrons    NEL             ....   56
 Basis Dimension        Dim             ....  218

ORBITAL ENERGIES
----------------

  NO   OCC          E(Eh)            E(eV)
   0   2.0000     -24.875785      -676.9045
   1   2.0000     -19.254960      -523.9541
   2   2.0000     -10.474930      -285.0373
   3   2.0000     -10.320484      -280.8346
   4   2.0000     -10.307912      -280.4925
   5   2.0000     -10.296047      -280.1697
   6   2.0000     -10.276337      -279.6334
   7   2.0000      -1.425878       -38.8001
   8   2.0000      -1.140392       -31.0316
   9   2.0000      -0.938190       -25.5294
  10   2.0000      -0.868134       -23.6231
  11   2.0000      -0.792272       -21.5588
  12   2.0000      -0.761394       -20.7186
  13   2.0000      -0.699204       -19.0263
  14   2.0000      -0.660699       -17.9785
  15   2.0000      -0.646367       -17.5885
  16   2.0000      -0.599517       -16.3137
  17   2.0000      -0.579886       -15.7795
  18   2.0000      -0.573684       -15.6107
  19   2.0000      -0.519845       -14.1457
  20   2.0000      -0.508400       -13.8343
  21   2.0000      -0.505939       -13.7673
  22   2.0000      -0.485201       -13.2030
  23   2.0000      -0.460011       -12.5175
  24   2.0000      -0.437185       -11.8964
  25   2.0000      -0.436543       -11.8789
  26   2.0000      -0.430216       -11.7068
  27   2.0000      -0.387906       -10.5555
  28   0.0000       0.052338         1.4242
  29   0.0000       0.083767         2.2794
  30   0.0000       0.111201         3.0259
  31   0.0000       0.112881         3.0716
  32   0.0000       0.117721         3.2033

MULLIKEN ATOMIC CHARGES
-----------------------
   0 C :   -0.014648
   1 C :    0.039904
   2 H :    0.013045
   3 H :    0.020541
   4 C :    0.832447
   5 O :   -0.509030
   6 F :   -0.408137
   7 C :    0.700886
   8 C :   -0.412439
   9 H :    0.046302
  10 H :   -0.113955
  11 H :   -0.005687
  12 H :   -0.070220
  13 H :    0.024828
  14 H :   -0.097747
  15 H :   -0.046091
Sum of atomic charges:   -0.0000000

LOEWDIN ATOMIC CHARGES
----------------------
   0 C :   -0.032873
   1 C :    0.046046
   2 H :    0.036742
   3 H :    0.031005
   4 C :   -0.008699
   5 O :   -0.141829
   6 F :   -0.032246
   7 C :    0.130226
   8 C :   -0.075195
   9 H :    0.020458
  10 H :    0.023666
  11 H :    0.023756
  12 H :    0.028483
  13 H :   -0.012654
  14 H :   -0.023897
  15 H :   -0.012989

  Mayer bond orders larger than 0.100000
B(  0-C ,  1-C ) :   1.1998 B(  0-C ,  2-H ) :   0.1509 B(  0-C ,  3-H ) :   0.1342
B(  0-C ,  8-C ) :   1.2199 B(  0-C ,  9-H ) :   0.1313 B(  0-C , 10-H ) :   0.1304
B(  0-C , 11-H ) :   0.8915 B(  0-C , 12-H ) :   0.8946 B(  1-C ,  2-H ) :   0.8267
B(  1-C ,  3-H ) :   0.9279 B(  1-C ,  4-C ) :   1.0288 B(  1-C , 11-H ) :   0.1119
B(  1-C , 12-H ) :   0.1114 B(  3-H ,  4-C ) :   0.1385 B(  4-C ,  5-O ) :   1.8175
B(  4-C ,  6-F ) :   0.6651 B(  7-C ,  8-C ) :   1.2642 B(  7-C , 13-H ) :   0.7691
B(  7-C , 14-H ) :   0.8563 B(  7-C , 15-H ) :   0.7766 B(  8-C ,  9-H ) :   0.9133
B(  8-C , 10-H ) :   0.9564 B(  8-C , 12-H ) :   0.1519 B(  8-C , 13-H ) :   0.1923
B(  8-C , 14-H ) :   0.1937 B(  8-C , 15-H ) :   0.2051

Dispersion correction           -0.004964725
FINAL SINGLE POINT ENERGY      -370.673604228705

DIPOLE MOMENT
-------------
                                X             Y             Z
Electronic contribution:     10.12310       1.02426       7.78631
Nuclear contribution   :    -10.12204      -0.60356      -8.97268
                        -----------------------------------------
Total Dipole Moment    :      0.00105       0.42070      -1.18636
                        -----------------------------------------
Magnitude (a.u.)       :      1.25875
Magnitude (Debye)      :      3.19949

Rotational constants in cm-1:     0.132721     0.058385     0.051181
Rotational constants in MHz :  3978.875944  1750.339801  1534.353024

                             ****ORCA TERMINATED NORMALLY****
TOTAL RUN TIME: 0 days 0 hours 0 minutes 29 seconds 101 msec
