                         Program Version 5.0.0 -  RELEASE  -
|  1> !wB97X-D3 RIJCOSX def2-SVPD def2/J TightSCF
|  2> *xyz 0 1
|  3> C          4.08422        1.74208       -2.11472
|  4> C          4.26524        2.50052       -0.79589
|  5> H          4.86853        3.39267       -0.98113
|  6> H          3.30764        2.82457       -0.38781
|  7> C          4.98224        1.65026        0.24742
|  8> O          4.36806        1.38927        1.31371
|  9> F          6.12892        1.23351       -0.04562
| 10> C          1.99727        0.43092       -1.39922
| 11> C          3.41275        0.37689       -1.96550
| 12> H          4.04741       -0.24659       -1.32671
| 13> H          3.39077       -0.11872       -2.94284
| 14> H          5.06847        1.59850       -2.56573
| 15> H          3.50336        2.36394       -2.80457
| 16> C          1.32224       -0.93577       -1.25641
| 17> H          1.37644        1.05892       -2.04742
| 18> H          2.01534        0.92978       -0.42653
| 19> H          1.30366       -1.42552       -2.20757
| 20> H          0.32075       -0.80379       -0.90357
| 21> H          1.87053       -1.53318       -0.55828
| 22> *
| 23> %MaxCore 64000
| 24> %pal nprocs 8
| 25> end
| 26> %scf
| 27>   MaxIter 150
| 28> end
| 29>
| 30>                          ****END OF INPUT****

CARTESIAN COORDINATES (ANGSTROEM)
---------------------------------
  C      4.084220    1.742080   -2.114720
  C      4.265240    2.500520   -0.795890
  H      4.868530    3.392670   -0.981130
  H      3.307640    2.824570   -0.387810
  C      4.982240    1.650260    0.247420
  O      4.368060    1.389270    1.313710
  F      6.128920    1.233510   -0.045620
  C      1.997270    0.430920   -1.399220
  C      3.412750    0.376890   -1.965500
  H      4.047410   -0.246590   -1.326710
  H      3.390770   -0.118720   -2.942840
  H      5.068470    1.598500   -2.565730
  H      3.503360    2.363940   -2.804570
  C      1.322240   -0.935770   -1.256410
  H      1.376440    1.058920   -2.047420
  H      2.015340    0.929780   -0.426530
  H      1.303660   -1.425520   -2.207570
  H      0.320750   -0.803790   -0.903570
  H      1.870530   -1.533180   -0.558280

 Total Charge           Charge          ....    0
 Multiplicity           Mult            ....    1
 Number of Electrons    NEL             ....   64
 Basis Dimension        Dim             ....  254

ORBITAL ENERGIES
----------------

  NO   OCC          E(Eh)            E(eV)
   0   2.0000     -24.875666      -676.9013
   1   2.0000     -19.254772      -523.9490
   2   2.0000     -10.474650      -285.0297
   3   2.0000     -10.320053      -280.8229
   4   2.0000     -10.308007      -280.4951
   5   2.0000     -10.294500      -280.1276
   6   2.0000     -10.287284      -279.9312
   7   2.0000     -10.273103      -279.5453
   8   2.0000      -1.425698       -38.7952
   9   2.0000      -1.140128       -31.0245
  10   2.0000      -0.940318       -25.5873
  11   2.0000      -0.886941       -24.1349
  12   2.0000      -0.822751       -22.3882
  13   2.0000      -0.770609       -20.9693
  14   2.0000      -0.736177       -20.0324
  15   2.0000      -0.690961       -18.8020
  16   2.0000      -0.660500       -17.9731
  17   2.0000      -0.645626       -17.5684
  18   2.0000      -0.600079       -16.3290
  19   2.0000      -0.582108       -15.8400
  20   2.0000      -0.569413       -15.4945
  21   2.0000      -0.536688       -14.6040
  22   2.0000      -0.529609       -14.4114
  23   2.0000      -0.502100       -13.6628
  24   2.0000      -0.493088       -13.4176
  25   2.0000      -0.474790       -12.9197
  26   2.0000      -0.462156       -12.5759
  27   2.0000      -0.453249       -12.3335
  28   2.0000      -0.428091       -11.6490
  29   2.0000      -0.424850       -11.5607
  30   2.0000      -0.419660       -11.4195
  31   2.0000      -0.387521       -10.5450
  32   0.0000       0.052495         1.4285
  33   0.0000       0.084997         2.3129
  34   0.0000       0.104874         2.8538
  35   0.0000       0.109556         2.9812
  36   0.0000       0.113487         3.0882

MULLIKEN ATOMIC CHARGES
-----------------------
   0 C :    0.138771
   1 C :    0.074947
   2 H :   -0.030236
   3 H :    0.048904
   4 C :    0.848035
   5 O :   -0.512276
   6 F :   -0.409695
   7 C :   -0.484494
   8 C :   -0.157624
   9 H :    0.032464
  10 H :   -0.127031
  11 H :   -0.012932
  12 H :   -0.082451
  13 C :    0.867038
  14 H :   -0.030618
  15 H :   -0.064350
  16 H :   -0.005321
  17 H :   -0.064974
  18 H :   -0.028157
Sum of atomic charges:   -0.0000000

LOEWDIN ATOMIC CHARGES
----------------------
   0 C :   -0.028352
   1 C :    0.046730
   2 H :    0.036483
   3 H :    0.029677
   4 C :   -0.008339
   5 O :   -0.141774
   6 F :   -0.032336
   7 C :   -0.079090
   8 C :   -0.042815
   9 H :    0.024510
  10 H :    0.027882
  11 H :    0.024484
  12 H :    0.029045
  13 C :    0.121123
  14 H :    0.025214
  15 H :    0.013616
  16 H :   -0.016985
  17 H :   -0.016034
  18 H :   -0.013039

  Mayer bond orders larger than 0.100000
B(  0-C ,  1-C ) :   1.1732 B(  0-C ,  2-H ) :   0.1571 B(  0-C ,  3-H ) :   0.1267
B(  0-C ,  8-C ) :   1.2385 B(  0-C ,  9-H ) :   0.1120 B(  0-C , 11-H ) :   0.8024
B(  0-C , 12-H ) :   0.8775 B(  1-C ,  2-H ) :   0.8363 B(  1-C ,  3-H ) :   0.9079
B(  1-C ,  4-C ) :   1.0237 B(  1-C , 12-H ) :   0.1050 B(  3-H ,  4-C ) :   0.1273
B(  4-C ,  5-O ) :   1.8156 B(  4-C ,  6-F ) :   0.6503 B(  5-O ,  6-F ) :   0.1002
B(  7-C ,  8-C ) :   1.2016 B(  7-C , 10-H ) :   0.1016 B(  7-C , 13-C ) :   1.2500
B(  7-C , 14-H ) :   0.9283 B(  7-C , 15-H ) :   0.9509 B(  7-C , 16-H ) :   0.1797
B(  7-C , 17-H ) :   0.3122 B(  7-C , 18-H ) :   0.2002 B(  8-C ,  9-H ) :   0.9321
B(  8-C , 10-H ) :   0.9496 B(  8-C , 11-H ) :   0.1760 B(  8-C , 12-H ) :   0.1582
B(  8-C , 14-H ) :   0.1448 B(  8-C , 15-H ) :   0.1288 B( 13-C , 16-H ) :   0.7988
B( 13-C , 17-H ) :   0.6837 B( 13-C , 18-H ) :   0.8068

Dispersion correction           -0.006206194
FINAL SINGLE POINT ENERGY      -409.952467764798

DIPOLE MOMENT
-------------
                                X             Y             Z
Electronic contribution:     12.95881       3.80641       8.12896
Nuclear contribution   :    -12.98236      -3.37383      -9.29109
                        -----------------------------------------
Total Dipole Moment    :     -0.02356       0.43258      -1.16213
                        -----------------------------------------
Magnitude (a.u.)       :      1.24025
Magnitude (Debye)      :      3.15246

Rotational constants in cm-1:     0.103537     0.037871     0.033299
Rotational constants in MHz :  3103.957894  1135.332996   998.290247

                             ****ORCA TERMINATED NORMALLY****
TOTAL RUN TIME: 0 days 0 hours 0 minutes 41 seconds 146 msec
