                         Program Version 5.0.0 -  RELEASE  -
|  1> !wB97X-D3 RIJCOSX def2-SVPD def2/J TightSCF
|  2> *xyz 0 1
|  3> C          4.08422        1.74208       -2.11472
|  4> C          4.26524        2.50052       -0.79589
|  5> H          4.86853        3.39267       -0.98113
|  6> H          3.30764        2.82457       -0.38781
|  7> C          4.98224        1.65026        0.24742
|  8> O          4.36806        1.38927        1.31371
|  9> F          6.12892        1.23351       -0.04562
| 10> C          3.13916       -2.37657        1.91061
| 11> C          1.99727        0.43092       -1.39922
| 12> C          3.41275        0.37689       -1.96550
| 13> H          4.04741       -0.24659       -1.32671
| 14> H          3.39077       -0.11872       -2.94284
| 15> H          5.06847        1.59850       -2.56573
| 16> H          3.50336        2.36394       -2.80457
| 17> C          2.39995       -1.38958        1.00949
| 18> C          2.07018       -1.93671       -0.37240
| 19> H          1.48161       -1.06154        1.50991
| 20> H          3.00863       -0.49000        0.89745
| 21> C          1.32224       -0.93577       -1.25641
| 22> H          1.47275       -2.85090       -0.28400
| 23> H          3.00354       -2.23404       -0.86254
| 24> H          1.37644        1.05892       -2.04742
| 25> H          2.01534        0.92978       -0.42653
| 26> H          0.31665       -0.78721       -0.84828
| 27> H          1.18561       -1.37925       -2.24861
| 28> H          4.03659       -2.69929        1.42546
| 29> H          2.51297       -3.22286        2.10186
| 30> H          3.38580       -1.89904        2.83583
| 31> *
| 32> %MaxCore 64000
| 33> %pal nprocs 8
| 34> end
| 35> %scf
| 36>   MaxIter 150
| 37> end
| 38>
| 39>                          ****END OF INPUT****

CARTESIAN COORDINATES (ANGSTROEM)
---------------------------------
  C      4.084220    1.742080   -2.114720
  C      4.265240    2.500520   -0.795890
  H      4.868530    3.392670   -0.981130
  H      3.307640    2.824570   -0.387810
  C      4.982240    1.650260    0.247420
  O      4.368060    1.389270    1.313710
  F      6.128920    1.233510   -0.045620
  C      3.139160   -2.376570    1.910610
  C      1.997270    0.430920   -1.399220
  C      3.412750    0.376890   -1.965500
  H      4.047410   -0.246590   -1.326710
  H      3.390770   -0.118720   -2.942840
  H      5.068470    1.598500   -2.565730
  H      3.503360    2.363940   -2.804570
  C      2.399950   -1.389580    1.009490
  C      2.070180   -1.936710   -0.372400
  H      1.481610   -1.061540    1.509910
  H      3.008630   -0.490000    0.897450
  C      1.322240   -0.935770   -1.256410
  H      1.472750   -2.850900   -0.284000
  H      3.003540   -2.234040   -0.862540
  H      1.376440    1.058920   -2.047420
  H      2.015340    0.929780   -0.426530
  H      0.316650   -0.787210   -0.848280
  H      1.185610   -1.379250   -2.248610
  H      4.036590   -2.699290    1.425460
  H      2.512970   -3.222860    2.101860
  H      3.385800   -1.899040    2.835830

 Total Charge           Charge          ....    0
 Multiplicity           Mult            ....    1
 Number of Electrons    NEL             ....   88
 Basis Dimension        Dim             ....  362

ORBITAL ENERGIES
----------------

  NO   OCC          E(Eh)            E(eV)
   0   2.0000     -24.877806      -676.9595
   1   2.0000     -19.257602      -524.0260
   2   2.0000     -10.477034      -285.0946
   3   2.0000     -10.321071      -280.8506
   4   2.0000     -10.308400      -280.5058
   5   2.0000     -10.294053      -280.1154
   6   2.0000     -10.284891      -279.8661
   7   2.0000     -10.281495      -279.7737
   8   2.0000     -10.275581      -279.6128
   9   2.0000     -10.268163      -279.4109
  10   2.0000     -10.259406      -279.1726
  11   2.0000      -1.427538       -38.8453
  12   2.0000      -1.143165       -31.1071
  13   2.0000      -0.943073       -25.6623
  14   2.0000      -0.911448       -24.8018
  15   2.0000      -0.869831       -23.6693
  16   2.0000      -0.829451       -22.5705
  17   2.0000      -0.783391       -21.3171
  18   2.0000      -0.764115       -20.7926
  19   2.0000      -0.724078       -19.7032
  20   2.0000      -0.697430       -18.9780
  21   2.0000      -0.665532       -18.1100
  22   2.0000      -0.656772       -17.8717
  23   2.0000      -0.642715       -17.4892
  24   2.0000      -0.603829       -16.4310
  25   2.0000      -0.583402       -15.8752
  26   2.0000      -0.575905       -15.6712
  27   2.0000      -0.558706       -15.2032
  28   2.0000      -0.535140       -14.5619
  29   2.0000      -0.529109       -14.3978
  30   2.0000      -0.514362       -13.9965
  31   2.0000      -0.504118       -13.7177
  32   2.0000      -0.494882       -13.4664
  33   2.0000      -0.479287       -13.0421
  34   2.0000      -0.467434       -12.7195
  35   2.0000      -0.459565       -12.5054
  36   2.0000      -0.458647       -12.4804
  37   2.0000      -0.436538       -11.8788
  38   2.0000      -0.429151       -11.6778
  39   2.0000      -0.419735       -11.4216
  40   2.0000      -0.404075       -10.9954
  41   2.0000      -0.400624       -10.9015
  42   2.0000      -0.396878       -10.7996
  43   2.0000      -0.389561       -10.6005
  44   0.0000       0.049900         1.3578
  45   0.0000       0.084282         2.2934
  46   0.0000       0.100903         2.7457
  47   0.0000       0.103294         2.8108
  48   0.0000       0.108815         2.9610

MULLIKEN ATOMIC CHARGES
-----------------------
   0 C :    0.295258
   1 C :    0.098376
   2 H :   -0.089581
   3 H :    0.126157
   4 C :    0.874188
   5 O :   -0.545238
   6 F :   -0.411704
   7 C :    1.061768
   8 C :   -0.173126
   9 C :   -0.120823
  10 H :   -0.012413
  11 H :   -0.135975
  12 H :   -0.027219
  13 H :   -0.087262
  14 C :   -0.005572
  15 C :   -0.112063
  16 H :   -0.084325
  17 H :   -0.712649
  18 C :    0.575006
  19 H :   -0.344099
  20 H :    0.107360
  21 H :   -0.268462
  22 H :    0.101933
  23 H :   -0.002085
  24 H :    0.005272
  25 H :   -0.045809
  26 H :   -0.014813
  27 H :   -0.052101
Sum of atomic charges:    0.0000000

LOEWDIN ATOMIC CHARGES
----------------------
   0 C :   -0.023614
   1 C :    0.050827
   2 H :    0.036587
   3 H :    0.031411
   4 C :    0.001160
   5 O :   -0.139802
   6 F :   -0.028834
   7 C :    0.123328
   8 C :   -0.033414
   9 C :   -0.031020
  10 H :    0.012772
  11 H :    0.032043
  12 H :    0.025173
  13 H :    0.029615
  14 C :   -0.077790
  15 C :   -0.045877
  16 H :    0.031577
  17 H :   -0.029368
  18 C :   -0.034008
  19 H :    0.022808
  20 H :    0.016471
  21 H :    0.026323
  22 H :    0.008431
  23 H :    0.023964
  24 H :    0.021203
  25 H :   -0.016650
  26 H :   -0.018461
  27 H :   -0.014854

  Mayer bond orders larger than 0.100000
B(  0-C ,  1-C ) :   1.1631 B(  0-C ,  2-H ) :   0.1747 B(  0-C ,  3-H ) :   0.1194
B(  0-C ,  9-C ) :   1.2227 B(  0-C , 12-H ) :   0.7330 B(  0-C , 13-H ) :   0.8731
B(  1-C ,  2-H ) :   0.8599 B(  1-C ,  3-H ) :   0.8537 B(  1-C ,  4-C ) :   1.0450
B(  3-H ,  4-C ) :   0.1324 B(  4-C ,  5-O ) :   1.7775 B(  4-C ,  6-F ) :   0.6018
B(  5-O , 17-H ) :   0.1043 B(  7-C , 14-C ) :   1.2613 B(  7-C , 25-H ) :   0.7867
B(  7-C , 26-H ) :   0.7018 B(  7-C , 27-H ) :   0.6567 B(  8-C ,  9-C ) :   1.1997
B(  8-C , 10-H ) :   0.1038 B(  8-C , 11-H ) :   0.1487 B(  8-C , 18-C ) :   1.1625
B(  8-C , 21-H ) :   1.0009 B(  8-C , 22-H ) :   0.8793 B(  8-C , 23-H ) :   0.2701
B(  8-C , 24-H ) :   0.1258 B(  9-C , 10-H ) :   0.9088 B(  9-C , 11-H ) :   0.9264
B(  9-C , 12-H ) :   0.2289 B(  9-C , 13-H ) :   0.1520 B(  9-C , 21-H ) :   0.1196
B( 14-C , 15-C ) :   1.1990 B( 14-C , 16-H ) :   0.7109 B( 14-C , 17-H ) :   0.4834
B( 14-C , 20-H ) :   0.1086 B( 14-C , 25-H ) :   0.2364 B( 14-C , 26-H ) :   0.2781
B( 14-C , 27-H ) :   0.3468 B( 15-C , 16-H ) :   0.1775 B( 15-C , 17-H ) :   0.2441
B( 15-C , 18-C ) :   1.1191 B( 15-C , 19-H ) :   1.0374 B( 15-C , 20-H ) :   0.8490
B( 15-C , 23-H ) :   0.1339 B( 15-C , 24-H ) :   0.1931 B( 16-H , 17-H ) :   0.3169
B( 18-C , 23-H ) :   0.6854 B( 18-C , 24-H ) :   0.7610

Dispersion correction           -0.011706928
FINAL SINGLE POINT ENERGY      -527.789003873670

DIPOLE MOMENT
-------------
                                X             Y             Z
Electronic contribution:     13.84153      10.05998       2.93963
Nuclear contribution   :    -13.81616      -9.54437      -4.04516
                        -----------------------------------------
Total Dipole Moment    :      0.02537       0.51561      -1.10553
                        -----------------------------------------
Magnitude (a.u.)       :      1.22012
Magnitude (Debye)      :      3.10130

Rotational constants in cm-1:     0.042005     0.024018     0.017503
Rotational constants in MHz :  1259.290032   720.027919   524.738270

                             ****ORCA TERMINATED NORMALLY****
TOTAL RUN TIME: 0 days 0 hours 1 minutes 34 seconds 838 msec
