                         Program Version 5.0.0 -  RELEASE  -
|  1> !wB97X-D3 RIJCOSX def2-SVPD def2/J TightSCF
|  2> *xyz 0 1
|  3> C          3.91385       -1.65829        3.01513
|  4> C          4.08422        1.74208       -2.11472
|  5> C          4.26524        2.50052       -0.79589
|  6> H          4.86853        3.39267       -0.98113
|  7> H          3.30764        2.82457       -0.38781
|  8> C          4.98224        1.65026        0.24742
|  9> O          4.36806        1.38927        1.31371
| 10> F          6.12892        1.23351       -0.04562
| 11> C          3.13916       -2.37657        1.91061
| 12> C          1.99727        0.43092       -1.39922
| 13> C          3.41275        0.37689       -1.96550
| 14> H          4.04741       -0.24659       -1.32671
| 15> H          3.39077       -0.11872       -2.94284
| 16> H          5.06847        1.59850       -2.56573
| 17> H          3.50336        2.36394       -2.80457
| 18> C          2.39995       -1.38958        1.00949
| 19> H          2.44075       -3.08712        2.36298
| 20> H          3.84448       -2.97046        1.31868
| 21> C          2.07018       -1.93671       -0.37240
| 22> H          1.48161       -1.06154        1.50991
| 23> H          3.00863       -0.49000        0.89745
| 24> C          1.32224       -0.93577       -1.25641
| 25> H          1.47275       -2.85090       -0.28400
| 26> H          3.00354       -2.23404       -0.86254
| 27> H          1.37644        1.05892       -2.04742
| 28> H          2.01534        0.92978       -0.42653
| 29> H          0.31665       -0.78721       -0.84828
| 30> H          1.18561       -1.37925       -2.24861
| 31> H          4.59802       -0.96242        2.57629
| 32> H          4.45705       -2.37561        3.59417
| 33> H          3.22883       -1.13399        3.64819
| 34> *
| 35> %MaxCore 64000
| 36> %pal nprocs 8
| 37> end
| 38> %scf
| 39>   MaxIter 150
| 40> end
| 41>
| 42>                          ****END OF INPUT****

CARTESIAN COORDINATES (ANGSTROEM)
---------------------------------
  C      3.913850   -1.658290    3.015130
  C      4.084220    1.742080   -2.114720
  C      4.265240    2.500520   -0.795890
  H      4.868530    3.392670   -0.981130
  H      3.307640    2.824570   -0.387810
  C      4.982240    1.650260    0.247420
  O      4.368060    1.389270    1.313710
  F      6.128920    1.233510   -0.045620
  C      3.139160   -2.376570    1.910610
  C      1.997270    0.430920   -1.399220
  C      3.412750    0.376890   -1.965500
  H      4.047410   -0.246590   -1.326710
  H      3.390770   -0.118720   -2.942840
  H      5.068470    1.598500   -2.565730
  H      3.503360    2.363940   -2.804570
  C      2.399950   -1.389580    1.009490
  H      2.440750   -3.087120    2.362980
  H      3.844480   -2.970460    1.318680
  C      2.070180   -1.936710   -0.372400
  H      1.481610   -1.061540    1.509910
  H      3.008630   -0.490000    0.897450
  C      1.322240   -0.935770   -1.256410
  H      1.472750   -2.850900   -0.284000
  H      3.003540   -2.234040   -0.862540
  H      1.376440    1.058920   -2.047420
  H      2.015340    0.929780   -0.426530
  H      0.316650   -0.787210   -0.848280
  H      1.185610   -1.379250   -2.248610
  H      4.598020   -0.962420    2.576290
  H      4.457050   -2.375610    3.594170
  H      3.228830   -1.133990    3.648190

 Total Charge           Charge          ....    0
 Multiplicity           Mult            ....    1
 Number of Electrons    NEL             ....   96
 Basis Dimension        Dim             ....  398

ORBITAL ENERGIES
----------------

  NO   OCC          E(Eh)            E(eV)
   0   2.0000     -24.879012      -676.9923
   1   2.0000     -19.258908      -524.0615
   2   2.0000     -10.478200      -285.1263
   3   2.0000     -10.321680      -280.8672
   4   2.0000     -10.308813      -280.5171
   5   2.0000     -10.294329      -280.1229
   6   2.0000     -10.285066      -279.8709
   7   2.0000     -10.281262      -279.7674
   8   2.0000     -10.275261      -279.6041
   9   2.0000     -10.269595      -279.4499
  10   2.0000     -10.266139      -279.3558
  11   2.0000     -10.252372      -278.9812
  12   2.0000      -1.428679       -38.8763
  13   2.0000      -1.144573       -31.1454
  14   2.0000      -0.943514       -25.6743
  15   2.0000      -0.913793       -24.8656
  16   2.0000      -0.880391       -23.9567
  17   2.0000      -0.842964       -22.9382
  18   2.0000      -0.800501       -21.7827
  19   2.0000      -0.771596       -20.9962
  20   2.0000      -0.747690       -20.3457
  21   2.0000      -0.710220       -19.3261
  22   2.0000      -0.681369       -18.5410
  23   2.0000      -0.666701       -18.1418
  24   2.0000      -0.657902       -17.9024
  25   2.0000      -0.643801       -17.5187
  26   2.0000      -0.605132       -16.4665
  27   2.0000      -0.583157       -15.8685
  28   2.0000      -0.576579       -15.6895
  29   2.0000      -0.562107       -15.2957
  30   2.0000      -0.539660       -14.6849
  31   2.0000      -0.538957       -14.6658
  32   2.0000      -0.511130       -13.9086
  33   2.0000      -0.509082       -13.8528
  34   2.0000      -0.500039       -13.6068
  35   2.0000      -0.480985       -13.0883
  36   2.0000      -0.477726       -12.9996
  37   2.0000      -0.474447       -12.9104
  38   2.0000      -0.463150       -12.6030
  39   2.0000      -0.448194       -12.1960
  40   2.0000      -0.439542       -11.9606
  41   2.0000      -0.427330       -11.6282
  42   2.0000      -0.422994       -11.5103
  43   2.0000      -0.410191       -11.1619
  44   2.0000      -0.400739       -10.9047
  45   2.0000      -0.398912       -10.8550
  46   2.0000      -0.391017       -10.6401
  47   2.0000      -0.388411       -10.5692
  48   0.0000       0.048732         1.3261
  49   0.0000       0.084319         2.2944
  50   0.0000       0.100349         2.7306
  51   0.0000       0.102788         2.7970
  52   0.0000       0.108001         2.9389

MULLIKEN ATOMIC CHARGES
-----------------------
   0 C :    0.939508
   1 C :    0.321543
   2 C :    0.101562
   3 H :   -0.086294
   4 H :    0.147945
   5 C :    0.850226
   6 O :   -0.567352
   7 F :   -0.408864
   8 C :   -0.145701
   9 C :   -0.184859
  10 C :   -0.124685
  11 H :   -0.012275
  12 H :   -0.136825
  13 H :   -0.021710
  14 H :   -0.079616
  15 C :    0.509271
  16 H :   -0.075279
  17 H :   -0.084944
  18 C :   -0.093296
  19 H :   -0.026945
  20 H :   -0.771954
  21 C :    0.618231
  22 H :   -0.363360
  23 H :    0.127591
  24 H :   -0.335207
  25 H :    0.162499
  26 H :    0.024395
  27 H :    0.000487
  28 H :   -0.262682
  29 H :   -0.042896
  30 H :    0.021487
Sum of atomic charges:    0.0000000

LOEWDIN ATOMIC CHARGES
----------------------
   0 C :    0.117665
   1 C :   -0.023216
   2 C :    0.051593
   3 H :    0.037070
   4 H :    0.031719
   5 C :    0.004603
   6 O :   -0.139051
   7 F :   -0.027592
   8 C :   -0.076477
   9 C :   -0.033115
  10 C :   -0.030934
  11 H :    0.013004
  12 H :    0.032142
  13 H :    0.025250
  14 H :    0.029755
  15 C :   -0.041216
  16 H :    0.020610
  17 H :    0.019119
  18 C :   -0.044519
  19 H :    0.037345
  20 H :   -0.026651
  21 C :   -0.033319
  22 H :    0.024339
  23 H :    0.015830
  24 H :    0.026084
  25 H :    0.008833
  26 H :    0.024107
  27 H :    0.021166
  28 H :   -0.032078
  29 H :   -0.020845
  30 H :   -0.011220

  Mayer bond orders larger than 0.100000
B(  0-C ,  8-C ) :   1.1770 B(  0-C , 28-H ) :   0.8213 B(  0-C , 29-H ) :   0.6645
B(  0-C , 30-H ) :   0.7276 B(  1-C ,  2-C ) :   1.1702 B(  1-C ,  3-H ) :   0.1733
B(  1-C ,  4-H ) :   0.1110 B(  1-C , 10-C ) :   1.2216 B(  1-C , 13-H ) :   0.7288
B(  1-C , 14-H ) :   0.8656 B(  2-C ,  3-H ) :   0.8294 B(  2-C ,  4-H ) :   0.8527
B(  2-C ,  5-C ) :   1.0813 B(  2-C , 14-H ) :   0.1019 B(  3-H ,  5-C ) :   0.1126
B(  4-H ,  5-C ) :   0.1215 B(  5-C ,  6-O ) :   1.7825 B(  5-C ,  7-F ) :   0.5733
B(  8-C , 15-C ) :   1.1417 B(  8-C , 16-H ) :   0.8366 B(  8-C , 17-H ) :   0.9412
B(  8-C , 19-H ) :   0.1083 B(  8-C , 28-H ) :   0.2058 B(  8-C , 29-H ) :   0.2636
B(  8-C , 30-H ) :   0.1939 B(  9-C , 10-C ) :   1.1987 B(  9-C , 11-H ) :   0.1045
B(  9-C , 12-H ) :   0.1544 B(  9-C , 21-C ) :   1.1603 B(  9-C , 24-H ) :   1.0384
B(  9-C , 25-H ) :   0.8466 B(  9-C , 26-H ) :   0.2655 B(  9-C , 27-H ) :   0.1345
B( 10-C , 11-H ) :   0.9179 B( 10-C , 12-H ) :   0.9186 B( 10-C , 13-H ) :   0.2297
B( 10-C , 14-H ) :   0.1561 B( 10-C , 24-H ) :   0.1103 B( 15-C , 16-H ) :   0.2154
B( 15-C , 17-H ) :   0.1361 B( 15-C , 18-C ) :   1.2056 B( 15-C , 19-H ) :   0.5996
B( 15-C , 20-H ) :   0.4297 B( 15-C , 23-H ) :   0.1144 B( 18-C , 19-H ) :   0.1172
B( 18-C , 20-H ) :   0.1939 B( 18-C , 21-C ) :   1.1037 B( 18-C , 22-H ) :   1.0683
B( 18-C , 23-H ) :   0.8374 B( 18-C , 26-H ) :   0.1187 B( 18-C , 27-H ) :   0.2071
B( 19-H , 20-H ) :   0.3632 B( 21-C , 26-H ) :   0.6825 B( 21-C , 27-H ) :   0.7265

Dispersion correction           -0.013519811
FINAL SINGLE POINT ENERGY      -567.067063778875

DIPOLE MOMENT
-------------
                                X             Y             Z
Electronic contribution:     12.98463      10.56580       0.28674
Nuclear contribution   :    -12.94582     -10.02064      -1.41546
                        -----------------------------------------
Total Dipole Moment    :      0.03881       0.54516      -1.12872
                        -----------------------------------------
Magnitude (a.u.)       :      1.25408
Magnitude (Debye)      :      3.18762

Rotational constants in cm-1:     0.031818     0.021788     0.014538
Rotational constants in MHz :   953.892546   653.188980   435.834604

                             ****ORCA TERMINATED NORMALLY****
TOTAL RUN TIME: 0 days 0 hours 2 minutes 0 seconds 841 msec
