                         Program Version 5.0.0 -  RELEASE  -
|  1> !wB97X-D3 RIJCOSX def2-SVPD def2/J TightSCF
|  2> *xyz 0 1
|  3> C          3.91385       -1.65829        3.01513
|  4> N          5.03927       -0.90115        2.49282
|  5> C          6.21038       -1.41726        2.17824
|  6> C          6.53591       -2.67712        2.55608
|  7> N          7.07675       -0.70082        1.47891
|  8> H          7.95464       -1.12155        1.20755
|  9> H          6.75616        0.10664        0.96028
| 10> H          4.84217        0.01761        2.11519
| 11> H          5.99388       -3.12692        3.28278
| 12> C          3.13916       -2.37657        1.91061
| 13> H          3.26723       -0.93940        3.52069
| 14> H          4.24720       -2.35509        3.79006
| 15> H          7.49844       -2.97548        2.46878
| 16> H          2.82969       -1.66654        1.17238
| 17> H          2.27790       -2.85264        2.33072
| 18> H          3.76754       -3.11338        1.45548
| 19> *
| 20> %MaxCore 64000
| 21> %pal nprocs 8
| 22> end
| 23> %scf
| 24>   MaxIter 150
| 25> end
| 26>
| 27>
| 28>                          ****END OF INPUT****

CARTESIAN COORDINATES (ANGSTROEM)
---------------------------------
  C      3.913850   -1.658290    3.015130
  N      5.039270   -0.901150    2.492820
  C      6.210380   -1.417260    2.178240
  C      6.535910   -2.677120    2.556080
  N      7.076750   -0.700820    1.478910
  H      7.954640   -1.121550    1.207550
  H      6.756160    0.106640    0.960280
  H      4.842170    0.017610    2.115190
  H      5.993880   -3.126920    3.282780
  C      3.139160   -2.376570    1.910610
  H      3.267230   -0.939400    3.520690
  H      4.247200   -2.355090    3.790060
  H      7.498440   -2.975480    2.468780
  H      2.829690   -1.666540    1.172380
  H      2.277900   -2.852640    2.330720
  H      3.767540   -3.113380    1.455480

 Total Charge           Charge          ....    0
 Multiplicity           Mult            ....    1
 Number of Electrons    NEL             ....   48
 Basis Dimension        Dim             ....  200

ORBITAL ENERGIES
----------------

  NO   OCC          E(Eh)            E(eV)
   0   2.0000     -14.442268      -392.9941
   1   2.0000     -14.440235      -392.9388
   2   2.0000     -10.340549      -281.3806
   3   2.0000     -10.323688      -280.9218
   4   2.0000     -10.271040      -279.4892
   5   2.0000     -10.199659      -277.5468
   6   2.0000      -1.084773       -29.5182
   7   2.0000      -0.998627       -27.1740
   8   2.0000      -0.863769       -23.5044
   9   2.0000      -0.814966       -22.1764
  10   2.0000      -0.749016       -20.3818
  11   2.0000      -0.668769       -18.1981
  12   2.0000      -0.656782       -17.8719
  13   2.0000      -0.623625       -16.9697
  14   2.0000      -0.568623       -15.4730
  15   2.0000      -0.540631       -14.7113
  16   2.0000      -0.520114       -14.1530
  17   2.0000      -0.497195       -13.5294
  18   2.0000      -0.476228       -12.9588
  19   2.0000      -0.463705       -12.6181
  20   2.0000      -0.461372       -12.5546
  21   2.0000      -0.440104       -11.9758
  22   2.0000      -0.346586        -9.4311
  23   2.0000      -0.251938        -6.8556
  24   0.0000       0.086828         2.3627
  25   0.0000       0.110173         2.9980
  26   0.0000       0.119378         3.2484
  27   0.0000       0.123669         3.3652
  28   0.0000       0.153737         4.1834

MULLIKEN ATOMIC CHARGES
-----------------------
   0 C :    0.251179
   1 N :   -0.409295
   2 C :    0.708936
   3 C :    0.437304
   4 N :   -0.062708
   5 H :    0.000664
   6 H :   -0.144977
   7 H :   -0.326014
   8 H :   -0.187972
   9 C :    0.602849
  10 H :   -0.289191
  11 H :    0.037883
  12 H :   -0.500001
  13 H :   -0.062071
  14 H :    0.008052
  15 H :   -0.064639
Sum of atomic charges:   -0.0000000

LOEWDIN ATOMIC CHARGES
----------------------
   0 C :    0.018213
   1 N :   -0.030466
   2 C :   -0.232075
   3 C :    0.150488
   4 N :    0.175358
   5 H :    0.011501
   6 H :   -0.003593
   7 H :    0.026423
   8 H :   -0.118763
   9 C :    0.133124
  10 H :    0.019815
  11 H :    0.015669
  12 H :   -0.105264
  13 H :   -0.020442
  14 H :   -0.018232
  15 H :   -0.021756

  Mayer bond orders larger than 0.100000
B(  0-C ,  1-N ) :   0.8848 B(  0-C ,  7-H ) :  -0.1466 B(  0-C ,  9-C ) :   1.1907
B(  0-C , 10-H ) :   0.9607 B(  0-C , 11-H ) :   0.8769 B(  0-C , 13-H ) :   0.2037
B(  0-C , 14-H ) :   0.1539 B(  0-C , 15-H ) :   0.1860 B(  1-N ,  2-C ) :   0.9434
B(  1-N ,  3-C ) :   0.3335 B(  1-N ,  4-N ) :   0.1574 B(  1-N ,  7-H ) :   1.3654
B(  1-N , 10-H ) :   0.1565 B(  1-N , 11-H ) :   0.1030 B(  2-C ,  3-C ) :   1.7555
B(  2-C ,  4-N ) :   0.8416 B(  2-C ,  7-H ) :  -0.2647 B(  2-C ,  8-H ) :   0.2866
B(  2-C , 12-H ) :   0.1585 B(  3-C ,  4-N ) :   0.2199 B(  3-C ,  8-H ) :   0.6640
B(  3-C , 12-H ) :   0.8444 B(  4-N ,  5-H ) :   1.1061 B(  4-N ,  6-H ) :   1.2036
B(  5-H ,  6-H ) :  -0.1495 B(  9-C , 13-H ) :   0.8315 B(  9-C , 14-H ) :   0.8290
B(  9-C , 15-H ) :   0.8694

Dispersion correction           -0.003813183
FINAL SINGLE POINT ENERGY      -267.660215790137

DIPOLE MOMENT
-------------
                                X             Y             Z
Electronic contribution:      3.05754       2.81208      -0.20885
Nuclear contribution   :     -3.42552      -1.84584      -0.22295
                        -----------------------------------------
Total Dipole Moment    :     -0.36798       0.96624      -0.43181
                        -----------------------------------------
Magnitude (a.u.)       :      1.12048
Magnitude (Debye)      :      2.84804

Rotational constants in cm-1:     0.233526     0.075277     0.067092
Rotational constants in MHz :  7000.931279  2256.752901  2011.361214

                             ****ORCA TERMINATED NORMALLY****
TOTAL RUN TIME: 0 days 0 hours 0 minutes 22 seconds 503 msec
