                         Program Version 5.0.0 -  RELEASE  -
|  1> !wB97X-D3 RIJCOSX def2-SVPD def2/J TightSCF
|  2> *xyz 0 1
|  3> C          3.91385       -1.65829        3.01513
|  4> N          5.03927       -0.90115        2.49282
|  5> C          6.21038       -1.41726        2.17824
|  6> C          6.53591       -2.67712        2.55608
|  7> N          7.07675       -0.70082        1.47891
|  8> H          7.95464       -1.12155        1.20755
|  9> H          6.75616        0.10664        0.96028
| 10> H          4.84217        0.01761        2.11519
| 11> H          5.99388       -3.12692        3.28278
| 12> H          7.49844       -2.97548        2.46878
| 13> C          3.13916       -2.37657        1.91061
| 14> H          3.26723       -0.93940        3.52069
| 15> H          4.24720       -2.35509        3.79006
| 16> C          1.99727        0.43092       -1.39922
| 17> C          2.39995       -1.38958        1.00949
| 18> H          2.44075       -3.08712        2.36298
| 19> H          3.84448       -2.97046        1.31868
| 20> C          2.07018       -1.93671       -0.37240
| 21> H          1.48161       -1.06154        1.50991
| 22> H          3.00863       -0.49000        0.89745
| 23> C          1.32224       -0.93577       -1.25641
| 24> H          1.47275       -2.85090       -0.28400
| 25> H          3.00354       -2.23404       -0.86254
| 26> H          0.31665       -0.78721       -0.84828
| 27> H          1.18561       -1.37925       -2.24861
| 28> H          1.40357        1.05764       -2.03139
| 29> H          2.96811        0.30580       -1.83133
| 30> H          2.09191        0.88450       -0.43475
| 31> *
| 32> %MaxCore 64000
| 33> %pal nprocs 8
| 34> end
| 35> %scf
| 36>   MaxIter 150
| 37> end
| 38>
| 39>                          ****END OF INPUT****

CARTESIAN COORDINATES (ANGSTROEM)
---------------------------------
  C      3.913850   -1.658290    3.015130
  N      5.039270   -0.901150    2.492820
  C      6.210380   -1.417260    2.178240
  C      6.535910   -2.677120    2.556080
  N      7.076750   -0.700820    1.478910
  H      7.954640   -1.121550    1.207550
  H      6.756160    0.106640    0.960280
  H      4.842170    0.017610    2.115190
  H      5.993880   -3.126920    3.282780
  H      7.498440   -2.975480    2.468780
  C      3.139160   -2.376570    1.910610
  H      3.267230   -0.939400    3.520690
  H      4.247200   -2.355090    3.790060
  C      1.997270    0.430920   -1.399220
  C      2.399950   -1.389580    1.009490
  H      2.440750   -3.087120    2.362980
  H      3.844480   -2.970460    1.318680
  C      2.070180   -1.936710   -0.372400
  H      1.481610   -1.061540    1.509910
  H      3.008630   -0.490000    0.897450
  C      1.322240   -0.935770   -1.256410
  H      1.472750   -2.850900   -0.284000
  H      3.003540   -2.234040   -0.862540
  H      0.316650   -0.787210   -0.848280
  H      1.185610   -1.379250   -2.248610
  H      1.403570    1.057640   -2.031390
  H      2.968110    0.305800   -1.831330
  H      2.091910    0.884500   -0.434750

 Total Charge           Charge          ....    0
 Multiplicity           Mult            ....    1
 Number of Electrons    NEL             ....   80
 Basis Dimension        Dim             ....  344

ORBITAL ENERGIES
----------------

  NO   OCC          E(Eh)            E(eV)
   0   2.0000     -14.442281      -392.9944
   1   2.0000     -14.440285      -392.9401
   2   2.0000     -10.340583      -281.3816
   3   2.0000     -10.321110      -280.8517
   4   2.0000     -10.284133      -279.8455
   5   2.0000     -10.283219      -279.8206
   6   2.0000     -10.281987      -279.7871
   7   2.0000     -10.279940      -279.7314
   8   2.0000     -10.273556      -279.5577
   9   2.0000     -10.199861      -277.5523
  10   2.0000      -1.084959       -29.5232
  11   2.0000      -0.999448       -27.1964
  12   2.0000      -0.920813       -25.0566
  13   2.0000      -0.877510       -23.8783
  14   2.0000      -0.824585       -22.4381
  15   2.0000      -0.811784       -22.0898
  16   2.0000      -0.764439       -20.8015
  17   2.0000      -0.714756       -19.4495
  18   2.0000      -0.674355       -18.3501
  19   2.0000      -0.662094       -18.0165
  20   2.0000      -0.653830       -17.7916
  21   2.0000      -0.623856       -16.9760
  22   2.0000      -0.585450       -15.9309
  23   2.0000      -0.559613       -15.2279
  24   2.0000      -0.558385       -15.1944
  25   2.0000      -0.535385       -14.5686
  26   2.0000      -0.522886       -14.2284
  27   2.0000      -0.513113       -13.9625
  28   2.0000      -0.496246       -13.5035
  29   2.0000      -0.481335       -13.0978
  30   2.0000      -0.473535       -12.8855
  31   2.0000      -0.464971       -12.6525
  32   2.0000      -0.463726       -12.6186
  33   2.0000      -0.442011       -12.0277
  34   2.0000      -0.430369       -11.7109
  35   2.0000      -0.414785       -11.2869
  36   2.0000      -0.411146       -11.1878
  37   2.0000      -0.407765       -11.0959
  38   2.0000      -0.345889        -9.4121
  39   2.0000      -0.252157        -6.8615
  40   0.0000       0.076727         2.0878
  41   0.0000       0.101758         2.7690
  42   0.0000       0.105820         2.8795
  43   0.0000       0.107646         2.9292
  44   0.0000       0.127036         3.4568

MULLIKEN ATOMIC CHARGES
-----------------------
   0 C :    0.907478
   1 N :   -0.486159
   2 C :    0.726821
   3 C :    0.480070
   4 N :   -0.050060
   5 H :   -0.005472
   6 H :   -0.152259
   7 H :   -0.355215
   8 H :   -0.128412
   9 H :   -0.567028
  10 C :    0.205463
  11 H :   -0.329970
  12 H :    0.028500
  13 C :    0.656247
  14 C :   -0.102872
  15 H :   -0.082102
  16 H :   -0.007431
  17 C :    0.044987
  18 H :   -0.062534
  19 H :   -0.255964
  20 C :   -0.206453
  21 H :   -0.093540
  22 H :    0.005538
  23 H :    0.028754
  24 H :   -0.084285
  25 H :   -0.138212
  26 H :    0.030994
  27 H :   -0.006884
Sum of atomic charges:    0.0000000

LOEWDIN ATOMIC CHARGES
----------------------
   0 C :    0.057765
   1 N :   -0.020653
   2 C :   -0.230015
   3 C :    0.152525
   4 N :    0.176715
   5 H :    0.011545
   6 H :   -0.003362
   7 H :    0.020163
   8 H :   -0.118368
   9 H :   -0.104848
  10 C :   -0.018107
  11 H :    0.025330
  12 H :    0.015907
  13 C :    0.115391
  14 C :   -0.052539
  15 H :    0.026646
  16 H :    0.019977
  17 C :   -0.048608
  18 H :    0.033240
  19 H :   -0.007639
  20 C :   -0.080691
  21 H :    0.026819
  22 H :    0.027550
  23 H :    0.020498
  24 H :    0.018554
  25 H :   -0.018239
  26 H :   -0.013342
  27 H :   -0.032212

  Mayer bond orders larger than 0.100000
B(  0-C ,  1-N ) :   0.8470 B(  0-C ,  7-H ) :  -0.1848 B(  0-C , 10-C ) :   1.0573
B(  0-C , 11-H ) :   0.8034 B(  0-C , 12-H ) :   0.7812 B(  0-C , 14-C ) :   0.1170
B(  1-N ,  2-C ) :   0.8776 B(  1-N ,  3-C ) :   0.3499 B(  1-N ,  4-N ) :   0.1789
B(  1-N ,  7-H ) :   1.3790 B(  1-N , 11-H ) :   0.2243 B(  2-C ,  3-C ) :   1.7302
B(  2-C ,  4-N ) :   0.8461 B(  2-C ,  7-H ) :  -0.3076 B(  2-C ,  8-H ) :   0.2903
B(  2-C ,  9-H ) :   0.2080 B(  3-C ,  4-N ) :   0.2108 B(  3-C ,  8-H ) :   0.6597
B(  3-C ,  9-H ) :   0.7752 B(  4-N ,  5-H ) :   1.1028 B(  4-N ,  6-H ) :   1.2029
B(  5-H ,  6-H ) :  -0.1537 B(  8-H , 12-H ) :   0.1216 B( 10-C , 12-H ) :   0.1174
B( 10-C , 14-C ) :   1.1668 B( 10-C , 15-H ) :   0.9432 B( 10-C , 16-H ) :   0.9054
B( 10-C , 18-H ) :   0.1092 B( 11-H , 12-H ) :  -0.1932 B( 13-C , 20-C ) :   1.2608
B( 13-C , 25-H ) :   0.8231 B( 13-C , 26-H ) :   0.7844 B( 13-C , 27-H ) :   0.8438
B( 14-C , 15-H ) :   0.1647 B( 14-C , 17-C ) :   1.1880 B( 14-C , 18-H ) :   0.8785
B( 14-C , 19-H ) :   0.9507 B( 14-C , 21-H ) :   0.1466 B( 14-C , 22-H ) :   0.1394
B( 17-C , 20-C ) :   1.1555 B( 17-C , 21-H ) :   0.9171 B( 17-C , 22-H ) :   0.9238
B( 17-C , 24-H ) :   0.2153 B( 18-H , 19-H ) :   0.1768 B( 20-C , 23-H ) :   0.8961
B( 20-C , 24-H ) :   0.8439 B( 20-C , 25-H ) :   0.2009 B( 20-C , 26-H ) :   0.1988
B( 20-C , 27-H ) :   0.1698

Dispersion correction           -0.009343129
FINAL SINGLE POINT ENERGY      -424.772767646453

DIPOLE MOMENT
-------------
                                X             Y             Z
Electronic contribution:      6.87705       0.00084       4.82329
Nuclear contribution   :     -7.26201       0.89307      -5.30104
                        -----------------------------------------
Total Dipole Moment    :     -0.38497       0.89391      -0.47775
                        -----------------------------------------
Magnitude (a.u.)       :      1.08421
Magnitude (Debye)      :      2.75584

Rotational constants in cm-1:     0.068783     0.019012     0.016740
Rotational constants in MHz :  2062.054748   569.977685   501.845947

                             ****ORCA TERMINATED NORMALLY****
TOTAL RUN TIME: 0 days 0 hours 1 minutes 14 seconds 912 msec
