                         Program Version 5.0.0 -  RELEASE  -
|  1> !wB97X-D3 RIJCOSX def2-SVPD def2/J TightSCF
|  2> *xyz 0 1
|  3> C          3.91385       -1.65829        3.01513
|  4> N          5.03927       -0.90115        2.49282
|  5> C          4.08422        1.74208       -2.11472
|  6> C          6.21038       -1.41726        2.17824
|  7> C          6.53591       -2.67712        2.55608
|  8> N          7.07675       -0.70082        1.47891
|  9> H          7.95464       -1.12155        1.20755
| 10> H          6.75616        0.10664        0.96028
| 11> H          4.84217        0.01761        2.11519
| 12> H          5.99388       -3.12692        3.28278
| 13> H          7.49844       -2.97548        2.46878
| 14> C          3.13916       -2.37657        1.91061
| 15> H          3.26723       -0.93940        3.52069
| 16> H          4.24720       -2.35509        3.79006
| 17> C          1.99727        0.43092       -1.39922
| 18> C          3.41275        0.37689       -1.96550
| 19> H          4.04741       -0.24659       -1.32671
| 20> H          3.39077       -0.11872       -2.94284
| 21> C          2.39995       -1.38958        1.00949
| 22> H          2.44075       -3.08712        2.36298
| 23> H          3.84448       -2.97046        1.31868
| 24> C          2.07018       -1.93671       -0.37240
| 25> H          1.48161       -1.06154        1.50991
| 26> H          3.00863       -0.49000        0.89745
| 27> C          1.32224       -0.93577       -1.25641
| 28> H          1.47275       -2.85090       -0.28400
| 29> H          3.00354       -2.23404       -0.86254
| 30> H          1.37644        1.05892       -2.04742
| 31> H          2.01534        0.92978       -0.42653
| 32> H          0.31665       -0.78721       -0.84828
| 33> H          1.18561       -1.37925       -2.24861
| 34> H          3.48097        2.37022       -2.73636
| 35> H          5.04852        1.61832       -2.56161
| 36> H          4.19316        2.19326       -1.15063
| 37> *
| 38> %MaxCore 64000
| 39> %pal nprocs 8
| 40> end
| 41> %scf
| 42>   MaxIter 150
| 43> end
| 44>
| 45>                          ****END OF INPUT****

CARTESIAN COORDINATES (ANGSTROEM)
---------------------------------
  C      3.913850   -1.658290    3.015130
  N      5.039270   -0.901150    2.492820
  C      4.084220    1.742080   -2.114720
  C      6.210380   -1.417260    2.178240
  C      6.535910   -2.677120    2.556080
  N      7.076750   -0.700820    1.478910
  H      7.954640   -1.121550    1.207550
  H      6.756160    0.106640    0.960280
  H      4.842170    0.017610    2.115190
  H      5.993880   -3.126920    3.282780
  H      7.498440   -2.975480    2.468780
  C      3.139160   -2.376570    1.910610
  H      3.267230   -0.939400    3.520690
  H      4.247200   -2.355090    3.790060
  C      1.997270    0.430920   -1.399220
  C      3.412750    0.376890   -1.965500
  H      4.047410   -0.246590   -1.326710
  H      3.390770   -0.118720   -2.942840
  C      2.399950   -1.389580    1.009490
  H      2.440750   -3.087120    2.362980
  H      3.844480   -2.970460    1.318680
  C      2.070180   -1.936710   -0.372400
  H      1.481610   -1.061540    1.509910
  H      3.008630   -0.490000    0.897450
  C      1.322240   -0.935770   -1.256410
  H      1.472750   -2.850900   -0.284000
  H      3.003540   -2.234040   -0.862540
  H      1.376440    1.058920   -2.047420
  H      2.015340    0.929780   -0.426530
  H      0.316650   -0.787210   -0.848280
  H      1.185610   -1.379250   -2.248610
  H      3.480970    2.370220   -2.736360
  H      5.048520    1.618320   -2.561610
  H      4.193160    2.193260   -1.150630

 Total Charge           Charge          ....    0
 Multiplicity           Mult            ....    1
 Number of Electrons    NEL             ....   96
 Basis Dimension        Dim             ....  416

ORBITAL ENERGIES
----------------

  NO   OCC          E(Eh)            E(eV)
   0   2.0000     -14.442478      -392.9998
   1   2.0000     -14.440545      -392.9472
   2   2.0000     -10.340787      -281.3871
   3   2.0000     -10.321181      -280.8536
   4   2.0000     -10.285949      -279.8949
   5   2.0000     -10.283801      -279.8364
   6   2.0000     -10.283211      -279.8204
   7   2.0000     -10.283095      -279.8173
   8   2.0000     -10.281552      -279.7753
   9   2.0000     -10.279921      -279.7309
  10   2.0000     -10.276132      -279.6278
  11   2.0000     -10.200029      -277.5569
  12   2.0000      -1.085118       -29.5276
  13   2.0000      -0.999589       -27.2002
  14   2.0000      -0.929236       -25.2858
  15   2.0000      -0.897642       -24.4261
  16   2.0000      -0.861592       -23.4451
  17   2.0000      -0.820075       -22.3154
  18   2.0000      -0.809364       -22.0239
  19   2.0000      -0.765763       -20.8375
  20   2.0000      -0.722008       -19.6468
  21   2.0000      -0.703320       -19.1383
  22   2.0000      -0.664450       -18.0806
  23   2.0000      -0.661283       -17.9944
  24   2.0000      -0.651501       -17.7282
  25   2.0000      -0.623972       -16.9791
  26   2.0000      -0.589048       -16.0288
  27   2.0000      -0.577366       -15.7109
  28   2.0000      -0.556499       -15.1431
  29   2.0000      -0.544449       -14.8152
  30   2.0000      -0.534362       -14.5407
  31   2.0000      -0.525704       -14.3051
  32   2.0000      -0.517241       -14.0748
  33   2.0000      -0.503508       -13.7012
  34   2.0000      -0.494162       -13.4468
  35   2.0000      -0.481138       -13.0924
  36   2.0000      -0.468918       -12.7599
  37   2.0000      -0.466117       -12.6837
  38   2.0000      -0.457190       -12.4408
  39   2.0000      -0.453186       -12.3318
  40   2.0000      -0.436634       -11.8814
  41   2.0000      -0.424982       -11.5644
  42   2.0000      -0.423631       -11.5276
  43   2.0000      -0.407476       -11.0880
  44   2.0000      -0.406013       -11.0482
  45   2.0000      -0.402132       -10.9426
  46   2.0000      -0.346026        -9.4159
  47   2.0000      -0.252308        -6.8656
  48   0.0000       0.068770         1.8713
  49   0.0000       0.097838         2.6623
  50   0.0000       0.100613         2.7378
  51   0.0000       0.105608         2.8737
  52   0.0000       0.118923         3.2361

MULLIKEN ATOMIC CHARGES
-----------------------
   0 C :    0.922602
   1 N :   -0.486896
   2 C :    0.939837
   3 C :    0.750236
   4 C :    0.498426
   5 N :   -0.038355
   6 H :   -0.008107
   7 H :   -0.177513
   8 H :   -0.368052
   9 H :   -0.117936
  10 H :   -0.577353
  11 C :    0.281331
  12 H :   -0.333586
  13 H :    0.018699
  14 C :   -0.150937
  15 C :   -0.478429
  16 H :   -0.144593
  17 H :   -0.042383
  18 C :   -0.110726
  19 H :   -0.086234
  20 H :   -0.021827
  21 C :   -0.012301
  22 H :   -0.029771
  23 H :   -0.235455
  24 C :    0.469978
  25 H :   -0.243902
  26 H :    0.079491
  27 H :   -0.333817
  28 H :    0.131061
  29 H :    0.035932
  30 H :   -0.022866
  31 H :    0.020647
  32 H :   -0.062878
  33 H :   -0.064321
Sum of atomic charges:   -0.0000000

LOEWDIN ATOMIC CHARGES
----------------------
   0 C :    0.058404
   1 N :   -0.019957
   2 C :    0.114645
   3 C :   -0.230461
   4 C :    0.153007
   5 N :    0.178199
   6 H :    0.011776
   7 H :   -0.005284
   8 H :    0.019755
   9 H :   -0.118185
  10 H :   -0.104742
  11 C :   -0.016153
  12 H :    0.025540
  13 H :    0.015949
  14 C :   -0.049348
  15 C :   -0.086166
  16 H :    0.007759
  17 H :    0.027367
  18 C :   -0.047215
  19 H :    0.026655
  20 H :    0.020449
  21 C :   -0.042272
  22 H :    0.033468
  23 H :   -0.009878
  24 C :   -0.037379
  25 H :    0.027021
  26 H :    0.019385
  27 H :    0.023356
  28 H :    0.012862
  29 H :    0.022374
  30 H :    0.022308
  31 H :   -0.015878
  32 H :   -0.017905
  33 H :   -0.019456

  Mayer bond orders larger than 0.100000
B(  0-C ,  1-N ) :   0.8381 B(  0-C ,  8-H ) :  -0.1959 B(  0-C , 11-C ) :   1.0463
B(  0-C , 12-H ) :   0.7970 B(  0-C , 13-H ) :   0.7805 B(  0-C , 18-C ) :   0.1206
B(  0-C , 20-H ) :   0.1013 B(  1-N ,  3-C ) :   0.8528 B(  1-N ,  4-C ) :   0.3643
B(  1-N ,  5-N ) :   0.1829 B(  1-N ,  8-H ) :   1.3840 B(  1-N , 12-H ) :   0.2248
B(  2-C , 15-C ) :   1.2220 B(  2-C , 31-H ) :   0.7772 B(  2-C , 32-H ) :   0.6495
B(  2-C , 33-H ) :   0.7969 B(  3-C ,  4-C ) :   1.7152 B(  3-C ,  5-N ) :   0.8308
B(  3-C ,  7-H ) :  -0.1099 B(  3-C ,  8-H ) :  -0.3185 B(  3-C ,  9-H ) :   0.2925
B(  3-C , 10-H ) :   0.2052 B(  3-C , 13-H ) :  -0.1004 B(  4-C ,  5-N ) :   0.2160
B(  4-C ,  9-H ) :   0.6568 B(  4-C , 10-H ) :   0.7676 B(  5-N ,  6-H ) :   1.1163
B(  5-N ,  7-H ) :   1.1948 B(  6-H ,  7-H ) :  -0.1646 B(  9-H , 13-H ) :   0.1241
B( 11-C , 13-H ) :   0.1237 B( 11-C , 18-C ) :   1.1227 B( 11-C , 19-H ) :   0.9305
B( 11-C , 20-H ) :   0.9134 B( 11-C , 22-H ) :   0.1088 B( 12-H , 13-H ) :  -0.2055
B( 14-C , 15-C ) :   1.2386 B( 14-C , 16-H ) :   0.1445 B( 14-C , 17-H ) :   0.1768
B( 14-C , 24-C ) :   1.1522 B( 14-C , 27-H ) :   1.0341 B( 14-C , 28-H ) :   0.8578
B( 14-C , 29-H ) :   0.1929 B( 14-C , 30-H ) :   0.1402 B( 15-C , 16-H ) :   0.9504
B( 15-C , 17-H ) :   0.9211 B( 15-C , 27-H ) :   0.1172 B( 15-C , 31-H ) :   0.2083
B( 15-C , 32-H ) :   0.3299 B( 15-C , 33-H ) :   0.2174 B( 18-C , 19-H ) :   0.1726
B( 18-C , 21-C ) :   1.2236 B( 18-C , 22-H ) :   0.8745 B( 18-C , 23-H ) :   0.9828
B( 18-C , 25-H ) :   0.1495 B( 18-C , 26-H ) :   0.1342 B( 21-C , 24-C ) :   1.1353
B( 21-C , 25-H ) :   0.9834 B( 21-C , 26-H ) :   0.8881 B( 21-C , 30-H ) :   0.2252
B( 23-H , 28-H ) :   0.1116 B( 24-C , 29-H ) :   0.7606 B( 24-C , 30-H ) :   0.7143

Dispersion correction           -0.012896988
FINAL SINGLE POINT ENERGY      -503.331620804929

DIPOLE MOMENT
-------------
                                X             Y             Z
Electronic contribution:      5.23924      -1.93404       6.51617
Nuclear contribution   :     -5.63186       2.80809      -7.01642
                        -----------------------------------------
Total Dipole Moment    :     -0.39262       0.87405      -0.50025
                        -----------------------------------------
Magnitude (a.u.)       :      1.08091
Magnitude (Debye)      :      2.74745

Rotational constants in cm-1:     0.036139     0.015627     0.012002
Rotational constants in MHz :  1083.424678   468.481418   359.819092

                             ****ORCA TERMINATED NORMALLY****
TOTAL RUN TIME: 0 days 0 hours 1 minutes 52 seconds 942 msec
