                         Program Version 5.0.0 -  RELEASE  -
|  1> !wB97X-D3 RIJCOSX def2-SVPD def2/J TightSCF
|  2> *xyz 0 1
|  3> C          3.91385       -1.65829        3.01513
|  4> N          5.03927       -0.90115        2.49282
|  5> C          6.21038       -1.41726        2.17824
|  6> C          6.53591       -2.67712        2.55608
|  7> N          7.07675       -0.70082        1.47891
|  8> H          7.95464       -1.12155        1.20755
|  9> H          6.75616        0.10664        0.96028
| 10> H          4.84217        0.01761        2.11519
| 11> H          5.99388       -3.12692        3.28278
| 12> H          7.49844       -2.97548        2.46878
| 13> C          3.13916       -2.37657        1.91061
| 14> H          3.26723       -0.93940        3.52069
| 15> H          4.24720       -2.35509        3.79006
| 16> C          1.99727        0.43092       -1.39922
| 17> C          3.41275        0.37689       -1.96550
| 18> C          2.39995       -1.38958        1.00949
| 19> H          2.44075       -3.08712        2.36298
| 20> H          3.84448       -2.97046        1.31868
| 21> C          2.07018       -1.93671       -0.37240
| 22> H          1.48161       -1.06154        1.50991
| 23> H          3.00863       -0.49000        0.89745
| 24> C          1.32224       -0.93577       -1.25641
| 25> H          1.47275       -2.85090       -0.28400
| 26> H          3.00354       -2.23404       -0.86254
| 27> H          1.37644        1.05892       -2.04742
| 28> H          2.01534        0.92978       -0.42653
| 29> H          0.31665       -0.78721       -0.84828
| 30> H          1.18561       -1.37925       -2.24861
| 31> H          3.39759       -0.11102       -2.91766
| 32> H          4.04439       -0.16810       -1.29548
| 33> H          3.78910        1.37189       -2.08055
| 34> *
| 35> %MaxCore 64000
| 36> %pal nprocs 8
| 37> end
| 38> %scf
| 39>   MaxIter 150
| 40> end
| 41>
| 42>                          ****END OF INPUT****

CARTESIAN COORDINATES (ANGSTROEM)
---------------------------------
  C      3.913850   -1.658290    3.015130
  N      5.039270   -0.901150    2.492820
  C      6.210380   -1.417260    2.178240
  C      6.535910   -2.677120    2.556080
  N      7.076750   -0.700820    1.478910
  H      7.954640   -1.121550    1.207550
  H      6.756160    0.106640    0.960280
  H      4.842170    0.017610    2.115190
  H      5.993880   -3.126920    3.282780
  H      7.498440   -2.975480    2.468780
  C      3.139160   -2.376570    1.910610
  H      3.267230   -0.939400    3.520690
  H      4.247200   -2.355090    3.790060
  C      1.997270    0.430920   -1.399220
  C      3.412750    0.376890   -1.965500
  C      2.399950   -1.389580    1.009490
  H      2.440750   -3.087120    2.362980
  H      3.844480   -2.970460    1.318680
  C      2.070180   -1.936710   -0.372400
  H      1.481610   -1.061540    1.509910
  H      3.008630   -0.490000    0.897450
  C      1.322240   -0.935770   -1.256410
  H      1.472750   -2.850900   -0.284000
  H      3.003540   -2.234040   -0.862540
  H      1.376440    1.058920   -2.047420
  H      2.015340    0.929780   -0.426530
  H      0.316650   -0.787210   -0.848280
  H      1.185610   -1.379250   -2.248610
  H      3.397590   -0.111020   -2.917660
  H      4.044390   -0.168100   -1.295480
  H      3.789100    1.371890   -2.080550

 Total Charge           Charge          ....    0
 Multiplicity           Mult            ....    1
 Number of Electrons    NEL             ....   88
 Basis Dimension        Dim             ....  380

ORBITAL ENERGIES
----------------

  NO   OCC          E(Eh)            E(eV)
   0   2.0000     -14.442494      -393.0002
   1   2.0000     -14.440445      -392.9445
   2   2.0000     -10.340765      -281.3865
   3   2.0000     -10.321237      -280.8551
   4   2.0000     -10.284678      -279.8603
   5   2.0000     -10.283413      -279.8259
   6   2.0000     -10.282626      -279.8045
   7   2.0000     -10.281816      -279.7824
   8   2.0000     -10.280045      -279.7342
   9   2.0000     -10.274312      -279.5782
  10   2.0000     -10.199998      -277.5561
  11   2.0000      -1.085105       -29.5272
  12   2.0000      -0.999567       -27.1996
  13   2.0000      -0.926324       -25.2066
  14   2.0000      -0.888849       -24.1868
  15   2.0000      -0.843322       -22.9480
  16   2.0000      -0.815633       -22.1945
  17   2.0000      -0.791340       -21.5335
  18   2.0000      -0.740910       -20.1612
  19   2.0000      -0.709174       -19.2976
  20   2.0000      -0.664432       -18.0801
  21   2.0000      -0.661339       -17.9960
  22   2.0000      -0.651260       -17.7217
  23   2.0000      -0.623897       -16.9771
  24   2.0000      -0.589515       -16.0415
  25   2.0000      -0.570147       -15.5145
  26   2.0000      -0.562389       -15.3034
  27   2.0000      -0.538412       -14.6509
  28   2.0000      -0.527945       -14.3661
  29   2.0000      -0.518478       -14.1085
  30   2.0000      -0.504024       -13.7152
  31   2.0000      -0.492122       -13.3913
  32   2.0000      -0.486856       -13.2480
  33   2.0000      -0.474163       -12.9026
  34   2.0000      -0.465935       -12.6787
  35   2.0000      -0.461496       -12.5580
  36   2.0000      -0.445467       -12.1218
  37   2.0000      -0.432348       -11.7648
  38   2.0000      -0.427097       -11.6219
  39   2.0000      -0.409335       -11.1386
  40   2.0000      -0.407888       -11.0992
  41   2.0000      -0.404041       -10.9945
  42   2.0000      -0.346018        -9.4156
  43   2.0000      -0.252289        -6.8651
  44   0.0000       0.073834         2.0091
  45   0.0000       0.100165         2.7256
  46   0.0000       0.100913         2.7460
  47   0.0000       0.106724         2.9041
  48   0.0000       0.124608         3.3907

MULLIKEN ATOMIC CHARGES
-----------------------
   0 C :    0.908790
   1 N :   -0.509109
   2 C :    0.739291
   3 C :    0.496567
   4 N :   -0.054630
   5 H :   -0.007112
   6 H :   -0.154615
   7 H :   -0.334486
   8 H :   -0.119927
   9 H :   -0.576631
  10 C :    0.264533
  11 H :   -0.338067
  12 H :    0.025168
  13 C :   -0.410908
  14 C :    0.817836
  15 C :   -0.118558
  16 H :   -0.081472
  17 H :   -0.027925
  18 C :   -0.035268
  19 H :   -0.029085
  20 H :   -0.227243
  21 C :    0.261538
  22 H :   -0.172811
  23 H :    0.057905
  24 H :   -0.271964
  25 H :    0.111750
  26 H :    0.032238
  27 H :   -0.017368
  28 H :    0.024792
  29 H :   -0.197800
  30 H :   -0.055430
Sum of atomic charges:   -0.0000000

LOEWDIN ATOMIC CHARGES
----------------------
   0 C :    0.058207
   1 N :   -0.020067
   2 C :   -0.230710
   3 C :    0.152873
   4 N :    0.177900
   5 H :    0.011688
   6 H :   -0.004490
   7 H :    0.020088
   8 H :   -0.118241
   9 H :   -0.104747
  10 C :   -0.016378
  11 H :    0.025513
  12 H :    0.015986
  13 C :   -0.082962
  14 C :    0.121371
  15 C :   -0.047603
  16 H :    0.026684
  17 H :    0.020337
  18 C :   -0.043060
  19 H :    0.033536
  20 H :   -0.010346
  21 C :   -0.042091
  22 H :    0.027336
  23 H :    0.020891
  24 H :    0.018799
  25 H :    0.008625
  26 H :    0.021593
  27 H :    0.021784
  28 H :   -0.011671
  29 H :   -0.032890
  30 H :   -0.017957

  Mayer bond orders larger than 0.100000
B(  0-C ,  1-N ) :   0.8407 B(  0-C ,  7-H ) :  -0.1831 B(  0-C , 10-C ) :   1.0495
B(  0-C , 11-H ) :   0.7986 B(  0-C , 12-H ) :   0.7837 B(  0-C , 15-C ) :   0.1197
B(  0-C , 17-H ) :   0.1019 B(  1-N ,  2-C ) :   0.8508 B(  1-N ,  3-C ) :   0.3570
B(  1-N ,  4-N ) :   0.1902 B(  1-N ,  7-H ) :   1.3782 B(  1-N , 11-H ) :   0.2264
B(  2-C ,  3-C ) :   1.7169 B(  2-C ,  4-N ) :   0.8381 B(  2-C ,  6-H ) :  -0.1009
B(  2-C ,  7-H ) :  -0.3043 B(  2-C ,  8-H ) :   0.2912 B(  2-C ,  9-H ) :   0.2042
B(  2-C , 12-H ) :  -0.1019 B(  3-C ,  4-N ) :   0.2150 B(  3-C ,  8-H ) :   0.6579
B(  3-C ,  9-H ) :   0.7687 B(  4-N ,  5-H ) :   1.1118 B(  4-N ,  6-H ) :   1.1883
B(  5-H ,  6-H ) :  -0.1576 B(  8-H , 12-H ) :   0.1238 B( 10-C , 12-H ) :   0.1189
B( 10-C , 15-C ) :   1.1273 B( 10-C , 16-H ) :   0.9348 B( 10-C , 17-H ) :   0.9103
B( 10-C , 19-H ) :   0.1097 B( 11-H , 12-H ) :  -0.2047 B( 13-C , 14-C ) :   1.2355
B( 13-C , 21-C ) :   1.1600 B( 13-C , 24-H ) :   1.0385 B( 13-C , 25-H ) :   0.8712
B( 13-C , 26-H ) :   0.1045 B( 13-C , 27-H ) :   0.1396 B( 13-C , 28-H ) :   0.2116
B( 13-C , 29-H ) :   0.2165 B( 13-C , 30-H ) :   0.2188 B( 14-C , 28-H ) :   0.7477
B( 14-C , 29-H ) :   0.8319 B( 14-C , 30-H ) :   0.7427 B( 15-C , 16-H ) :   0.1707
B( 15-C , 18-C ) :   1.2133 B( 15-C , 19-H ) :   0.8777 B( 15-C , 20-H ) :   0.9915
B( 15-C , 22-H ) :   0.1523 B( 15-C , 23-H ) :   0.1380 B( 18-C , 21-C ) :   1.1669
B( 18-C , 22-H ) :   0.9435 B( 18-C , 23-H ) :   0.9068 B( 18-C , 26-H ) :   0.1023
B( 18-C , 27-H ) :   0.2295 B( 19-H , 20-H ) :   0.1030 B( 21-C , 24-H ) :   0.1366
B( 21-C , 25-H ) :   0.1073 B( 21-C , 26-H ) :   0.8506 B( 21-C , 27-H ) :   0.7387

Dispersion correction           -0.011398264
FINAL SINGLE POINT ENERGY      -464.052347246215

DIPOLE MOMENT
-------------
                                X             Y             Z
Electronic contribution:      5.88039      -0.38067       5.85844
Nuclear contribution   :     -6.27962       1.28465      -6.33558
                        -----------------------------------------
Total Dipole Moment    :     -0.39923       0.90398      -0.47713
                        -----------------------------------------
Magnitude (a.u.)       :      1.09737
Magnitude (Debye)      :      2.78930

Rotational constants in cm-1:     0.051343     0.017277     0.014347
Rotational constants in MHz :  1539.211553   517.960470   430.117570

                             ****ORCA TERMINATED NORMALLY****
TOTAL RUN TIME: 0 days 0 hours 1 minutes 34 seconds 378 msec
