                         Program Version 5.0.0 -  RELEASE  -
|  1> !wB97X-D3 RIJCOSX def2-SVPD def2/J TightSCF
|  2> *xyz 0 1
|  3> C          3.91385       -1.65829        3.01513
|  4> N          5.03927       -0.90115        2.49282
|  5> C          6.21038       -1.41726        2.17824
|  6> C          6.53591       -2.67712        2.55608
|  7> N          7.07675       -0.70082        1.47891
|  8> H          7.95464       -1.12155        1.20755
|  9> H          6.75616        0.10664        0.96028
| 10> H          4.84217        0.01761        2.11519
| 11> H          5.99388       -3.12692        3.28278
| 12> H          7.49844       -2.97548        2.46878
| 13> C          3.13916       -2.37657        1.91061
| 14> H          3.26723       -0.93940        3.52069
| 15> H          4.24720       -2.35509        3.79006
| 16> C          2.39995       -1.38958        1.00949
| 17> H          2.44075       -3.08712        2.36298
| 18> H          3.84448       -2.97046        1.31868
| 19> C          2.07018       -1.93671       -0.37240
| 20> H          1.48161       -1.06154        1.50991
| 21> H          3.00863       -0.49000        0.89745
| 22> C          1.32224       -0.93577       -1.25641
| 23> H          1.47275       -2.85090       -0.28400
| 24> H          3.00354       -2.23404       -0.86254
| 25> H          1.12209       -1.38090       -2.20862
| 26> H          1.92280       -0.06049       -1.39103
| 27> H          0.39898       -0.66619       -0.78757
| 28> *
| 29> %MaxCore 64000
| 30> %pal nprocs 8
| 31> end
| 32> %scf
| 33>   MaxIter 150
| 34> end
| 35>
| 36>                          ****END OF INPUT****

CARTESIAN COORDINATES (ANGSTROEM)
---------------------------------
  C      3.913850   -1.658290    3.015130
  N      5.039270   -0.901150    2.492820
  C      6.210380   -1.417260    2.178240
  C      6.535910   -2.677120    2.556080
  N      7.076750   -0.700820    1.478910
  H      7.954640   -1.121550    1.207550
  H      6.756160    0.106640    0.960280
  H      4.842170    0.017610    2.115190
  H      5.993880   -3.126920    3.282780
  H      7.498440   -2.975480    2.468780
  C      3.139160   -2.376570    1.910610
  H      3.267230   -0.939400    3.520690
  H      4.247200   -2.355090    3.790060
  C      2.399950   -1.389580    1.009490
  H      2.440750   -3.087120    2.362980
  H      3.844480   -2.970460    1.318680
  C      2.070180   -1.936710   -0.372400
  H      1.481610   -1.061540    1.509910
  H      3.008630   -0.490000    0.897450
  C      1.322240   -0.935770   -1.256410
  H      1.472750   -2.850900   -0.284000
  H      3.003540   -2.234040   -0.862540
  H      1.122090   -1.380900   -2.208620
  H      1.922800   -0.060490   -1.391030
  H      0.398980   -0.666190   -0.787570

 Total Charge           Charge          ....    0
 Multiplicity           Mult            ....    1
 Number of Electrons    NEL             ....   72
 Basis Dimension        Dim             ....  308

ORBITAL ENERGIES
----------------

  NO   OCC          E(Eh)            E(eV)
   0   2.0000     -14.442430      -392.9985
   1   2.0000     -14.440463      -392.9450
   2   2.0000     -10.340716      -281.3852
   3   2.0000     -10.321326      -280.8576
   4   2.0000     -10.283833      -279.8373
   5   2.0000     -10.283288      -279.8225
   6   2.0000     -10.280057      -279.7346
   7   2.0000     -10.272198      -279.5207
   8   2.0000     -10.199999      -277.5561
   9   2.0000      -1.085131       -29.5279
  10   2.0000      -0.999617       -27.2010
  11   2.0000      -0.913954       -24.8700
  12   2.0000      -0.862423       -23.4677
  13   2.0000      -0.816654       -22.2223
  14   2.0000      -0.792647       -21.5690
  15   2.0000      -0.723976       -19.7004
  16   2.0000      -0.690570       -18.7914
  17   2.0000      -0.662044       -18.0151
  18   2.0000      -0.654810       -17.8183
  19   2.0000      -0.624077       -16.9820
  20   2.0000      -0.586325       -15.9547
  21   2.0000      -0.557285       -15.1645
  22   2.0000      -0.544436       -14.8148
  23   2.0000      -0.531238       -14.4557
  24   2.0000      -0.512204       -13.9378
  25   2.0000      -0.499647       -13.5961
  26   2.0000      -0.488056       -13.2807
  27   2.0000      -0.481365       -13.0986
  28   2.0000      -0.466153       -12.6847
  29   2.0000      -0.449219       -12.2239
  30   2.0000      -0.441747       -12.0205
  31   2.0000      -0.423482       -11.5235
  32   2.0000      -0.415545       -11.3075
  33   2.0000      -0.413979       -11.2649
  34   2.0000      -0.346152        -9.4193
  35   2.0000      -0.252294        -6.8653
  36   0.0000       0.081475         2.2171
  37   0.0000       0.104143         2.8339
  38   0.0000       0.107367         2.9216
  39   0.0000       0.109801         2.9878
  40   0.0000       0.127545         3.4707

MULLIKEN ATOMIC CHARGES
-----------------------
   0 C :    0.875794
   1 N :   -0.479699
   2 C :    0.721832
   3 C :    0.480006
   4 N :   -0.053116
   5 H :   -0.003689
   6 H :   -0.150636
   7 H :   -0.348565
   8 H :   -0.136123
   9 H :   -0.560805
  10 C :    0.082357
  11 H :   -0.351691
  12 H :    0.069275
  13 C :   -0.066985
  14 H :   -0.110801
  15 H :   -0.023588
  16 C :   -0.346220
  17 H :   -0.042477
  18 H :   -0.153448
  19 C :    0.792795
  20 H :   -0.069162
  21 H :   -0.023294
  22 H :   -0.055616
  23 H :   -0.038499
  24 H :   -0.007645
Sum of atomic charges:    0.0000000

LOEWDIN ATOMIC CHARGES
----------------------
   0 C :    0.056554
   1 N :   -0.021060
   2 C :   -0.230075
   3 C :    0.152531
   4 N :    0.176586
   5 H :    0.011569
   6 H :   -0.003376
   7 H :    0.019288
   8 H :   -0.118347
   9 H :   -0.104820
  10 C :   -0.021735
  11 H :    0.025026
  12 H :    0.016199
  13 C :   -0.057905
  14 H :    0.026367
  15 H :    0.019156
  16 C :   -0.089791
  17 H :    0.028363
  18 H :    0.006872
  19 C :    0.112548
  20 H :    0.025483
  21 H :    0.024764
  22 H :   -0.018654
  23 H :   -0.018418
  24 H :   -0.017125

  Mayer bond orders larger than 0.100000
B(  0-C ,  1-N ) :   0.8502 B(  0-C ,  7-H ) :  -0.1811 B(  0-C , 10-C ) :   1.0631
B(  0-C , 11-H ) :   0.8050 B(  0-C , 12-H ) :   0.7967 B(  0-C , 13-C ) :   0.1059
B(  0-C , 15-H ) :   0.1003 B(  1-N ,  2-C ) :   0.8823 B(  1-N ,  3-C ) :   0.3410
B(  1-N ,  4-N ) :   0.1781 B(  1-N ,  7-H ) :   1.3749 B(  1-N , 11-H ) :   0.2295
B(  2-C ,  3-C ) :   1.7356 B(  2-C ,  4-N ) :   0.8507 B(  2-C ,  7-H ) :  -0.3064
B(  2-C ,  8-H ) :   0.2904 B(  2-C ,  9-H ) :   0.2055 B(  3-C ,  4-N ) :   0.2096
B(  3-C ,  8-H ) :   0.6577 B(  3-C ,  9-H ) :   0.7820 B(  4-N ,  5-H ) :   1.1026
B(  4-N ,  6-H ) :   1.2024 B(  5-H ,  6-H ) :  -0.1533 B(  8-H , 12-H ) :   0.1173
B( 10-C , 12-H ) :   0.1057 B( 10-C , 13-C ) :   1.1772 B( 10-C , 14-H ) :   0.9763
B( 10-C , 15-H ) :   0.9350 B( 10-C , 17-H ) :   0.1460 B( 11-H , 12-H ) :  -0.1879
B( 13-C , 14-H ) :   0.1470 B( 13-C , 16-C ) :   1.1903 B( 13-C , 17-H ) :   0.9049
B( 13-C , 18-H ) :   0.9438 B( 13-C , 20-H ) :   0.1331 B( 13-C , 21-H ) :   0.1360
B( 16-C , 19-C ) :   1.2088 B( 16-C , 20-H ) :   0.9325 B( 16-C , 21-H ) :   0.9502
B( 16-C , 22-H ) :   0.2816 B( 16-C , 23-H ) :   0.1776 B( 16-C , 24-H ) :   0.1554
B( 17-H , 18-H ) :   0.1516 B( 19-C , 22-H ) :   0.7004 B( 19-C , 23-H ) :   0.8177
B( 19-C , 24-H ) :   0.8172

Dispersion correction           -0.007759852
FINAL SINGLE POINT ENERGY      -385.495193061582

DIPOLE MOMENT
-------------
                                X             Y             Z
Electronic contribution:      6.87676       1.49840       4.07638
Nuclear contribution   :     -7.23388      -0.60578      -4.53786
                        -----------------------------------------
Total Dipole Moment    :     -0.35712       0.89262      -0.46147
                        -----------------------------------------
Magnitude (a.u.)       :      1.06642
Magnitude (Debye)      :      2.71062

Rotational constants in cm-1:     0.091550     0.023392     0.021091
Rotational constants in MHz :  2744.589943   701.276225   632.302778

                             ****ORCA TERMINATED NORMALLY****
TOTAL RUN TIME: 0 days 0 hours 0 minutes 57 seconds 447 msec
