                         Program Version 5.0.0 -  RELEASE  -
|  1> !wB97X-D3 RIJCOSX def2-SVPD def2/J TightSCF
|  2> *xyz 0 1
|  3> C          3.91385       -1.65829        3.01513
|  4> N          5.03927       -0.90115        2.49282
|  5> C          6.21038       -1.41726        2.17824
|  6> C          6.53591       -2.67712        2.55608
|  7> N          7.07675       -0.70082        1.47891
|  8> H          7.95464       -1.12155        1.20755
|  9> H          6.75616        0.10664        0.96028
| 10> H          4.84217        0.01761        2.11519
| 11> H          5.99388       -3.12692        3.28278
| 12> H          7.49844       -2.97548        2.46878
| 13> C          3.13916       -2.37657        1.91061
| 14> H          3.26723       -0.93940        3.52069
| 15> H          4.24720       -2.35509        3.79006
| 16> C          2.39995       -1.38958        1.00949
| 17> H          2.44075       -3.08712        2.36298
| 18> H          3.84448       -2.97046        1.31868
| 19> C          2.07018       -1.93671       -0.37240
| 20> H          1.48161       -1.06154        1.50991
| 21> H          3.00863       -0.49000        0.89745
| 22> H          1.55578       -1.18868       -0.93874
| 23> H          1.44721       -2.80112       -0.27443
| 24> H          2.97578       -2.20487       -0.87527
| 25> *
| 26> %MaxCore 64000
| 27> %pal nprocs 8
| 28> end
| 29> %scf
| 30>   MaxIter 150
| 31> end
| 32>
| 33>                          ****END OF INPUT****

CARTESIAN COORDINATES (ANGSTROEM)
---------------------------------
  C      3.913850   -1.658290    3.015130
  N      5.039270   -0.901150    2.492820
  C      6.210380   -1.417260    2.178240
  C      6.535910   -2.677120    2.556080
  N      7.076750   -0.700820    1.478910
  H      7.954640   -1.121550    1.207550
  H      6.756160    0.106640    0.960280
  H      4.842170    0.017610    2.115190
  H      5.993880   -3.126920    3.282780
  H      7.498440   -2.975480    2.468780
  C      3.139160   -2.376570    1.910610
  H      3.267230   -0.939400    3.520690
  H      4.247200   -2.355090    3.790060
  C      2.399950   -1.389580    1.009490
  H      2.440750   -3.087120    2.362980
  H      3.844480   -2.970460    1.318680
  C      2.070180   -1.936710   -0.372400
  H      1.481610   -1.061540    1.509910
  H      3.008630   -0.490000    0.897450
  H      1.555780   -1.188680   -0.938740
  H      1.447210   -2.801120   -0.274430
  H      2.975780   -2.204870   -0.875270

 Total Charge           Charge          ....    0
 Multiplicity           Mult            ....    1
 Number of Electrons    NEL             ....   64
 Basis Dimension        Dim             ....  272

ORBITAL ENERGIES
----------------

  NO   OCC          E(Eh)            E(eV)
   0   2.0000     -14.442385      -392.9973
   1   2.0000     -14.440457      -392.9448
   2   2.0000     -10.340715      -281.3852
   3   2.0000     -10.321303      -280.8569
   4   2.0000     -10.285162      -279.8735
   5   2.0000     -10.279895      -279.7302
   6   2.0000     -10.271383      -279.4985
   7   2.0000     -10.200006      -277.5563
   8   2.0000      -1.085118       -29.5276
   9   2.0000      -0.999588       -27.2002
  10   2.0000      -0.905219       -24.6323
  11   2.0000      -0.839752       -22.8508
  12   2.0000      -0.814108       -22.1530
  13   2.0000      -0.754399       -20.5282
  14   2.0000      -0.699326       -19.0296
  15   2.0000      -0.661670       -18.0050
  16   2.0000      -0.654542       -17.8110
  17   2.0000      -0.624285       -16.9876
  18   2.0000      -0.582536       -15.8516
  19   2.0000      -0.548636       -14.9292
  20   2.0000      -0.540369       -14.7042
  21   2.0000      -0.529927       -14.4200
  22   2.0000      -0.499421       -13.5899
  23   2.0000      -0.494276       -13.4499
  24   2.0000      -0.473872       -12.8947
  25   2.0000      -0.466507       -12.6943
  26   2.0000      -0.457041       -12.4367
  27   2.0000      -0.432678       -11.7738
  28   2.0000      -0.420263       -11.4359
  29   2.0000      -0.419741       -11.4217
  30   2.0000      -0.346254        -9.4221
  31   2.0000      -0.252301        -6.8655
  32   0.0000       0.082429         2.2430
  33   0.0000       0.106263         2.8916
  34   0.0000       0.109891         2.9903
  35   0.0000       0.112169         3.0523
  36   0.0000       0.135251         3.6804

MULLIKEN ATOMIC CHARGES
-----------------------
   0 C :    0.833372
   1 N :   -0.469949
   2 C :    0.723663
   3 C :    0.478712
   4 N :   -0.055553
   5 H :   -0.003671
   6 H :   -0.149404
   7 H :   -0.346800
   8 H :   -0.138321
   9 H :   -0.558342
  10 C :    0.034646
  11 H :   -0.357480
  12 H :    0.061085
  13 C :   -0.396496
  14 H :   -0.120721
  15 H :   -0.024127
  16 C :    0.808859
  17 H :   -0.037333
  18 H :   -0.180344
  19 H :   -0.054896
  20 H :   -0.030778
  21 H :   -0.016124
Sum of atomic charges:   -0.0000000

LOEWDIN ATOMIC CHARGES
----------------------
   0 C :    0.055202
   1 N :   -0.021257
   2 C :   -0.230101
   3 C :    0.152439
   4 N :    0.176539
   5 H :    0.011559
   6 H :   -0.003341
   7 H :    0.019252
   8 H :   -0.118370
   9 H :   -0.104832
  10 C :   -0.025279
  11 H :    0.024938
  12 H :    0.016078
  13 C :   -0.091148
  14 H :    0.025712
  15 H :    0.019109
  16 C :    0.113040
  17 H :    0.023828
  18 H :    0.002240
  19 H :   -0.018242
  20 H :   -0.013547
  21 H :   -0.013819

  Mayer bond orders larger than 0.100000
B(  0-C ,  1-N ) :   0.8577 B(  0-C ,  7-H ) :  -0.1749 B(  0-C , 10-C ) :   1.0761
B(  0-C , 11-H ) :   0.8042 B(  0-C , 12-H ) :   0.8157 B(  0-C , 13-C ) :   0.1028
B(  0-C , 15-H ) :   0.1081 B(  1-N ,  2-C ) :   0.8851 B(  1-N ,  3-C ) :   0.3379
B(  1-N ,  4-N ) :   0.1770 B(  1-N ,  7-H ) :   1.3674 B(  1-N , 11-H ) :   0.2329
B(  2-C ,  3-C ) :   1.7379 B(  2-C ,  4-N ) :   0.8490 B(  2-C ,  7-H ) :  -0.3048
B(  2-C ,  8-H ) :   0.2894 B(  2-C ,  9-H ) :   0.2056 B(  3-C ,  4-N ) :   0.2091
B(  3-C ,  8-H ) :   0.6592 B(  3-C ,  9-H ) :   0.7849 B(  4-N ,  5-H ) :   1.1026
B(  4-N ,  6-H ) :   1.2033 B(  5-H ,  6-H ) :  -0.1526 B(  8-H , 12-H ) :   0.1161
B( 10-C , 13-C ) :   1.1613 B( 10-C , 14-H ) :   0.9863 B( 10-C , 15-H ) :   0.9488
B( 10-C , 17-H ) :   0.1532 B( 11-H , 12-H ) :  -0.1835 B( 13-C , 14-H ) :   0.1315
B( 13-C , 16-C ) :   1.2609 B( 13-C , 17-H ) :   0.9206 B( 13-C , 18-H ) :   0.9621
B( 13-C , 19-H ) :   0.2875 B( 13-C , 20-H ) :   0.1859 B( 13-C , 21-H ) :   0.1855
B( 16-C , 19-H ) :   0.7146 B( 16-C , 20-H ) :   0.7870 B( 16-C , 21-H ) :   0.8229

Dispersion correction           -0.006576177
FINAL SINGLE POINT ENERGY      -346.216325566957

DIPOLE MOMENT
-------------
                                X             Y             Z
Electronic contribution:      5.54421       2.40895       2.62181
Nuclear contribution   :     -5.90648      -1.48054      -3.07066
                        -----------------------------------------
Total Dipole Moment    :     -0.36227       0.92841      -0.44885
                        -----------------------------------------
Magnitude (a.u.)       :      1.09301
Magnitude (Debye)      :      2.77820

Rotational constants in cm-1:     0.114035     0.034248     0.031313
Rotational constants in MHz :  3418.681930  1026.725061   938.749275

                             ****ORCA TERMINATED NORMALLY****
TOTAL RUN TIME: 0 days 0 hours 0 minutes 44 seconds 280 msec
