                         Program Version 5.0.0 -  RELEASE  -
|  1> !wB97X-D3 RIJCOSX def2-SVPD def2/J TightSCF
|  2> *xyz 0 1
|  3> C          3.91385       -1.65829        3.01513
|  4> N          5.03927       -0.90115        2.49282
|  5> C          6.21038       -1.41726        2.17824
|  6> N          6.53591       -2.67712        2.55608
|  7> C          7.07675       -0.70082        1.47891
|  8> H          7.95464       -1.12155        1.20755
|  9> H          6.75616        0.10664        0.96028
| 10> H          4.84217        0.01761        2.11519
| 11> H          5.99388       -3.12692        3.28278
| 12> H          7.49844       -2.97548        2.46878
| 13> C          3.13916       -2.37657        1.91061
| 14> H          3.26723       -0.93940        3.52069
| 15> H          4.24720       -2.35509        3.79006
| 16> C          1.99727        0.43092       -1.39922
| 17> C          3.41275        0.37689       -1.96550
| 18> C          2.39995       -1.38958        1.00949
| 19> H          2.44075       -3.08712        2.36298
| 20> H          3.84448       -2.97046        1.31868
| 21> C          2.07018       -1.93671       -0.37240
| 22> H          1.48161       -1.06154        1.50991
| 23> H          3.00863       -0.49000        0.89745
| 24> C          1.32224       -0.93577       -1.25641
| 25> H          1.47275       -2.85090       -0.28400
| 26> H          3.00354       -2.23404       -0.86254
| 27> H          1.37644        1.05892       -2.04742
| 28> H          2.01534        0.92978       -0.42653
| 29> H          0.31665       -0.78721       -0.84828
| 30> H          1.18561       -1.37925       -2.24861
| 31> H          3.39759       -0.11102       -2.91766
| 32> H          4.04439       -0.16810       -1.29548
| 33> H          3.78910        1.37189       -2.08055
| 34> *
| 35> %MaxCore 64000
| 36> %pal nprocs 8
| 37> end
| 38> %scf
| 39>   MaxIter 150
| 40> end
| 41>
| 42>                          ****END OF INPUT****

CARTESIAN COORDINATES (ANGSTROEM)
---------------------------------
  C      3.913850   -1.658290    3.015130
  N      5.039270   -0.901150    2.492820
  C      6.210380   -1.417260    2.178240
  N      6.535910   -2.677120    2.556080
  C      7.076750   -0.700820    1.478910
  H      7.954640   -1.121550    1.207550
  H      6.756160    0.106640    0.960280
  H      4.842170    0.017610    2.115190
  H      5.993880   -3.126920    3.282780
  H      7.498440   -2.975480    2.468780
  C      3.139160   -2.376570    1.910610
  H      3.267230   -0.939400    3.520690
  H      4.247200   -2.355090    3.790060
  C      1.997270    0.430920   -1.399220
  C      3.412750    0.376890   -1.965500
  C      2.399950   -1.389580    1.009490
  H      2.440750   -3.087120    2.362980
  H      3.844480   -2.970460    1.318680
  C      2.070180   -1.936710   -0.372400
  H      1.481610   -1.061540    1.509910
  H      3.008630   -0.490000    0.897450
  C      1.322240   -0.935770   -1.256410
  H      1.472750   -2.850900   -0.284000
  H      3.003540   -2.234040   -0.862540
  H      1.376440    1.058920   -2.047420
  H      2.015340    0.929780   -0.426530
  H      0.316650   -0.787210   -0.848280
  H      1.185610   -1.379250   -2.248610
  H      3.397590   -0.111020   -2.917660
  H      4.044390   -0.168100   -1.295480
  H      3.789100    1.371890   -2.080550

 Total Charge           Charge          ....    0
 Multiplicity           Mult            ....    1
 Number of Electrons    NEL             ....   88
 Basis Dimension        Dim             ....  380

ORBITAL ENERGIES
----------------

  NO   OCC          E(Eh)            E(eV)
   0   2.0000     -14.438190      -392.8831
   1   2.0000     -14.437881      -392.8747
   2   2.0000     -10.337661      -281.3021
   3   2.0000     -10.329203      -281.0719
   4   2.0000     -10.286864      -279.9198
   5   2.0000     -10.285979      -279.8957
   6   2.0000     -10.282677      -279.8059
   7   2.0000     -10.281622      -279.7771
   8   2.0000     -10.281378      -279.7705
   9   2.0000     -10.268120      -279.4098
  10   2.0000     -10.198584      -277.5176
  11   2.0000      -1.079964       -29.3873
  12   2.0000      -0.991625       -26.9835
  13   2.0000      -0.927241       -25.2315
  14   2.0000      -0.894076       -24.3290
  15   2.0000      -0.852868       -23.2077
  16   2.0000      -0.815618       -22.1941
  17   2.0000      -0.777401       -21.1542
  18   2.0000      -0.733999       -19.9731
  19   2.0000      -0.716446       -19.4955
  20   2.0000      -0.692638       -18.8476
  21   2.0000      -0.657395       -17.8886
  22   2.0000      -0.638031       -17.3617
  23   2.0000      -0.604575       -16.4513
  24   2.0000      -0.582314       -15.8456
  25   2.0000      -0.576213       -15.6796
  26   2.0000      -0.564135       -15.3509
  27   2.0000      -0.545655       -14.8480
  28   2.0000      -0.530118       -14.4252
  29   2.0000      -0.518822       -14.1179
  30   2.0000      -0.503075       -13.6894
  31   2.0000      -0.493127       -13.4187
  32   2.0000      -0.487067       -13.2538
  33   2.0000      -0.476877       -12.9765
  34   2.0000      -0.466412       -12.6917
  35   2.0000      -0.459690       -12.5088
  36   2.0000      -0.445982       -12.1358
  37   2.0000      -0.435417       -11.8483
  38   2.0000      -0.428986       -11.6733
  39   2.0000      -0.409392       -11.1401
  40   2.0000      -0.407496       -11.0885
  41   2.0000      -0.403585       -10.9821
  42   2.0000      -0.350089        -9.5264
  43   2.0000      -0.251432        -6.8418
  44   0.0000       0.083805         2.2805
  45   0.0000       0.094873         2.5816
  46   0.0000       0.101272         2.7557
  47   0.0000       0.106579         2.9002
  48   0.0000       0.120082         3.2676

MULLIKEN ATOMIC CHARGES
-----------------------
   0 C :    0.985248
   1 N :   -0.401670
   2 C :    0.696773
   3 N :    0.073615
   4 C :    0.351258
   5 H :   -0.340646
   6 H :   -0.258792
   7 H :   -0.281536
   8 H :   -0.113734
   9 H :   -0.152020
  10 C :    0.231609
  11 H :   -0.349229
  12 H :   -0.124598
  13 C :   -0.410798
  14 C :    0.805069
  15 C :   -0.095511
  16 H :   -0.116825
  17 H :   -0.003166
  18 C :   -0.037565
  19 H :   -0.001153
  20 H :   -0.254966
  21 C :    0.268252
  22 H :   -0.170249
  23 H :    0.053779
  24 H :   -0.273081
  25 H :    0.112425
  26 H :    0.031675
  27 H :   -0.016323
  28 H :    0.021543
  29 H :   -0.175223
  30 H :   -0.054162
Sum of atomic charges:   -0.0000000

LOEWDIN ATOMIC CHARGES
----------------------
   0 C :    0.050049
   1 N :   -0.017046
   2 C :   -0.231367
   3 N :    0.197019
   4 C :    0.132019
   5 H :   -0.099723
   6 H :   -0.098489
   7 H :    0.032804
   8 H :   -0.027866
   9 H :    0.006488
  10 C :   -0.023320
  11 H :    0.025950
  12 H :    0.008793
  13 C :   -0.083256
  14 C :    0.123976
  15 C :   -0.044825
  16 H :    0.024364
  17 H :    0.021698
  18 C :   -0.043200
  19 H :    0.034543
  20 H :   -0.006363
  21 C :   -0.042174
  22 H :    0.026362
  23 H :    0.021323
  24 H :    0.018487
  25 H :    0.008782
  26 H :    0.021114
  27 H :    0.021870
  28 H :   -0.012172
  29 H :   -0.029578
  30 H :   -0.016261

  Mayer bond orders larger than 0.100000
B(  0-C ,  1-N ) :   0.8876 B(  0-C ,  7-H ) :  -0.1863 B(  0-C , 10-C ) :   1.0585
B(  0-C , 11-H ) :   0.7005 B(  0-C , 12-H ) :   0.8249 B(  0-C , 15-C ) :   0.1229
B(  1-N ,  2-C ) :   1.0441 B(  1-N ,  3-N ) :   0.1345 B(  1-N ,  4-C ) :   0.2615
B(  1-N ,  7-H ) :   1.2230 B(  1-N , 11-H ) :   0.2917 B(  1-N , 12-H ) :   0.1105
B(  2-C ,  3-N ) :   0.9111 B(  2-C ,  4-C ) :   1.6153 B(  2-C ,  5-H ) :   0.1998
B(  2-C ,  6-H ) :   0.1002 B(  2-C ,  7-H ) :  -0.2223 B(  2-C , 12-H ) :  -0.1079
B(  3-N ,  4-C ) :   0.2025 B(  3-N ,  8-H ) :   1.0210 B(  3-N ,  9-H ) :   1.2055
B(  3-N , 12-H ) :   0.1107 B(  4-C ,  5-H ) :   0.7566 B(  4-C ,  6-H ) :   0.8311
B(  5-H ,  6-H ) :   0.1120 B(  8-H ,  9-H ) :  -0.1841 B( 10-C , 12-H ) :   0.1365
B( 10-C , 15-C ) :   1.1144 B( 10-C , 16-H ) :   0.9579 B( 10-C , 17-H ) :   0.8834
B( 10-C , 19-H ) :   0.1148 B( 11-H , 12-H ) :  -0.1894 B( 13-C , 14-C ) :   1.2394
B( 13-C , 21-C ) :   1.1583 B( 13-C , 24-H ) :   1.0397 B( 13-C , 25-H ) :   0.8704
B( 13-C , 26-H ) :   0.1041 B( 13-C , 27-H ) :   0.1401 B( 13-C , 28-H ) :   0.2151
B( 13-C , 29-H ) :   0.2119 B( 13-C , 30-H ) :   0.2164 B( 14-C , 28-H ) :   0.7496
B( 14-C , 29-H ) :   0.8363 B( 14-C , 30-H ) :   0.7485 B( 15-C , 16-H ) :   0.1639
B( 15-C , 18-C ) :   1.2219 B( 15-C , 19-H ) :   0.8661 B( 15-C , 20-H ) :   0.9830
B( 15-C , 22-H ) :   0.1585 B( 15-C , 23-H ) :   0.1395 B( 18-C , 21-C ) :   1.1643
B( 18-C , 22-H ) :   0.9395 B( 18-C , 23-H ) :   0.9051 B( 18-C , 26-H ) :   0.1016
B( 18-C , 27-H ) :   0.2288 B( 21-C , 24-H ) :   0.1353 B( 21-C , 25-H ) :   0.1069
B( 21-C , 26-H ) :   0.8503 B( 21-C , 27-H ) :   0.7394

Dispersion correction           -0.011460005
FINAL SINGLE POINT ENERGY      -464.052405555363

DIPOLE MOMENT
-------------
                                X             Y             Z
Electronic contribution:      5.35306      -2.27249       7.02418
Nuclear contribution   :     -6.15291       1.74768      -6.58795
                        -----------------------------------------
Total Dipole Moment    :     -0.79984      -0.52481       0.43623
                        -----------------------------------------
Magnitude (a.u.)       :      1.05141
Magnitude (Debye)      :      2.67248

Rotational constants in cm-1:     0.052306     0.017095     0.014335
Rotational constants in MHz :  1568.092223   512.489697   429.755880

                             ****ORCA TERMINATED NORMALLY****
TOTAL RUN TIME: 0 days 0 hours 1 minutes 26 seconds 55 msec
