                         Program Version 5.0.0 -  RELEASE  -
|  1> !wB97X-D3 RIJCOSX def2-SVPD def2/J TightSCF
|  2> *xyz 0 1
|  3> C          3.91385       -1.65829        3.01513
|  4> N          5.03927       -0.90115        2.49282
|  5> C          6.21038       -1.41726        2.17824
|  6> N          6.53591       -2.67712        2.55608
|  7> C          7.07675       -0.70082        1.47891
|  8> H          7.95464       -1.12155        1.20755
|  9> H          6.75616        0.10664        0.96028
| 10> H          4.84217        0.01761        2.11519
| 11> H          5.99388       -3.12692        3.28278
| 12> H          7.49844       -2.97548        2.46878
| 13> C          3.13916       -2.37657        1.91061
| 14> H          3.26723       -0.93940        3.52069
| 15> H          4.24720       -2.35509        3.79006
| 16> C          1.99727        0.43092       -1.39922
| 17> C          2.39995       -1.38958        1.00949
| 18> H          2.44075       -3.08712        2.36298
| 19> H          3.84448       -2.97046        1.31868
| 20> C          2.07018       -1.93671       -0.37240
| 21> H          1.48161       -1.06154        1.50991
| 22> H          3.00863       -0.49000        0.89745
| 23> C          1.32224       -0.93577       -1.25641
| 24> H          1.47275       -2.85090       -0.28400
| 25> H          3.00354       -2.23404       -0.86254
| 26> H          0.31665       -0.78721       -0.84828
| 27> H          1.18561       -1.37925       -2.24861
| 28> H          1.40357        1.05764       -2.03139
| 29> H          2.96811        0.30580       -1.83133
| 30> H          2.09191        0.88450       -0.43475
| 31> *
| 32> %MaxCore 64000
| 33> %pal nprocs 8
| 34> end
| 35> %scf
| 36>   MaxIter 150
| 37> end
| 38>
| 39>                          ****END OF INPUT****

CARTESIAN COORDINATES (ANGSTROEM)
---------------------------------
  C      3.913850   -1.658290    3.015130
  N      5.039270   -0.901150    2.492820
  C      6.210380   -1.417260    2.178240
  N      6.535910   -2.677120    2.556080
  C      7.076750   -0.700820    1.478910
  H      7.954640   -1.121550    1.207550
  H      6.756160    0.106640    0.960280
  H      4.842170    0.017610    2.115190
  H      5.993880   -3.126920    3.282780
  H      7.498440   -2.975480    2.468780
  C      3.139160   -2.376570    1.910610
  H      3.267230   -0.939400    3.520690
  H      4.247200   -2.355090    3.790060
  C      1.997270    0.430920   -1.399220
  C      2.399950   -1.389580    1.009490
  H      2.440750   -3.087120    2.362980
  H      3.844480   -2.970460    1.318680
  C      2.070180   -1.936710   -0.372400
  H      1.481610   -1.061540    1.509910
  H      3.008630   -0.490000    0.897450
  C      1.322240   -0.935770   -1.256410
  H      1.472750   -2.850900   -0.284000
  H      3.003540   -2.234040   -0.862540
  H      0.316650   -0.787210   -0.848280
  H      1.185610   -1.379250   -2.248610
  H      1.403570    1.057640   -2.031390
  H      2.968110    0.305800   -1.831330
  H      2.091910    0.884500   -0.434750

 Total Charge           Charge          ....    0
 Multiplicity           Mult            ....    1
 Number of Electrons    NEL             ....   80
 Basis Dimension        Dim             ....  344

ORBITAL ENERGIES
----------------

  NO   OCC          E(Eh)            E(eV)
   0   2.0000     -14.437802      -392.8726
   1   2.0000     -14.437554      -392.8658
   2   2.0000     -10.337198      -281.2895
   3   2.0000     -10.329003      -281.0665
   4   2.0000     -10.286767      -279.9172
   5   2.0000     -10.285878      -279.8930
   6   2.0000     -10.283581      -279.8305
   7   2.0000     -10.283065      -279.8164
   8   2.0000     -10.270940      -279.4865
   9   2.0000     -10.198061      -277.5033
  10   2.0000      -1.079595       -29.3773
  11   2.0000      -0.991296       -26.9745
  12   2.0000      -0.923465       -25.1288
  13   2.0000      -0.885415       -24.0934
  14   2.0000      -0.838896       -22.8275
  15   2.0000      -0.798126       -21.7181
  16   2.0000      -0.755287       -20.5524
  17   2.0000      -0.718113       -19.5408
  18   2.0000      -0.695801       -18.9337
  19   2.0000      -0.670959       -18.2577
  20   2.0000      -0.637922       -17.3587
  21   2.0000      -0.603869       -16.4321
  22   2.0000      -0.577461       -15.7135
  23   2.0000      -0.575325       -15.6554
  24   2.0000      -0.556665       -15.1476
  25   2.0000      -0.537954       -14.6385
  26   2.0000      -0.532215       -14.4823
  27   2.0000      -0.510725       -13.8975
  28   2.0000      -0.494946       -13.4682
  29   2.0000      -0.488453       -13.2915
  30   2.0000      -0.475864       -12.9489
  31   2.0000      -0.465897       -12.6777
  32   2.0000      -0.459496       -12.5035
  33   2.0000      -0.447760       -12.1842
  34   2.0000      -0.433234       -11.7889
  35   2.0000      -0.416533       -11.3344
  36   2.0000      -0.412668       -11.2293
  37   2.0000      -0.408700       -11.1213
  38   2.0000      -0.349755        -9.5173
  39   2.0000      -0.251056        -6.8316
  40   0.0000       0.084773         2.3068
  41   0.0000       0.095526         2.5994
  42   0.0000       0.102412         2.7868
  43   0.0000       0.110687         3.0119
  44   0.0000       0.122682         3.3384

MULLIKEN ATOMIC CHARGES
-----------------------
   0 C :    0.981319
   1 N :   -0.384541
   2 C :    0.706353
   3 N :    0.066285
   4 C :    0.345519
   5 H :   -0.354998
   6 H :   -0.254843
   7 H :   -0.297429
   8 H :   -0.119132
   9 H :   -0.150544
  10 C :    0.166190
  11 H :   -0.337546
  12 H :   -0.121802
  13 C :    0.653775
  14 C :   -0.080391
  15 H :   -0.117552
  16 H :    0.020633
  17 C :    0.042122
  18 H :   -0.033732
  19 H :   -0.282961
  20 C :   -0.203977
  21 H :   -0.089325
  22 H :    0.005857
  23 H :    0.027624
  24 H :   -0.084132
  25 H :   -0.137369
  26 H :    0.037578
  27 H :   -0.002982
Sum of atomic charges:   -0.0000000

LOEWDIN ATOMIC CHARGES
----------------------
   0 C :    0.049528
   1 N :   -0.017620
   2 C :   -0.230831
   3 N :    0.196675
   4 C :    0.131471
   5 H :   -0.099925
   6 H :   -0.097707
   7 H :    0.032904
   8 H :   -0.028031
   9 H :    0.006363
  10 C :   -0.025029
  11 H :    0.025748
  12 H :    0.008716
  13 C :    0.117340
  14 C :   -0.049627
  15 H :    0.024289
  16 H :    0.021402
  17 C :   -0.048567
  18 H :    0.034266
  19 H :   -0.003358
  20 C :   -0.080542
  21 H :    0.025948
  22 H :    0.028222
  23 H :    0.020110
  24 H :    0.018681
  25 H :   -0.018026
  26 H :   -0.011071
  27 H :   -0.031329

  Mayer bond orders larger than 0.100000
B(  0-C ,  1-N ) :   0.8873 B(  0-C ,  7-H ) :  -0.1902 B(  0-C , 10-C ) :   1.0613
B(  0-C , 11-H ) :   0.7088 B(  0-C , 12-H ) :   0.8231 B(  0-C , 14-C ) :   0.1224
B(  1-N ,  2-C ) :   1.0500 B(  1-N ,  3-N ) :   0.1341 B(  1-N ,  4-C ) :   0.2577
B(  1-N ,  7-H ) :   1.2246 B(  1-N , 11-H ) :   0.2881 B(  1-N , 12-H ) :   0.1107
B(  2-C ,  3-N ) :   0.9028 B(  2-C ,  4-C ) :   1.5868 B(  2-C ,  5-H ) :   0.2000
B(  2-C ,  7-H ) :  -0.2224 B(  2-C , 12-H ) :  -0.1013 B(  3-N ,  4-C ) :   0.1962
B(  3-N ,  8-H ) :   1.0273 B(  3-N ,  9-H ) :   1.2032 B(  3-N , 12-H ) :   0.1057
B(  4-C ,  5-H ) :   0.7585 B(  4-C ,  6-H ) :   0.8735 B(  5-H ,  6-H ) :   0.1040
B(  8-H ,  9-H ) :  -0.1827 B( 10-C , 12-H ) :   0.1370 B( 10-C , 14-C ) :   1.1569
B( 10-C , 15-H ) :   0.9660 B( 10-C , 16-H ) :   0.8800 B( 10-C , 18-H ) :   0.1175
B( 11-H , 12-H ) :  -0.1757 B( 13-C , 20-C ) :   1.2619 B( 13-C , 25-H ) :   0.8235
B( 13-C , 26-H ) :   0.7840 B( 13-C , 27-H ) :   0.8437 B( 14-C , 15-H ) :   0.1619
B( 14-C , 17-C ) :   1.1966 B( 14-C , 18-H ) :   0.8688 B( 14-C , 19-H ) :   0.9431
B( 14-C , 21-H ) :   0.1519 B( 14-C , 22-H ) :   0.1388 B( 17-C , 20-C ) :   1.1524
B( 17-C , 21-H ) :   0.9120 B( 17-C , 22-H ) :   0.9250 B( 17-C , 24-H ) :   0.2140
B( 18-H , 19-H ) :   0.1572 B( 20-C , 23-H ) :   0.8968 B( 20-C , 24-H ) :   0.8454
B( 20-C , 25-H ) :   0.2012 B( 20-C , 26-H ) :   0.1972 B( 20-C , 27-H ) :   0.1682

Dispersion correction           -0.009391510
FINAL SINGLE POINT ENERGY      -424.772790804833

DIPOLE MOMENT
-------------
                                X             Y             Z
Electronic contribution:      6.32662      -1.88919       5.97867
Nuclear contribution   :     -7.13675       1.35080      -5.55052
                        -----------------------------------------
Total Dipole Moment    :     -0.81013      -0.53839       0.42815
                        -----------------------------------------
Magnitude (a.u.)       :      1.06277
Magnitude (Debye)      :      2.70135

Rotational constants in cm-1:     0.070257     0.018862     0.016761
Rotational constants in MHz :  2106.264563   565.472744   502.476516

                             ****ORCA TERMINATED NORMALLY****
TOTAL RUN TIME: 0 days 0 hours 1 minutes 14 seconds 879 msec
