                         Program Version 5.0.0 -  RELEASE  -
|  1> !wB97X-D3 RIJCOSX def2-SVPD def2/J TightSCF
|  2> *xyz 0 1
|  3> C          3.91385       -1.65829        3.01513
|  4> N          5.03927       -0.90115        2.49282
|  5> C          6.21038       -1.41726        2.17824
|  6> N          6.53591       -2.67712        2.55608
|  7> C          7.07675       -0.70082        1.47891
|  8> H          7.95464       -1.12155        1.20755
|  9> H          6.75616        0.10664        0.96028
| 10> H          4.84217        0.01761        2.11519
| 11> H          5.99388       -3.12692        3.28278
| 12> H          7.49844       -2.97548        2.46878
| 13> H          3.08844       -0.99893        3.18495
| 14> H          4.19412       -2.12366        3.93697
| 15> H          3.63051       -2.40965        2.30798
| 16> *
| 17> %MaxCore 64000
| 18> %pal nprocs 8
| 19> end
| 20> %scf
| 21>   MaxIter 150
| 22> end
| 23>
| 24>
| 25>                          ****END OF INPUT****

CARTESIAN COORDINATES (ANGSTROEM)
---------------------------------
  C      3.913850   -1.658290    3.015130
  N      5.039270   -0.901150    2.492820
  C      6.210380   -1.417260    2.178240
  N      6.535910   -2.677120    2.556080
  C      7.076750   -0.700820    1.478910
  H      7.954640   -1.121550    1.207550
  H      6.756160    0.106640    0.960280
  H      4.842170    0.017610    2.115190
  H      5.993880   -3.126920    3.282780
  H      7.498440   -2.975480    2.468780
  H      3.088440   -0.998930    3.184950
  H      4.194120   -2.123660    3.936970
  H      3.630510   -2.409650    2.307980

 Total Charge           Charge          ....    0
 Multiplicity           Mult            ....    1
 Number of Electrons    NEL             ....   40
 Basis Dimension        Dim             ....  164

ORBITAL ENERGIES
----------------

  NO   OCC          E(Eh)            E(eV)
   0   2.0000     -14.439528      -392.9195
   1   2.0000     -14.438385      -392.8884
   2   2.0000     -10.337285      -281.2918
   3   2.0000     -10.322749      -280.8963
   4   2.0000     -10.197783      -277.4958
   5   2.0000      -1.078897       -29.3583
   6   2.0000      -0.989414       -26.9233
   7   2.0000      -0.855194       -23.2710
   8   2.0000      -0.775424       -21.1004
   9   2.0000      -0.706755       -19.2318
  10   2.0000      -0.637630       -17.3508
  11   2.0000      -0.594978       -16.1902
  12   2.0000      -0.575493       -15.6599
  13   2.0000      -0.560500       -15.2520
  14   2.0000      -0.504900       -13.7390
  15   2.0000      -0.489699       -13.3254
  16   2.0000      -0.479244       -13.0409
  17   2.0000      -0.458811       -12.4849
  18   2.0000      -0.352848        -9.6015
  19   2.0000      -0.250541        -6.8176
  20   0.0000       0.084039         2.2868
  21   0.0000       0.118425         3.2225
  22   0.0000       0.124945         3.3999
  23   0.0000       0.147450         4.0123
  24   0.0000       0.154420         4.2020

MULLIKEN ATOMIC CHARGES
-----------------------
   0 C :    0.998295
   1 N :   -0.516691
   2 C :    0.763003
   3 N :   -0.037756
   4 C :    0.297471
   5 H :   -0.338121
   6 H :   -0.311201
   7 H :   -0.237644
   8 H :   -0.146668
   9 H :   -0.069416
  10 H :   -0.281433
  11 H :   -0.087693
  12 H :   -0.032145
Sum of atomic charges:    0.0000000

LOEWDIN ATOMIC CHARGES
----------------------
   0 C :    0.199186
   1 N :   -0.054970
   2 C :   -0.233897
   3 N :    0.192605
   4 C :    0.126598
   5 H :   -0.100640
   6 H :   -0.098887
   7 H :    0.034476
   8 H :   -0.024452
   9 H :    0.005982
  10 H :   -0.009826
  11 H :   -0.022563
  12 H :   -0.013613

  Mayer bond orders larger than 0.100000
B(  0-C ,  1-N ) :   0.9149 B(  0-C ,  7-H ) :  -0.1111 B(  0-C , 10-H ) :   0.8584
B(  0-C , 11-H ) :   0.8365 B(  0-C , 12-H ) :   0.8454 B(  1-N ,  2-C ) :   1.0510
B(  1-N ,  3-N ) :   0.1469 B(  1-N ,  4-C ) :   0.2242 B(  1-N ,  7-H ) :   1.2415
B(  1-N , 10-H ) :   0.1616 B(  1-N , 11-H ) :   0.1663 B(  1-N , 12-H ) :   0.1298
B(  2-C ,  3-N ) :   0.8874 B(  2-C ,  4-C ) :   1.5721 B(  2-C ,  5-H ) :   0.1553
B(  2-C ,  7-H ) :  -0.1595 B(  3-N ,  4-C ) :   0.1982 B(  3-N ,  8-H ) :   1.0964
B(  3-N ,  9-H ) :   1.1527 B(  4-C ,  5-H ) :   0.8136 B(  4-C ,  6-H ) :   0.8822
B(  8-H ,  9-H ) :  -0.1562

Dispersion correction           -0.002384317
FINAL SINGLE POINT ENERGY      -228.378554526764

DIPOLE MOMENT
-------------
                                X             Y             Z
Electronic contribution:      0.94379       0.10129       0.01941
Nuclear contribution   :     -1.74889      -0.59133       0.51900
                        -----------------------------------------
Total Dipole Moment    :     -0.80510      -0.49005       0.53841
                        -----------------------------------------
Magnitude (a.u.)       :      1.08546
Magnitude (Debye)      :      2.75901

Rotational constants in cm-1:     0.319878     0.140238     0.099847
Rotational constants in MHz :  9589.703832  4204.215525  2993.343846

                             ****ORCA TERMINATED NORMALLY****
TOTAL RUN TIME: 0 days 0 hours 0 minutes 13 seconds 670 msec
