                         Program Version 5.0.0 -  RELEASE  -
|  1> !wB97X-D3 RIJCOSX def2-SVPD def2/J TightSCF
|  2> *xyz 0 1
|  3> C          3.91385       -1.65829        3.01513
|  4> N          5.03927       -0.90115        2.49282
|  5> C          4.08422        1.74208       -2.11472
|  6> C          6.21038       -1.41726        2.17824
|  7> N          6.53591       -2.67712        2.55608
|  8> C          7.07675       -0.70082        1.47891
|  9> H          7.95464       -1.12155        1.20755
| 10> H          6.75616        0.10664        0.96028
| 11> H          4.84217        0.01761        2.11519
| 12> H          5.99388       -3.12692        3.28278
| 13> H          7.49844       -2.97548        2.46878
| 14> C          3.13916       -2.37657        1.91061
| 15> H          3.26723       -0.93940        3.52069
| 16> H          4.24720       -2.35509        3.79006
| 17> C          1.99727        0.43092       -1.39922
| 18> C          3.41275        0.37689       -1.96550
| 19> H          4.04741       -0.24659       -1.32671
| 20> H          3.39077       -0.11872       -2.94284
| 21> C          2.39995       -1.38958        1.00949
| 22> H          2.44075       -3.08712        2.36298
| 23> H          3.84448       -2.97046        1.31868
| 24> C          2.07018       -1.93671       -0.37240
| 25> H          1.48161       -1.06154        1.50991
| 26> H          3.00863       -0.49000        0.89745
| 27> C          1.32224       -0.93577       -1.25641
| 28> H          1.47275       -2.85090       -0.28400
| 29> H          3.00354       -2.23404       -0.86254
| 30> H          1.37644        1.05892       -2.04742
| 31> H          2.01534        0.92978       -0.42653
| 32> H          0.31665       -0.78721       -0.84828
| 33> H          1.18561       -1.37925       -2.24861
| 34> H          3.48097        2.37022       -2.73636
| 35> H          5.04852        1.61832       -2.56161
| 36> H          4.19316        2.19326       -1.15063
| 37> *
| 38> %MaxCore 64000
| 39> %pal nprocs 8
| 40> end
| 41> %scf
| 42>   MaxIter 150
| 43> end
| 44>
| 45>                          ****END OF INPUT****

CARTESIAN COORDINATES (ANGSTROEM)
---------------------------------
  C      3.913850   -1.658290    3.015130
  N      5.039270   -0.901150    2.492820
  C      4.084220    1.742080   -2.114720
  C      6.210380   -1.417260    2.178240
  N      6.535910   -2.677120    2.556080
  C      7.076750   -0.700820    1.478910
  H      7.954640   -1.121550    1.207550
  H      6.756160    0.106640    0.960280
  H      4.842170    0.017610    2.115190
  H      5.993880   -3.126920    3.282780
  H      7.498440   -2.975480    2.468780
  C      3.139160   -2.376570    1.910610
  H      3.267230   -0.939400    3.520690
  H      4.247200   -2.355090    3.790060
  C      1.997270    0.430920   -1.399220
  C      3.412750    0.376890   -1.965500
  H      4.047410   -0.246590   -1.326710
  H      3.390770   -0.118720   -2.942840
  C      2.399950   -1.389580    1.009490
  H      2.440750   -3.087120    2.362980
  H      3.844480   -2.970460    1.318680
  C      2.070180   -1.936710   -0.372400
  H      1.481610   -1.061540    1.509910
  H      3.008630   -0.490000    0.897450
  C      1.322240   -0.935770   -1.256410
  H      1.472750   -2.850900   -0.284000
  H      3.003540   -2.234040   -0.862540
  H      1.376440    1.058920   -2.047420
  H      2.015340    0.929780   -0.426530
  H      0.316650   -0.787210   -0.848280
  H      1.185610   -1.379250   -2.248610
  H      3.480970    2.370220   -2.736360
  H      5.048520    1.618320   -2.561610
  H      4.193160    2.193260   -1.150630

 Total Charge           Charge          ....    0
 Multiplicity           Mult            ....    1
 Number of Electrons    NEL             ....   96
 Basis Dimension        Dim             ....  416

ORBITAL ENERGIES
----------------

  NO   OCC          E(Eh)            E(eV)
   0   2.0000     -14.438295      -392.8860
   1   2.0000     -14.438023      -392.8786
   2   2.0000     -10.337846      -281.3071
   3   2.0000     -10.329201      -281.0718
   4   2.0000     -10.286754      -279.9168
   5   2.0000     -10.285754      -279.8896
   6   2.0000     -10.282344      -279.7968
   7   2.0000     -10.281936      -279.7857
   8   2.0000     -10.280319      -279.7417
   9   2.0000     -10.279575      -279.7215
  10   2.0000     -10.268066      -279.4083
  11   2.0000     -10.198818      -277.5239
  12   2.0000      -1.080075       -29.3903
  13   2.0000      -0.991730       -26.9863
  14   2.0000      -0.928930       -25.2775
  15   2.0000      -0.900117       -24.4934
  16   2.0000      -0.866808       -23.5870
  17   2.0000      -0.830584       -22.6013
  18   2.0000      -0.794240       -21.6124
  19   2.0000      -0.756360       -20.5816
  20   2.0000      -0.719835       -19.5877
  21   2.0000      -0.708160       -19.2700
  22   2.0000      -0.690972       -18.8023
  23   2.0000      -0.656879       -17.8746
  24   2.0000      -0.638137       -17.3646
  25   2.0000      -0.604495       -16.4491
  26   2.0000      -0.583245       -15.8709
  27   2.0000      -0.575810       -15.6686
  28   2.0000      -0.566941       -15.4273
  29   2.0000      -0.543117       -14.7790
  30   2.0000      -0.536254       -14.5922
  31   2.0000      -0.525088       -14.2884
  32   2.0000      -0.518186       -14.1006
  33   2.0000      -0.501347       -13.6423
  34   2.0000      -0.491321       -13.3695
  35   2.0000      -0.489056       -13.3079
  36   2.0000      -0.468319       -12.7436
  37   2.0000      -0.461850       -12.5676
  38   2.0000      -0.458742       -12.4830
  39   2.0000      -0.451434       -12.2841
  40   2.0000      -0.438365       -11.9285
  41   2.0000      -0.425617       -11.5816
  42   2.0000      -0.422590       -11.4993
  43   2.0000      -0.406718       -11.0674
  44   2.0000      -0.404542       -11.0082
  45   2.0000      -0.400323       -10.8934
  46   2.0000      -0.350171        -9.5286
  47   2.0000      -0.251603        -6.8465
  48   0.0000       0.081781         2.2254
  49   0.0000       0.093161         2.5350
  50   0.0000       0.101116         2.7515
  51   0.0000       0.104483         2.8431
  52   0.0000       0.118729         3.2308

MULLIKEN ATOMIC CHARGES
-----------------------
   0 C :    0.997034
   1 N :   -0.388486
   2 C :    0.934548
   3 C :    0.707845
   4 N :    0.075228
   5 C :    0.382472
   6 H :   -0.352090
   7 H :   -0.287877
   8 H :   -0.305141
   9 H :   -0.113096
  10 H :   -0.151192
  11 C :    0.250318
  12 H :   -0.345038
  13 H :   -0.128718
  14 C :   -0.149575
  15 C :   -0.495118
  16 H :   -0.122697
  17 H :   -0.043881
  18 C :   -0.088336
  19 H :   -0.125502
  20 H :    0.004693
  21 C :   -0.014534
  22 H :   -0.000995
  23 H :   -0.261573
  24 C :    0.476928
  25 H :   -0.241643
  26 H :    0.076592
  27 H :   -0.339286
  28 H :    0.131301
  29 H :    0.035587
  30 H :   -0.022201
  31 H :    0.025166
  32 H :   -0.059815
  33 H :   -0.060920
Sum of atomic charges:    0.0000000

LOEWDIN ATOMIC CHARGES
----------------------
   0 C :    0.050259
   1 N :   -0.016885
   2 C :    0.116654
   3 C :   -0.231086
   4 N :    0.197136
   5 C :    0.132360
   6 H :   -0.099762
   7 H :   -0.099352
   8 H :    0.032453
   9 H :   -0.027804
  10 H :    0.006523
  11 C :   -0.023098
  12 H :    0.025980
  13 H :    0.008770
  14 C :   -0.049663
  15 C :   -0.085055
  16 H :    0.010221
  17 H :    0.026637
  18 C :   -0.044454
  19 H :    0.024337
  20 H :    0.021805
  21 C :   -0.042445
  22 H :    0.034477
  23 H :   -0.005933
  24 C :   -0.037494
  25 H :    0.026030
  26 H :    0.019787
  27 H :    0.023047
  28 H :    0.012923
  29 H :    0.021870
  30 H :    0.022384
  31 H :   -0.017055
  32 H :   -0.016009
  33 H :   -0.017554

  Mayer bond orders larger than 0.100000
B(  0-C ,  1-N ) :   0.8831 B(  0-C ,  8-H ) :  -0.1952 B(  0-C , 11-C ) :   1.0556
B(  0-C , 12-H ) :   0.6983 B(  0-C , 13-H ) :   0.8218 B(  0-C , 18-C ) :   0.1249
B(  1-N ,  3-C ) :   1.0442 B(  1-N ,  4-N ) :   0.1374 B(  1-N ,  5-C ) :   0.2557
B(  1-N ,  8-H ) :   1.2249 B(  1-N , 12-H ) :   0.2895 B(  1-N , 13-H ) :   0.1100
B(  2-C , 15-C ) :   1.2298 B(  2-C , 31-H ) :   0.7746 B(  2-C , 32-H ) :   0.6504
B(  2-C , 33-H ) :   0.7965 B(  3-C ,  4-N ) :   0.9110 B(  3-C ,  5-C ) :   1.6114
B(  3-C ,  6-H ) :   0.1946 B(  3-C ,  7-H ) :   0.1008 B(  3-C ,  8-H ) :  -0.2328
B(  3-C , 13-H ) :  -0.1081 B(  4-N ,  5-C ) :   0.2038 B(  4-N ,  9-H ) :   1.0196
B(  4-N , 10-H ) :   1.2056 B(  4-N , 13-H ) :   0.1120 B(  5-C ,  6-H ) :   0.7621
B(  5-C ,  7-H ) :   0.8051 B(  9-H , 10-H ) :  -0.1843 B( 11-C , 13-H ) :   0.1412
B( 11-C , 18-C ) :   1.1100 B( 11-C , 19-H ) :   0.9540 B( 11-C , 20-H ) :   0.8849
B( 11-C , 22-H ) :   0.1145 B( 12-H , 13-H ) :  -0.1895 B( 14-C , 15-C ) :   1.2368
B( 14-C , 16-H ) :   0.1403 B( 14-C , 17-H ) :   0.1799 B( 14-C , 24-C ) :   1.1504
B( 14-C , 27-H ) :   1.0398 B( 14-C , 28-H ) :   0.8566 B( 14-C , 29-H ) :   0.1930
B( 14-C , 30-H ) :   0.1409 B( 15-C , 16-H ) :   0.9519 B( 15-C , 17-H ) :   0.9215
B( 15-C , 27-H ) :   0.1144 B( 15-C , 31-H ) :   0.2103 B( 15-C , 32-H ) :   0.3295
B( 15-C , 33-H ) :   0.2186 B( 18-C , 19-H ) :   0.1646 B( 18-C , 21-C ) :   1.2324
B( 18-C , 22-H ) :   0.8630 B( 18-C , 23-H ) :   0.9717 B( 18-C , 25-H ) :   0.1549
B( 18-C , 26-H ) :   0.1362 B( 21-C , 24-C ) :   1.1329 B( 21-C , 25-H ) :   0.9798
B( 21-C , 26-H ) :   0.8848 B( 21-C , 30-H ) :   0.2246 B( 23-H , 28-H ) :   0.1157
B( 24-C , 29-H ) :   0.7607 B( 24-C , 30-H ) :   0.7145

Dispersion correction           -0.012968134
FINAL SINGLE POINT ENERGY      -503.331757872240

DIPOLE MOMENT
-------------
                                X             Y             Z
Electronic contribution:      4.72730      -3.83097       7.69470
Nuclear contribution   :     -5.50394       3.27555      -7.27120
                        -----------------------------------------
Total Dipole Moment    :     -0.77664      -0.55542       0.42350
                        -----------------------------------------
Magnitude (a.u.)       :      1.04452
Magnitude (Debye)      :      2.65495

Rotational constants in cm-1:     0.036733     0.015415     0.011966
Rotational constants in MHz :  1101.240975   462.141746   358.739344

                             ****ORCA TERMINATED NORMALLY****
TOTAL RUN TIME: 0 days 0 hours 2 minutes 14 seconds 498 msec
