                         Program Version 5.0.0 -  RELEASE  -
|  1> !wB97X-D3 RIJCOSX def2-SVPD def2/J TightSCF
|  2> *xyz 0 1
|  3> C          3.91385       -1.65829        3.01513
|  4> N          5.03927       -0.90115        2.49282
|  5> C          6.21038       -1.41726        2.17824
|  6> N          6.53591       -2.67712        2.55608
|  7> C          7.07675       -0.70082        1.47891
|  8> H          7.95464       -1.12155        1.20755
|  9> H          6.75616        0.10664        0.96028
| 10> H          4.84217        0.01761        2.11519
| 11> H          5.99388       -3.12692        3.28278
| 12> H          7.49844       -2.97548        2.46878
| 13> C          3.13916       -2.37657        1.91061
| 14> H          3.26723       -0.93940        3.52069
| 15> H          4.24720       -2.35509        3.79006
| 16> C          2.39995       -1.38958        1.00949
| 17> H          2.44075       -3.08712        2.36298
| 18> H          3.84448       -2.97046        1.31868
| 19> C          2.07018       -1.93671       -0.37240
| 20> H          1.48161       -1.06154        1.50991
| 21> H          3.00863       -0.49000        0.89745
| 22> H          1.55578       -1.18868       -0.93874
| 23> H          1.44721       -2.80112       -0.27443
| 24> H          2.97578       -2.20487       -0.87527
| 25> *
| 26> %MaxCore 64000
| 27> %pal nprocs 8
| 28> end
| 29> %scf
| 30>   MaxIter 150
| 31> end
| 32>
| 33>                          ****END OF INPUT****

CARTESIAN COORDINATES (ANGSTROEM)
---------------------------------
  C      3.913850   -1.658290    3.015130
  N      5.039270   -0.901150    2.492820
  C      6.210380   -1.417260    2.178240
  N      6.535910   -2.677120    2.556080
  C      7.076750   -0.700820    1.478910
  H      7.954640   -1.121550    1.207550
  H      6.756160    0.106640    0.960280
  H      4.842170    0.017610    2.115190
  H      5.993880   -3.126920    3.282780
  H      7.498440   -2.975480    2.468780
  C      3.139160   -2.376570    1.910610
  H      3.267230   -0.939400    3.520690
  H      4.247200   -2.355090    3.790060
  C      2.399950   -1.389580    1.009490
  H      2.440750   -3.087120    2.362980
  H      3.844480   -2.970460    1.318680
  C      2.070180   -1.936710   -0.372400
  H      1.481610   -1.061540    1.509910
  H      3.008630   -0.490000    0.897450
  H      1.555780   -1.188680   -0.938740
  H      1.447210   -2.801120   -0.274430
  H      2.975780   -2.204870   -0.875270

 Total Charge           Charge          ....    0
 Multiplicity           Mult            ....    1
 Number of Electrons    NEL             ....   64
 Basis Dimension        Dim             ....  272

ORBITAL ENERGIES
----------------

  NO   OCC          E(Eh)            E(eV)
   0   2.0000     -14.437916      -392.8757
   1   2.0000     -14.437675      -392.8691
   2   2.0000     -10.337324      -281.2929
   3   2.0000     -10.329273      -281.0738
   4   2.0000     -10.288057      -279.9523
   5   2.0000     -10.286865      -279.9198
   6   2.0000     -10.272898      -279.5398
   7   2.0000     -10.198186      -277.5068
   8   2.0000      -1.079739       -29.3812
   9   2.0000      -0.991416       -26.9778
  10   2.0000      -0.911924       -24.8147
  11   2.0000      -0.856828       -23.3155
  12   2.0000      -0.803842       -21.8737
  13   2.0000      -0.743273       -20.2255
  14   2.0000      -0.714125       -19.4323
  15   2.0000      -0.685013       -18.6402
  16   2.0000      -0.637766       -17.3545
  17   2.0000      -0.604670       -16.4539
  18   2.0000      -0.576547       -15.6886
  19   2.0000      -0.567115       -15.4320
  20   2.0000      -0.542485       -14.7618
  21   2.0000      -0.531701       -14.4683
  22   2.0000      -0.507186       -13.8012
  23   2.0000      -0.493410       -13.4264
  24   2.0000      -0.477473       -12.9927
  25   2.0000      -0.467693       -12.7266
  26   2.0000      -0.459171       -12.4947
  27   2.0000      -0.436755       -11.8847
  28   2.0000      -0.426030       -11.5929
  29   2.0000      -0.422908       -11.5079
  30   2.0000      -0.350056        -9.5255
  31   2.0000      -0.251197        -6.8354
  32   0.0000       0.086576         2.3559
  33   0.0000       0.099772         2.7149
  34   0.0000       0.106722         2.9040
  35   0.0000       0.114499         3.1157
  36   0.0000       0.136966         3.7270

MULLIKEN ATOMIC CHARGES
-----------------------
   0 C :    0.908670
   1 N :   -0.377606
   2 C :    0.707157
   3 N :    0.065433
   4 C :    0.342508
   5 H :   -0.356000
   6 H :   -0.252337
   7 H :   -0.288779
   8 H :   -0.123681
   9 H :   -0.148976
  10 C :    0.011453
  11 H :   -0.356739
  12 H :   -0.095294
  13 C :   -0.377745
  14 H :   -0.154284
  15 H :   -0.005963
  16 C :    0.803163
  17 H :   -0.014714
  18 H :   -0.191057
  19 H :   -0.048911
  20 H :   -0.030894
  21 H :   -0.015405
Sum of atomic charges:   -0.0000000

LOEWDIN ATOMIC CHARGES
----------------------
   0 C :    0.047030
   1 N :   -0.018112
   2 C :   -0.230927
   3 N :    0.196557
   4 C :    0.131303
   5 H :   -0.099863
   6 H :   -0.097552
   7 H :    0.032070
   8 H :   -0.028068
   9 H :    0.006359
  10 C :   -0.032193
  11 H :    0.025378
  12 H :    0.008858
  13 C :   -0.087731
  14 H :    0.023355
  15 H :    0.020531
  16 C :    0.114505
  17 H :    0.025005
  18 H :    0.007063
  19 H :   -0.016767
  20 H :   -0.014113
  21 H :   -0.012689

  Mayer bond orders larger than 0.100000
B(  0-C ,  1-N ) :   0.8942 B(  0-C ,  7-H ) :  -0.1838 B(  0-C , 10-C ) :   1.0752
B(  0-C , 11-H ) :   0.7190 B(  0-C , 12-H ) :   0.8577 B(  0-C , 13-C ) :   0.1126
B(  0-C , 15-H ) :   0.1024 B(  1-N ,  2-C ) :   1.0479 B(  1-N ,  3-N ) :   0.1296
B(  1-N ,  4-C ) :   0.2518 B(  1-N ,  7-H ) :   1.2224 B(  1-N , 11-H ) :   0.2928
B(  1-N , 12-H ) :   0.1062 B(  2-C ,  3-N ) :   0.9049 B(  2-C ,  4-C ) :   1.5852
B(  2-C ,  5-H ) :   0.1952 B(  2-C ,  6-H ) :   0.1005 B(  2-C ,  7-H ) :  -0.2185
B(  3-N ,  4-C ) :   0.1947 B(  3-N ,  8-H ) :   1.0306 B(  3-N ,  9-H ) :   1.2023
B(  3-N , 12-H ) :   0.1014 B(  4-C ,  5-H ) :   0.7629 B(  4-C ,  6-H ) :   0.8774
B(  5-H ,  6-H ) :   0.1051 B(  8-H ,  9-H ) :  -0.1802 B( 10-C , 12-H ) :   0.1075
B( 10-C , 13-C ) :   1.1528 B( 10-C , 14-H ) :   1.0028 B( 10-C , 15-H ) :   0.9241
B( 10-C , 17-H ) :   0.1570 B( 11-H , 12-H ) :  -0.1627 B( 13-C , 14-H ) :   0.1292
B( 13-C , 16-C ) :   1.2713 B( 13-C , 17-H ) :   0.9125 B( 13-C , 18-H ) :   0.9506
B( 13-C , 19-H ) :   0.2863 B( 13-C , 20-H ) :   0.1915 B( 13-C , 21-H ) :   0.1836
B( 16-C , 19-H ) :   0.7123 B( 16-C , 20-H ) :   0.7845 B( 16-C , 21-H ) :   0.8242

Dispersion correction           -0.006619737
FINAL SINGLE POINT ENERGY      -346.216363462657

DIPOLE MOMENT
-------------
                                X             Y             Z
Electronic contribution:      4.98334       0.51745       3.77784
Nuclear contribution   :     -5.78519      -1.03732      -3.31224
                        -----------------------------------------
Total Dipole Moment    :     -0.80186      -0.51987       0.46560
                        -----------------------------------------
Magnitude (a.u.)       :      1.06303
Magnitude (Debye)      :      2.70200

Rotational constants in cm-1:     0.114714     0.034268     0.031641
Rotational constants in MHz :  3439.036699  1027.334919   948.580404

                             ****ORCA TERMINATED NORMALLY****
TOTAL RUN TIME: 0 days 0 hours 0 minutes 42 seconds 706 msec
