                         Program Version 5.0.0 -  RELEASE  -
|  1> !wB97X-D3 RIJCOSX def2-SVPD def2/J TightSCF
|  2> *xyz 0 1
|  3> C          3.91385       -1.65829        3.01513
|  4> N          5.03927       -0.90115        2.49282
|  5> C          6.21038       -1.41726        2.17824
|  6> N          6.53591       -2.67712        2.55608
|  7> C          7.07675       -0.70082        1.47891
|  8> H          7.95464       -1.12155        1.20755
|  9> H          6.75616        0.10664        0.96028
| 10> H          4.84217        0.01761        2.11519
| 11> H          5.99388       -3.12692        3.28278
| 12> C          3.13916       -2.37657        1.91061
| 13> H          3.26723       -0.93940        3.52069
| 14> H          4.24720       -2.35509        3.79006
| 15> H          7.49844       -2.97548        2.46878
| 16> H          2.82969       -1.66654        1.17238
| 17> H          2.27790       -2.85264        2.33072
| 18> H          3.76754       -3.11338        1.45548
| 19> *
| 20> %MaxCore 64000
| 21> %pal nprocs 8
| 22> end
| 23> %scf
| 24>   MaxIter 150
| 25> end
| 26>
| 27>
| 28>                          ****END OF INPUT****

CARTESIAN COORDINATES (ANGSTROEM)
---------------------------------
  C      3.913850   -1.658290    3.015130
  N      5.039270   -0.901150    2.492820
  C      6.210380   -1.417260    2.178240
  N      6.535910   -2.677120    2.556080
  C      7.076750   -0.700820    1.478910
  H      7.954640   -1.121550    1.207550
  H      6.756160    0.106640    0.960280
  H      4.842170    0.017610    2.115190
  H      5.993880   -3.126920    3.282780
  C      3.139160   -2.376570    1.910610
  H      3.267230   -0.939400    3.520690
  H      4.247200   -2.355090    3.790060
  H      7.498440   -2.975480    2.468780
  H      2.829690   -1.666540    1.172380
  H      2.277900   -2.852640    2.330720
  H      3.767540   -3.113380    1.455480

 Total Charge           Charge          ....    0
 Multiplicity           Mult            ....    1
 Number of Electrons    NEL             ....   48
 Basis Dimension        Dim             ....  200

ORBITAL ENERGIES
----------------

  NO   OCC          E(Eh)            E(eV)
   0   2.0000     -14.438080      -392.8801
   1   2.0000     -14.437814      -392.8729
   2   2.0000     -10.337174      -281.2888
   3   2.0000     -10.332174      -281.1527
   4   2.0000     -10.278767      -279.6995
   5   2.0000     -10.197831      -277.4971
   6   2.0000      -1.079611       -29.3777
   7   2.0000      -0.990784       -26.9606
   8   2.0000      -0.881842       -23.9962
   9   2.0000      -0.810603       -22.0576
  10   2.0000      -0.736513       -20.0415
  11   2.0000      -0.705606       -19.2005
  12   2.0000      -0.640136       -17.4190
  13   2.0000      -0.600519       -16.3410
  14   2.0000      -0.578517       -15.7423
  15   2.0000      -0.540242       -14.7007
  16   2.0000      -0.533570       -14.5192
  17   2.0000      -0.504295       -13.7226
  18   2.0000      -0.478111       -13.0101
  19   2.0000      -0.468301       -12.7431
  20   2.0000      -0.458069       -12.4647
  21   2.0000      -0.452253       -12.3064
  22   2.0000      -0.350339        -9.5332
  23   2.0000      -0.250933        -6.8282
  24   0.0000       0.084548         2.3007
  25   0.0000       0.113730         3.0947
  26   0.0000       0.116907         3.1812
  27   0.0000       0.122018         3.3203
  28   0.0000       0.153076         4.1654

MULLIKEN ATOMIC CHARGES
-----------------------
   0 C :    0.267713
   1 N :   -0.334326
   2 C :    0.741607
   3 N :    0.037677
   4 C :    0.324598
   5 H :   -0.336057
   6 H :   -0.276231
   7 H :   -0.272676
   8 H :   -0.132541
   9 C :    0.590948
  10 H :   -0.282846
  11 H :   -0.098530
  12 H :   -0.139094
  13 H :   -0.048805
  14 H :   -0.004692
  15 H :   -0.036746
Sum of atomic charges:   -0.0000000

LOEWDIN ATOMIC CHARGES
----------------------
   0 C :    0.010762
   1 N :   -0.026306
   2 C :   -0.232553
   3 N :    0.194990
   4 C :    0.129646
   5 H :   -0.099887
   6 H :   -0.097700
   7 H :    0.040047
   8 H :   -0.028291
   9 C :    0.130080
  10 H :    0.020287
  11 H :    0.008501
  12 H :    0.006215
  13 H :   -0.016048
  14 H :   -0.019255
  15 H :   -0.020488

  Mayer bond orders larger than 0.100000
B(  0-C ,  1-N ) :   0.9117 B(  0-C ,  7-H ) :  -0.1564 B(  0-C ,  9-C ) :   1.2122
B(  0-C , 10-H ) :   0.9176 B(  0-C , 11-H ) :   0.9084 B(  0-C , 13-H ) :   0.2286
B(  0-C , 14-H ) :   0.1543 B(  0-C , 15-H ) :   0.1797 B(  1-N ,  2-C ) :   1.0523
B(  1-N ,  3-N ) :   0.1284 B(  1-N ,  4-C ) :   0.2525 B(  1-N ,  7-H ) :   1.2415
B(  1-N , 10-H ) :   0.1845 B(  1-N , 11-H ) :   0.1308 B(  2-C ,  3-N ) :   0.8871
B(  2-C ,  4-C ) :   1.5750 B(  2-C ,  5-H ) :   0.1615 B(  2-C ,  7-H ) :  -0.1899
B(  3-N ,  4-C ) :   0.1859 B(  3-N ,  8-H ) :   1.0416 B(  3-N , 12-H ) :   1.2017
B(  4-C ,  5-H ) :   0.7991 B(  4-C ,  6-H ) :   0.8790 B(  5-H ,  6-H ) :   0.1116
B(  8-H , 12-H ) :  -0.1763 B(  9-C , 13-H ) :   0.8151 B(  9-C , 14-H ) :   0.8358
B(  9-C , 15-H ) :   0.8525

Dispersion correction           -0.003849970
FINAL SINGLE POINT ENERGY      -267.660073784059

DIPOLE MOMENT
-------------
                                X             Y             Z
Electronic contribution:      2.50845       0.91404       0.96219
Nuclear contribution   :     -3.31079      -1.42658      -0.45147
                        -----------------------------------------
Total Dipole Moment    :     -0.80234      -0.51254       0.51072
                        -----------------------------------------
Magnitude (a.u.)       :      1.08040
Magnitude (Debye)      :      2.74617

Rotational constants in cm-1:     0.225507     0.077571     0.068070
Rotational constants in MHz :  6760.542142  2325.533779  2040.680522

                             ****ORCA TERMINATED NORMALLY****
TOTAL RUN TIME: 0 days 0 hours 0 minutes 22 seconds 550 msec
