                         Program Version 5.0.0 -  RELEASE  -
|  1> !wB97X-D3 RIJCOSX def2-SVPD def2/J TightSCF
|  2> *xyz 0 1
|  3> C          3.91385       -1.65829        3.01513
|  4> N          5.03927       -0.90115        2.49282
|  5> C          6.21038       -1.41726        2.17824
|  6> N          6.53591       -2.67712        2.55608
|  7> C          7.07675       -0.70082        1.47891
|  8> H          7.95464       -1.12155        1.20755
|  9> H          6.75616        0.10664        0.96028
| 10> H          4.84217        0.01761        2.11519
| 11> H          5.99388       -3.12692        3.28278
| 12> H          7.49844       -2.97548        2.46878
| 13> C          3.13916       -2.37657        1.91061
| 14> H          3.26723       -0.93940        3.52069
| 15> H          4.24720       -2.35509        3.79006
| 16> C          2.39995       -1.38958        1.00949
| 17> H          2.44075       -3.08712        2.36298
| 18> H          3.84448       -2.97046        1.31868
| 19> C          2.07018       -1.93671       -0.37240
| 20> H          1.48161       -1.06154        1.50991
| 21> H          3.00863       -0.49000        0.89745
| 22> C          1.32224       -0.93577       -1.25641
| 23> H          1.47275       -2.85090       -0.28400
| 24> H          3.00354       -2.23404       -0.86254
| 25> H          1.12209       -1.38090       -2.20862
| 26> H          1.92280       -0.06049       -1.39103
| 27> H          0.39898       -0.66619       -0.78757
| 28> *
| 29> %MaxCore 64000
| 30> %pal nprocs 8
| 31> end
| 32> %scf
| 33>   MaxIter 150
| 34> end
| 35>
| 36>                          ****END OF INPUT****

CARTESIAN COORDINATES (ANGSTROEM)
---------------------------------
  C      3.913850   -1.658290    3.015130
  N      5.039270   -0.901150    2.492820
  C      6.210380   -1.417260    2.178240
  N      6.535910   -2.677120    2.556080
  C      7.076750   -0.700820    1.478910
  H      7.954640   -1.121550    1.207550
  H      6.756160    0.106640    0.960280
  H      4.842170    0.017610    2.115190
  H      5.993880   -3.126920    3.282780
  H      7.498440   -2.975480    2.468780
  C      3.139160   -2.376570    1.910610
  H      3.267230   -0.939400    3.520690
  H      4.247200   -2.355090    3.790060
  C      2.399950   -1.389580    1.009490
  H      2.440750   -3.087120    2.362980
  H      3.844480   -2.970460    1.318680
  C      2.070180   -1.936710   -0.372400
  H      1.481610   -1.061540    1.509910
  H      3.008630   -0.490000    0.897450
  C      1.322240   -0.935770   -1.256410
  H      1.472750   -2.850900   -0.284000
  H      3.003540   -2.234040   -0.862540
  H      1.122090   -1.380900   -2.208620
  H      1.922800   -0.060490   -1.391030
  H      0.398980   -0.666190   -0.787570

 Total Charge           Charge          ....    0
 Multiplicity           Mult            ....    1
 Number of Electrons    NEL             ....   72
 Basis Dimension        Dim             ....  308

ORBITAL ENERGIES
----------------

  NO   OCC          E(Eh)            E(eV)
   0   2.0000     -14.437941      -392.8763
   1   2.0000     -14.437656      -392.8686
   2   2.0000     -10.337322      -281.2928
   3   2.0000     -10.329243      -281.0730
   4   2.0000     -10.286953      -279.9222
   5   2.0000     -10.286574      -279.9119
   6   2.0000     -10.284610      -279.8585
   7   2.0000     -10.272040      -279.5164
   8   2.0000     -10.198191      -277.5069
   9   2.0000      -1.079737       -29.3811
  10   2.0000      -0.991420       -26.9779
  11   2.0000      -0.918446       -24.9922
  12   2.0000      -0.873645       -23.7731
  13   2.0000      -0.823744       -22.4152
  14   2.0000      -0.776446       -21.1282
  15   2.0000      -0.720841       -19.6151
  16   2.0000      -0.705812       -19.2061
  17   2.0000      -0.683304       -18.5936
  18   2.0000      -0.638021       -17.3614
  19   2.0000      -0.604763       -16.4564
  20   2.0000      -0.577914       -15.7258
  21   2.0000      -0.573341       -15.6014
  22   2.0000      -0.546393       -14.8681
  23   2.0000      -0.536519       -14.5994
  24   2.0000      -0.514928       -14.0119
  25   2.0000      -0.502827       -13.6826
  26   2.0000      -0.488762       -13.2999
  27   2.0000      -0.484706       -13.1895
  28   2.0000      -0.466161       -12.6849
  29   2.0000      -0.453916       -12.3517
  30   2.0000      -0.443405       -12.0657
  31   2.0000      -0.426998       -11.6192
  32   2.0000      -0.418507       -11.3881
  33   2.0000      -0.416835       -11.3426
  34   2.0000      -0.349957        -9.5228
  35   2.0000      -0.251191        -6.8353
  36   0.0000       0.086410         2.3513
  37   0.0000       0.097424         2.6511
  38   0.0000       0.105259         2.8643
  39   0.0000       0.113394         3.0856
  40   0.0000       0.123654         3.3648

MULLIKEN ATOMIC CHARGES
-----------------------
   0 C :    0.951127
   1 N :   -0.378799
   2 C :    0.702102
   3 N :    0.067039
   4 C :    0.341869
   5 H :   -0.355759
   6 H :   -0.249813
   7 H :   -0.292192
   8 H :   -0.120695
   9 H :   -0.150840
  10 C :    0.047914
  11 H :   -0.354326
  12 H :   -0.086316
  13 C :   -0.049129
  14 H :   -0.145667
  15 H :   -0.000262
  16 C :   -0.348260
  17 H :   -0.015386
  18 H :   -0.172906
  19 C :    0.793715
  20 H :   -0.065125
  21 H :   -0.023921
  22 H :   -0.054299
  23 H :   -0.033792
  24 H :   -0.006278
Sum of atomic charges:    0.0000000

LOEWDIN ATOMIC CHARGES
----------------------
   0 C :    0.048343
   1 N :   -0.017974
   2 C :   -0.230882
   3 N :    0.196657
   4 C :    0.131325
   5 H :   -0.099873
   6 H :   -0.097617
   7 H :    0.032105
   8 H :   -0.028035
   9 H :    0.006366
  10 C :   -0.028664
  11 H :    0.025454
  12 H :    0.008980
  13 C :   -0.054729
  14 H :    0.024002
  15 H :    0.020588
  16 C :   -0.089405
  17 H :    0.029447
  18 H :    0.011535
  19 C :    0.114044
  20 H :    0.024668
  21 H :    0.025547
  22 H :   -0.018222
  23 H :   -0.016541
  24 H :   -0.017119

  Mayer bond orders larger than 0.100000
B(  0-C ,  1-N ) :   0.8897 B(  0-C ,  7-H ) :  -0.1887 B(  0-C , 10-C ) :   1.0637
B(  0-C , 11-H ) :   0.7142 B(  0-C , 12-H ) :   0.8410 B(  0-C , 13-C ) :   0.1127
B(  1-N ,  2-C ) :   1.0512 B(  1-N ,  3-N ) :   0.1308 B(  1-N ,  4-C ) :   0.2537
B(  1-N ,  7-H ) :   1.2252 B(  1-N , 11-H ) :   0.2898 B(  1-N , 12-H ) :   0.1072
B(  2-C ,  3-N ) :   0.9042 B(  2-C ,  4-C ) :   1.5889 B(  2-C ,  5-H ) :   0.1996
B(  2-C ,  7-H ) :  -0.2198 B(  3-N ,  4-C ) :   0.1949 B(  3-N ,  8-H ) :   1.0285
B(  3-N ,  9-H ) :   1.2030 B(  3-N , 12-H ) :   0.1040 B(  4-C ,  5-H ) :   0.7600
B(  4-C ,  6-H ) :   0.8783 B(  5-H ,  6-H ) :   0.1057 B(  8-H ,  9-H ) :  -0.1813
B( 10-C , 12-H ) :   0.1248 B( 10-C , 13-C ) :   1.1717 B( 10-C , 14-H ) :   0.9982
B( 10-C , 15-H ) :   0.9117 B( 10-C , 17-H ) :   0.1524 B( 11-H , 12-H ) :  -0.1695
B( 13-C , 14-H ) :   0.1439 B( 13-C , 16-C ) :   1.1992 B( 13-C , 17-H ) :   0.8957
B( 13-C , 18-H ) :   0.9341 B( 13-C , 20-H ) :   0.1395 B( 13-C , 21-H ) :   0.1343
B( 16-C , 19-C ) :   1.2088 B( 16-C , 20-H ) :   0.9269 B( 16-C , 21-H ) :   0.9506
B( 16-C , 22-H ) :   0.2800 B( 16-C , 23-H ) :   0.1774 B( 16-C , 24-H ) :   0.1549
B( 17-H , 18-H ) :   0.1356 B( 19-C , 22-H ) :   0.7018 B( 19-C , 23-H ) :   0.8161
B( 19-C , 24-H ) :   0.8169

Dispersion correction           -0.007804371
FINAL SINGLE POINT ENERGY      -385.495262828272

DIPOLE MOMENT
-------------
                                X             Y             Z
Electronic contribution:      6.31601      -0.39283       5.23092
Nuclear contribution   :     -7.11038      -0.15452      -4.78382
                        -----------------------------------------
Total Dipole Moment    :     -0.79438      -0.54735       0.44710
                        -----------------------------------------
Magnitude (a.u.)       :      1.06326
Magnitude (Debye)      :      2.70259

Rotational constants in cm-1:     0.093209     0.023285     0.021200
Rotational constants in MHz :  2794.342658   698.079062   635.557705

                             ****ORCA TERMINATED NORMALLY****
TOTAL RUN TIME: 0 days 0 hours 0 minutes 57 seconds 180 msec
