                         Program Version 5.0.0 -  RELEASE  -
|  1> !wB97X-D3 RIJCOSX def2-SVPD def2/J TightSCF
|  2> *xyz 0 1
|  3> C          3.91385       -1.65829        3.01513
|  4> N          5.03927       -0.90115        2.49282
|  5> C          4.08422        1.74208       -2.11472
|  6> C          4.26524        2.50052       -0.79589
|  7> C          6.21038       -1.41726        2.17824
|  8> N          6.53591       -2.67712        2.55608
|  9> C          7.07675       -0.70082        1.47891
| 10> H          7.95464       -1.12155        1.20755
| 11> H          6.75616        0.10664        0.96028
| 12> H          4.84217        0.01761        2.11519
| 13> H          5.99388       -3.12692        3.28278
| 14> H          7.49844       -2.97548        2.46878
| 15> C          3.13916       -2.37657        1.91061
| 16> H          3.26723       -0.93940        3.52069
| 17> H          4.24720       -2.35509        3.79006
| 18> C          1.99727        0.43092       -1.39922
| 19> C          3.41275        0.37689       -1.96550
| 20> H          4.04741       -0.24659       -1.32671
| 21> H          3.39077       -0.11872       -2.94284
| 22> H          5.06847        1.59850       -2.56573
| 23> H          3.50336        2.36394       -2.80457
| 24> C          2.39995       -1.38958        1.00949
| 25> H          2.44075       -3.08712        2.36298
| 26> H          3.84448       -2.97046        1.31868
| 27> C          2.07018       -1.93671       -0.37240
| 28> H          1.48161       -1.06154        1.50991
| 29> H          3.00863       -0.49000        0.89745
| 30> C          1.32224       -0.93577       -1.25641
| 31> H          1.47275       -2.85090       -0.28400
| 32> H          3.00354       -2.23404       -0.86254
| 33> H          1.37644        1.05892       -2.04742
| 34> H          2.01534        0.92978       -0.42653
| 35> H          0.31665       -0.78721       -0.84828
| 36> H          1.18561       -1.37925       -2.24861
| 37> H          4.73963        3.44035       -0.98715
| 38> H          4.87389        1.92223       -0.13253
| 39> H          3.30865        2.66865       -0.34693
| 40> *
| 41> %MaxCore 64000
| 42> %pal nprocs 8
| 43> end
| 44> %scf
| 45>   MaxIter 150
| 46> end
| 47>
| 48>                          ****END OF INPUT****

CARTESIAN COORDINATES (ANGSTROEM)
---------------------------------
  C      3.913850   -1.658290    3.015130
  N      5.039270   -0.901150    2.492820
  C      4.084220    1.742080   -2.114720
  C      4.265240    2.500520   -0.795890
  C      6.210380   -1.417260    2.178240
  N      6.535910   -2.677120    2.556080
  C      7.076750   -0.700820    1.478910
  H      7.954640   -1.121550    1.207550
  H      6.756160    0.106640    0.960280
  H      4.842170    0.017610    2.115190
  H      5.993880   -3.126920    3.282780
  H      7.498440   -2.975480    2.468780
  C      3.139160   -2.376570    1.910610
  H      3.267230   -0.939400    3.520690
  H      4.247200   -2.355090    3.790060
  C      1.997270    0.430920   -1.399220
  C      3.412750    0.376890   -1.965500
  H      4.047410   -0.246590   -1.326710
  H      3.390770   -0.118720   -2.942840
  H      5.068470    1.598500   -2.565730
  H      3.503360    2.363940   -2.804570
  C      2.399950   -1.389580    1.009490
  H      2.440750   -3.087120    2.362980
  H      3.844480   -2.970460    1.318680
  C      2.070180   -1.936710   -0.372400
  H      1.481610   -1.061540    1.509910
  H      3.008630   -0.490000    0.897450
  C      1.322240   -0.935770   -1.256410
  H      1.472750   -2.850900   -0.284000
  H      3.003540   -2.234040   -0.862540
  H      1.376440    1.058920   -2.047420
  H      2.015340    0.929780   -0.426530
  H      0.316650   -0.787210   -0.848280
  H      1.185610   -1.379250   -2.248610
  H      4.739630    3.440350   -0.987150
  H      4.873890    1.922230   -0.132530
  H      3.308650    2.668650   -0.346930

 Total Charge           Charge          ....    0
 Multiplicity           Mult            ....    1
 Number of Electrons    NEL             ....  104
 Basis Dimension        Dim             ....  452

ORBITAL ENERGIES
----------------

  NO   OCC          E(Eh)            E(eV)
   0   2.0000     -14.438116      -392.8811
   1   2.0000     -14.438068      -392.8798
   2   2.0000     -10.337915      -281.3090
   3   2.0000     -10.329002      -281.0664
   4   2.0000     -10.286562      -279.9116
   5   2.0000     -10.285519      -279.8832
   6   2.0000     -10.282241      -279.7940
   7   2.0000     -10.281865      -279.7838
   8   2.0000     -10.279856      -279.7291
   9   2.0000     -10.279788      -279.7272
  10   2.0000     -10.278218      -279.6845
  11   2.0000     -10.268985      -279.4333
  12   2.0000     -10.198987      -277.5286
  13   2.0000      -1.080017       -29.3888
  14   2.0000      -0.991694       -26.9854
  15   2.0000      -0.930340       -25.3158
  16   2.0000      -0.905945       -24.6520
  17   2.0000      -0.877450       -23.8766
  18   2.0000      -0.840829       -22.8801
  19   2.0000      -0.808166       -21.9913
  20   2.0000      -0.777264       -21.1504
  21   2.0000      -0.744014       -20.2456
  22   2.0000      -0.718265       -19.5450
  23   2.0000      -0.697396       -18.9771
  24   2.0000      -0.683445       -18.5975
  25   2.0000      -0.652765       -17.7626
  26   2.0000      -0.638187       -17.3659
  27   2.0000      -0.604478       -16.4487
  28   2.0000      -0.581513       -15.8238
  29   2.0000      -0.574893       -15.6436
  30   2.0000      -0.570817       -15.5327
  31   2.0000      -0.553636       -15.0652
  32   2.0000      -0.539751       -14.6874
  33   2.0000      -0.529789       -14.4163
  34   2.0000      -0.527523       -14.3546
  35   2.0000      -0.508072       -13.8254
  36   2.0000      -0.495216       -13.4755
  37   2.0000      -0.487862       -13.2754
  38   2.0000      -0.483657       -13.1610
  39   2.0000      -0.475089       -12.9278
  40   2.0000      -0.466163       -12.6850
  41   2.0000      -0.454622       -12.3709
  42   2.0000      -0.450503       -12.2588
  43   2.0000      -0.441091       -12.0027
  44   2.0000      -0.429534       -11.6882
  45   2.0000      -0.421945       -11.4817
  46   2.0000      -0.417476       -11.3601
  47   2.0000      -0.403195       -10.9715
  48   2.0000      -0.400933       -10.9099
  49   2.0000      -0.396972       -10.8022
  50   2.0000      -0.350093        -9.5265
  51   2.0000      -0.251674        -6.8484
  52   0.0000       0.083614         2.2752
  53   0.0000       0.094153         2.5620
  54   0.0000       0.099683         2.7125
  55   0.0000       0.103651         2.8205
  56   0.0000       0.115555         3.1444

MULLIKEN ATOMIC CHARGES
-----------------------
   0 C :    1.033042
   1 N :   -0.244916
   2 C :   -0.106884
   3 C :    1.304637
   4 C :    0.720117
   5 N :    0.079326
   6 C :    0.504773
   7 H :   -0.381906
   8 H :   -0.413268
   9 H :   -0.465377
  10 H :   -0.108310
  11 H :   -0.149617
  12 C :    0.287883
  13 H :   -0.334870
  14 H :   -0.158284
  15 C :   -0.198866
  16 C :   -0.027396
  17 H :   -0.090369
  18 H :   -0.095423
  19 H :   -0.089476
  20 H :   -0.046516
  21 C :   -0.049244
  22 H :   -0.114664
  23 H :    0.005819
  24 C :   -0.040970
  25 H :   -0.008580
  26 H :   -0.286735
  27 C :    0.620753
  28 H :   -0.304805
  29 H :    0.113082
  30 H :   -0.377259
  31 H :    0.136174
  32 H :    0.005417
  33 H :    0.000984
  34 H :   -0.012855
  35 H :   -0.680994
  36 H :   -0.024423
Sum of atomic charges:   -0.0000000

LOEWDIN ATOMIC CHARGES
----------------------
   0 C :    0.051256
   1 N :   -0.015079
   2 C :   -0.074373
   3 C :    0.126388
   4 C :   -0.229184
   5 N :    0.197448
   6 C :    0.135292
   7 H :   -0.099122
   8 H :   -0.105713
   9 H :    0.028474
  10 H :   -0.027665
  11 H :    0.006655
  12 C :   -0.022679
  13 H :    0.026289
  14 H :    0.008667
  15 C :   -0.042937
  16 C :   -0.043929
  17 H :    0.014248
  18 H :    0.027488
  19 H :    0.019335
  20 H :    0.021206
  21 C :   -0.043499
  22 H :    0.024333
  23 H :    0.021808
  24 C :   -0.041200
  25 H :    0.034702
  26 H :   -0.005817
  27 C :   -0.034625
  28 H :    0.025774
  29 H :    0.019957
  30 H :    0.026276
  31 H :    0.000005
  32 H :    0.022343
  33 H :    0.022605
  34 H :   -0.016303
  35 H :   -0.029070
  36 H :   -0.029354

  Mayer bond orders larger than 0.100000
B(  0-C ,  1-N ) :   0.8800 B(  0-C ,  9-H ) :  -0.2455 B(  0-C , 12-C ) :   1.0544
B(  0-C , 13-H ) :   0.6960 B(  0-C , 14-H ) :   0.8185 B(  0-C , 21-C ) :   0.1209
B(  1-N ,  4-C ) :   1.0685 B(  1-N ,  5-N ) :   0.1551 B(  1-N ,  6-C ) :   0.2256
B(  1-N ,  9-H ) :   1.2335 B(  1-N , 13-H ) :   0.2634 B(  1-N , 14-H ) :   0.1034
B(  2-C ,  3-C ) :   1.1149 B(  2-C , 16-C ) :   1.1537 B(  2-C , 19-H ) :   0.7880
B(  2-C , 20-H ) :   0.8903 B(  2-C , 34-H ) :   0.2079 B(  2-C , 35-H ) :   0.3687
B(  2-C , 36-H ) :   0.2305 B(  3-C , 34-H ) :   0.6895 B(  3-C , 35-H ) :   0.3717
B(  3-C , 36-H ) :   0.5733 B(  4-C ,  5-N ) :   0.8913 B(  4-C ,  6-C ) :   1.6091
B(  4-C ,  7-H ) :   0.1872 B(  4-C ,  9-H ) :  -0.2926 B(  5-N ,  6-C ) :   0.2185
B(  5-N , 10-H ) :   1.0106 B(  5-N , 11-H ) :   1.2066 B(  5-N , 14-H ) :   0.1092
B(  6-C ,  7-H ) :   0.7713 B(  6-C ,  8-H ) :   0.7072 B( 10-H , 11-H ) :  -0.1832
B( 12-C , 14-H ) :   0.1456 B( 12-C , 21-C ) :   1.1156 B( 12-C , 22-H ) :   0.9326
B( 12-C , 23-H ) :   0.8822 B( 12-C , 25-H ) :   0.1025 B( 13-H , 14-H ) :  -0.1943
B( 15-C , 16-C ) :   1.2264 B( 15-C , 17-H ) :   0.1175 B( 15-C , 18-H ) :   0.1875
B( 15-C , 27-C ) :   1.1560 B( 15-C , 30-H ) :   1.0697 B( 15-C , 31-H ) :   0.8372
B( 15-C , 32-H ) :   0.2652 B( 15-C , 33-H ) :   0.1387 B( 16-C , 17-H ) :   0.9166
B( 16-C , 18-H ) :   0.9202 B( 16-C , 19-H ) :   0.2681 B( 16-C , 20-H ) :   0.1256
B( 16-C , 30-H ) :   0.1267 B( 16-C , 31-H ) :   0.1156 B( 21-C , 22-H ) :   0.1805
B( 21-C , 24-C ) :   1.2394 B( 21-C , 25-H ) :   0.8138 B( 21-C , 26-H ) :   1.0017
B( 21-C , 28-H ) :   0.1409 B( 21-C , 29-H ) :   0.1224 B( 24-C , 25-H ) :   0.1086
B( 24-C , 27-C ) :   1.1156 B( 24-C , 28-H ) :   1.0314 B( 24-C , 29-H ) :   0.8555
B( 24-C , 32-H ) :   0.1069 B( 24-C , 33-H ) :   0.2177 B( 25-H , 26-H ) :   0.1122
B( 26-H , 31-H ) :   0.1216 B( 27-C , 32-H ) :   0.6804 B( 27-C , 33-H ) :   0.7207
B( 35-H , 36-H ) :   0.3069

Dispersion correction           -0.015232944
FINAL SINGLE POINT ENERGY      -542.611067142873

DIPOLE MOMENT
-------------
                                X             Y             Z
Electronic contribution:      4.48912      -5.02898       6.91888
Nuclear contribution   :     -5.25547       4.49594      -6.52082
                        -----------------------------------------
Total Dipole Moment    :     -0.76635      -0.53304       0.39805
                        -----------------------------------------
Magnitude (a.u.)       :      1.01483
Magnitude (Debye)      :      2.57949

Rotational constants in cm-1:     0.028821     0.014236     0.010753
Rotational constants in MHz :   864.025906   426.791991   322.366005

                             ****ORCA TERMINATED NORMALLY****
TOTAL RUN TIME: 0 days 0 hours 2 minutes 14 seconds 497 msec
