                         Program Version 5.0.0 -  RELEASE  -
|  1> !wB97X-D3 RIJCOSX def2-SVPD def2/J TightSCF xyzfile
|  2>
|  3> *xyzfile 0 1 D1.xyz
|  4>
|  5> %MaxCore 64000
|  6>
|  7> %pal nprocs 18
|  8> end
|  9>
| 10> %scf
| 11>   MaxIter 150
| 12> end
| 13>
| 14>
| 15>                          ****END OF INPUT****

CARTESIAN COORDINATES (ANGSTROEM)
---------------------------------
  C      3.913853   -1.658291    3.015134
  C      5.039266   -0.901154    2.492821
  C      4.084215    1.742081   -2.114724
  C      4.265245    2.500518   -0.795890
  H      4.868534    3.392674   -0.981134
  H      3.307640    2.824571   -0.387809
  C      4.982240    1.650257    0.247422
  C      6.210384   -1.417261    2.178244
  N      6.535913   -2.677122    2.556078
  N      7.076754   -0.700820    1.478906
  H      7.954643   -1.121554    1.207554
  H      6.756161    0.106637    0.960278
  H      4.842168    0.017609    2.115191
  H      5.993876   -3.126918    3.282784
  H      7.498441   -2.975482    2.468776
  F      4.368065    1.389270    1.313706
  O      6.128919    1.233512   -0.045620
  C      3.139159   -2.376572    1.910609
  H      3.267235   -0.939401    3.520693
  H      4.247195   -2.355095    3.790065
  C      1.997274    0.430918   -1.399218
  C      3.412746    0.376886   -1.965497
  H      4.047407   -0.246590   -1.326706
  H      3.390774   -0.118719   -2.942839
  H      5.068475    1.598504   -2.565728
  H      3.503356    2.363939   -2.804565
  C      2.399946   -1.389579    1.009490
  H      2.440750   -3.087118    2.362976
  H      3.844475   -2.970462    1.318677
  C      2.070177   -1.936705   -0.372401
  H      1.481611   -1.061542    1.509912
  H      3.008628   -0.490001    0.897451
  C      1.322238   -0.935775   -1.256413
  H      1.472747   -2.850902   -0.283997
  H      3.003539   -2.234041   -0.862535
  H      1.376444    1.058920   -2.047420
  H      2.015341    0.929780   -0.426535
  H      0.316648   -0.787213   -0.848278
  H      1.185611   -1.379252   -2.248613

 Total Charge           Charge          ....    0
 Multiplicity           Mult            ....    1
 Number of Electrons    NEL             ....  126
 Basis Dimension        Dim             ....  510

ORBITAL ENERGIES
----------------

  NO   OCC          E(Eh)            E(eV)
   0   2.0000     -24.889363      -677.2740
   1   2.0000     -19.277350      -524.5634
   2   2.0000     -14.422748      -392.4629
   3   2.0000     -14.395827      -391.7304
   4   2.0000     -10.496512      -285.6246
   5   2.0000     -10.329376      -281.0766
   6   2.0000     -10.314224      -280.6643
   7   2.0000     -10.309515      -280.5362
   8   2.0000     -10.293510      -280.1006
   9   2.0000     -10.288368      -279.9607
  10   2.0000     -10.282015      -279.7879
  11   2.0000     -10.274200      -279.5752
  12   2.0000     -10.267681      -279.3978
  13   2.0000     -10.259071      -279.1635
  14   2.0000     -10.253835      -279.0210
  15   2.0000     -10.185364      -277.1578
  16   2.0000      -1.442103       -39.2416
  17   2.0000      -1.170538       -31.8520
  18   2.0000      -1.047466       -28.5030
  19   2.0000      -0.953983       -25.9592
  20   2.0000      -0.945368       -25.7248
  21   2.0000      -0.916069       -24.9275
  22   2.0000      -0.886686       -24.1279
  23   2.0000      -0.856938       -23.3185
  24   2.0000      -0.818402       -22.2699
  25   2.0000      -0.797168       -21.6920
  26   2.0000      -0.770366       -20.9627
  27   2.0000      -0.743760       -20.2387
  28   2.0000      -0.711931       -19.3726
  29   2.0000      -0.694542       -18.8994
  30   2.0000      -0.677415       -18.4334
  31   2.0000      -0.666205       -18.1284
  32   2.0000      -0.664743       -18.0886
  33   2.0000      -0.656923       -17.8758
  34   2.0000      -0.630202       -17.1487
  35   2.0000      -0.619118       -16.8470
  36   2.0000      -0.592062       -16.1108
  37   2.0000      -0.584496       -15.9049
  38   2.0000      -0.580980       -15.8093
  39   2.0000      -0.562906       -15.3175
  40   2.0000      -0.548619       -14.9287
  41   2.0000      -0.537921       -14.6376
  42   2.0000      -0.528883       -14.3916
  43   2.0000      -0.518696       -14.1144
  44   2.0000      -0.515235       -14.0203
  45   2.0000      -0.508642       -13.8409
  46   2.0000      -0.491149       -13.3648
  47   2.0000      -0.488168       -13.2837
  48   2.0000      -0.469642       -12.7796
  49   2.0000      -0.462894       -12.5960
  50   2.0000      -0.461539       -12.5591
  51   2.0000      -0.457670       -12.4538
  52   2.0000      -0.444846       -12.1049
  53   2.0000      -0.433271       -11.7899
  54   2.0000      -0.430469       -11.7137
  55   2.0000      -0.418235       -11.3807
  56   2.0000      -0.405913       -11.0454
  57   2.0000      -0.402190       -10.9441
  58   2.0000      -0.397491       -10.8163
  59   2.0000      -0.392114       -10.6700
  60   2.0000      -0.385645       -10.4939
  61   2.0000      -0.338969        -9.2238
  62   2.0000      -0.229498        -6.2450
  63   0.0000       0.030679         0.8348
  64   0.0000       0.084519         2.2999
  65   0.0000       0.098377         2.6770
  66   0.0000       0.101642         2.7658
  67   0.0000       0.105249         2.8640

MULLIKEN ATOMIC CHARGES
-----------------------
   0 C :    0.552916
   1 C :    0.315930
   2 C :    0.376616
   3 C :    0.206163
   4 H :   -0.062651
   5 H :    0.188611
   6 C :    0.526709
   7 C :    0.724513
   8 N :   -0.066653
   9 N :    0.298357
  10 H :   -0.158179
  11 H :   -0.393885
  12 H :   -0.746180
  13 H :   -0.016875
  14 H :   -0.253095
  15 F :   -0.497746
  16 O :   -0.450012
  17 C :    0.385902
  18 H :    0.032261
  19 H :   -0.235576
  20 C :   -0.118283
  21 C :   -0.134355
  22 H :   -0.021894
  23 H :   -0.138553
  24 H :    0.036425
  25 H :   -0.083980
  26 C :    0.558388
  27 H :   -0.087594
  28 H :   -0.071407
  29 C :   -0.035466
  30 H :    0.066288
  31 H :   -0.948711
  32 C :    0.665593
  33 H :   -0.376181
  34 H :    0.136131
  35 H :   -0.382507
  36 H :    0.168783
  37 H :    0.026414
  38 H :    0.013784
Sum of atomic charges:   -0.0000000

LOEWDIN ATOMIC CHARGES
----------------------
   0 C :   -0.051216
   1 C :   -0.024380
   2 C :   -0.012494
   3 C :    0.058763
   4 H :    0.045126
   5 H :    0.025307
   6 C :    0.066313
   7 C :   -0.193557
   8 N :    0.194677
   9 N :    0.200590
  10 H :   -0.005054
  11 H :   -0.120596
  12 H :   -0.110299
  13 H :   -0.017961
  14 H :   -0.012819
  15 F :   -0.036973
  16 O :   -0.105357
  17 C :   -0.028285
  18 H :    0.019385
  19 H :    0.000046
  20 C :   -0.037240
  21 C :   -0.027627
  22 H :    0.015807
  23 H :    0.033951
  24 H :    0.030313
  25 H :    0.030887
  26 C :   -0.033592
  27 H :    0.017845
  28 H :    0.020114
  29 C :   -0.040110
  30 H :    0.035566
  31 H :   -0.023692
  32 C :   -0.033012
  33 H :    0.025537
  34 H :    0.018893
  35 H :    0.025651
  36 H :    0.003795
  37 H :    0.023658
  38 H :    0.022039

  Mayer bond orders larger than 0.100000
B(  0-C ,  1-C ) :   0.9195 B(  0-C , 12-H ) :   0.6785 B(  0-C , 17-C ) :   1.0257
B(  0-C , 18-H ) :   0.7148 B(  0-C , 19-H ) :   0.6407 B(  0-C , 28-H ) :   0.1021
B(  1-C ,  7-C ) :   1.7954 B(  1-C ,  8-N ) :   0.2439 B(  1-C ,  9-N ) :   0.2230
B(  1-C , 12-H ) :  -0.3426 B(  1-C , 13-H ) :  -0.1252 B(  1-C , 18-H ) :   0.2901
B(  1-C , 19-H ) :   0.3037 B(  2-C ,  3-C ) :   1.1532 B(  2-C ,  4-H ) :   0.1631
B(  2-C , 21-C ) :   1.2407 B(  2-C , 24-H ) :   0.7063 B(  2-C , 25-H ) :   0.8381
B(  3-C ,  4-H ) :   0.6704 B(  3-C ,  5-H ) :   0.7694 B(  3-C ,  6-C ) :   1.2688
B(  3-C , 24-H ) :   0.1074 B(  3-C , 25-H ) :   0.1397 B(  4-H ,  6-C ) :   0.2778
B(  5-H ,  6-C ) :   0.1781 B(  6-C , 15-F ) :   0.7085 B(  6-C , 16-O ) :   1.6474
B(  7-C ,  8-N ) :   0.8104 B(  7-C ,  9-N ) :   0.7969 B(  7-C , 11-H ) :  -0.2439
B(  7-C , 12-H ) :   0.4441 B(  7-C , 14-H ) :  -0.1523 B(  8-N , 13-H ) :   1.0147
B(  8-N , 14-H ) :   1.2936 B(  9-N , 10-H ) :   1.1410 B(  9-N , 11-H ) :   1.1895
B( 10-H , 11-H ) :  -0.1999 B( 12-H , 15-F ) :   0.2221 B( 13-H , 14-H ) :  -0.1803
B( 15-F , 31-H ) :   0.1068 B( 17-C , 19-H ) :   0.1071 B( 17-C , 26-C ) :   1.1035
B( 17-C , 27-H ) :   0.8586 B( 17-C , 28-H ) :   0.9048 B( 17-C , 30-H ) :   0.1535
B( 18-H , 19-H ) :  -0.1138 B( 20-C , 21-C ) :   1.1954 B( 20-C , 23-H ) :   0.1504
B( 20-C , 32-C ) :   1.1388 B( 20-C , 35-H ) :   1.0616 B( 20-C , 36-H ) :   0.8212
B( 20-C , 37-H ) :   0.2599 B( 20-C , 38-H ) :   0.1323 B( 21-C , 22-H ) :   0.9480
B( 21-C , 23-H ) :   0.8924 B( 21-C , 24-H ) :   0.2274 B( 21-C , 25-H ) :   0.1736
B( 21-C , 35-H ) :   0.1140 B( 24-H , 25-H ) :  -0.1063 B( 26-C , 27-H ) :   0.1711
B( 26-C , 28-H ) :   0.1251 B( 26-C , 29-C ) :   1.2185 B( 26-C , 30-H ) :   0.6437
B( 26-C , 31-H ) :   0.3614 B( 26-C , 33-H ) :   0.1245 B( 26-C , 34-H ) :   0.1252
B( 29-C , 31-H ) :   0.1235 B( 29-C , 32-C ) :   1.1065 B( 29-C , 33-H ) :   1.0492
B( 29-C , 34-H ) :   0.8418 B( 29-C , 37-H ) :   0.1131 B( 29-C , 38-H ) :   0.2284
B( 30-H , 31-H ) :   0.2354 B( 31-H , 36-H ) :   0.1031 B( 32-C , 37-H ) :   0.6853
B( 32-C , 38-H ) :   0.6934

Dispersion correction           -0.020017275
FINAL SINGLE POINT ENERGY      -754.975091400131

DIPOLE MOMENT
-------------
                                X             Y             Z
Electronic contribution:     11.26598       8.97170       5.89744
Nuclear contribution   :    -11.48003      -8.36271      -6.78621
                        -----------------------------------------
Total Dipole Moment    :     -0.21405       0.60899      -0.88878
                        -----------------------------------------
Magnitude (a.u.)       :      1.09846
Magnitude (Debye)      :      2.79205

Rotational constants in cm-1:     0.020055     0.013548     0.009477
Rotational constants in MHz :   601.234832   406.162779   284.104317

                             ****ORCA TERMINATED NORMALLY****
TOTAL RUN TIME: 0 days 0 hours 2 minutes 16 seconds 857 msec
