                         Program Version 5.0.0 -  RELEASE  -
|  1> !wB97X-D3 RIJCOSX def2-SVPD def2/J TightSCF xyzfile
|  2>
|  3> *xyzfile 0 1 D4.xyz
|  4>
|  5> %MaxCore 64000
|  6>
|  7> %pal nprocs 18
|  8> end
|  9>
| 10> %scf
| 11>   MaxIter 150
| 12> end
| 13>
| 14>
| 15>                          ****END OF INPUT****

CARTESIAN COORDINATES (ANGSTROEM)
---------------------------------
  C      3.913853   -1.658291    3.015134
  C      5.039266   -0.901154    2.492821
  C      4.084215    1.742081   -2.114724
  C      4.265245    2.500518   -0.795890
  H      4.868534    3.392674   -0.981134
  H      3.307640    2.824571   -0.387809
  C      4.982240    1.650257    0.247422
  C      6.210384   -1.417261    2.178244
  N      6.535913   -2.677122    2.556078
  N      7.076754   -0.700820    1.478906
  H      7.954643   -1.121554    1.207554
  H      6.756161    0.106637    0.960278
  H      4.842168    0.017609    2.115191
  H      5.993876   -3.126918    3.282784
  H      7.498441   -2.975482    2.468776
  O      4.368065    1.389270    1.313706
  F      6.128919    1.233512   -0.045620
  C      3.139159   -2.376572    1.910609
  H      3.267235   -0.939401    3.520693
  H      4.247195   -2.355095    3.790065
  C      1.997274    0.430918   -1.399218
  C      3.412746    0.376886   -1.965497
  H      4.047407   -0.246590   -1.326706
  H      3.390774   -0.118719   -2.942839
  H      5.068475    1.598504   -2.565728
  H      3.503356    2.363939   -2.804565
  C      2.399946   -1.389579    1.009490
  H      2.440750   -3.087118    2.362976
  H      3.844475   -2.970462    1.318677
  C      2.070177   -1.936705   -0.372401
  H      1.481611   -1.061542    1.509912
  H      3.008628   -0.490001    0.897451
  C      1.322238   -0.935775   -1.256413
  H      1.472747   -2.850902   -0.283997
  H      3.003539   -2.234041   -0.862535
  H      1.376444    1.058920   -2.047420
  H      2.015341    0.929780   -0.426535
  H      0.316648   -0.787213   -0.848278
  H      1.185611   -1.379252   -2.248613

 Total Charge           Charge          ....    0
 Multiplicity           Mult            ....    1
 Number of Electrons    NEL             ....  126
 Basis Dimension        Dim             ....  510

ORBITAL ENERGIES
----------------

  NO   OCC          E(Eh)            E(eV)
   0   2.0000     -24.903261      -677.6522
   1   2.0000     -19.267496      -524.2952
   2   2.0000     -14.421679      -392.4338
   3   2.0000     -14.411977      -392.1698
   4   2.0000     -10.490877      -285.4713
   5   2.0000     -10.328001      -281.0392
   6   2.0000     -10.312249      -280.6106
   7   2.0000     -10.311337      -280.5857
   8   2.0000     -10.294983      -280.1407
   9   2.0000     -10.284370      -279.8519
  10   2.0000     -10.278258      -279.6856
  11   2.0000     -10.269454      -279.4460
  12   2.0000     -10.258230      -279.1406
  13   2.0000     -10.253694      -279.0172
  14   2.0000     -10.247038      -278.8361
  15   2.0000     -10.175598      -276.8921
  16   2.0000      -1.455558       -39.6078
  17   2.0000      -1.159670       -31.5562
  18   2.0000      -1.051407       -28.6103
  19   2.0000      -0.960218       -26.1289
  20   2.0000      -0.946623       -25.7589
  21   2.0000      -0.912255       -24.8237
  22   2.0000      -0.882499       -24.0140
  23   2.0000      -0.852908       -23.2088
  24   2.0000      -0.819497       -22.2997
  25   2.0000      -0.795604       -21.6495
  26   2.0000      -0.776631       -21.1332
  27   2.0000      -0.740576       -20.1521
  28   2.0000      -0.711982       -19.3740
  29   2.0000      -0.697792       -18.9879
  30   2.0000      -0.685726       -18.6596
  31   2.0000      -0.677433       -18.4339
  32   2.0000      -0.656959       -17.8768
  33   2.0000      -0.646211       -17.5843
  34   2.0000      -0.635602       -17.2956
  35   2.0000      -0.615034       -16.7359
  36   2.0000      -0.588426       -16.0119
  37   2.0000      -0.585146       -15.9226
  38   2.0000      -0.581531       -15.8243
  39   2.0000      -0.560256       -15.2453
  40   2.0000      -0.550450       -14.9785
  41   2.0000      -0.538186       -14.6448
  42   2.0000      -0.528459       -14.3801
  43   2.0000      -0.512763       -13.9530
  44   2.0000      -0.507991       -13.8231
  45   2.0000      -0.501314       -13.6415
  46   2.0000      -0.492545       -13.4028
  47   2.0000      -0.484563       -13.1856
  48   2.0000      -0.477094       -12.9824
  49   2.0000      -0.471073       -12.8185
  50   2.0000      -0.460774       -12.5383
  51   2.0000      -0.457186       -12.4407
  52   2.0000      -0.437237       -11.8978
  53   2.0000      -0.428241       -11.6530
  54   2.0000      -0.426943       -11.6177
  55   2.0000      -0.422054       -11.4847
  56   2.0000      -0.401471       -10.9246
  57   2.0000      -0.395644       -10.7660
  58   2.0000      -0.390187       -10.6175
  59   2.0000      -0.385821       -10.4987
  60   2.0000      -0.357844        -9.7374
  61   2.0000      -0.345055        -9.3894
  62   2.0000      -0.226666        -6.1679
  63   0.0000       0.036346         0.9890
  64   0.0000       0.080086         2.1792
  65   0.0000       0.097242         2.6461
  66   0.0000       0.102663         2.7936
  67   0.0000       0.105730         2.8771

MULLIKEN ATOMIC CHARGES
-----------------------
   0 C :    0.535738
   1 C :    0.197147
   2 C :    0.380665
   3 C :    0.241088
   4 H :   -0.052345
   5 H :    0.150459
   6 C :    0.601687
   7 C :    0.719916
   8 N :   -0.076823
   9 N :    0.339054
  10 H :   -0.160330
  11 H :   -0.360724
  12 H :   -0.662715
  13 H :   -0.021025
  14 H :   -0.256101
  15 O :   -0.570588
  16 F :   -0.444392
  17 C :    0.384199
  18 H :    0.041226
  19 H :   -0.241159
  20 C :   -0.143634
  21 C :   -0.119870
  22 H :   -0.014659
  23 H :   -0.146661
  24 H :   -0.001012
  25 H :   -0.086000
  26 C :    0.607023
  27 H :   -0.089266
  28 H :   -0.071713
  29 C :   -0.029148
  30 H :    0.053508
  31 H :   -0.973036
  32 C :    0.684737
  33 H :   -0.390972
  34 H :    0.133449
  35 H :   -0.387921
  36 H :    0.191299
  37 H :    0.031544
  38 H :    0.007356
Sum of atomic charges:   -0.0000000

LOEWDIN ATOMIC CHARGES
----------------------
   0 C :   -0.046078
   1 C :   -0.016401
   2 C :   -0.021119
   3 C :    0.061284
   4 H :    0.039857
   5 H :    0.034897
   6 C :    0.059140
   7 C :   -0.198122
   8 N :    0.192085
   9 N :    0.195552
  10 H :   -0.005679
  11 H :   -0.080623
  12 H :   -0.138859
  13 H :   -0.017735
  14 H :   -0.015669
  15 O :   -0.117419
  16 F :   -0.023257
  17 C :   -0.027810
  18 H :    0.022468
  19 H :   -0.001417
  20 C :   -0.032709
  21 C :   -0.029304
  22 H :    0.014871
  23 H :    0.032738
  24 H :    0.024837
  25 H :    0.030503
  26 C :   -0.029396
  27 H :    0.016827
  28 H :    0.018322
  29 C :   -0.041658
  30 H :    0.036645
  31 H :   -0.023835
  32 C :   -0.033201
  33 H :    0.024325
  34 H :    0.016875
  35 H :    0.025482
  36 H :    0.008938
  37 H :    0.023964
  38 H :    0.020681

  Mayer bond orders larger than 0.100000
B(  0-C ,  1-C ) :   0.9513 B(  0-C , 12-H ) :   0.7040 B(  0-C , 17-C ) :   1.0335
B(  0-C , 18-H ) :   0.7098 B(  0-C , 19-H ) :   0.6276 B(  0-C , 28-H ) :   0.1001
B(  1-C ,  7-C ) :   1.8388 B(  1-C ,  8-N ) :   0.2476 B(  1-C ,  9-N ) :   0.2381
B(  1-C , 12-H ) :  -0.1569 B(  1-C , 13-H ) :  -0.1229 B(  1-C , 18-H ) :   0.2933
B(  1-C , 19-H ) :   0.3048 B(  2-C ,  3-C ) :   1.1538 B(  2-C ,  4-H ) :   0.1591
B(  2-C , 21-C ) :   1.2221 B(  2-C , 24-H ) :   0.7062 B(  2-C , 25-H ) :   0.8448
B(  3-C ,  4-H ) :   0.6838 B(  3-C ,  5-H ) :   0.7932 B(  3-C ,  6-C ) :   1.1891
B(  3-C , 24-H ) :   0.1026 B(  3-C , 25-H ) :   0.1394 B(  4-H ,  6-C ) :   0.2572
B(  5-H ,  6-C ) :   0.1772 B(  6-C , 15-O ) :   1.7951 B(  6-C , 16-F ) :   0.5036
B(  7-C ,  8-N ) :   0.7824 B(  7-C ,  9-N ) :   0.7918 B(  7-C , 11-H ) :  -0.2335
B(  7-C , 12-H ) :   0.3933 B(  7-C , 14-H ) :  -0.1598 B(  8-N , 13-H ) :   1.0193
B(  8-N , 14-H ) :   1.3013 B(  9-N , 10-H ) :   1.1444 B(  9-N , 11-H ) :   1.2021
B( 10-H , 11-H ) :  -0.1772 B( 12-H , 31-H ) :   0.1023 B( 13-H , 14-H ) :  -0.1820
B( 15-O , 16-F ) :   0.1247 B( 17-C , 19-H ) :   0.1088 B( 17-C , 26-C ) :   1.1050
B( 17-C , 27-H ) :   0.8544 B( 17-C , 28-H ) :   0.9066 B( 17-C , 30-H ) :   0.1539
B( 18-H , 19-H ) :  -0.1109 B( 20-C , 21-C ) :   1.2166 B( 20-C , 22-H ) :   0.1105
B( 20-C , 23-H ) :   0.1481 B( 20-C , 32-C ) :   1.1329 B( 20-C , 35-H ) :   1.0653
B( 20-C , 36-H ) :   0.8166 B( 20-C , 37-H ) :   0.2567 B( 20-C , 38-H ) :   0.1321
B( 21-C , 22-H ) :   0.9231 B( 21-C , 23-H ) :   0.9040 B( 21-C , 24-H ) :   0.2319
B( 21-C , 25-H ) :   0.1619 B( 21-C , 35-H ) :   0.1147 B( 21-C , 36-H ) :   0.1022
B( 24-H , 25-H ) :  -0.1064 B( 26-C , 27-H ) :   0.1737 B( 26-C , 28-H ) :   0.1153
B( 26-C , 29-C ) :   1.2199 B( 26-C , 30-H ) :   0.6296 B( 26-C , 31-H ) :   0.2908
B( 26-C , 33-H ) :   0.1168 B( 26-C , 34-H ) :   0.1259 B( 29-C , 31-H ) :   0.1224
B( 29-C , 32-C ) :   1.1047 B( 29-C , 33-H ) :   1.0490 B( 29-C , 34-H ) :   0.8410
B( 29-C , 37-H ) :   0.1139 B( 29-C , 38-H ) :   0.2290 B( 30-H , 31-H ) :   0.2639
B( 31-H , 36-H ) :   0.1059 B( 32-C , 37-H ) :   0.6882 B( 32-C , 38-H ) :   0.6880
B( 37-H , 38-H ) :  -0.1010

Dispersion correction           -0.020074327
FINAL SINGLE POINT ENERGY      -754.962517023154

DIPOLE MOMENT
-------------
                                X             Y             Z
Electronic contribution:     14.26522       8.78144       3.65742
Nuclear contribution   :    -13.61164      -8.17416      -5.14068
                        -----------------------------------------
Total Dipole Moment    :      0.65358       0.60728      -1.48325
                        -----------------------------------------
Magnitude (a.u.)       :      1.73089
Magnitude (Debye)      :      4.39958

Rotational constants in cm-1:     0.019858     0.013613     0.009401
Rotational constants in MHz :   595.331791   408.100423   281.843625

                             ****ORCA TERMINATED NORMALLY****
TOTAL RUN TIME: 0 days 0 hours 2 minutes 15 seconds 552 msec
