                         Program Version 5.0.0 -  RELEASE  -
|  1> !wB97X-D3 RIJCOSX def2-SVPD def2/J TightSCF xyzfile
|  2>
|  3> *xyzfile 0 1 D5.xyz
|  4>
|  5> %MaxCore 64000
|  6>
|  7> %pal nprocs 18
|  8> end
|  9>
| 10> %scf
| 11>   MaxIter 150
| 12> end
| 13>
| 14>
| 15>                          ****END OF INPUT****

CARTESIAN COORDINATES (ANGSTROEM)
---------------------------------
  C      3.913853   -1.658291    3.015134
  N      5.039266   -0.901154    2.492821
  C      4.084215    1.742081   -2.114724
  C      4.265245    2.500518   -0.795890
  H      4.868534    3.392674   -0.981134
  H      3.307640    2.824571   -0.387809
  C      4.982240    1.650257    0.247422
  C      6.210384   -1.417261    2.178244
  C      6.535913   -2.677122    2.556078
  N      7.076754   -0.700820    1.478906
  H      7.954643   -1.121554    1.207554
  H      6.756161    0.106637    0.960278
  H      4.842168    0.017609    2.115191
  H      5.993876   -3.126918    3.282784
  H      7.498441   -2.975482    2.468776
  O      4.368065    1.389270    1.313706
  F      6.128919    1.233512   -0.045620
  C      3.139159   -2.376572    1.910609
  H      3.267235   -0.939401    3.520693
  H      4.247195   -2.355095    3.790065
  C      1.997274    0.430918   -1.399218
  C      3.412746    0.376886   -1.965497
  H      4.047407   -0.246590   -1.326706
  H      3.390774   -0.118719   -2.942839
  H      5.068475    1.598504   -2.565728
  H      3.503356    2.363939   -2.804565
  C      2.399946   -1.389579    1.009490
  H      2.440750   -3.087118    2.362976
  H      3.844475   -2.970462    1.318677
  C      2.070177   -1.936705   -0.372401
  H      1.481611   -1.061542    1.509912
  H      3.008628   -0.490001    0.897451
  C      1.322238   -0.935775   -1.256413
  H      1.472747   -2.850902   -0.283997
  H      3.003539   -2.234041   -0.862535
  H      1.376444    1.058920   -2.047420
  H      2.015341    0.929780   -0.426535
  H      0.316648   -0.787213   -0.848278
  H      1.185611   -1.379252   -2.248613

 Total Charge           Charge          ....    0
 Multiplicity           Mult            ....    1
 Number of Electrons    NEL             ....  126
 Basis Dimension        Dim             ....  510

ORBITAL ENERGIES
----------------

  NO   OCC          E(Eh)            E(eV)
   0   2.0000     -24.919829      -678.1030
   1   2.0000     -19.294315      -525.0250
   2   2.0000     -14.414305      -392.2332
   3   2.0000     -14.402908      -391.9231
   4   2.0000     -10.513566      -286.0887
   5   2.0000     -10.342099      -281.4228
   6   2.0000     -10.323365      -280.9130
   7   2.0000     -10.317768      -280.7607
   8   2.0000     -10.305149      -280.4174
   9   2.0000     -10.301069      -280.3063
  10   2.0000     -10.294293      -280.1220
  11   2.0000     -10.287290      -279.9314
  12   2.0000     -10.279552      -279.7208
  13   2.0000     -10.272703      -279.5345
  14   2.0000     -10.267135      -279.3829
  15   2.0000     -10.178974      -276.9840
  16   2.0000      -1.472323       -40.0639
  17   2.0000      -1.185061       -32.2471
  18   2.0000      -1.059535       -28.8314
  19   2.0000      -0.976262       -26.5654
  20   2.0000      -0.959206       -26.1013
  21   2.0000      -0.921713       -25.0811
  22   2.0000      -0.884263       -24.0620
  23   2.0000      -0.853984       -23.2381
  24   2.0000      -0.818651       -22.2766
  25   2.0000      -0.804027       -21.8787
  26   2.0000      -0.790103       -21.4998
  27   2.0000      -0.759294       -20.6614
  28   2.0000      -0.727629       -19.7998
  29   2.0000      -0.703069       -19.1315
  30   2.0000      -0.701446       -19.0873
  31   2.0000      -0.698853       -19.0168
  32   2.0000      -0.661925       -18.0119
  33   2.0000      -0.657567       -17.8933
  34   2.0000      -0.638959       -17.3870
  35   2.0000      -0.611603       -16.6426
  36   2.0000      -0.605038       -16.4639
  37   2.0000      -0.595215       -16.1966
  38   2.0000      -0.591464       -16.0945
  39   2.0000      -0.570261       -15.5176
  40   2.0000      -0.553654       -15.0657
  41   2.0000      -0.547359       -14.8944
  42   2.0000      -0.533842       -14.5266
  43   2.0000      -0.523518       -14.2457
  44   2.0000      -0.515240       -14.0204
  45   2.0000      -0.514149       -13.9907
  46   2.0000      -0.501897       -13.6573
  47   2.0000      -0.489714       -13.3258
  48   2.0000      -0.486746       -13.2450
  49   2.0000      -0.475620       -12.9423
  50   2.0000      -0.466731       -12.7004
  51   2.0000      -0.457064       -12.4373
  52   2.0000      -0.452956       -12.3255
  53   2.0000      -0.444798       -12.1036
  54   2.0000      -0.437922       -11.9165
  55   2.0000      -0.435633       -11.8542
  56   2.0000      -0.418768       -11.3953
  57   2.0000      -0.411293       -11.1919
  58   2.0000      -0.405576       -11.0363
  59   2.0000      -0.402218       -10.9449
  60   2.0000      -0.397433       -10.8147
  61   2.0000      -0.321154        -8.7390
  62   2.0000      -0.231077        -6.2879
  63   0.0000       0.016267         0.4426
  64   0.0000       0.071789         1.9535
  65   0.0000       0.092715         2.5229
  66   0.0000       0.096103         2.6151
  67   0.0000       0.101607         2.7649

MULLIKEN ATOMIC CHARGES
-----------------------
   0 C :    1.120598
   1 N :    0.234280
   2 C :    0.371814
   3 C :    0.207389
   4 H :   -0.044091
   5 H :    0.152720
   6 C :    0.674689
   7 C :    0.625891
   8 C :    0.587144
   9 N :    0.449659
  10 H :   -0.071397
  11 H :   -0.526006
  12 H :   -1.191567
  13 H :   -0.076172
  14 H :   -0.624027
  15 O :   -0.603428
  16 F :   -0.453070
  17 C :    0.299040
  18 H :   -0.313316
  19 H :   -0.115709
  20 C :   -0.122537
  21 C :   -0.119383
  22 H :   -0.025802
  23 H :   -0.145883
  24 H :    0.003081
  25 H :   -0.081299
  26 C :    0.601975
  27 H :   -0.119582
  28 H :   -0.033934
  29 C :    0.001542
  30 H :   -0.031610
  31 H :   -0.882416
  32 C :    0.677401
  33 H :   -0.375528
  34 H :    0.121535
  35 H :   -0.373125
  36 H :    0.170346
  37 H :    0.029182
  38 H :    0.001597
Sum of atomic charges:    0.0000000

LOEWDIN ATOMIC CHARGES
----------------------
   0 C :    0.067756
   1 N :    0.007339
   2 C :   -0.017894
   3 C :    0.063907
   4 H :    0.042671
   5 H :    0.036266
   6 C :    0.063133
   7 C :   -0.215112
   8 C :    0.143815
   9 N :    0.205522
  10 H :    0.012710
  11 H :   -0.090043
  12 H :   -0.096202
  13 H :   -0.123643
  14 H :   -0.111777
  15 O :   -0.111912
  16 F :   -0.019818
  17 C :   -0.013445
  18 H :    0.026576
  19 H :    0.011586
  20 C :   -0.032738
  21 C :   -0.028414
  22 H :    0.014579
  23 H :    0.034680
  24 H :    0.026664
  25 H :    0.032637
  26 C :   -0.035690
  27 H :    0.023859
  28 H :    0.018666
  29 C :   -0.039081
  30 H :    0.035782
  31 H :   -0.028615
  32 C :   -0.031411
  33 H :    0.026626
  34 H :    0.019357
  35 H :    0.026651
  36 H :    0.007808
  37 H :    0.024821
  38 H :    0.022387

  Mayer bond orders larger than 0.100000
B(  0-C ,  1-N ) :   0.9130 B(  0-C , 12-H ) :  -0.5226 B(  0-C , 17-C ) :   1.0419
B(  0-C , 18-H ) :   0.7269 B(  0-C , 19-H ) :   0.7730 B(  0-C , 26-C ) :   0.1182
B(  1-N ,  7-C ) :   0.9059 B(  1-N ,  8-C ) :   0.3924 B(  1-N , 12-H ) :   0.8951
B(  1-N , 18-H ) :   0.2069 B(  2-C ,  3-C ) :   1.1596 B(  2-C ,  4-H ) :   0.1628
B(  2-C , 21-C ) :   1.2271 B(  2-C , 24-H ) :   0.7124 B(  2-C , 25-H ) :   0.8489
B(  3-C ,  4-H ) :   0.7054 B(  3-C ,  5-H ) :   0.7920 B(  3-C ,  6-C ) :   1.1881
B(  3-C , 25-H ) :   0.1329 B(  4-H ,  6-C ) :   0.2379 B(  5-H ,  6-C ) :   0.1726
B(  6-C , 15-O ) :   1.6851 B(  6-C , 16-F ) :   0.5169 B(  7-C ,  8-C ) :   1.6863
B(  7-C ,  9-N ) :   0.9031 B(  7-C , 11-H ) :  -0.1187 B(  7-C , 12-H ) :  -0.5685
B(  7-C , 13-H ) :   0.3522 B(  7-C , 14-H ) :   0.3586 B(  8-C ,  9-N ) :   0.2366
B(  8-C , 13-H ) :   0.5906 B(  8-C , 14-H ) :   0.6139 B(  9-N , 10-H ) :   1.1365
B(  9-N , 11-H ) :   1.0187 B( 10-H , 11-H ) :  -0.2274 B( 11-H , 12-H ) :   0.1142
B( 11-H , 16-F ) :   0.1228 B( 12-H , 15-O ) :   0.2336 B( 12-H , 18-H ) :   0.1302
B( 13-H , 19-H ) :   0.1361 B( 17-C , 19-H ) :   0.1407 B( 17-C , 26-C ) :   1.1154
B( 17-C , 27-H ) :   0.9193 B( 17-C , 28-H ) :   0.9237 B( 17-C , 30-H ) :   0.1240
B( 18-H , 19-H ) :  -0.2373 B( 20-C , 21-C ) :   1.2094 B( 20-C , 22-H ) :   0.1084
B( 20-C , 23-H ) :   0.1470 B( 20-C , 32-C ) :   1.1489 B( 20-C , 35-H ) :   1.0422
B( 20-C , 36-H ) :   0.8223 B( 20-C , 37-H ) :   0.2575 B( 20-C , 38-H ) :   0.1365
B( 21-C , 22-H ) :   0.9271 B( 21-C , 23-H ) :   0.9091 B( 21-C , 24-H ) :   0.2267
B( 21-C , 25-H ) :   0.1640 B( 21-C , 35-H ) :   0.1199 B( 21-C , 36-H ) :   0.1025
B( 24-H , 25-H ) :  -0.1055 B( 26-C , 27-H ) :   0.1578 B( 26-C , 29-C ) :   1.2307
B( 26-C , 30-H ) :   0.6244 B( 26-C , 31-H ) :   0.3134 B( 26-C , 34-H ) :   0.1447
B( 27-H , 31-H ) :   0.1039 B( 29-C , 31-H ) :   0.1193 B( 29-C , 32-C ) :   1.1048
B( 29-C , 33-H ) :   1.0538 B( 29-C , 34-H ) :   0.8353 B( 29-C , 37-H ) :   0.1127
B( 29-C , 38-H ) :   0.2157 B( 30-H , 31-H ) :   0.3211 B( 31-H , 36-H ) :   0.1073
B( 32-C , 37-H ) :   0.6854 B( 32-C , 38-H ) :   0.7059 B( 37-H , 38-H ) :  -0.1027

Dispersion correction           -0.020119603
FINAL SINGLE POINT ENERGY      -754.971297921771

DIPOLE MOMENT
-------------
                                X             Y             Z
Electronic contribution:     12.76141      10.40915       3.21696
Nuclear contribution   :    -13.35170      -8.48261      -5.12969
                        -----------------------------------------
Total Dipole Moment    :     -0.59029       1.92653      -1.91273
                        -----------------------------------------
Magnitude (a.u.)       :      2.77822
Magnitude (Debye)      :      7.06168

Rotational constants in cm-1:     0.019886     0.013843     0.009504
Rotational constants in MHz :   596.157485   415.004628   284.931121

                             ****ORCA TERMINATED NORMALLY****
TOTAL RUN TIME: 0 days 0 hours 2 minutes 22 seconds 269 msec
