                         Program Version 5.0.0 -  RELEASE  -
|  1> !wB97X-D3 RIJCOSX def2-SVPD def2/J TightSCF
|  2> *xyz -1 1
|  3> C          0.64866        1.00359       -3.64560
|  4> C          0.13297        2.38587       -4.02462
|  5> C         -1.36646        2.47911       -4.31393
|  6> C         -2.35773        2.30686       -3.13675
|  7> H         -1.63680        1.72709       -5.06399
|  8> H         -1.58235        3.44561       -4.76869
|  9> O         -3.44376        2.84652       -3.25274
| 10> O         -1.97092        1.58304       -2.15123
| 11> H          0.41484        3.10285       -3.24517
| 12> H          0.68317        2.68756       -4.91972
| 13> H          0.37534        0.30051       -4.40446
| 14> H          0.21856        0.70606       -2.71212
| 15> H          1.71431        1.03324       -3.55398
| 16> *
| 17> %MaxCore 64000
| 18>
| 19> %pal nprocs 18
| 20> end
| 21>
| 22> %scf
| 23>   MaxIter 150
| 24> end
| 25>
| 26>
| 27>                          ****END OF INPUT****

CARTESIAN COORDINATES (ANGSTROEM)
---------------------------------
  C      0.648660    1.003590   -3.645600
  C      0.132970    2.385870   -4.024620
  C     -1.366460    2.479110   -4.313930
  C     -2.357730    2.306860   -3.136750
  H     -1.636800    1.727090   -5.063990
  H     -1.582350    3.445610   -4.768690
  O     -3.443760    2.846520   -3.252740
  O     -1.970920    1.583040   -2.151230
  H      0.414840    3.102850   -3.245170
  H      0.683170    2.687560   -4.919720
  H      0.375340    0.300510   -4.404460
  H      0.218560    0.706060   -2.712120
  H      1.714310    1.033240   -3.553980

 Total Charge           Charge          ....   -1
 Multiplicity           Mult            ....    1
 Number of Electrons    NEL             ....   48
 Basis Dimension        Dim             ....  182

ORBITAL ENERGIES
----------------

  NO   OCC          E(Eh)            E(eV)
   0   2.0000     -18.990850      -516.7673
   1   2.0000     -18.979935      -516.4703
   2   2.0000     -10.181378      -277.0494
   3   2.0000     -10.141190      -275.9558
   4   2.0000     -10.127369      -275.5797
   5   2.0000     -10.118336      -275.3339
   6   2.0000      -0.938745       -25.5445
   7   2.0000      -0.835933       -22.7469
   8   2.0000      -0.746263       -20.3069
   9   2.0000      -0.648877       -17.6568
  10   2.0000      -0.550385       -14.9768
  11   2.0000      -0.430791       -11.7224
  12   2.0000      -0.397728       -10.8227
  13   2.0000      -0.391625       -10.6567
  14   2.0000      -0.360528        -9.8105
  15   2.0000      -0.331606        -9.0235
  16   2.0000      -0.318831        -8.6758
  17   2.0000      -0.304681        -8.2908
  18   2.0000      -0.287684        -7.8283
  19   2.0000      -0.274419        -7.4673
  20   2.0000      -0.261163        -7.1066
  21   2.0000      -0.147908        -4.0248
  22   2.0000      -0.140088        -3.8120
  23   2.0000      -0.128989        -3.5100
  24   0.0000       0.215619         5.8673
  25   0.0000       0.241179         6.5628
  26   0.0000       0.251586         6.8460
  27   0.0000       0.262876         7.1532
  28   0.0000       0.293510         7.9868

MULLIKEN ATOMIC CHARGES
-----------------------
   0 C :    0.677879
   1 C :   -0.331839
   2 C :   -0.029495
   3 C :    0.441879
   4 H :    0.053833
   5 H :   -0.014596
   6 O :   -0.644740
   7 O :   -0.751748
   8 H :   -0.091448
   9 H :   -0.060289
  10 H :   -0.069820
  11 H :   -0.132430
  12 H :   -0.047188
Sum of atomic charges:   -1.0000000

LOEWDIN ATOMIC CHARGES
----------------------
   0 C :    0.098155
   1 C :   -0.096190
   2 C :    0.001112
   3 C :   -0.290643
   4 H :    0.015698
   5 H :    0.000462
   6 O :   -0.304015
   7 O :   -0.334606
   8 H :    0.017677
   9 H :   -0.003271
  10 H :   -0.026453
  11 H :   -0.040377
  12 H :   -0.037550

  Mayer bond orders larger than 0.100000
B(  0-C ,  1-C ) :   1.2556 B(  0-C , 10-H ) :   0.8026 B(  0-C , 11-H ) :   0.8640
B(  0-C , 12-H ) :   0.7689 B(  1-C ,  2-C ) :   1.1599 B(  1-C ,  4-H ) :   0.1159
B(  1-C ,  5-H ) :   0.1146 B(  1-C ,  8-H ) :   0.9623 B(  1-C ,  9-H ) :   0.8771
B(  1-C , 10-H ) :   0.1888 B(  1-C , 11-H ) :   0.2124 B(  1-C , 12-H ) :   0.1998
B(  2-C ,  3-C ) :   1.0069 B(  2-C ,  4-H ) :   0.8500 B(  2-C ,  5-H ) :   0.9307
B(  2-C ,  8-H ) :   0.1282 B(  2-C ,  9-H ) :   0.1122 B(  3-C ,  5-H ) :   0.1453
B(  3-C ,  6-O ) :   1.5617 B(  3-C ,  7-O ) :   1.4695

Dispersion correction           -0.003229898
FINAL SINGLE POINT ENERGY      -306.861505327480

DIPOLE MOMENT
-------------
                                X             Y             Z
Electronic contribution:     -7.17913       1.46921       3.09508
Nuclear contribution   :      9.31936      -1.53308      -4.48293
                        -----------------------------------------
Total Dipole Moment    :      2.14023      -0.06387      -1.38786
                        -----------------------------------------
Magnitude (a.u.)       :      2.55162
Magnitude (Debye)      :      6.48572

Rotational constants in cm-1:     0.250458     0.077448     0.063252
Rotational constants in MHz :  7508.538874  2321.842942  1896.252250

                             ****ORCA TERMINATED NORMALLY****
TOTAL RUN TIME: 0 days 0 hours 0 minutes 10 seconds 63 msec
