                         Program Version 5.0.0 -  RELEASE  -
|  1> !wB97X-D3 RIJCOSX def2-SVPD def2/J TightSCF
|  2> *xyz 1 1
|  3> C          0.64866        1.00359       -3.64560
|  4> N          0.28128        0.67645       -2.24018
|  5> C          0.13297        2.38587       -4.02462
|  6> C         -1.36646        2.47911       -4.31393
|  7> H          0.39079       -0.31925       -2.02649
|  8> H         -0.69269        0.99010       -2.13812
|  9> H          0.85421        1.21221       -1.57528
| 10> H          0.19099        0.23965       -4.27575
| 11> H          1.73157        0.93173       -3.75075
| 12> H          0.41484        3.10285       -3.24517
| 13> H          0.68317        2.68756       -4.91972
| 14> H         -1.62719        1.77449       -5.07580
| 15> H         -1.60483        3.46796       -4.64597
| 16> H         -1.91603        2.26007       -3.42236
| 17> *
| 18> %MaxCore 64000
| 19>
| 20> %pal nprocs 18
| 21> end
| 22>
| 23> %scf
| 24>   MaxIter 150
| 25> end
| 26>
| 27>
| 28>                          ****END OF INPUT****

CARTESIAN COORDINATES (ANGSTROEM)
---------------------------------
  C      0.648660    1.003590   -3.645600
  N      0.281280    0.676450   -2.240180
  C      0.132970    2.385870   -4.024620
  C     -1.366460    2.479110   -4.313930
  H      0.390790   -0.319250   -2.026490
  H     -0.692690    0.990100   -2.138120
  H      0.854210    1.212210   -1.575280
  H      0.190990    0.239650   -4.275750
  H      1.731570    0.931730   -3.750750
  H      0.414840    3.102850   -3.245170
  H      0.683170    2.687560   -4.919720
  H     -1.627190    1.774490   -5.075800
  H     -1.604830    3.467960   -4.645970
  H     -1.916030    2.260070   -3.422360

 Total Charge           Charge          ....    1
 Multiplicity           Mult            ....    1
 Number of Electrons    NEL             ....   34
 Basis Dimension        Dim             ....  160

ORBITAL ENERGIES
----------------

  NO   OCC          E(Eh)            E(eV)
   0   2.0000     -14.768703      -401.8768
   1   2.0000     -10.537640      -286.7438
   2   2.0000     -10.469924      -284.9011
   3   2.0000     -10.436076      -283.9801
   4   2.0000      -1.321282       -35.9539
   5   2.0000      -1.084264       -29.5043
   6   2.0000      -0.991113       -26.9695
   7   2.0000      -0.910397       -24.7732
   8   2.0000      -0.901026       -24.5182
   9   2.0000      -0.872375       -23.7385
  10   2.0000      -0.791208       -21.5299
  11   2.0000      -0.729780       -19.8583
  12   2.0000      -0.709133       -19.2965
  13   2.0000      -0.684783       -18.6339
  14   2.0000      -0.624696       -16.9988
  15   2.0000      -0.613331       -16.6896
  16   2.0000      -0.609712       -16.5911
  17   0.0000      -0.107388        -2.9222
  18   0.0000      -0.049989        -1.3603
  19   0.0000      -0.047769        -1.2999
  20   0.0000      -0.039626        -1.0783
  21   0.0000      -0.012318        -0.3352

MULLIKEN ATOMIC CHARGES
-----------------------
   0 C :    0.549105
   1 N :   -0.851160
   2 C :   -0.405062
   3 C :    0.674179
   4 H :    0.352366
   5 H :    0.411006
   6 H :    0.428620
   7 H :    0.009000
   8 H :   -0.047374
   9 H :   -0.021892
  10 H :    0.019972
  11 H :    0.032486
  12 H :    0.017580
  13 H :   -0.168825
Sum of atomic charges:    1.0000000

LOEWDIN ATOMIC CHARGES
----------------------
   0 C :    0.088286
   1 N :    0.332782
   2 C :   -0.052241
   3 C :    0.149159
   4 H :    0.109634
   5 H :    0.086441
   6 H :    0.111791
   7 H :    0.054474
   8 H :    0.053207
   9 H :    0.035270
  10 H :    0.044930
  11 H :    0.000558
  12 H :    0.008600
  13 H :   -0.022889

  Mayer bond orders larger than 0.100000
B(  0-C ,  1-N ) :   0.7272 B(  0-C ,  2-C ) :   1.1614 B(  0-C ,  7-H ) :   0.9200
B(  0-C ,  8-H ) :   0.9245 B(  0-C , 10-H ) :   0.1015 B(  1-N ,  4-H ) :   0.7784
B(  1-N ,  5-H ) :   0.6830 B(  1-N ,  6-H ) :   0.7289 B(  1-N ,  8-H ) :   0.1113
B(  2-C ,  3-C ) :   1.2469 B(  2-C ,  9-H ) :   0.9710 B(  2-C , 10-H ) :   0.9327
B(  2-C , 11-H ) :   0.1620 B(  2-C , 12-H ) :   0.1959 B(  2-C , 13-H ) :   0.1684
B(  3-C , 11-H ) :   0.8079 B(  3-C , 12-H ) :   0.8129 B(  3-C , 13-H ) :   0.8426
B( 11-H , 13-H ) :   0.1011

Dispersion correction           -0.002772360
FINAL SINGLE POINT ENERGY      -174.688899918686

DIPOLE MOMENT
-------------
                                X             Y             Z
Electronic contribution:      1.31550      -1.47756       1.59557
Nuclear contribution   :     -0.74670       0.28200      -0.02386
                        -----------------------------------------
Total Dipole Moment    :      0.56880      -1.19557       1.57171
                        -----------------------------------------
Magnitude (a.u.)       :      2.05504
Magnitude (Debye)      :      5.22349

Rotational constants in cm-1:     0.472563     0.149855     0.132807
Rotational constants in MHz : 14167.078489  4492.544970  3981.441276

                             ****ORCA TERMINATED NORMALLY****
TOTAL RUN TIME: 0 days 0 hours 0 minutes 7 seconds 424 msec
