                         Program Version 5.0.0 -  RELEASE  -
|  1> !wB97X-D3 RIJCOSX def2-SVPD def2/J TightSCF
|  2> *xyz 0 1
|  3> C          0.64866        1.00359       -3.64560
|  4> C          0.13297        2.38587       -4.02462
|  5> C         -1.36646        2.47911       -4.31393
|  6> C         -2.35773        2.30686       -3.13675
|  7> H         -1.63680        1.72709       -5.06399
|  8> H         -1.58235        3.44561       -4.76869
|  9> F         -3.44376        2.84652       -3.25274
| 10> O         -1.97092        1.58304       -2.15123
| 11> H          0.41484        3.10285       -3.24517
| 12> H          0.68317        2.68756       -4.91972
| 13> H          0.37534        0.30051       -4.40446
| 14> H          0.21856        0.70606       -2.71212
| 15> H          1.71431        1.03324       -3.55398
| 16> *
| 17> %MaxCore 64000
| 18>
| 19> %pal nprocs 18
| 20> end
| 21>
| 22> %scf
| 23>   MaxIter 150
| 24> end
| 25>
| 26>
| 27>                          ****END OF INPUT****

CARTESIAN COORDINATES (ANGSTROEM)
---------------------------------
  C      0.648660    1.003590   -3.645600
  C      0.132970    2.385870   -4.024620
  C     -1.366460    2.479110   -4.313930
  C     -2.357730    2.306860   -3.136750
  H     -1.636800    1.727090   -5.063990
  H     -1.582350    3.445610   -4.768690
  F     -3.443760    2.846520   -3.252740
  O     -1.970920    1.583040   -2.151230
  H      0.414840    3.102850   -3.245170
  H      0.683170    2.687560   -4.919720
  H      0.375340    0.300510   -4.404460
  H      0.218560    0.706060   -2.712120
  H      1.714310    1.033240   -3.553980

 Total Charge           Charge          ....    0
 Multiplicity           Mult            ....    1
 Number of Electrons    NEL             ....   48
 Basis Dimension        Dim             ....  182

ORBITAL ENERGIES
----------------

  NO   OCC          E(Eh)            E(eV)
   0   2.0000     -24.890849      -677.3144
   1   2.0000     -19.251855      -523.8696
   2   2.0000     -10.480754      -285.1958
   3   2.0000     -10.324227      -280.9365
   4   2.0000     -10.301680      -280.3230
   5   2.0000     -10.269277      -279.4412
   6   2.0000      -1.455739       -39.6127
   7   2.0000      -1.126786       -30.6614
   8   2.0000      -0.920654       -25.0523
   9   2.0000      -0.841289       -22.8926
  10   2.0000      -0.782122       -21.2826
  11   2.0000      -0.720545       -19.6070
  12   2.0000      -0.677197       -18.4275
  13   2.0000      -0.653184       -17.7740
  14   2.0000      -0.612010       -16.6536
  15   2.0000      -0.564888       -15.3714
  16   2.0000      -0.555005       -15.1024
  17   2.0000      -0.520813       -14.1720
  18   2.0000      -0.488651       -13.2969
  19   2.0000      -0.457376       -12.4458
  20   2.0000      -0.452311       -12.3080
  21   2.0000      -0.442019       -12.0280
  22   2.0000      -0.435691       -11.8558
  23   2.0000      -0.383278       -10.4295
  24   0.0000       0.051247         1.3945
  25   0.0000       0.085540         2.3277
  26   0.0000       0.108846         2.9618
  27   0.0000       0.122276         3.3273
  28   0.0000       0.126009         3.4289

MULLIKEN ATOMIC CHARGES
-----------------------
   0 C :    0.666805
   1 C :   -0.362043
   2 C :   -0.116460
   3 C :    0.775985
   4 H :    0.147263
   5 H :    0.057443
   6 F :   -0.350450
   7 O :   -0.530281
   8 H :   -0.063804
   9 H :   -0.023631
  10 H :   -0.048117
  11 H :   -0.141307
  12 H :   -0.011403
Sum of atomic charges:    0.0000000

LOEWDIN ATOMIC CHARGES
----------------------
   0 C :    0.121768
   1 C :   -0.068511
   2 C :    0.039519
   3 C :    0.011359
   4 H :    0.043062
   5 H :    0.023291
   6 F :   -0.009858
   7 O :   -0.152284
   8 H :    0.030397
   9 H :    0.021960
  10 H :   -0.013959
  11 H :   -0.031559
  12 H :   -0.015186

  Mayer bond orders larger than 0.100000
B(  0-C ,  1-C ) :   1.2807 B(  0-C , 10-H ) :   0.8015 B(  0-C , 11-H ) :   0.8698
B(  0-C , 12-H ) :   0.7813 B(  1-C ,  2-C ) :   1.2167 B(  1-C ,  4-H ) :   0.1136
B(  1-C ,  5-H ) :   0.1250 B(  1-C ,  8-H ) :   0.9670 B(  1-C ,  9-H ) :   0.8924
B(  1-C , 10-H ) :   0.1807 B(  1-C , 11-H ) :   0.1989 B(  1-C , 12-H ) :   0.1896
B(  2-C ,  3-C ) :   1.0889 B(  2-C ,  4-H ) :   0.8278 B(  2-C ,  5-H ) :   0.8876
B(  2-C ,  8-H ) :   0.1165 B(  3-C ,  6-F ) :   0.7723 B(  3-C ,  7-O ) :   1.7924

Dispersion correction           -0.003188271
FINAL SINGLE POINT ENERGY      -331.381388552867

DIPOLE MOMENT
-------------
                                X             Y             Z
Electronic contribution:    -11.46301       2.91647       3.60205
Nuclear contribution   :     11.62992      -2.38586      -4.66016
                        -----------------------------------------
Total Dipole Moment    :      0.16691       0.53060      -1.05811
                        -----------------------------------------
Magnitude (a.u.)       :      1.19540
Magnitude (Debye)      :      3.03848

Rotational constants in cm-1:     0.249088     0.072929     0.060128
Rotational constants in MHz :  7467.482637  2186.350475  1802.579568

                             ****ORCA TERMINATED NORMALLY****
TOTAL RUN TIME: 0 days 0 hours 0 minutes 11 seconds 327 msec
