                         Program Version 5.0.0 -  RELEASE  -
|  1> !wB97X-D3 RIJCOSX def2-SVPD def2/J TightSCF
|  2> *xyz 0 1
|  3> C          0.64866        1.00359       -3.64560
|  4> C          0.28128        0.67645       -2.24018
|  5> C          0.13297        2.38587       -4.02462
|  6> C         -1.36646        2.47911       -4.31393
|  7> H          0.39079       -0.31925       -2.02649
|  8> H         -0.69269        0.99010       -2.13812
|  9> H          0.85421        1.21221       -1.57528
| 10> H          0.19099        0.23965       -4.27575
| 11> H          1.73157        0.93173       -3.75075
| 12> H          0.41484        3.10285       -3.24517
| 13> H          0.68317        2.68756       -4.91972
| 14> H         -1.62719        1.77449       -5.07580
| 15> H         -1.60483        3.46796       -4.64597
| 16> H         -1.91603        2.26007       -3.42236
| 17> *
| 18> %MaxCore 64000
| 19>
| 20> %pal nprocs 18
| 21> end
| 22>
| 23> %scf
| 24>   MaxIter 150
| 25> end
| 26>
| 27>
| 28>                          ****END OF INPUT****

CARTESIAN COORDINATES (ANGSTROEM)
---------------------------------
  C      0.648660    1.003590   -3.645600
  C      0.281280    0.676450   -2.240180
  C      0.132970    2.385870   -4.024620
  C     -1.366460    2.479110   -4.313930
  H      0.390790   -0.319250   -2.026490
  H     -0.692690    0.990100   -2.138120
  H      0.854210    1.212210   -1.575280
  H      0.190990    0.239650   -4.275750
  H      1.731570    0.931730   -3.750750
  H      0.414840    3.102850   -3.245170
  H      0.683170    2.687560   -4.919720
  H     -1.627190    1.774490   -5.075800
  H     -1.604830    3.467960   -4.645970
  H     -1.916030    2.260070   -3.422360

 Total Charge           Charge          ....    0
 Multiplicity           Mult            ....    1
 Number of Electrons    NEL             ....   34
 Basis Dimension        Dim             ....  160

ORBITAL ENERGIES
----------------

  NO   OCC          E(Eh)            E(eV)
   0   2.0000     -10.279079      -279.7080
   1   2.0000     -10.274164      -279.5742
   2   2.0000     -10.270668      -279.4791
   3   2.0000     -10.248770      -278.8832
   4   2.0000      -0.914706       -24.8904
   5   2.0000      -0.838675       -22.8215
   6   2.0000      -0.748988       -20.3810
   7   2.0000      -0.672667       -18.3042
   8   2.0000      -0.572556       -15.5800
   9   2.0000      -0.560027       -15.2391
  10   2.0000      -0.527070       -14.3423
  11   2.0000      -0.492342       -13.3973
  12   2.0000      -0.474680       -12.9167
  13   2.0000      -0.458757       -12.4834
  14   2.0000      -0.419628       -11.4187
  15   2.0000      -0.417529       -11.3615
  16   2.0000      -0.406481       -11.0609
  17   0.0000       0.097577         2.6552
  18   0.0000       0.121147         3.2966
  19   0.0000       0.124352         3.3838
  20   0.0000       0.130284         3.5452
  21   0.0000       0.176549         4.8041

MULLIKEN ATOMIC CHARGES
-----------------------
   0 C :   -0.285044
   1 C :    1.079083
   2 C :   -0.353590
   3 C :    0.673382
   4 H :   -0.186290
   5 H :   -0.408431
   6 H :   -0.068176
   7 H :   -0.025804
   8 H :   -0.126979
   9 H :   -0.047050
  10 H :   -0.077396
  11 H :    0.014637
  12 H :   -0.022451
  13 H :   -0.165891
Sum of atomic charges:   -0.0000000

LOEWDIN ATOMIC CHARGES
----------------------
   0 C :   -0.081919
   1 C :    0.121674
   2 C :   -0.085925
   3 C :    0.122463
   4 H :   -0.029947
   5 H :   -0.044359
   6 H :   -0.025457
   7 H :    0.023584
   8 H :    0.021291
   9 H :    0.024701
  10 H :    0.014087
  11 H :   -0.015198
  12 H :   -0.017050
  13 H :   -0.027946

  Mayer bond orders larger than 0.100000
B(  0-C ,  1-C ) :   1.1846 B(  0-C ,  2-C ) :   1.1592 B(  0-C ,  4-H ) :   0.1977
B(  0-C ,  5-H ) :   0.2910 B(  0-C ,  6-H ) :   0.2017 B(  0-C ,  7-H ) :   0.9105
B(  0-C ,  8-H ) :   0.9634 B(  0-C ,  9-H ) :   0.1110 B(  1-C ,  4-H ) :   0.7149
B(  1-C ,  5-H ) :   0.6395 B(  1-C ,  6-H ) :   0.6712 B(  2-C ,  3-C ) :   1.2353
B(  2-C ,  8-H ) :   0.1073 B(  2-C ,  9-H ) :   0.9481 B(  2-C , 10-H ) :   0.9628
B(  2-C , 11-H ) :   0.1860 B(  2-C , 12-H ) :   0.2010 B(  2-C , 13-H ) :   0.1878
B(  3-C , 11-H ) :   0.7944 B(  3-C , 12-H ) :   0.7856 B(  3-C , 13-H ) :   0.8552
B(  5-H ,  6-H ) :   0.1703

Dispersion correction           -0.002677149
FINAL SINGLE POINT ENERGY      -158.289260878460

DIPOLE MOMENT
-------------
                                X             Y             Z
Electronic contribution:      0.64983       0.01959      -0.38483
Nuclear contribution   :     -0.63302      -0.01177       0.37643
                        -----------------------------------------
Total Dipole Moment    :      0.01681       0.00782      -0.00840
                        -----------------------------------------
Magnitude (a.u.)       :      0.02035
Magnitude (Debye)      :      0.05173

Rotational constants in cm-1:     0.480601     0.156500     0.138605
Rotational constants in MHz : 14408.061205  4691.756081  4155.280646

                             ****ORCA TERMINATED NORMALLY****
TOTAL RUN TIME: 0 days 0 hours 0 minutes 8 seconds 355 msec
