                         Program Version 5.0.0 -  RELEASE  -
|  1> !wB97X-D3 RIJCOSX def2-SVPD def2/J TightSCF
|  2> *xyz 0 1
|  3> C          0.64866        1.00359       -3.64560
|  4> C          0.13297        2.38587       -4.02462
|  5> C         -1.36646        2.47911       -4.31393
|  6> C         -2.35773        2.30686       -3.13675
|  7> H         -1.63680        1.72709       -5.06399
|  8> H         -1.58235        3.44561       -4.76869
|  9> O         -3.44376        2.84652       -3.25274
| 10> F         -1.97092        1.58304       -2.15123
| 11> H          0.41484        3.10285       -3.24517
| 12> H          0.68317        2.68756       -4.91972
| 13> H          0.37534        0.30051       -4.40446
| 14> H          0.21856        0.70606       -2.71212
| 15> H          1.71431        1.03324       -3.55398
| 16> *
| 17> %MaxCore 64000
| 18>
| 19> %pal nprocs 18
| 20> end
| 21>
| 22> %scf
| 23>   MaxIter 150
| 24> end
| 25>
| 26>
| 27>                          ****END OF INPUT****

CARTESIAN COORDINATES (ANGSTROEM)
---------------------------------
  C      0.648660    1.003590   -3.645600
  C      0.132970    2.385870   -4.024620
  C     -1.366460    2.479110   -4.313930
  C     -2.357730    2.306860   -3.136750
  H     -1.636800    1.727090   -5.063990
  H     -1.582350    3.445610   -4.768690
  O     -3.443760    2.846520   -3.252740
  F     -1.970920    1.583040   -2.151230
  H      0.414840    3.102850   -3.245170
  H      0.683170    2.687560   -4.919720
  H      0.375340    0.300510   -4.404460
  H      0.218560    0.706060   -2.712120
  H      1.714310    1.033240   -3.553980

 Total Charge           Charge          ....    0
 Multiplicity           Mult            ....    1
 Number of Electrons    NEL             ....   48
 Basis Dimension        Dim             ....  182

ORBITAL ENERGIES
----------------

  NO   OCC          E(Eh)            E(eV)
   0   2.0000     -24.866425      -676.6498
   1   2.0000     -19.261081      -524.1207
   2   2.0000     -10.474598      -285.0283
   3   2.0000     -10.322377      -280.8862
   4   2.0000     -10.306410      -280.4517
   5   2.0000     -10.283458      -279.8271
   6   2.0000      -1.406585       -38.2751
   7   2.0000      -1.166162       -31.7329
   8   2.0000      -0.926492       -25.2111
   9   2.0000      -0.838450       -22.8154
  10   2.0000      -0.761908       -20.7326
  11   2.0000      -0.723713       -19.6932
  12   2.0000      -0.652154       -17.7460
  13   2.0000      -0.640317       -17.4239
  14   2.0000      -0.604731       -16.4556
  15   2.0000      -0.563142       -15.3239
  16   2.0000      -0.559240       -15.2177
  17   2.0000      -0.529220       -14.4008
  18   2.0000      -0.510823       -13.9002
  19   2.0000      -0.474798       -12.9199
  20   2.0000      -0.466756       -12.7011
  21   2.0000      -0.444753       -12.1023
  22   2.0000      -0.443584       -12.0705
  23   2.0000      -0.395559       -10.7637
  24   0.0000       0.057047         1.5523
  25   0.0000       0.084981         2.3124
  26   0.0000       0.112029         3.0485
  27   0.0000       0.115795         3.1509
  28   0.0000       0.123494         3.3604

MULLIKEN ATOMIC CHARGES
-----------------------
   0 C :    0.670089
   1 C :   -0.327147
   2 C :   -0.119752
   3 C :    0.761343
   4 H :    0.136903
   5 H :    0.048506
   6 O :   -0.441077
   7 F :   -0.432865
   8 H :   -0.070819
   9 H :   -0.018436
  10 H :   -0.042585
  11 H :   -0.155483
  12 H :   -0.008676
Sum of atomic charges:    0.0000000

LOEWDIN ATOMIC CHARGES
----------------------
   0 C :    0.117985
   1 C :   -0.078501
   2 C :    0.049652
   3 C :    0.011217
   4 H :    0.044234
   5 H :    0.033381
   6 O :   -0.118807
   7 F :   -0.053474
   8 H :    0.027876
   9 H :    0.022691
  10 H :   -0.012885
  11 H :   -0.030039
  12 H :   -0.013329

  Mayer bond orders larger than 0.100000
B(  0-C ,  1-C ) :   1.2677 B(  0-C , 10-H ) :   0.8078 B(  0-C , 11-H ) :   0.8647
B(  0-C , 12-H ) :   0.7905 B(  1-C ,  2-C ) :   1.1889 B(  1-C ,  4-H ) :   0.1166
B(  1-C ,  5-H ) :   0.1104 B(  1-C ,  8-H ) :   0.9676 B(  1-C ,  9-H ) :   0.8829
B(  1-C , 10-H ) :   0.1814 B(  1-C , 11-H ) :   0.1915 B(  1-C , 12-H ) :   0.1902
B(  2-C ,  3-C ) :   1.0615 B(  2-C ,  4-H ) :   0.8260 B(  2-C ,  5-H ) :   0.9315
B(  2-C ,  8-H ) :   0.1198 B(  2-C ,  9-H ) :   0.1098 B(  3-C ,  5-H ) :   0.1225
B(  3-C ,  6-O ) :   1.8734 B(  3-C ,  7-F ) :   0.7069

Dispersion correction           -0.003170670
FINAL SINGLE POINT ENERGY      -331.398910106604

DIPOLE MOMENT
-------------
                                X             Y             Z
Electronic contribution:     -8.86729       0.74747       5.44451
Nuclear contribution   :      9.96624      -0.95867      -5.90440
                        -----------------------------------------
Total Dipole Moment    :      1.09896      -0.21120      -0.45989
                        -----------------------------------------
Magnitude (a.u.)       :      1.20988
Magnitude (Debye)      :      3.07528

Rotational constants in cm-1:     0.233484     0.076940     0.061803
Rotational constants in MHz :  6999.682494  2306.588565  1852.797552

                             ****ORCA TERMINATED NORMALLY****
TOTAL RUN TIME: 0 days 0 hours 0 minutes 10 seconds 161 msec
