                         Program Version 5.0.0 -  RELEASE  -
|  1> !wB97X-D3 RIJCOSX def2-SVPD def2/J TightSCF xyzfile
|  2>
|  3> *xyzfile 0 1 D1.xyz
|  4>
|  5> %MaxCore 64000
|  6>
|  7> %pal nprocs 18
|  8> end
|  9>
| 10> %scf
| 11>   MaxIter 150
| 12> end
| 13>
| 14>
| 15>                          ****END OF INPUT****

CARTESIAN COORDINATES (ANGSTROEM)
---------------------------------
  C      0.648656    1.003595   -3.645601
  C      0.281280    0.676454   -2.240179
  C      0.132968    2.385869   -4.024618
  C     -1.366462    2.479106   -4.313932
  C     -2.357732    2.306858   -3.136753
  H     -1.636802    1.727095   -5.063993
  H     -1.582347    3.445605   -4.768687
  H      0.390790   -0.319253   -2.026495
  H     -0.692686    0.990104   -2.138123
  H      0.854206    1.212214   -1.575279
  F     -3.443763    2.846518   -3.252744
  O     -1.970922    1.583042   -2.151229
  H      0.190993    0.239655   -4.275752
  H      1.731572    0.931729   -3.750751
  H      0.414839    3.102847   -3.245165
  H      0.683167    2.687560   -4.919721

 Total Charge           Charge          ....    0
 Multiplicity           Mult            ....    1
 Number of Electrons    NEL             ....   56
 Basis Dimension        Dim             ....  218

ORBITAL ENERGIES
----------------

  NO   OCC          E(Eh)            E(eV)
   0   2.0000     -24.901507      -677.6044
   1   2.0000     -19.258314      -524.0454
   2   2.0000     -10.495107      -285.5864
   3   2.0000     -10.330537      -281.1082
   4   2.0000     -10.298981      -280.2495
   5   2.0000     -10.270031      -279.4618
   6   2.0000     -10.197280      -277.4821
   7   2.0000      -1.465932       -39.8900
   8   2.0000      -1.149174       -31.2706
   9   2.0000      -0.929097       -25.2820
  10   2.0000      -0.868586       -23.6354
  11   2.0000      -0.800611       -21.7857
  12   2.0000      -0.768139       -20.9021
  13   2.0000      -0.692094       -18.8328
  14   2.0000      -0.682020       -18.5587
  15   2.0000      -0.667702       -18.1691
  16   2.0000      -0.630788       -17.1646
  17   2.0000      -0.586588       -15.9619
  18   2.0000      -0.553964       -15.0741
  19   2.0000      -0.536887       -14.6094
  20   2.0000      -0.510874       -13.9016
  21   2.0000      -0.482064       -13.1176
  22   2.0000      -0.475518       -12.9395
  23   2.0000      -0.453752       -12.3472
  24   2.0000      -0.439437       -11.9577
  25   2.0000      -0.414166       -11.2700
  26   2.0000      -0.405808       -11.0426
  27   2.0000      -0.340717        -9.2714
  28   0.0000       0.037830         1.0294
  29   0.0000       0.082254         2.2382
  30   0.0000       0.106603         2.9008
  31   0.0000       0.119333         3.2472
  32   0.0000       0.122340         3.3290

MULLIKEN ATOMIC CHARGES
-----------------------
   0 C :   -0.280191
   1 C :    2.031694
   2 C :    0.064732
   3 C :   -0.092850
   4 C :    0.772906
   5 H :    0.205169
   6 H :    0.066257
   7 H :   -0.078824
   8 H :   -1.523120
   9 H :   -0.018792
  10 F :   -0.368976
  11 O :   -0.498967
  12 H :   -0.004092
  13 H :   -0.182809
  14 H :   -0.013212
  15 H :   -0.078924
Sum of atomic charges:   -0.0000000

LOEWDIN ATOMIC CHARGES
----------------------
   0 C :   -0.057736
   1 C :    0.126581
   2 C :   -0.024052
   3 C :    0.061484
   4 C :    0.078903
   5 H :    0.046915
   6 H :    0.025904
   7 H :   -0.027398
   8 H :   -0.200421
   9 H :   -0.021124
  10 F :    0.003338
  11 O :   -0.113661
  12 H :    0.024193
  13 H :    0.018428
  14 H :    0.036563
  15 H :    0.022082

  Mayer bond orders larger than 0.100000
B(  0-C ,  1-C ) :   0.9188 B(  0-C ,  2-C ) :   1.1549 B(  0-C ,  7-H ) :   0.2002
B(  0-C ,  8-H ) :   0.5781 B(  0-C ,  9-H ) :   0.2368 B(  0-C , 12-H ) :   0.8667
B(  0-C , 13-H ) :   0.9564 B(  0-C , 14-H ) :   0.1140 B(  1-C ,  7-H ) :   0.5596
B(  1-C ,  8-H ) :  -1.3883 B(  1-C ,  9-H ) :   0.3308 B(  1-C , 11-O ) :  -0.1562
B(  1-C , 12-H ) :   0.1004 B(  2-C ,  3-C ) :   1.2279 B(  2-C ,  5-H ) :   0.1182
B(  2-C ,  6-H ) :   0.1391 B(  2-C , 13-H ) :   0.1128 B(  2-C , 14-H ) :   0.8906
B(  2-C , 15-H ) :   0.8978 B(  3-C ,  4-C ) :   1.1195 B(  3-C ,  5-H ) :   0.7814
B(  3-C ,  6-H ) :   0.8641 B(  3-C , 10-F ) :   0.1027 B(  3-C , 14-H ) :   0.1133
B(  4-C ,  6-H ) :   0.1012 B(  4-C , 10-F ) :   0.7708 B(  4-C , 11-O ) :   1.6765
B(  7-H ,  8-H ) :   0.1873 B(  7-H ,  9-H ) :  -0.1082 B(  8-H ,  9-H ) :   0.4713
B(  8-H , 11-O ) :   0.2774

Dispersion correction           -0.004674879
FINAL SINGLE POINT ENERGY      -370.602196850661

DIPOLE MOMENT
-------------
                                X             Y             Z
Electronic contribution:    -13.00733       4.59881       1.39738
Nuclear contribution   :     12.79331      -3.91961      -2.45895
                        -----------------------------------------
Total Dipole Moment    :     -0.21402       0.67920      -1.06157
                        -----------------------------------------
Magnitude (a.u.)       :      1.27830
Magnitude (Debye)      :      3.24918

Rotational constants in cm-1:     0.162888     0.059977     0.046450
Rotational constants in MHz :  4883.250030  1798.063289  1392.548669

                             ****ORCA TERMINATED NORMALLY****
TOTAL RUN TIME: 0 days 0 hours 0 minutes 20 seconds 920 msec
