                         Program Version 5.0.0 -  RELEASE  -
|  1> !LC-BLYP RIJCOSX def2-SVPD def2/J TightSCF
|  2> *xyz -1 1
|  3> C          0.70466        1.44313       -4.50363
|  4> C          1.72854        1.42432       -5.63944
|  5> H          2.64672        1.95379       -5.38105
|  6> H          1.29992        1.93061       -6.50361
|  7> S          2.25263       -0.18811       -6.27184
|  8> O          3.56261       -0.44446       -5.63155
|  9> O          2.34494       -0.03374       -7.69650
| 10> O          1.26606       -1.15918       -5.80536
| 11> H         -0.17385        0.91270       -4.80656
| 12> H          0.44778        2.45562       -4.27173
| 13> H          1.12367        0.97423       -3.63791
| 14> *
| 15>
| 16> %MaxCore 64000
| 17>
| 18> %pal nprocs 4
| 19> end
| 20>
| 21> %scf
| 22>   MaxIter 150
| 23> end
| 24>
| 25>
| 26>                          ****END OF INPUT****

CARTESIAN COORDINATES (ANGSTROEM)
---------------------------------
  C      0.704660    1.443130   -4.503630
  C      1.728540    1.424320   -5.639440
  H      2.646720    1.953790   -5.381050
  H      1.299920    1.930610   -6.503610
  S      2.252630   -0.188110   -6.271840
  O      3.562610   -0.444460   -5.631550
  O      2.344940   -0.033740   -7.696500
  O      1.266060   -1.159180   -5.805360
  H     -0.173850    0.912700   -4.806560
  H      0.447780    2.455620   -4.271730
  H      1.123670    0.974230   -3.637910

 Total Charge           Charge          ....   -1
 Multiplicity           Mult            ....    1
 Number of Electrons    NEL             ....   58
 Basis Dimension        Dim             ....  176

ORBITAL ENERGIES
----------------

  NO   OCC          E(Eh)            E(eV)
   0   2.0000     -88.310080     -2403.0395
   1   2.0000     -18.742627      -510.0128
   2   2.0000     -18.735634      -509.8225
   3   2.0000     -18.726901      -509.5849
   4   2.0000      -9.951370      -270.7905
   5   2.0000      -9.947771      -270.6926
   6   2.0000      -7.858967      -213.8534
   7   2.0000      -5.893280      -160.3643
   8   2.0000      -5.893201      -160.3622
   9   2.0000      -5.892740      -160.3496
  10   2.0000      -1.031860       -28.0783
  11   2.0000      -0.886237       -24.1157
  12   2.0000      -0.862915       -23.4811
  13   2.0000      -0.742281       -20.1985
  14   2.0000      -0.617826       -16.8119
  15   2.0000      -0.489120       -13.3096
  16   2.0000      -0.429659       -11.6916
  17   2.0000      -0.425369       -11.5749
  18   2.0000      -0.385952       -10.5023
  19   2.0000      -0.367939       -10.0121
  20   2.0000      -0.365299        -9.9403
  21   2.0000      -0.332659        -9.0521
  22   2.0000      -0.322139        -8.7658
  23   2.0000      -0.256095        -6.9687
  24   2.0000      -0.254891        -6.9359
  25   2.0000      -0.217165        -5.9094
  26   2.0000      -0.209694        -5.7061
  27   2.0000      -0.200739        -5.4624
  28   2.0000      -0.164033        -4.4636
  29   0.0000       0.187748         5.1089
  30   0.0000       0.213188         5.8012
  31   0.0000       0.217532         5.9193
  32   0.0000       0.223548         6.0831
  33   0.0000       0.244102         6.6423

MULLIKEN ATOMIC CHARGES
-----------------------
   0 C :    1.007379
   1 C :   -0.200629
   2 H :   -0.131520
   3 H :   -0.076246
   4 S :    1.090050
   5 O :   -0.762551
   6 O :   -0.701258
   7 O :   -0.747915
   8 H :   -0.125354
   9 H :   -0.209928
  10 H :   -0.142029
Sum of atomic charges:   -1.0000000

LOEWDIN ATOMIC CHARGES
----------------------
   0 C :    0.090153
   1 C :   -0.134093
   2 H :    0.006193
   3 H :   -0.001997
   4 S :    0.811608
   5 O :   -0.587484
   6 O :   -0.559406
   7 O :   -0.566054
   8 H :   -0.018662
   9 H :   -0.029398
  10 H :   -0.010861

  Mayer bond orders larger than 0.100000
B(  0-C ,  1-C ) :   1.2807 B(  0-C ,  3-H ) :   0.1048 B(  0-C ,  8-H ) :   0.7462
B(  0-C ,  9-H ) :   0.6919 B(  0-C , 10-H ) :   0.7532 B(  1-C ,  2-H ) :   0.9492
B(  1-C ,  3-H ) :   0.9434 B(  1-C ,  4-S ) :   0.8905 B(  1-C ,  8-H ) :   0.2391
B(  1-C ,  9-H ) :   0.2562 B(  1-C , 10-H ) :   0.2155 B(  4-S ,  5-O ) :   1.3348
B(  4-S ,  6-O ) :   1.4075 B(  4-S ,  7-O ) :   1.3553

FINAL SINGLE POINT ENERGY      -701.942190175620

DIPOLE MOMENT
-------------
                                X             Y             Z
Electronic contribution:      3.59826      -5.50913      -4.25423
Nuclear contribution   :     -4.50297       7.24642       5.01775
                        -----------------------------------------
Total Dipole Moment    :     -0.90472       1.73728       0.76353
                        -----------------------------------------
Magnitude (a.u.)       :      2.10229
Magnitude (Debye)      :      5.34361

Rotational constants in cm-1:     0.162459     0.081286     0.079601
Rotational constants in MHz :  4870.394399  2436.893583  2386.374948

                             ****ORCA TERMINATED NORMALLY****
TOTAL RUN TIME: 0 days 0 hours 0 minutes 26 seconds 411 msec
