                         Program Version 5.0.0 -  RELEASE  -
|  1> !LC-BLYP RIJCOSX def2-SVPD def2/J TightSCF
|  2> *xyz 1 1
|  3> C          2.91632       -1.24259       -1.54313
|  4> C          3.46659       -1.59097       -2.88908
|  5> N          4.65227       -1.14316       -3.25969
|  6> N          2.75226       -2.29204       -3.72803
|  7> H          1.77836       -2.48960       -3.51274
|  8> H          2.94861       -2.20854       -4.71681
|  9> H          5.14672       -0.51251       -2.63385
| 10> H          4.78303       -1.00720       -4.25350
| 11> C          2.80408        0.29070       -1.35924
| 12> H          1.94047       -1.71653       -1.44116
| 13> H          3.55857       -1.66343       -0.76637
| 14> H          2.17393        0.69633       -2.12297
| 15> H          3.77707        0.73043       -1.42880
| 16> H          2.38369        0.50492       -0.39889
| 17> *
| 18>
| 19> %MaxCore 64000
| 20>
| 21> %pal nprocs 4
| 22> end
| 23>
| 24> %scf
| 25>   MaxIter 150
| 26> end
| 27>
| 28>
| 29>                          ****END OF INPUT****

CARTESIAN COORDINATES (ANGSTROEM)
---------------------------------
  C      2.916320   -1.242590   -1.543130
  C      3.466590   -1.590970   -2.889080
  N      4.652270   -1.143160   -3.259690
  N      2.752260   -2.292040   -3.728030
  H      1.778360   -2.489600   -3.512740
  H      2.948610   -2.208540   -4.716810
  H      5.146720   -0.512510   -2.633850
  H      4.783030   -1.007200   -4.253500
  C      2.804080    0.290700   -1.359240
  H      1.940470   -1.716530   -1.441160
  H      3.558570   -1.663430   -0.766370
  H      2.173930    0.696330   -2.122970
  H      3.777070    0.730430   -1.428800
  H      2.383690    0.504920   -0.398890

 Total Charge           Charge          ....    1
 Multiplicity           Mult            ....    1
 Number of Electrons    NEL             ....   40
 Basis Dimension        Dim             ....  172

ORBITAL ENERGIES
----------------

  NO   OCC          E(Eh)            E(eV)
   0   2.0000     -14.439071      -392.9071
   1   2.0000     -14.433690      -392.7607
   2   2.0000     -10.414176      -283.3841
   3   2.0000     -10.288034      -279.9516
   4   2.0000     -10.248326      -278.8711
   5   2.0000      -1.307182       -35.5702
   6   2.0000      -1.206146       -32.8209
   7   2.0000      -1.076893       -29.3037
   8   2.0000      -0.968057       -26.3422
   9   2.0000      -0.924117       -25.1465
  10   2.0000      -0.877093       -23.8669
  11   2.0000      -0.857544       -23.3350
  12   2.0000      -0.801911       -21.8211
  13   2.0000      -0.776477       -21.1290
  14   2.0000      -0.730828       -19.8868
  15   2.0000      -0.707399       -19.2493
  16   2.0000      -0.654431       -17.8080
  17   2.0000      -0.643635       -17.5142
  18   2.0000      -0.629394       -17.1267
  19   2.0000      -0.599566       -16.3150
  20   0.0000      -0.143413        -3.9025
  21   0.0000      -0.101542        -2.7631
  22   0.0000      -0.058892        -1.6025
  23   0.0000      -0.056758        -1.5445
  24   0.0000      -0.028336        -0.7711

MULLIKEN ATOMIC CHARGES
-----------------------
   0 C :   -0.031414
   1 C :    0.117760
   2 N :    0.319364
   3 N :    0.277423
   4 H :    0.029658
   5 H :   -0.109864
   6 H :    0.014825
   7 H :   -0.089984
   8 C :    0.953594
   9 H :   -0.043531
  10 H :   -0.026796
  11 H :   -0.148861
  12 H :   -0.182809
  13 H :   -0.079364
Sum of atomic charges:    1.0000000

LOEWDIN ATOMIC CHARGES
----------------------
   0 C :    0.009174
   1 C :   -0.074938
   2 N :    0.297966
   3 N :    0.295415
   4 H :    0.057600
   5 H :    0.050986
   6 H :    0.047381
   7 H :    0.048633
   8 C :    0.164856
   9 H :    0.040211
  10 H :    0.059472
  11 H :    0.004368
  12 H :   -0.014100
  13 H :    0.012977

  Mayer bond orders larger than 0.100000
B(  0-C ,  1-C ) :   1.2759 B(  0-C ,  8-C ) :   1.2535 B(  0-C ,  9-H ) :   0.8425
B(  0-C , 10-H ) :   0.7762 B(  0-C , 11-H ) :   0.1790 B(  0-C , 12-H ) :   0.2052
B(  0-C , 13-H ) :   0.1866 B(  1-C ,  2-N ) :   1.2309 B(  1-C ,  3-N ) :   1.2237
B(  1-C ,  9-H ) :   0.1992 B(  1-C , 10-H ) :   0.1870 B(  2-N ,  3-N ) :   0.1627
B(  2-N ,  6-H ) :   0.9978 B(  2-N ,  7-H ) :   1.1694 B(  3-N ,  4-H ) :   1.0412
B(  3-N ,  5-H ) :   1.1720 B(  4-H ,  5-H ) :  -0.1402 B(  6-H ,  7-H ) :  -0.1363
B(  8-C ,  9-H ) :   0.1217 B(  8-C , 11-H ) :   0.7598 B(  8-C , 12-H ) :   0.7341
B(  8-C , 13-H ) :   0.8040

FINAL SINGLE POINT ENERGY      -228.258031511339

DIPOLE MOMENT
-------------
                                X             Y             Z
Electronic contribution:      1.31095      -2.85774      -2.78492
Nuclear contribution   :     -1.30215       2.77761       1.84194
                        -----------------------------------------
Total Dipole Moment    :      0.00880      -0.08013      -0.94299
                        -----------------------------------------
Magnitude (a.u.)       :      0.94643
Magnitude (Debye)      :      2.40562

Rotational constants in cm-1:     0.267442     0.127541     0.099068
Rotational constants in MHz :  8017.703171  3823.592522  2969.992494

                             ****ORCA TERMINATED NORMALLY****
TOTAL RUN TIME: 0 days 0 hours 0 minutes 26 seconds 578 msec
