                         Program Version 5.0.0 -  RELEASE  -
|  1> !LC-BLYP RIJCOSX def2-SVPD def2/J TightSCF xyzfile
|  2>
|  3> *xyzfile 0 1 B.xyz
|  4>
|  5> %MaxCore 64000
|  6>
|  7> %pal nprocs 4
|  8> end
|  9>
| 10> %scf
| 11>   MaxIter 150
| 12> end
| 13>
| 14>
| 15>                          ****END OF INPUT****

CARTESIAN COORDINATES (ANGSTROEM)
---------------------------------
  C      2.916324   -1.242589   -1.543125
  C      0.704661    1.443129   -4.503630
  C      1.728539    1.424320   -5.639443
  H      2.646718    1.953794   -5.381054
  H      1.299916    1.930613   -6.503614
  S      2.252625   -0.188115   -6.271840
  C      3.466585   -1.590971   -2.889082
  N      4.652275   -1.143164   -3.259692
  N      2.752264   -2.292043   -3.728029
  H      1.778364   -2.489604   -3.512738
  H      2.948612   -2.208544   -4.716813
  H      5.146723   -0.512508   -2.633852
  H      4.783030   -1.007203   -4.253498
  O      3.562607   -0.444464   -5.631552
  O      2.344944   -0.033742   -7.696501
  C      2.804084    0.290698   -1.359243
  C      1.052550    0.695659   -3.214915
  H     -0.232483    1.032925   -4.884449
  H      0.511700    2.495794   -4.267966
  C      2.388380    1.093669   -2.597108
  H      3.763425    0.674718   -0.999889
  H      2.094788    0.461222   -0.545756
  O      1.266058   -1.159177   -5.805365
  H      3.167316    1.013242   -3.359430
  H      2.357690    2.149375   -2.310997
  H      1.039284   -0.368429   -3.449329
  H      0.250787    0.865605   -2.488283
  H      1.940472   -1.716529   -1.441161
  H      3.558569   -1.663433   -0.766371

 Total Charge           Charge          ....    0
 Multiplicity           Mult            ....    1
 Number of Electrons    NEL             ....  112
 Basis Dimension        Dim             ....  404

ORBITAL ENERGIES
----------------

  NO   OCC          E(Eh)            E(eV)
   0   2.0000     -88.466473     -2407.2951
   1   2.0000     -18.900785      -514.3165
   2   2.0000     -18.893272      -514.1121
   3   2.0000     -18.884126      -513.8632
   4   2.0000     -14.262677      -388.1072
   5   2.0000     -14.262273      -388.0962
   6   2.0000     -10.249425      -278.9010
   7   2.0000     -10.150870      -276.2192
   8   2.0000     -10.129981      -275.6508
   9   2.0000     -10.101886      -274.8863
  10   2.0000     -10.089540      -274.5503
  11   2.0000     -10.086480      -274.4671
  12   2.0000     -10.085637      -274.4441
  13   2.0000      -8.014058      -218.0736
  14   2.0000      -6.049254      -164.6086
  15   2.0000      -6.048190      -164.5796
  16   2.0000      -6.047181      -164.5522
  17   2.0000      -1.189043       -32.3555
  18   2.0000      -1.137688       -30.9581
  19   2.0000      -1.039380       -28.2830
  20   2.0000      -1.035143       -28.1677
  21   2.0000      -1.030801       -28.0495
  22   2.0000      -0.954123       -25.9630
  23   2.0000      -0.908653       -24.7257
  24   2.0000      -0.861669       -23.4472
  25   2.0000      -0.808320       -21.9955
  26   2.0000      -0.778701       -21.1895
  27   2.0000      -0.747055       -20.3284
  28   2.0000      -0.711627       -19.3644
  29   2.0000      -0.700163       -19.0524
  30   2.0000      -0.688335       -18.7306
  31   2.0000      -0.646685       -17.5972
  32   2.0000      -0.631521       -17.1846
  33   2.0000      -0.622359       -16.9353
  34   2.0000      -0.605292       -16.4708
  35   2.0000      -0.582222       -15.8431
  36   2.0000      -0.575222       -15.6526
  37   2.0000      -0.557364       -15.1666
  38   2.0000      -0.542424       -14.7601
  39   2.0000      -0.539660       -14.6849
  40   2.0000      -0.534498       -14.5444
  41   2.0000      -0.520903       -14.1745
  42   2.0000      -0.511422       -13.9165
  43   2.0000      -0.488962       -13.3053
  44   2.0000      -0.481055       -13.0902
  45   2.0000      -0.476102       -12.9554
  46   2.0000      -0.448454       -12.2030
  47   2.0000      -0.441835       -12.0229
  48   2.0000      -0.427099       -11.6219
  49   2.0000      -0.425006       -11.5650
  50   2.0000      -0.410318       -11.1653
  51   2.0000      -0.407964       -11.1013
  52   2.0000      -0.370639       -10.0856
  53   2.0000      -0.364164        -9.9094
  54   2.0000      -0.354245        -9.6395
  55   2.0000      -0.326561        -8.8862
  56   0.0000       0.016319         0.4441
  57   0.0000       0.039095         1.0638
  58   0.0000       0.060212         1.6384
  59   0.0000       0.074847         2.0367
  60   0.0000       0.079113         2.1528

MULLIKEN ATOMIC CHARGES
-----------------------
   0 C :    0.625734
   1 C :    0.677929
   2 C :    0.368687
   3 H :    0.001266
   4 H :   -0.314613
   5 S :    1.027721
   6 C :   -0.106956
   7 N :    0.504690
   8 N :    0.532014
   9 H :    0.058539
  10 H :   -0.259489
  11 H :    0.026903
  12 H :   -0.286560
  13 O :   -0.771875
  14 O :   -0.627332
  15 C :    0.583470
  16 C :    0.507706
  17 H :   -0.071058
  18 H :   -0.145651
  19 C :    0.146838
  20 H :   -0.107873
  21 H :   -0.199159
  22 O :   -0.802265
  23 H :   -0.141945
  24 H :   -0.266459
  25 H :   -0.563118
  26 H :   -0.154955
  27 H :    0.059444
  28 H :   -0.301633
Sum of atomic charges:   -0.0000000

LOEWDIN ATOMIC CHARGES
----------------------
   0 C :    0.040751
   1 C :   -0.040338
   2 C :   -0.064877
   3 H :    0.012656
   4 H :    0.017328
   5 S :    0.886679
   6 C :   -0.086175
   7 N :    0.298360
   8 N :    0.310578
   9 H :    0.041917
  10 H :   -0.027058
  11 H :    0.040262
  12 H :   -0.038219
  13 O :   -0.550281
  14 O :   -0.493580
  15 C :   -0.015450
  16 C :   -0.030301
  17 H :    0.035670
  18 H :    0.032240
  19 C :   -0.031615
  20 H :    0.023647
  21 H :    0.033036
  22 O :   -0.528949
  23 H :    0.000841
  24 H :    0.038654
  25 H :   -0.016918
  26 H :    0.035873
  27 H :    0.032960
  28 H :    0.042310

  Mayer bond orders larger than 0.100000
B(  0-C ,  6-C ) :   1.1806 B(  0-C ,  8-N ) :   0.1138 B(  0-C , 15-C ) :   1.1186
B(  0-C , 19-C ) :   0.1274 B(  0-C , 21-H ) :   0.1431 B(  0-C , 27-H ) :   0.6775
B(  0-C , 28-H ) :   0.5886 B(  1-C ,  2-C ) :   1.1780 B(  1-C ,  4-H ) :   0.2307
B(  1-C , 16-C ) :   1.2251 B(  1-C , 17-H ) :   0.5687 B(  1-C , 18-H ) :   0.6700
B(  2-C ,  3-H ) :   0.8451 B(  2-C ,  4-H ) :   0.7899 B(  2-C ,  5-S ) :   0.9003
B(  2-C , 17-H ) :   0.1338 B(  2-C , 18-H ) :   0.1943 B(  5-S , 13-O ) :   1.2175
B(  5-S , 14-O ) :   1.5415 B(  5-S , 22-O ) :   1.3053 B(  6-C ,  7-N ) :   1.1564
B(  6-C ,  8-N ) :   1.2686 B(  6-C , 15-C ) :   0.1252 B(  6-C , 27-H ) :   0.2507
B(  6-C , 28-H ) :   0.3031 B(  7-N ,  8-N ) :   0.1768 B(  7-N , 11-H ) :   0.9874
B(  7-N , 12-H ) :   1.0797 B(  8-N ,  9-H ) :   0.9541 B(  8-N , 10-H ) :   1.0602
B(  9-H , 10-H ) :  -0.1498 B( 10-H , 13-O ) :   0.1334 B( 11-H , 12-H ) :  -0.1708
B( 12-H , 13-O ) :   0.1233 B( 13-O , 22-O ) :   0.1002 B( 15-C , 19-C ) :   1.1939
B( 15-C , 20-H ) :   0.6124 B( 15-C , 21-H ) :   0.7637 B( 15-C , 23-H ) :   0.1695
B( 15-C , 27-H ) :   0.1465 B( 16-C , 17-H ) :   0.3441 B( 16-C , 18-H ) :   0.1045
B( 16-C , 19-C ) :   1.2166 B( 16-C , 23-H ) :   0.1889 B( 16-C , 24-H ) :   0.1897
B( 16-C , 25-H ) :   0.6982 B( 16-C , 26-H ) :   0.6216 B( 17-H , 18-H ) :  -0.1439
B( 19-C , 20-H ) :   0.3131 B( 19-C , 21-H ) :   0.1800 B( 19-C , 23-H ) :   0.8172
B( 19-C , 24-H ) :   0.7520 B( 19-C , 25-H ) :   0.1750 B( 19-C , 26-H ) :   0.2464
B( 20-H , 21-H ) :  -0.1753

FINAL SINGLE POINT ENERGY     -1007.541474695069

DIPOLE MOMENT
-------------
                                X             Y             Z
Electronic contribution:      2.72939      -6.21063     -13.26101
Nuclear contribution   :     -1.90023       6.18953      17.82209
                        -----------------------------------------
Total Dipole Moment    :      0.82915      -0.02111       4.56108
                        -----------------------------------------
Magnitude (a.u.)       :      4.63588
Magnitude (Debye)      :     11.78348

Rotational constants in cm-1:     0.036337     0.018755     0.015005
Rotational constants in MHz :  1089.341704   562.266628   449.834770

                             ****ORCA TERMINATED NORMALLY****
TOTAL RUN TIME: 0 days 0 hours 2 minutes 49 seconds 844 msec
