                         Program Version 5.0.0 -  RELEASE  -
|  1> !LC-BLYP RIJCOSX def2-SVPD def2/J TightSCF
|  2> *xyz 0 1
|  3> C          0.70466        1.44313       -4.50363
|  4> C          1.72854        1.42432       -5.63944
|  5> H          2.64672        1.95379       -5.38105
|  6> H          1.29992        1.93061       -6.50361
|  7> S          2.25263       -0.18811       -6.27184
|  8> F          3.56261       -0.44446       -5.63155
|  9> O          2.34494       -0.03374       -7.69650
| 10> O          1.26606       -1.15918       -5.80536
| 11> H         -0.17385        0.91270       -4.80656
| 12> H          0.44778        2.45562       -4.27173
| 13> H          1.12367        0.97423       -3.63791
| 14> *
| 15>
| 16> %MaxCore 64000
| 17>
| 18> %pal nprocs 4
| 19> end
| 20>
| 21> %scf
| 22>   MaxIter 150
| 23> end
| 24>
| 25>
| 26>                          ****END OF INPUT****

CARTESIAN COORDINATES (ANGSTROEM)
---------------------------------
  C      0.704660    1.443130   -4.503630
  C      1.728540    1.424320   -5.639440
  H      2.646720    1.953790   -5.381050
  H      1.299920    1.930610   -6.503610
  S      2.252630   -0.188110   -6.271840
  F      3.562610   -0.444460   -5.631550
  O      2.344940   -0.033740   -7.696500
  O      1.266060   -1.159180   -5.805360
  H     -0.173850    0.912700   -4.806560
  H      0.447780    2.455620   -4.271730
  H      1.123670    0.974230   -3.637910

 Total Charge           Charge          ....    0
 Multiplicity           Mult            ....    1
 Number of Electrons    NEL             ....   58
 Basis Dimension        Dim             ....  176

ORBITAL ENERGIES
----------------

  NO   OCC          E(Eh)            E(eV)
   0   2.0000     -88.566165     -2410.0079
   1   2.0000     -24.576812      -668.7691
   2   2.0000     -18.975966      -516.3623
   3   2.0000     -18.968494      -516.1590
   4   2.0000     -10.152388      -276.2605
   5   2.0000     -10.108228      -275.0589
   6   2.0000      -8.115865      -220.8439
   7   2.0000      -6.154569      -167.4743
   8   2.0000      -6.147960      -167.2945
   9   2.0000      -6.146605      -167.2576
  10   2.0000      -1.430500       -38.9259
  11   2.0000      -1.214163       -33.0391
  12   2.0000      -1.114721       -30.3331
  13   2.0000      -0.932264       -25.3682
  14   2.0000      -0.833121       -22.6704
  15   2.0000      -0.780537       -21.2395
  16   2.0000      -0.688397       -18.7322
  17   2.0000      -0.671991       -18.2858
  18   2.0000      -0.657490       -17.8912
  19   2.0000      -0.603118       -16.4117
  20   2.0000      -0.589426       -16.0391
  21   2.0000      -0.561887       -15.2897
  22   2.0000      -0.538417       -14.6511
  23   2.0000      -0.508604       -13.8398
  24   2.0000      -0.506315       -13.7775
  25   2.0000      -0.487696       -13.2709
  26   2.0000      -0.440049       -11.9743
  27   2.0000      -0.433841       -11.8054
  28   2.0000      -0.420539       -11.4435
  29   0.0000       0.045721         1.2441
  30   0.0000       0.071990         1.9589
  31   0.0000       0.080282         2.1846
  32   0.0000       0.081815         2.2263
  33   0.0000       0.105772         2.8782

MULLIKEN ATOMIC CHARGES
-----------------------
   0 C :    1.038772
   1 C :   -0.221756
   2 H :   -0.093286
   3 H :   -0.032204
   4 S :    1.257385
   5 F :   -0.366193
   6 O :   -0.564068
   7 O :   -0.610567
   8 H :   -0.100946
   9 H :   -0.173184
  10 H :   -0.133953
Sum of atomic charges:    0.0000000

LOEWDIN ATOMIC CHARGES
----------------------
   0 C :    0.125357
   1 C :   -0.093150
   2 H :    0.023911
   3 H :    0.027811
   4 S :    1.074595
   5 F :   -0.259273
   6 O :   -0.444591
   7 O :   -0.453226
   8 H :   -0.001052
   9 H :   -0.000784
  10 H :    0.000403

  Mayer bond orders larger than 0.100000
B(  0-C ,  1-C ) :   1.3285 B(  0-C ,  8-H ) :   0.7479 B(  0-C ,  9-H ) :   0.6924
B(  0-C , 10-H ) :   0.7483 B(  1-C ,  2-H ) :   0.9260 B(  1-C ,  3-H ) :   0.9449
B(  1-C ,  4-S ) :   0.9458 B(  1-C ,  8-H ) :   0.2345 B(  1-C ,  9-H ) :   0.2543
B(  1-C , 10-H ) :   0.2134 B(  4-S ,  5-F ) :   0.7101 B(  4-S ,  6-O ) :   1.6175
B(  4-S ,  7-O ) :   1.5675

FINAL SINGLE POINT ENERGY      -726.428803868805

DIPOLE MOMENT
-------------
                                X             Y             Z
Electronic contribution:      6.28254      -6.40854      -3.67025
Nuclear contribution   :     -6.09914       7.80989       4.64238
                        -----------------------------------------
Total Dipole Moment    :      0.18340       1.40135       0.97214
                        -----------------------------------------
Magnitude (a.u.)       :      1.71536
Magnitude (Debye)      :      4.36011

Rotational constants in cm-1:     0.154372     0.078826     0.078033
Rotational constants in MHz :  4627.943144  2363.154585  2339.382767

                             ****ORCA TERMINATED NORMALLY****
TOTAL RUN TIME: 0 days 0 hours 0 minutes 28 seconds 749 msec
