                         Program Version 5.0.0 -  RELEASE  -
|  1> !LC-BLYP RIJCOSX def2-SVPD def2/J TightSCF
|  2> *xyz 0 1
|  3> C          2.91632       -1.24259       -1.54313
|  4> C          3.46659       -1.59097       -2.88908
|  5> C          4.65227       -1.14316       -3.25969
|  6> N          2.75226       -2.29204       -3.72803
|  7> H          1.77836       -2.48960       -3.51274
|  8> H          2.94861       -2.20854       -4.71681
|  9> H          5.14672       -0.51251       -2.63385
| 10> H          4.78303       -1.00720       -4.25350
| 11> C          2.80408        0.29070       -1.35924
| 12> H          1.94047       -1.71653       -1.44116
| 13> H          3.55857       -1.66343       -0.76637
| 14> H          2.17393        0.69633       -2.12297
| 15> H          3.77707        0.73043       -1.42880
| 16> H          2.38369        0.50492       -0.39889
| 17> *
| 18>
| 19> %MaxCore 64000
| 20>
| 21> %pal nprocs 4
| 22> end
| 23>
| 24> %scf
| 25>   MaxIter 150
| 26> end
| 27>
| 28>
| 29>                          ****END OF INPUT****

CARTESIAN COORDINATES (ANGSTROEM)
---------------------------------
  C      2.916320   -1.242590   -1.543130
  C      3.466590   -1.590970   -2.889080
  C      4.652270   -1.143160   -3.259690
  N      2.752260   -2.292040   -3.728030
  H      1.778360   -2.489600   -3.512740
  H      2.948610   -2.208540   -4.716810
  H      5.146720   -0.512510   -2.633850
  H      4.783030   -1.007200   -4.253500
  C      2.804080    0.290700   -1.359240
  H      1.940470   -1.716530   -1.441160
  H      3.558570   -1.663430   -0.766370
  H      2.173930    0.696330   -2.122970
  H      3.777070    0.730430   -1.428800
  H      2.383690    0.504920   -0.398890

 Total Charge           Charge          ....    0
 Multiplicity           Mult            ....    1
 Number of Electrons    NEL             ....   40
 Basis Dimension        Dim             ....  172

ORBITAL ENERGIES
----------------

  NO   OCC          E(Eh)            E(eV)
   0   2.0000     -14.192405      -386.1950
   1   2.0000     -10.109111      -275.0829
   2   2.0000     -10.088769      -274.5294
   3   2.0000     -10.073260      -274.1073
   4   2.0000     -10.015607      -272.5385
   5   2.0000      -1.032773       -28.1032
   6   2.0000      -0.885956       -24.1081
   7   2.0000      -0.814643       -22.1676
   8   2.0000      -0.749321       -20.3901
   9   2.0000      -0.669509       -18.2183
  10   2.0000      -0.627825       -17.0840
  11   2.0000      -0.585712       -15.9380
  12   2.0000      -0.557193       -15.1620
  13   2.0000      -0.514155       -13.9909
  14   2.0000      -0.493688       -13.4339
  15   2.0000      -0.478529       -13.0214
  16   2.0000      -0.457248       -12.4423
  17   2.0000      -0.442941       -12.0530
  18   2.0000      -0.429368       -11.6837
  19   2.0000      -0.286853        -7.8057
  20   0.0000       0.071696         1.9509
  21   0.0000       0.095379         2.5954
  22   0.0000       0.104421         2.8414
  23   0.0000       0.113719         3.0944
  24   0.0000       0.125546         3.4163

MULLIKEN ATOMIC CHARGES
-----------------------
   0 C :    0.121324
   1 C :   -0.341002
   2 C :    0.591436
   3 N :    0.354328
   4 H :   -0.100558
   5 H :   -0.117663
   6 H :   -0.238996
   7 H :   -0.480623
   8 C :    0.930482
   9 H :   -0.135223
  10 H :   -0.082508
  11 H :   -0.195224
  12 H :   -0.212763
  13 H :   -0.093009
Sum of atomic charges:   -0.0000000

LOEWDIN ATOMIC CHARGES
----------------------
   0 C :   -0.032233
   1 C :   -0.277281
   2 C :    0.163747
   3 N :    0.180788
   4 H :    0.000391
   5 H :    0.008313
   6 H :   -0.082678
   7 H :   -0.083695
   8 C :    0.128495
   9 H :    0.012941
  10 H :    0.033549
  11 H :   -0.010177
  12 H :   -0.025185
  13 H :   -0.016974

  Mayer bond orders larger than 0.100000
B(  0-C ,  1-C ) :   1.2364 B(  0-C ,  2-C ) :   0.1085 B(  0-C ,  8-C ) :   1.2583
B(  0-C ,  9-H ) :   0.7384 B(  0-C , 10-H ) :   0.7850 B(  0-C , 11-H ) :   0.1875
B(  0-C , 12-H ) :   0.2071 B(  0-C , 13-H ) :   0.1988 B(  1-C ,  2-C ) :   1.9449
B(  1-C ,  3-N ) :   1.1917 B(  1-C ,  6-H ) :   0.1333 B(  1-C ,  7-H ) :   0.2268
B(  1-C ,  9-H ) :   0.2573 B(  1-C , 10-H ) :   0.2038 B(  2-C ,  3-N ) :   0.2426
B(  2-C ,  6-H ) :   0.6628 B(  2-C ,  7-H ) :   0.7113 B(  3-N ,  4-H ) :   1.0321
B(  3-N ,  5-H ) :   1.0754 B(  4-H ,  5-H ) :  -0.1273 B(  6-H ,  7-H ) :   0.1356
B(  8-C ,  9-H ) :   0.1118 B(  8-C , 11-H ) :   0.7693 B(  8-C , 12-H ) :   0.7766
B(  8-C , 13-H ) :   0.7563

FINAL SINGLE POINT ENERGY      -211.802854599047

DIPOLE MOMENT
-------------
                                X             Y             Z
Electronic contribution:      0.09439      -2.72563      -1.81087
Nuclear contribution   :     -0.99366       2.78648       1.68526
                        -----------------------------------------
Total Dipole Moment    :     -0.89926       0.06084      -0.12561
                        -----------------------------------------
Magnitude (a.u.)       :      0.91003
Magnitude (Debye)      :      2.31311

Rotational constants in cm-1:     0.282898     0.128664     0.101801
Rotational constants in MHz :  8481.061354  3857.240210  3051.924245

                             ****ORCA TERMINATED NORMALLY****
TOTAL RUN TIME: 0 days 0 hours 0 minutes 27 seconds 366 msec
