                         Program Version 5.0.0 -  RELEASE  -
|  1> !LC-BLYP RIJCOSX def2-SVPD def2/J TightSCF
|  2> *xyz 0 1
|  3> C          0.70466        1.44313       -4.50363
|  4> C          1.72854        1.42432       -5.63944
|  5> H          2.64672        1.95379       -5.38105
|  6> H          1.29992        1.93061       -6.50361
|  7> S          2.25263       -0.18811       -6.27184
|  8> O          3.56261       -0.44446       -5.63155
|  9> F          2.34494       -0.03374       -7.69650
| 10> O          1.26606       -1.15918       -5.80536
| 11> H         -0.17385        0.91270       -4.80656
| 12> H          0.44778        2.45562       -4.27173
| 13> H          1.12367        0.97423       -3.63791
| 14> *
| 15>
| 16> %MaxCore 64000
| 17>
| 18> %pal nprocs 4
| 19> end
| 20>
| 21> %scf
| 22>   MaxIter 150
| 23> end
| 24>
| 25>
| 26>                          ****END OF INPUT****

CARTESIAN COORDINATES (ANGSTROEM)
---------------------------------
  C      0.704660    1.443130   -4.503630
  C      1.728540    1.424320   -5.639440
  H      2.646720    1.953790   -5.381050
  H      1.299920    1.930610   -6.503610
  S      2.252630   -0.188110   -6.271840
  O      3.562610   -0.444460   -5.631550
  F      2.344940   -0.033740   -7.696500
  O      1.266060   -1.159180   -5.805360
  H     -0.173850    0.912700   -4.806560
  H      0.447780    2.455620   -4.271730
  H      1.123670    0.974230   -3.637910

 Total Charge           Charge          ....    0
 Multiplicity           Mult            ....    1
 Number of Electrons    NEL             ....   58
 Basis Dimension        Dim             ....  176

ORBITAL ENERGIES
----------------

  NO   OCC          E(Eh)            E(eV)
   0   2.0000     -88.568251     -2410.0646
   1   2.0000     -24.599688      -669.3915
   2   2.0000     -18.968866      -516.1691
   3   2.0000     -18.960374      -515.9380
   4   2.0000     -10.153602      -276.2936
   5   2.0000     -10.108749      -275.0730
   6   2.0000      -8.118080      -220.9042
   7   2.0000      -6.156954      -167.5392
   8   2.0000      -6.149979      -167.3494
   9   2.0000      -6.148584      -167.3115
  10   2.0000      -1.468082       -39.9485
  11   2.0000      -1.201321       -32.6896
  12   2.0000      -1.094782       -29.7905
  13   2.0000      -0.933263       -25.3954
  14   2.0000      -0.847312       -23.0565
  15   2.0000      -0.788903       -21.4672
  16   2.0000      -0.701073       -19.0772
  17   2.0000      -0.698836       -19.0163
  18   2.0000      -0.662942       -18.0396
  19   2.0000      -0.603887       -16.4326
  20   2.0000      -0.591616       -16.0987
  21   2.0000      -0.550190       -14.9714
  22   2.0000      -0.535974       -14.5846
  23   2.0000      -0.511963       -13.9312
  24   2.0000      -0.493937       -13.4407
  25   2.0000      -0.488810       -13.3012
  26   2.0000      -0.433563       -11.7978
  27   2.0000      -0.423148       -11.5144
  28   2.0000      -0.405000       -11.0206
  29   0.0000       0.044496         1.2108
  30   0.0000       0.068627         1.8674
  31   0.0000       0.079174         2.1544
  32   0.0000       0.082753         2.2518
  33   0.0000       0.105395         2.8680

MULLIKEN ATOMIC CHARGES
-----------------------
   0 C :    1.015338
   1 C :   -0.221284
   2 H :   -0.090582
   3 H :   -0.036779
   4 S :    1.260912
   5 O :   -0.611105
   6 F :   -0.331303
   7 O :   -0.599648
   8 H :   -0.099648
   9 H :   -0.172106
  10 H :   -0.113794
Sum of atomic charges:   -0.0000000

LOEWDIN ATOMIC CHARGES
----------------------
   0 C :    0.132306
   1 C :   -0.097981
   2 H :    0.028623
   3 H :    0.016101
   4 S :    1.077919
   5 O :   -0.469013
   6 F :   -0.238514
   7 O :   -0.453882
   8 H :   -0.002481
   9 H :    0.000359
  10 H :    0.006564

  Mayer bond orders larger than 0.100000
B(  0-C ,  1-C ) :   1.3353 B(  0-C ,  3-H ) :   0.1079 B(  0-C ,  8-H ) :   0.7448
B(  0-C ,  9-H ) :   0.6958 B(  0-C , 10-H ) :   0.7581 B(  1-C ,  2-H ) :   0.9573
B(  1-C ,  3-H ) :   0.9103 B(  1-C ,  4-S ) :   0.9368 B(  1-C ,  8-H ) :   0.2354
B(  1-C ,  9-H ) :   0.2499 B(  1-C , 10-H ) :   0.2079 B(  4-S ,  5-O ) :   1.5450
B(  4-S ,  6-F ) :   0.7829 B(  4-S ,  7-O ) :   1.5622

FINAL SINGLE POINT ENERGY      -726.408799602051

DIPOLE MOMENT
-------------
                                X             Y             Z
Electronic contribution:      4.17706      -5.70843      -7.19279
Nuclear contribution   :     -4.83029       7.38191       6.79413
                        -----------------------------------------
Total Dipole Moment    :     -0.65323       1.67348      -0.39867
                        -----------------------------------------
Magnitude (a.u.)       :      1.84015
Magnitude (Debye)      :      4.67730

Rotational constants in cm-1:     0.156575     0.079070     0.076729
Rotational constants in MHz :  4694.010604  2370.444114  2300.280155

                             ****ORCA TERMINATED NORMALLY****
TOTAL RUN TIME: 0 days 0 hours 0 minutes 29 seconds 193 msec
