                         Program Version 5.0.0 -  RELEASE  -
|  1> !LC-BLYP RIJCOSX def2-SVPD def2/J TightSCF
|  2> *xyz 0 1
|  3> C          2.91632       -1.24259       -1.54313
|  4> C          3.46659       -1.59097       -2.88908
|  5> N          4.65227       -1.14316       -3.25969
|  6> C          2.75226       -2.29204       -3.72803
|  7> H          1.77836       -2.48960       -3.51274
|  8> H          2.94861       -2.20854       -4.71681
|  9> H          5.14672       -0.51251       -2.63385
| 10> H          4.78303       -1.00720       -4.25350
| 11> C          2.80408        0.29070       -1.35924
| 12> H          1.94047       -1.71653       -1.44116
| 13> H          3.55857       -1.66343       -0.76637
| 14> H          2.17393        0.69633       -2.12297
| 15> H          3.77707        0.73043       -1.42880
| 16> H          2.38369        0.50492       -0.39889
| 17> *
| 18>
| 19> %MaxCore 64000
| 20>
| 21> %pal nprocs 4
| 22> end
| 23>
| 24> %scf
| 25>   MaxIter 150
| 26> end
| 27>
| 28>
| 29>                          ****END OF INPUT****

CARTESIAN COORDINATES (ANGSTROEM)
---------------------------------
  C      2.916320   -1.242590   -1.543130
  C      3.466590   -1.590970   -2.889080
  N      4.652270   -1.143160   -3.259690
  C      2.752260   -2.292040   -3.728030
  H      1.778360   -2.489600   -3.512740
  H      2.948610   -2.208540   -4.716810
  H      5.146720   -0.512510   -2.633850
  H      4.783030   -1.007200   -4.253500
  C      2.804080    0.290700   -1.359240
  H      1.940470   -1.716530   -1.441160
  H      3.558570   -1.663430   -0.766370
  H      2.173930    0.696330   -2.122970
  H      3.777070    0.730430   -1.428800
  H      2.383690    0.504920   -0.398890

 Total Charge           Charge          ....    0
 Multiplicity           Mult            ....    1
 Number of Electrons    NEL             ....   40
 Basis Dimension        Dim             ....  172

ORBITAL ENERGIES
----------------

  NO   OCC          E(Eh)            E(eV)
   0   2.0000     -14.188646      -386.0927
   1   2.0000     -10.107472      -275.0383
   2   2.0000     -10.087129      -274.4847
   3   2.0000     -10.078314      -274.2449
   4   2.0000     -10.019418      -272.6422
   5   2.0000      -1.028028       -27.9741
   6   2.0000      -0.882961       -24.0266
   7   2.0000      -0.826463       -22.4892
   8   2.0000      -0.741051       -20.1650
   9   2.0000      -0.669450       -18.2167
  10   2.0000      -0.632035       -17.1986
  11   2.0000      -0.583177       -15.8691
  12   2.0000      -0.542114       -14.7517
  13   2.0000      -0.540587       -14.7101
  14   2.0000      -0.489723       -13.3260
  15   2.0000      -0.484147       -13.1743
  16   2.0000      -0.456642       -12.4259
  17   2.0000      -0.443941       -12.0802
  18   2.0000      -0.423196       -11.5158
  19   2.0000      -0.293782        -7.9942
  20   0.0000       0.069147         1.8816
  21   0.0000       0.098505         2.6804
  22   0.0000       0.105809         2.8792
  23   0.0000       0.115796         3.1510
  24   0.0000       0.123612         3.3636

MULLIKEN ATOMIC CHARGES
-----------------------
   0 C :    0.007895
   1 C :   -0.476597
   2 N :    0.433788
   3 C :    0.474871
   4 H :   -0.121333
   5 H :   -0.467296
   6 H :   -0.124989
   7 H :   -0.114319
   8 C :    0.984548
   9 H :    0.040904
  10 H :   -0.125143
  11 H :   -0.139006
  12 H :   -0.191692
  13 H :   -0.181630
Sum of atomic charges:   -0.0000000

LOEWDIN ATOMIC CHARGES
----------------------
   0 C :   -0.034105
   1 C :   -0.285257
   2 N :    0.186722
   3 C :    0.164157
   4 H :   -0.076555
   5 H :   -0.080212
   6 H :   -0.005806
   7 H :    0.006466
   8 C :    0.126702
   9 H :    0.024792
  10 H :    0.028161
  11 H :   -0.008025
  12 H :   -0.031519
  13 H :   -0.015520

  Mayer bond orders larger than 0.100000
B(  0-C ,  1-C ) :   1.3805 B(  0-C ,  8-C ) :   1.2153 B(  0-C ,  9-H ) :   0.8538
B(  0-C , 10-H ) :   0.7682 B(  0-C , 11-H ) :   0.1808 B(  0-C , 12-H ) :   0.2262
B(  0-C , 13-H ) :   0.2476 B(  1-C ,  2-N ) :   1.1886 B(  1-C ,  3-C ) :   1.9789
B(  1-C ,  5-H ) :   0.2910 B(  1-C ,  9-H ) :   0.1576 B(  1-C , 10-H ) :   0.2395
B(  2-N ,  3-C ) :   0.2719 B(  2-N ,  6-H ) :   0.9839 B(  2-N ,  7-H ) :   1.0459
B(  3-C ,  4-H ) :   0.8800 B(  3-C ,  5-H ) :   0.5766 B(  3-C ,  9-H ) :  -0.1116
B(  4-H ,  5-H ) :   0.1675 B(  6-H ,  7-H ) :  -0.1129 B(  8-C ,  9-H ) :   0.1314
B(  8-C , 11-H ) :   0.7624 B(  8-C , 12-H ) :   0.7246 B(  8-C , 13-H ) :   0.7610

FINAL SINGLE POINT ENERGY      -211.806633568430

DIPOLE MOMENT
-------------
                                X             Y             Z
Electronic contribution:      1.71720      -1.73327      -1.40680
Nuclear contribution   :     -1.43372       2.52039       1.57679
                        -----------------------------------------
Total Dipole Moment    :      0.28348       0.78711       0.16999
                        -----------------------------------------
Magnitude (a.u.)       :      0.85370
Magnitude (Debye)      :      2.16993

Rotational constants in cm-1:     0.274962     0.131786     0.102554
Rotational constants in MHz :  8243.150005  3950.846092  3074.493018

                             ****ORCA TERMINATED NORMALLY****
TOTAL RUN TIME: 0 days 0 hours 0 minutes 23 seconds 785 msec
