                         Program Version 5.0.0 -  RELEASE  -
|  1> !LC-BLYP RIJCOSX def2-SVPD def2/J TightSCF
|  2> *xyz 0 1
|  3> C          0.70466        1.44313       -4.50363
|  4> C          1.72854        1.42432       -5.63944
|  5> H          2.64672        1.95379       -5.38105
|  6> H          1.29992        1.93061       -6.50361
|  7> S          2.25263       -0.18811       -6.27184
|  8> O          3.56261       -0.44446       -5.63155
|  9> O          2.34494       -0.03374       -7.69650
| 10> F          1.26606       -1.15918       -5.80536
| 11> H         -0.17385        0.91270       -4.80656
| 12> H          0.44778        2.45562       -4.27173
| 13> H          1.12367        0.97423       -3.63791
| 14> *
| 15>
| 16> %MaxCore 64000
| 17>
| 18> %pal nprocs 4
| 19> end
| 20>
| 21> %scf
| 22>   MaxIter 150
| 23> end
| 24>
| 25>
| 26>                          ****END OF INPUT****

CARTESIAN COORDINATES (ANGSTROEM)
---------------------------------
  C      0.704660    1.443130   -4.503630
  C      1.728540    1.424320   -5.639440
  H      2.646720    1.953790   -5.381050
  H      1.299920    1.930610   -6.503610
  S      2.252630   -0.188110   -6.271840
  O      3.562610   -0.444460   -5.631550
  O      2.344940   -0.033740   -7.696500
  F      1.266060   -1.159180   -5.805360
  H     -0.173850    0.912700   -4.806560
  H      0.447780    2.455620   -4.271730
  H      1.123670    0.974230   -3.637910

 Total Charge           Charge          ....    0
 Multiplicity           Mult            ....    1
 Number of Electrons    NEL             ....   58
 Basis Dimension        Dim             ....  176

ORBITAL ENERGIES
----------------

  NO   OCC          E(Eh)            E(eV)
   0   2.0000     -88.566775     -2410.0245
   1   2.0000     -24.587493      -669.0597
   2   2.0000     -18.976044      -516.3644
   3   2.0000     -18.959858      -515.9240
   4   2.0000     -10.152313      -276.2585
   5   2.0000     -10.116309      -275.2788
   6   2.0000      -8.116544      -220.8624
   7   2.0000      -6.155435      -167.4979
   8   2.0000      -6.148549      -167.3105
   9   2.0000      -6.147096      -167.2710
  10   2.0000      -1.446846       -39.3707
  11   2.0000      -1.210572       -32.9413
  12   2.0000      -1.103059       -30.0157
  13   2.0000      -0.936247       -25.4766
  14   2.0000      -0.836073       -22.7507
  15   2.0000      -0.789984       -21.4966
  16   2.0000      -0.703635       -19.1469
  17   2.0000      -0.684567       -18.6280
  18   2.0000      -0.650082       -17.6896
  19   2.0000      -0.607320       -16.5260
  20   2.0000      -0.583142       -15.8681
  21   2.0000      -0.559840       -15.2340
  22   2.0000      -0.549188       -14.9442
  23   2.0000      -0.519513       -14.1367
  24   2.0000      -0.500192       -13.6109
  25   2.0000      -0.492462       -13.4006
  26   2.0000      -0.438146       -11.9225
  27   2.0000      -0.424414       -11.5489
  28   2.0000      -0.411324       -11.1927
  29   0.0000       0.042418         1.1543
  30   0.0000       0.074663         2.0317
  31   0.0000       0.079114         2.1528
  32   0.0000       0.082194         2.2366
  33   0.0000       0.108530         2.9532

MULLIKEN ATOMIC CHARGES
-----------------------
   0 C :    1.019640
   1 C :   -0.197535
   2 H :   -0.088990
   3 H :   -0.028927
   4 S :    1.241554
   5 O :   -0.614145
   6 O :   -0.553823
   7 F :   -0.368131
   8 H :   -0.120106
   9 H :   -0.162660
  10 H :   -0.126876
Sum of atomic charges:    0.0000000

LOEWDIN ATOMIC CHARGES
----------------------
   0 C :    0.120659
   1 C :   -0.087471
   2 H :    0.036377
   3 H :    0.022905
   4 S :    1.073926
   5 O :   -0.470074
   6 O :   -0.443835
   7 F :   -0.247501
   8 H :   -0.006458
   9 H :    0.000187
  10 H :    0.001285

  Mayer bond orders larger than 0.100000
B(  0-C ,  1-C ) :   1.2994 B(  0-C ,  8-H ) :   0.7452 B(  0-C ,  9-H ) :   0.6961
B(  0-C , 10-H ) :   0.7595 B(  1-C ,  2-H ) :   0.9483 B(  1-C ,  3-H ) :   0.9443
B(  1-C ,  4-S ) :   0.9548 B(  1-C ,  8-H ) :   0.2228 B(  1-C ,  9-H ) :   0.2524
B(  1-C , 10-H ) :   0.2017 B(  4-S ,  5-O ) :   1.5479 B(  4-S ,  6-O ) :   1.6154
B(  4-S ,  7-F ) :   0.7412

FINAL SINGLE POINT ENERGY      -726.418847918872

DIPOLE MOMENT
-------------
                                X             Y             Z
Electronic contribution:      2.33888      -7.58910      -3.96705
Nuclear contribution   :     -3.70606       8.55465       4.82350
                        -----------------------------------------
Total Dipole Moment    :     -1.36718       0.96555       0.85645
                        -----------------------------------------
Magnitude (a.u.)       :      1.88015
Magnitude (Debye)      :      4.77897

Rotational constants in cm-1:     0.153201     0.080978     0.077494
Rotational constants in MHz :  4592.852844  2427.650814  2323.207507

                             ****ORCA TERMINATED NORMALLY****
TOTAL RUN TIME: 0 days 0 hours 0 minutes 25 seconds 51 msec
