                         Program Version 5.0.0 -  RELEASE  -
|  1> !LC-BLYP RIJCOSX def2-SVPD def2/J TightSCF xyzfile
|  2>
|  3> *xyzfile 0 1 D2.xyz
|  4>
|  5> %MaxCore 64000
|  6>
|  7> %pal nprocs 4
|  8> end
|  9>
| 10> %scf
| 11>   MaxIter 150
| 12> end
| 13>
| 14>
| 15>                          ****END OF INPUT****

CARTESIAN COORDINATES (ANGSTROEM)
---------------------------------
  C      2.916324   -1.242589   -1.543125
  C      0.704661    1.443129   -4.503630
  C      1.728539    1.424320   -5.639443
  H      2.646718    1.953794   -5.381054
  H      1.299916    1.930613   -6.503614
  S      2.252625   -0.188115   -6.271840
  C      3.466585   -1.590971   -2.889082
  N      4.652275   -1.143164   -3.259692
  C      2.752264   -2.292043   -3.728029
  H      1.778364   -2.489604   -3.512738
  H      2.948612   -2.208544   -4.716813
  H      5.146723   -0.512508   -2.633852
  H      4.783030   -1.007203   -4.253498
  F      3.562607   -0.444464   -5.631552
  O      2.344944   -0.033742   -7.696501
  C      2.804084    0.290698   -1.359243
  C      1.052550    0.695659   -3.214915
  H     -0.232483    1.032925   -4.884449
  H      0.511700    2.495794   -4.267966
  C      2.388380    1.093669   -2.597108
  H      3.763425    0.674718   -0.999889
  H      2.094788    0.461222   -0.545756
  O      1.266058   -1.159177   -5.805365
  H      3.167316    1.013242   -3.359430
  H      2.357690    2.149375   -2.310997
  H      1.039284   -0.368429   -3.449329
  H      0.250787    0.865605   -2.488283
  H      1.940472   -1.716529   -1.441161
  H      3.558569   -1.663433   -0.766371

 Total Charge           Charge          ....    0
 Multiplicity           Mult            ....    1
 Number of Electrons    NEL             ....  112
 Basis Dimension        Dim             ....  404

ORBITAL ENERGIES
----------------

  NO   OCC          E(Eh)            E(eV)
   0   2.0000     -88.569734     -2410.1050
   1   2.0000     -24.584548      -668.9796
   2   2.0000     -18.978318      -516.4263
   3   2.0000     -18.967913      -516.1432
   4   2.0000     -14.187383      -386.0583
   5   2.0000     -10.150073      -276.1975
   6   2.0000     -10.113256      -275.1957
   7   2.0000     -10.103817      -274.9388
   8   2.0000     -10.094358      -274.6814
   9   2.0000     -10.092867      -274.6409
  10   2.0000     -10.087970      -274.5076
  11   2.0000     -10.086868      -274.4776
  12   2.0000     -10.015931      -272.5473
  13   2.0000      -8.117947      -220.9006
  14   2.0000      -6.156977      -167.5399
  15   2.0000      -6.150009      -167.3503
  16   2.0000      -6.148566      -167.3110
  17   2.0000      -1.439060       -39.1588
  18   2.0000      -1.216376       -33.0993
  19   2.0000      -1.116153       -30.3721
  20   2.0000      -1.029504       -28.0142
  21   2.0000      -0.947457       -25.7816
  22   2.0000      -0.909654       -24.7530
  23   2.0000      -0.868981       -23.6462
  24   2.0000      -0.840055       -22.8590
  25   2.0000      -0.817591       -22.2478
  26   2.0000      -0.789483       -21.4829
  27   2.0000      -0.738774       -20.1031
  28   2.0000      -0.705601       -19.2004
  29   2.0000      -0.683663       -18.6034
  30   2.0000      -0.678772       -18.4703
  31   2.0000      -0.665928       -18.1208
  32   2.0000      -0.654736       -17.8163
  33   2.0000      -0.630826       -17.1657
  34   2.0000      -0.604974       -16.4622
  35   2.0000      -0.602581       -16.3971
  36   2.0000      -0.589213       -16.0333
  37   2.0000      -0.573799       -15.6139
  38   2.0000      -0.559033       -15.2121
  39   2.0000      -0.551031       -14.9943
  40   2.0000      -0.542610       -14.7652
  41   2.0000      -0.524000       -14.2588
  42   2.0000      -0.509883       -13.8746
  43   2.0000      -0.496273       -13.5043
  44   2.0000      -0.489783       -13.3277
  45   2.0000      -0.486303       -13.2330
  46   2.0000      -0.469758       -12.7828
  47   2.0000      -0.460390       -12.5279
  48   2.0000      -0.450113       -12.2482
  49   2.0000      -0.437267       -11.8986
  50   2.0000      -0.434858       -11.8331
  51   2.0000      -0.426147       -11.5961
  52   2.0000      -0.423478       -11.5234
  53   2.0000      -0.415130       -11.2963
  54   2.0000      -0.413773       -11.2593
  55   2.0000      -0.290710        -7.9106
  56   0.0000       0.047492         1.2923
  57   0.0000       0.066059         1.7976
  58   0.0000       0.068298         1.8585
  59   0.0000       0.074085         2.0159
  60   0.0000       0.094190         2.5630

MULLIKEN ATOMIC CHARGES
-----------------------
   0 C :    0.659529
   1 C :    0.660170
   2 C :    0.326208
   3 H :    0.068032
   4 H :   -0.330658
   5 S :    1.202118
   6 C :   -0.870174
   7 N :    0.641953
   8 C :    1.032398
   9 H :   -0.176244
  10 H :   -0.688597
  11 H :   -0.019198
  12 H :   -0.291029
  13 F :   -0.498870
  14 O :   -0.511991
  15 C :    0.679169
  16 C :    0.597658
  17 H :   -0.072312
  18 H :   -0.126150
  19 C :    0.090792
  20 H :   -0.099761
  21 H :   -0.211053
  22 O :   -0.686692
  23 H :   -0.126592
  24 H :   -0.318924
  25 H :   -0.673065
  26 H :   -0.123781
  27 H :    0.227185
  28 H :   -0.360122
Sum of atomic charges:   -0.0000000

LOEWDIN ATOMIC CHARGES
----------------------
   0 C :    0.017110
   1 C :   -0.033853
   2 C :   -0.041292
   3 H :    0.020919
   4 H :    0.029378
   5 S :    1.092423
   6 C :   -0.271056
   7 N :    0.200188
   8 C :    0.165075
   9 H :   -0.057651
  10 H :   -0.113911
  11 H :    0.006805
  12 H :   -0.038391
  13 F :   -0.272454
  14 O :   -0.428411
  15 C :   -0.022185
  16 C :   -0.023104
  17 H :    0.039063
  18 H :    0.039955
  19 C :   -0.037174
  20 H :    0.018616
  21 H :    0.025512
  22 O :   -0.430557
  23 H :   -0.005360
  24 H :    0.032410
  25 H :   -0.009802
  26 H :    0.040292
  27 H :    0.028752
  28 H :    0.028704

  Mayer bond orders larger than 0.100000
B(  0-C ,  6-C ) :   1.3961 B(  0-C ,  8-C ) :   0.1339 B(  0-C , 15-C ) :   1.0704
B(  0-C , 20-H ) :   0.1378 B(  0-C , 21-H ) :   0.2271 B(  0-C , 27-H ) :   0.7551
B(  0-C , 28-H ) :   0.4430 B(  1-C ,  2-C ) :   1.1900 B(  1-C ,  3-H ) :   0.1084
B(  1-C ,  4-H ) :   0.2293 B(  1-C , 16-C ) :   1.2184 B(  1-C , 17-H ) :   0.5789
B(  1-C , 18-H ) :   0.6771 B(  2-C ,  3-H ) :   0.8257 B(  2-C ,  4-H ) :   0.8025
B(  2-C ,  5-S ) :   0.9227 B(  2-C , 17-H ) :   0.1328 B(  2-C , 18-H ) :   0.1885
B(  5-S , 13-F ) :   0.6939 B(  5-S , 14-O ) :   1.6770 B(  5-S , 22-O ) :   1.5900
B(  6-C ,  7-N ) :   1.0141 B(  6-C ,  8-C ) :   2.0363 B(  6-C , 10-H ) :   0.5950
B(  6-C , 15-C ) :   0.2778 B(  6-C , 21-H ) :  -0.1192 B(  6-C , 28-H ) :   0.4547
B(  7-N ,  8-C ) :   0.4459 B(  7-N ,  9-H ) :   0.2027 B(  7-N , 10-H ) :  -0.1432
B(  7-N , 11-H ) :   0.9496 B(  7-N , 12-H ) :   0.8568 B(  8-C ,  9-H ) :   0.5148
B(  8-C , 10-H ) :  -0.2065 B(  8-C , 27-H ) :  -0.1282 B(  9-H , 10-H ) :   0.1137
B(  9-H , 25-H ) :   0.1205 B( 10-H , 12-H ) :   0.1883 B( 10-H , 21-H ) :  -0.1005
B( 11-H , 12-H ) :  -0.1742 B( 12-H , 13-F ) :   0.1372 B( 15-C , 19-C ) :   1.1710
B( 15-C , 20-H ) :   0.5781 B( 15-C , 21-H ) :   0.7132 B( 15-C , 23-H ) :   0.1329
B( 15-C , 27-H ) :   0.1472 B( 16-C , 17-H ) :   0.3339 B( 16-C , 19-C ) :   1.2009
B( 16-C , 23-H ) :   0.1674 B( 16-C , 24-H ) :   0.1687 B( 16-C , 25-H ) :   0.7010
B( 16-C , 26-H ) :   0.5902 B( 17-H , 18-H ) :  -0.1455 B( 19-C , 20-H ) :   0.3495
B( 19-C , 21-H ) :   0.1934 B( 19-C , 23-H ) :   0.8188 B( 19-C , 24-H ) :   0.8016
B( 19-C , 25-H ) :   0.2188 B( 19-C , 26-H ) :   0.2317 B( 20-H , 21-H ) :  -0.1817

FINAL SINGLE POINT ENERGY     -1015.396900178483

DIPOLE MOMENT
-------------
                                X             Y             Z
Electronic contribution:      3.42919      -4.17947     -18.19231
Nuclear contribution   :     -3.13969       6.14743      19.30799
                        -----------------------------------------
Total Dipole Moment    :      0.28951       1.96796       1.11568
                        -----------------------------------------
Magnitude (a.u.)       :      2.28066
Magnitude (Debye)      :      5.79698

Rotational constants in cm-1:     0.036460     0.018762     0.015014
Rotational constants in MHz :  1093.039020   562.475626   450.105862

                             ****ORCA TERMINATED NORMALLY****
TOTAL RUN TIME: 0 days 0 hours 3 minutes 0 seconds 112 msec
