                         Program Version 5.0.0 -  RELEASE  -
|  1> !LC-BLYP RIJCOSX def2-SVPD def2/J TightSCF xyzfile
|  2>
|  3> *xyzfile 0 1 D5.xyz
|  4>
|  5> %MaxCore 64000
|  6>
|  7> %pal nprocs 4
|  8> end
|  9>
| 10> %scf
| 11>   MaxIter 150
| 12> end
| 13>
| 14>
| 15>                          ****END OF INPUT****

CARTESIAN COORDINATES (ANGSTROEM)
---------------------------------
  C      2.916324   -1.242589   -1.543125
  C      0.704661    1.443129   -4.503630
  C      1.728539    1.424320   -5.639443
  H      2.646718    1.953794   -5.381054
  H      1.299916    1.930613   -6.503614
  S      2.252625   -0.188115   -6.271840
  C      3.466585   -1.590971   -2.889082
  C      4.652275   -1.143164   -3.259692
  N      2.752264   -2.292043   -3.728029
  H      1.778364   -2.489604   -3.512738
  H      2.948612   -2.208544   -4.716813
  H      5.146723   -0.512508   -2.633852
  H      4.783030   -1.007203   -4.253498
  O      3.562607   -0.444464   -5.631552
  O      2.344944   -0.033742   -7.696501
  C      2.804084    0.290698   -1.359243
  C      1.052550    0.695659   -3.214915
  H     -0.232483    1.032925   -4.884449
  H      0.511700    2.495794   -4.267966
  C      2.388380    1.093669   -2.597108
  H      3.763425    0.674718   -0.999889
  H      2.094788    0.461222   -0.545756
  F      1.266058   -1.159177   -5.805365
  H      3.167316    1.013242   -3.359430
  H      2.357690    2.149375   -2.310997
  H      1.039284   -0.368429   -3.449329
  H      0.250787    0.865605   -2.488283
  H      1.940472   -1.716529   -1.441161
  H      3.558569   -1.663433   -0.766371

 Total Charge           Charge          ....    0
 Multiplicity           Mult            ....    1
 Number of Electrons    NEL             ....  112
 Basis Dimension        Dim             ....  404

ORBITAL ENERGIES
----------------

  NO   OCC          E(Eh)            E(eV)
   0   2.0000     -88.577561     -2410.3180
   1   2.0000     -24.599905      -669.3974
   2   2.0000     -18.984645      -516.5985
   3   2.0000     -18.970566      -516.2153
   4   2.0000     -14.178688      -385.8217
   5   2.0000     -10.154572      -276.3200
   6   2.0000     -10.124027      -275.4888
   7   2.0000     -10.100422      -274.8464
   8   2.0000     -10.094551      -274.6867
   9   2.0000     -10.086272      -274.4614
  10   2.0000     -10.085418      -274.4382
  11   2.0000     -10.082827      -274.3677
  12   2.0000      -9.997160      -272.0366
  13   2.0000      -8.126095      -221.1223
  14   2.0000      -6.165117      -167.7614
  15   2.0000      -6.158254      -167.5746
  16   2.0000      -6.156476      -167.5262
  17   2.0000      -1.459419       -39.7128
  18   2.0000      -1.220392       -33.2085
  19   2.0000      -1.115995       -30.3678
  20   2.0000      -1.022163       -27.8145
  21   2.0000      -0.955409       -25.9980
  22   2.0000      -0.908771       -24.7289
  23   2.0000      -0.871052       -23.7025
  24   2.0000      -0.833646       -22.6847
  25   2.0000      -0.811845       -22.0914
  26   2.0000      -0.787040       -21.4165
  27   2.0000      -0.750648       -20.4262
  28   2.0000      -0.713603       -19.4181
  29   2.0000      -0.702586       -19.1184
  30   2.0000      -0.685101       -18.6425
  31   2.0000      -0.664117       -18.0715
  32   2.0000      -0.650137       -17.6911
  33   2.0000      -0.618389       -16.8272
  34   2.0000      -0.609379       -16.5821
  35   2.0000      -0.605869       -16.4865
  36   2.0000      -0.586944       -15.9716
  37   2.0000      -0.578538       -15.7428
  38   2.0000      -0.563348       -15.3295
  39   2.0000      -0.557349       -15.1662
  40   2.0000      -0.539310       -14.6754
  41   2.0000      -0.523458       -14.2440
  42   2.0000      -0.510413       -13.8890
  43   2.0000      -0.492689       -13.4068
  44   2.0000      -0.492263       -13.3952
  45   2.0000      -0.479636       -13.0516
  46   2.0000      -0.471988       -12.8435
  47   2.0000      -0.457776       -12.4567
  48   2.0000      -0.451377       -12.2826
  49   2.0000      -0.441929       -12.0255
  50   2.0000      -0.433034       -11.7835
  51   2.0000      -0.427775       -11.6403
  52   2.0000      -0.420978       -11.4554
  53   2.0000      -0.411637       -11.2012
  54   2.0000      -0.405286       -11.0284
  55   2.0000      -0.272280        -7.4091
  56   0.0000       0.040076         1.0905
  57   0.0000       0.062820         1.7094
  58   0.0000       0.068628         1.8675
  59   0.0000       0.074660         2.0316
  60   0.0000       0.085034         2.3139

MULLIKEN ATOMIC CHARGES
-----------------------
   0 C :    0.787919
   1 C :    0.675681
   2 C :    0.349439
   3 H :    0.026520
   4 H :   -0.295545
   5 S :    1.153325
   6 C :   -0.730944
   7 C :    0.898808
   8 N :    0.587327
   9 H :    0.000514
  10 H :   -0.282494
  11 H :   -0.108710
  12 H :   -0.735460
  13 O :   -0.647558
  14 O :   -0.507456
  15 C :    0.541248
  16 C :    0.566595
  17 H :   -0.084274
  18 H :   -0.112885
  19 C :    0.184886
  20 H :   -0.091439
  21 H :   -0.225469
  22 F :   -0.446179
  23 H :   -0.195082
  24 H :   -0.247671
  25 H :   -0.589895
  26 H :   -0.172935
  27 H :    0.017046
  28 H :   -0.315313
Sum of atomic charges:   -0.0000000

LOEWDIN ATOMIC CHARGES
----------------------
   0 C :    0.015178
   1 C :   -0.042375
   2 C :   -0.032535
   3 H :    0.035682
   4 H :    0.025388
   5 S :    1.106149
   6 C :   -0.264645
   7 C :    0.175021
   8 N :    0.192707
   9 H :   -0.000119
  10 H :   -0.047574
  11 H :   -0.067771
  12 H :   -0.129373
  13 O :   -0.450650
  14 O :   -0.424271
  15 C :   -0.019127
  16 C :   -0.029360
  17 H :    0.032925
  18 H :    0.042180
  19 C :   -0.029850
  20 H :    0.026013
  21 H :    0.021789
  22 F :   -0.245550
  23 H :    0.002191
  24 H :    0.033330
  25 H :   -0.012763
  26 H :    0.039951
  27 H :    0.014278
  28 H :    0.033181

  Mayer bond orders larger than 0.100000
B(  0-C ,  6-C ) :   1.3302 B(  0-C ,  8-N ) :   0.1039 B(  0-C , 15-C ) :   1.0834
B(  0-C , 19-C ) :   0.1477 B(  0-C , 20-H ) :   0.1104 B(  0-C , 21-H ) :   0.2250
B(  0-C , 27-H ) :   0.4970 B(  0-C , 28-H ) :   0.6057 B(  1-C ,  2-C ) :   1.1811
B(  1-C ,  3-H ) :   0.1000 B(  1-C ,  4-H ) :   0.2392 B(  1-C , 16-C ) :   1.2092
B(  1-C , 17-H ) :   0.5734 B(  1-C , 18-H ) :   0.6572 B(  2-C ,  3-H ) :   0.8622
B(  2-C ,  4-H ) :   0.8133 B(  2-C ,  5-S ) :   0.9648 B(  2-C , 17-H ) :   0.1195
B(  2-C , 18-H ) :   0.1939 B(  5-S , 13-O ) :   1.4887 B(  5-S , 14-O ) :   1.6893
B(  5-S , 22-F ) :   0.7017 B(  6-C ,  7-C ) :   2.2145 B(  6-C ,  8-N ) :   1.0588
B(  6-C , 11-H ) :   0.1008 B(  6-C , 12-H ) :   0.4106 B(  6-C , 15-C ) :   0.1386
B(  6-C , 27-H ) :   0.3659 B(  6-C , 28-H ) :   0.2763 B(  7-C ,  8-N ) :   0.3583
B(  7-C , 11-H ) :   0.4797 B(  7-C , 12-H ) :   0.2241 B(  8-N ,  9-H ) :   0.8760
B(  8-N , 10-H ) :   0.9027 B(  8-N , 11-H ) :   0.2082 B(  9-H , 10-H ) :  -0.1647
B( 10-H , 13-O ) :   0.1195 B( 11-H , 23-H ) :   0.1092 B( 12-H , 13-O ) :   0.2833
B( 15-C , 19-C ) :   1.1751 B( 15-C , 20-H ) :   0.6044 B( 15-C , 21-H ) :   0.7437
B( 15-C , 23-H ) :   0.2199 B( 15-C , 27-H ) :   0.1613 B( 16-C , 17-H ) :   0.3321
B( 16-C , 18-H ) :   0.1061 B( 16-C , 19-C ) :   1.1932 B( 16-C , 23-H ) :   0.1917
B( 16-C , 24-H ) :   0.1984 B( 16-C , 25-H ) :   0.6562 B( 16-C , 26-H ) :   0.6285
B( 17-H , 18-H ) :  -0.1544 B( 19-C , 20-H ) :   0.3378 B( 19-C , 21-H ) :   0.2080
B( 19-C , 23-H ) :   0.7795 B( 19-C , 24-H ) :   0.7494 B( 19-C , 25-H ) :   0.2132
B( 19-C , 26-H ) :   0.2488 B( 20-H , 21-H ) :  -0.1800

FINAL SINGLE POINT ENERGY     -1015.384285920031

DIPOLE MOMENT
-------------
                                X             Y             Z
Electronic contribution:     -1.76582      -5.98842     -18.96688
Nuclear contribution   :     -0.26930       7.11259      19.56706
                        -----------------------------------------
Total Dipole Moment    :     -2.03512       1.12416       0.60019
                        -----------------------------------------
Magnitude (a.u.)       :      2.40118
Magnitude (Debye)      :      6.10333

Rotational constants in cm-1:     0.036519     0.018683     0.015073
Rotational constants in MHz :  1094.801738   560.111127   451.890222

                             ****ORCA TERMINATED NORMALLY****
TOTAL RUN TIME: 0 days 0 hours 2 minutes 47 seconds 857 msec
