                         Program Version 5.0.0 -  RELEASE  -
|  1> !PBE0 D3BJ RIJCOSX def2-SVPD def2/J TightSCF
|  2> *xyz 1 1
|  3> C          4.99986       -1.59613       -5.92488
|  4> N          5.28156       -1.97413       -4.53576
|  5> C          4.79250       -1.36132       -3.45730
|  6> N          3.93990       -0.37492       -3.55736
|  7> N          5.25986       -1.75422       -2.23913
|  8> H          5.92282       -2.52145       -2.18672
|  9> H          4.65468       -1.64040       -1.44202
| 10> H          5.70914       -2.87560       -4.38702
| 11> H          3.33010       -0.31764       -4.36125
| 12> H          3.69849        0.11447       -2.70833
| 13> H          5.52133       -2.25562       -6.58673
| 14> H          5.32493       -0.59081       -6.09388
| 15> H          3.94785       -1.66624       -6.10727
| 16> *
| 17>
| 18> %MaxCore 64000
| 19>
| 20> %pal nprocs 4
| 21> end
| 22>
| 23> %scf
| 24>   MaxIter 150
| 25> end
| 26>
| 27>
| 28>                          ****END OF INPUT****

CARTESIAN COORDINATES (ANGSTROEM)
---------------------------------
  C      4.999860   -1.596130   -5.924880
  N      5.281560   -1.974130   -4.535760
  C      4.792500   -1.361320   -3.457300
  N      3.939900   -0.374920   -3.557360
  N      5.259860   -1.754220   -2.239130
  H      5.922820   -2.521450   -2.186720
  H      4.654680   -1.640400   -1.442020
  H      5.709140   -2.875600   -4.387020
  H      3.330100   -0.317640   -4.361250
  H      3.698490    0.114470   -2.708330
  H      5.521330   -2.255620   -6.586730
  H      5.324930   -0.590810   -6.093880
  H      3.947850   -1.666240   -6.107270

 Total Charge           Charge          ....    1
 Multiplicity           Mult            ....    1
 Number of Electrons    NEL             ....   40
 Basis Dimension        Dim             ....  164

ORBITAL ENERGIES
----------------

  NO   OCC          E(Eh)            E(eV)
   0   2.0000     -14.629518      -398.0894
   1   2.0000     -14.629305      -398.0836
   2   2.0000     -14.619297      -397.8113
   3   2.0000     -10.572869      -287.7024
   4   2.0000     -10.439070      -284.0615
   5   2.0000      -1.240376       -33.7524
   6   2.0000      -1.128993       -30.7215
   7   2.0000      -1.112345       -30.2685
   8   2.0000      -0.923751       -25.1365
   9   2.0000      -0.848964       -23.1015
  10   2.0000      -0.810390       -22.0518
  11   2.0000      -0.768132       -20.9019
  12   2.0000      -0.720250       -19.5990
  13   2.0000      -0.712620       -19.3914
  14   2.0000      -0.670641       -18.2491
  15   2.0000      -0.650356       -17.6971
  16   2.0000      -0.606840       -16.5130
  17   2.0000      -0.594283       -16.1713
  18   2.0000      -0.499465       -13.5911
  19   2.0000      -0.473251       -12.8778
  20   0.0000      -0.176642        -4.8067
  21   0.0000      -0.148408        -4.0384
  22   0.0000      -0.113332        -3.0839
  23   0.0000      -0.105013        -2.8575
  24   0.0000      -0.084608        -2.3023

MULLIKEN ATOMIC CHARGES
-----------------------
   0 C :    0.958791
   1 N :   -0.646268
   2 C :    1.423735
   3 N :   -0.122654
   4 N :   -0.184746
   5 H :    0.000338
   6 H :   -0.008461
   7 H :   -0.196744
   8 H :    0.012030
   9 H :   -0.044221
  10 H :   -0.229667
  11 H :    0.027110
  12 H :    0.010758
Sum of atomic charges:    1.0000000

LOEWDIN ATOMIC CHARGES
----------------------
   0 C :    0.254800
   1 N :    0.013610
   2 C :   -0.032428
   3 N :    0.280889
   4 N :    0.256994
   5 H :    0.035246
   6 H :    0.029466
   7 H :    0.052480
   8 H :    0.037882
   9 H :    0.046568
  10 H :    0.014147
  11 H :    0.011134
  12 H :   -0.000790

  Mayer bond orders larger than 0.100000
B(  0-C ,  1-N ) :   0.8824 B(  0-C ,  7-H ) :  -0.1107 B(  0-C , 10-H ) :   0.8788
B(  0-C , 11-H ) :   0.8350 B(  0-C , 12-H ) :   0.8426 B(  1-N ,  2-C ) :   0.9888
B(  1-N ,  3-N ) :   0.2388 B(  1-N ,  4-N ) :   0.2063 B(  1-N ,  7-H ) :   1.2756
B(  1-N , 10-H ) :   0.1580 B(  1-N , 11-H ) :   0.1502 B(  1-N , 12-H ) :   0.1290
B(  2-C ,  3-N ) :   0.9763 B(  2-C ,  4-N ) :   0.7959 B(  2-C ,  7-H ) :  -0.1749
B(  2-C ,  8-H ) :  -0.1105 B(  2-C ,  9-H ) :  -0.1012 B(  3-N ,  4-N ) :   0.1550
B(  3-N ,  8-H ) :   1.1144 B(  3-N ,  9-H ) :   1.1634 B(  4-N ,  5-H ) :   1.0752
B(  4-N ,  6-H ) :   1.1540 B(  5-H ,  6-H ) :  -0.1191 B(  8-H ,  9-H ) :  -0.1648

Dispersion correction           -0.007578284
FINAL SINGLE POINT ENERGY      -244.645484479899

DIPOLE MOMENT
-------------
                                X             Y             Z
Electronic contribution:      0.17171       0.11857       2.67615
Nuclear contribution   :     -0.59263      -0.40751      -2.24260
                        -----------------------------------------
Total Dipole Moment    :     -0.42092      -0.28895       0.43356
                        -----------------------------------------
Magnitude (a.u.)       :      0.66980
Magnitude (Debye)      :      1.70250

Rotational constants in cm-1:     0.316984     0.131419     0.095004
Rotational constants in MHz :  9502.926758  3939.829875  2848.138998

                             ****ORCA TERMINATED NORMALLY****
TOTAL RUN TIME: 0 days 0 hours 0 minutes 14 seconds 161 msec
