                         Program Version 5.0.0 -  RELEASE  -
|  1> !PBE0 D3BJ RIJCOSX def2-SVPD def2/J TightSCF
|  2> *xyz 0 1
|  3> C          2.49670       -1.84416       -5.73570
|  4> F          2.45973       -0.50920       -5.50576
|  5> H          2.07863       -2.36209       -4.89793
|  6> H          3.51118       -2.15388       -5.87645
|  7> H          1.92949       -2.07059       -6.61428
|  8> *
|  9>
| 10> %MaxCore 64000
| 11>
| 12> %pal nprocs 4
| 13> end
| 14>
| 15> %scf
| 16>   MaxIter 150
| 17> end
| 18>
| 19>
| 20>                          ****END OF INPUT****

CARTESIAN COORDINATES (ANGSTROEM)
---------------------------------
  C      2.496700   -1.844160   -5.735700
  F      2.459730   -0.509200   -5.505760
  H      2.078630   -2.362090   -4.897930
  H      3.511180   -2.153880   -5.876450
  H      1.929490   -2.070590   -6.614280

 Total Charge           Charge          ....    0
 Multiplicity           Mult            ....    1
 Number of Electrons    NEL             ....   18
 Basis Dimension        Dim             ....   67

ORBITAL ENERGIES
----------------

  NO   OCC          E(Eh)            E(eV)
   0   2.0000     -24.769646      -674.0163
   1   2.0000     -10.301030      -280.3053
   2   2.0000      -1.220550       -33.2129
   3   2.0000      -0.722341       -19.6559
   4   2.0000      -0.519256       -14.1297
   5   2.0000      -0.510963       -13.9040
   6   2.0000      -0.510949       -13.9036
   7   2.0000      -0.365068        -9.9340
   8   2.0000      -0.365045        -9.9334
   9   0.0000       0.033910         0.9227
  10   0.0000       0.072716         1.9787
  11   0.0000       0.110282         3.0009
  12   0.0000       0.110289         3.0011
  13   0.0000       0.154264         4.1977

MULLIKEN ATOMIC CHARGES
-----------------------
   0 C :    0.779631
   1 F :   -0.498833
   2 H :   -0.093618
   3 H :   -0.093715
   4 H :   -0.093465
Sum of atomic charges:    0.0000000

LOEWDIN ATOMIC CHARGES
----------------------
   0 C :    0.262618
   1 F :   -0.252468
   2 H :   -0.003398
   3 H :   -0.003393
   4 H :   -0.003359

  Mayer bond orders larger than 0.100000
B(  0-C ,  1-F ) :   0.8163 B(  0-C ,  2-H ) :   0.9546 B(  0-C ,  3-H ) :   0.9552
B(  0-C ,  4-H ) :   0.9551

Dispersion correction           -0.001018089
FINAL SINGLE POINT ENERGY      -139.497061825728

DIPOLE MOMENT
-------------
                                X             Y             Z
Electronic contribution:     -0.07992       2.88707       0.49713
Nuclear contribution   :      0.09898      -3.57380      -0.61557
                        -----------------------------------------
Total Dipole Moment    :      0.01906      -0.68673      -0.11844
                        -----------------------------------------
Magnitude (a.u.)       :      0.69713
Magnitude (Debye)      :      1.77196

Rotational constants in cm-1:     5.477724     0.890368     0.890367
Rotational constants in MHz : 164218.041992 26692.553985 26692.534390

                             ****ORCA TERMINATED NORMALLY****
TOTAL RUN TIME: 0 days 0 hours 0 minutes 3 seconds 279 msec
