                         Program Version 5.0.0 -  RELEASE  -
|  1> !PBE0 D3BJ RIJCOSX def2-SVPD def2/J TightSCF
|  2> *xyz 0 1
|  3> C          4.99986       -1.59613       -5.92488
|  4> C          5.28156       -1.97413       -4.53576
|  5> C          4.79250       -1.36132       -3.45730
|  6> N          3.93990       -0.37492       -3.55736
|  7> N          5.25986       -1.75422       -2.23913
|  8> H          5.92282       -2.52145       -2.18672
|  9> H          4.65468       -1.64040       -1.44202
| 10> H          5.70914       -2.87560       -4.38702
| 11> H          3.33010       -0.31764       -4.36125
| 12> H          3.69849        0.11447       -2.70833
| 13> H          5.52133       -2.25562       -6.58673
| 14> H          5.32493       -0.59081       -6.09388
| 15> H          3.94785       -1.66624       -6.10727
| 16> *
| 17>
| 18> %MaxCore 64000
| 19>
| 20> %pal nprocs 4
| 21> end
| 22>
| 23> %scf
| 24>   MaxIter 150
| 25> end
| 26>
| 27>
| 28>                          ****END OF INPUT****

CARTESIAN COORDINATES (ANGSTROEM)
---------------------------------
  C      4.999860   -1.596130   -5.924880
  C      5.281560   -1.974130   -4.535760
  C      4.792500   -1.361320   -3.457300
  N      3.939900   -0.374920   -3.557360
  N      5.259860   -1.754220   -2.239130
  H      5.922820   -2.521450   -2.186720
  H      4.654680   -1.640400   -1.442020
  H      5.709140   -2.875600   -4.387020
  H      3.330100   -0.317640   -4.361250
  H      3.698490    0.114470   -2.708330
  H      5.521330   -2.255620   -6.586730
  H      5.324930   -0.590810   -6.093880
  H      3.947850   -1.666240   -6.107270

 Total Charge           Charge          ....    0
 Multiplicity           Mult            ....    1
 Number of Electrons    NEL             ....   40
 Basis Dimension        Dim             ....  164

ORBITAL ENERGIES
----------------

  NO   OCC          E(Eh)            E(eV)
   0   2.0000     -14.400598      -391.8602
   1   2.0000     -14.390883      -391.5958
   2   2.0000     -10.271944      -279.5138
   3   2.0000     -10.196955      -277.4733
   4   2.0000     -10.158225      -276.4194
   5   2.0000      -0.980194       -26.6724
   6   2.0000      -0.886252       -24.1161
   7   2.0000      -0.766608       -20.8605
   8   2.0000      -0.670015       -18.2320
   9   2.0000      -0.599735       -16.3196
  10   2.0000      -0.560407       -15.2494
  11   2.0000      -0.517507       -14.0821
  12   2.0000      -0.492490       -13.4013
  13   2.0000      -0.443366       -12.0646
  14   2.0000      -0.419565       -11.4169
  15   2.0000      -0.386802       -10.5254
  16   2.0000      -0.371613       -10.1121
  17   2.0000      -0.349929        -9.5221
  18   2.0000      -0.278203        -7.5703
  19   2.0000      -0.170854        -4.6492
  20   0.0000       0.023380         0.6362
  21   0.0000       0.050535         1.3751
  22   0.0000       0.063451         1.7266
  23   0.0000       0.076434         2.0799
  24   0.0000       0.091962         2.5024

MULLIKEN ATOMIC CHARGES
-----------------------
   0 C :    0.618058
   1 C :   -0.763975
   2 C :    1.002261
   3 N :   -0.056490
   4 N :   -0.145294
   5 H :   -0.019359
   6 H :   -0.092643
   7 H :   -0.344022
   8 H :   -0.034799
   9 H :   -0.185370
  10 H :   -0.037231
  11 H :    0.058006
  12 H :    0.000860
Sum of atomic charges:   -0.0000000

LOEWDIN ATOMIC CHARGES
----------------------
   0 C :    0.081553
   1 C :   -0.063352
   2 C :   -0.233038
   3 N :    0.193572
   4 N :    0.171149
   5 H :    0.000546
   6 H :   -0.023226
   7 H :   -0.060126
   8 H :    0.004052
   9 H :   -0.002835
  10 H :   -0.018652
  11 H :   -0.019015
  12 H :   -0.030629

  Mayer bond orders larger than 0.100000
B(  0-C ,  1-C ) :   1.2610 B(  0-C ,  7-H ) :   0.1444 B(  0-C , 10-H ) :   0.7901
B(  0-C , 11-H ) :   0.7259 B(  0-C , 12-H ) :   0.7840 B(  1-C ,  2-C ) :   1.4510
B(  1-C ,  3-N ) :   0.2979 B(  1-C ,  4-N ) :   0.3126 B(  1-C ,  7-H ) :   1.0438
B(  1-C , 10-H ) :   0.2600 B(  1-C , 11-H ) :   0.2629 B(  1-C , 12-H ) :   0.1593
B(  2-C ,  3-N ) :   0.9651 B(  2-C ,  4-N ) :   0.7634 B(  2-C ,  9-H ) :  -0.1100
B(  3-N ,  8-H ) :   1.1057 B(  3-N ,  9-H ) :   1.2504 B(  4-N ,  5-H ) :   1.0707
B(  4-N ,  6-H ) :   1.1474 B(  5-H ,  6-H ) :  -0.1051 B(  8-H ,  9-H ) :  -0.1524
B( 10-H , 11-H ) :   0.1022

Dispersion correction           -0.007933747
FINAL SINGLE POINT ENERGY      -228.192205842846

DIPOLE MOMENT
-------------
                                X             Y             Z
Electronic contribution:     -0.13592       0.60193       3.08098
Nuclear contribution   :     -0.50372      -0.52081      -2.36443
                        -----------------------------------------
Total Dipole Moment    :     -0.63964       0.08112       0.71656
                        -----------------------------------------
Magnitude (a.u.)       :      0.96394
Magnitude (Debye)      :      2.45013

Rotational constants in cm-1:     0.322219     0.132365     0.095965
Rotational constants in MHz :  9659.878542  3968.206057  2876.950547

                             ****ORCA TERMINATED NORMALLY****
TOTAL RUN TIME: 0 days 0 hours 0 minutes 15 seconds 255 msec
