                         Program Version 5.0.0 -  RELEASE  -
|  1> !PBE0 D3BJ RIJCOSX def2-SVPD def2/J TightSCF
|  2> *xyz 0 1
|  3> C          4.99986       -1.59613       -5.92488
|  4> N          5.28156       -1.97413       -4.53576
|  5> C          4.79250       -1.36132       -3.45730
|  6> C          3.93990       -0.37492       -3.55736
|  7> N          5.25986       -1.75422       -2.23913
|  8> H          5.92282       -2.52145       -2.18672
|  9> H          4.65468       -1.64040       -1.44202
| 10> H          5.70914       -2.87560       -4.38702
| 11> H          3.33010       -0.31764       -4.36125
| 12> H          3.69849        0.11447       -2.70833
| 13> H          5.52133       -2.25562       -6.58673
| 14> H          5.32493       -0.59081       -6.09388
| 15> H          3.94785       -1.66624       -6.10727
| 16> *
| 17>
| 18> %MaxCore 64000
| 19>
| 20> %pal nprocs 4
| 21> end
| 22>
| 23> %scf
| 24>   MaxIter 150
| 25> end
| 26>
| 27>
| 28>                          ****END OF INPUT****

CARTESIAN COORDINATES (ANGSTROEM)
---------------------------------
  C      4.999860   -1.596130   -5.924880
  N      5.281560   -1.974130   -4.535760
  C      4.792500   -1.361320   -3.457300
  C      3.939900   -0.374920   -3.557360
  N      5.259860   -1.754220   -2.239130
  H      5.922820   -2.521450   -2.186720
  H      4.654680   -1.640400   -1.442020
  H      5.709140   -2.875600   -4.387020
  H      3.330100   -0.317640   -4.361250
  H      3.698490    0.114470   -2.708330
  H      5.521330   -2.255620   -6.586730
  H      5.324930   -0.590810   -6.093880
  H      3.947850   -1.666240   -6.107270

 Total Charge           Charge          ....    0
 Multiplicity           Mult            ....    1
 Number of Electrons    NEL             ....   40
 Basis Dimension        Dim             ....  164

ORBITAL ENERGIES
----------------

  NO   OCC          E(Eh)            E(eV)
   0   2.0000     -14.401211      -391.8769
   1   2.0000     -14.393465      -391.6661
   2   2.0000     -10.276111      -279.6272
   3   2.0000     -10.257302      -279.1154
   4   2.0000     -10.147258      -276.1209
   5   2.0000      -0.980759       -26.6878
   6   2.0000      -0.894121       -24.3303
   7   2.0000      -0.741999       -20.1908
   8   2.0000      -0.712440       -19.3865
   9   2.0000      -0.582580       -15.8528
  10   2.0000      -0.559625       -15.2282
  11   2.0000      -0.527499       -14.3540
  12   2.0000      -0.471951       -12.8424
  13   2.0000      -0.450885       -12.2692
  14   2.0000      -0.431112       -11.7312
  15   2.0000      -0.397779       -10.8241
  16   2.0000      -0.396353       -10.7853
  17   2.0000      -0.368131       -10.0173
  18   2.0000      -0.262932        -7.1547
  19   2.0000      -0.185113        -5.0372
  20   0.0000       0.023214         0.6317
  21   0.0000       0.045501         1.2381
  22   0.0000       0.061197         1.6653
  23   0.0000       0.076707         2.0873
  24   0.0000       0.092557         2.5186

MULLIKEN ATOMIC CHARGES
-----------------------
   0 C :    0.933275
   1 N :   -0.621737
   2 C :    0.745078
   3 C :    0.191071
   4 N :   -0.117269
   5 H :   -0.125729
   6 H :   -0.026650
   7 H :   -0.316179
   8 H :   -0.140066
   9 H :   -0.292838
  10 H :   -0.304211
  11 H :    0.015519
  12 H :    0.059734
Sum of atomic charges:    0.0000000

LOEWDIN ATOMIC CHARGES
----------------------
   0 C :    0.206927
   1 N :   -0.058684
   2 C :   -0.239633
   3 C :    0.150995
   4 N :    0.177667
   5 H :   -0.014497
   6 H :   -0.004403
   7 H :    0.010318
   8 H :   -0.097079
   9 H :   -0.092102
  10 H :   -0.013917
  11 H :   -0.007700
  12 H :   -0.017891

  Mayer bond orders larger than 0.100000
B(  0-C ,  1-N ) :   0.8835 B(  0-C ,  7-H ) :  -0.1179 B(  0-C , 10-H ) :   0.8992
B(  0-C , 11-H ) :   0.8406 B(  0-C , 12-H ) :   0.8392 B(  1-N ,  2-C ) :   0.9224
B(  1-N ,  3-C ) :   0.3456 B(  1-N ,  4-N ) :   0.1538 B(  1-N ,  7-H ) :   1.3504
B(  1-N , 10-H ) :   0.1520 B(  1-N , 11-H ) :   0.1482 B(  1-N , 12-H ) :   0.1119
B(  2-C ,  3-C ) :   1.7322 B(  2-C ,  4-N ) :   0.8167 B(  2-C ,  7-H ) :  -0.1880
B(  2-C ,  8-H ) :   0.1870 B(  2-C ,  9-H ) :   0.2418 B(  3-C ,  4-N ) :   0.2455
B(  3-C ,  8-H ) :   0.7980 B(  3-C ,  9-H ) :   0.8085 B(  4-N ,  5-H ) :   1.1090
B(  4-N ,  6-H ) :   1.1206 B(  5-H ,  6-H ) :  -0.1079 B(  8-H ,  9-H ) :   0.1269

Dispersion correction           -0.007918529
FINAL SINGLE POINT ENERGY      -228.181489996485

DIPOLE MOMENT
-------------
                                X             Y             Z
Electronic contribution:      1.11131      -0.86525       2.12066
Nuclear contribution   :     -0.77547      -0.19690      -2.16626
                        -----------------------------------------
Total Dipole Moment    :      0.33585      -1.06215      -0.04559
                        -----------------------------------------
Magnitude (a.u.)       :      1.11492
Magnitude (Debye)      :      2.83389

Rotational constants in cm-1:     0.340409     0.131955     0.097296
Rotational constants in MHz : 10205.195281  3955.909122  2916.861706

                             ****ORCA TERMINATED NORMALLY****
TOTAL RUN TIME: 0 days 0 hours 0 minutes 15 seconds 386 msec
