                         Program Version 5.0.0 -  RELEASE  -
|  1> !PBE0 D3BJ RIJCOSX def2-SVPD def2/J TightSCF
|  2> *xyz 0 1
|  3> C          4.99986       -1.59613       -5.92488
|  4> N          5.28156       -1.97413       -4.53576
|  5> C          4.79250       -1.36132       -3.45730
|  6> N          3.93990       -0.37492       -3.55736
|  7> C          5.25986       -1.75422       -2.23913
|  8> H          5.92282       -2.52145       -2.18672
|  9> H          4.65468       -1.64040       -1.44202
| 10> H          5.70914       -2.87560       -4.38702
| 11> H          3.33010       -0.31764       -4.36125
| 12> H          3.69849        0.11447       -2.70833
| 13> H          5.52133       -2.25562       -6.58673
| 14> H          5.32493       -0.59081       -6.09388
| 15> H          3.94785       -1.66624       -6.10727
| 16> *
| 17>
| 18> %MaxCore 64000
| 19>
| 20> %pal nprocs 4
| 21> end
| 22>
| 23> %scf
| 24>   MaxIter 150
| 25> end
| 26>
| 27>
| 28>                          ****END OF INPUT****

CARTESIAN COORDINATES (ANGSTROEM)
---------------------------------
  C      4.999860   -1.596130   -5.924880
  N      5.281560   -1.974130   -4.535760
  C      4.792500   -1.361320   -3.457300
  N      3.939900   -0.374920   -3.557360
  C      5.259860   -1.754220   -2.239130
  H      5.922820   -2.521450   -2.186720
  H      4.654680   -1.640400   -1.442020
  H      5.709140   -2.875600   -4.387020
  H      3.330100   -0.317640   -4.361250
  H      3.698490    0.114470   -2.708330
  H      5.521330   -2.255620   -6.586730
  H      5.324930   -0.590810   -6.093880
  H      3.947850   -1.666240   -6.107270

 Total Charge           Charge          ....    0
 Multiplicity           Mult            ....    1
 Number of Electrons    NEL             ....   40
 Basis Dimension        Dim             ....  164

ORBITAL ENERGIES
----------------

  NO   OCC          E(Eh)            E(eV)
   0   2.0000     -14.401272      -391.8785
   1   2.0000     -14.400391      -391.8545
   2   2.0000     -10.280390      -279.7436
   3   2.0000     -10.265736      -279.3449
   4   2.0000     -10.141829      -275.9732
   5   2.0000      -0.991017       -26.9670
   6   2.0000      -0.905615       -24.6430
   7   2.0000      -0.755876       -20.5684
   8   2.0000      -0.678840       -18.4722
   9   2.0000      -0.620399       -16.8819
  10   2.0000      -0.560664       -15.2565
  11   2.0000      -0.512038       -13.9333
  12   2.0000      -0.495881       -13.4936
  13   2.0000      -0.466623       -12.6975
  14   2.0000      -0.419772       -11.4226
  15   2.0000      -0.403759       -10.9868
  16   2.0000      -0.394799       -10.7430
  17   2.0000      -0.364746        -9.9252
  18   2.0000      -0.270517        -7.3612
  19   2.0000      -0.169738        -4.6188
  20   0.0000       0.018494         0.5032
  21   0.0000       0.053380         1.4525
  22   0.0000       0.055556         1.5118
  23   0.0000       0.069582         1.8934
  24   0.0000       0.092260         2.5105

MULLIKEN ATOMIC CHARGES
-----------------------
   0 C :    0.983342
   1 N :   -0.594505
   2 C :    0.596116
   3 N :   -0.072034
   4 C :    0.360405
   5 H :   -0.184774
   6 H :   -0.373153
   7 H :   -0.240818
   8 H :   -0.059693
   9 H :   -0.057628
  10 H :   -0.282874
  11 H :   -0.023964
  12 H :   -0.050422
Sum of atomic charges:   -0.0000000

LOEWDIN ATOMIC CHARGES
----------------------
   0 C :    0.200949
   1 N :   -0.045876
   2 C :   -0.239015
   3 N :    0.192216
   4 C :    0.134681
   5 H :   -0.108709
   6 H :   -0.115288
   7 H :    0.026036
   8 H :   -0.006891
   9 H :    0.014267
  10 H :   -0.012086
  11 H :   -0.014013
  12 H :   -0.026270

  Mayer bond orders larger than 0.100000
B(  0-C ,  1-N ) :   0.8868 B(  0-C ,  7-H ) :  -0.1266 B(  0-C , 10-H ) :   0.8738
B(  0-C , 11-H ) :   0.8497 B(  0-C , 12-H ) :   0.8476 B(  1-N ,  2-C ) :   1.0016
B(  1-N ,  3-N ) :   0.1972 B(  1-N ,  4-C ) :   0.2353 B(  1-N ,  7-H ) :   1.2498
B(  1-N , 10-H ) :   0.1579 B(  1-N , 11-H ) :   0.1415 B(  1-N , 12-H ) :   0.1594
B(  2-C ,  3-N ) :   0.9919 B(  2-C ,  4-C ) :   1.6689 B(  2-C ,  5-H ) :   0.1747
B(  2-C ,  6-H ) :   0.1742 B(  2-C ,  7-H ) :  -0.1348 B(  3-N ,  4-C ) :   0.2038
B(  3-N ,  8-H ) :   1.1174 B(  3-N ,  9-H ) :   1.1541 B(  4-C ,  5-H ) :   0.7983
B(  4-C ,  6-H ) :   0.8367 B(  5-H ,  6-H ) :   0.1475 B(  8-H ,  9-H ) :  -0.1589

Dispersion correction           -0.007884246
FINAL SINGLE POINT ENERGY      -228.175461252585

DIPOLE MOMENT
-------------
                                X             Y             Z
Electronic contribution:     -0.15290       0.48571       0.78537
Nuclear contribution   :     -0.50812      -0.47627      -1.89926
                        -----------------------------------------
Total Dipole Moment    :     -0.66101       0.00944      -1.11389
                        -----------------------------------------
Magnitude (a.u.)       :      1.29529
Magnitude (Debye)      :      3.29237

Rotational constants in cm-1:     0.323645     0.137193     0.098606
Rotational constants in MHz :  9702.637007  4112.943433  2956.125886

                             ****ORCA TERMINATED NORMALLY****
TOTAL RUN TIME: 0 days 0 hours 0 minutes 14 seconds 721 msec
