                         Program Version 5.0.0 -  RELEASE  -
|  1> !PBE0 D3BJ RIJCOSX def2-SVPD def2/J TightSCF xyzfile
|  2>
|  3> *xyzfile 0 1 D2.xyz
|  4>
|  5> %MaxCore 64000
|  6>
|  7> %pal nprocs 4
|  8> end
|  9>
| 10> %scf
| 11>   MaxIter 150
| 12> end
| 13>
| 14>
| 15>                          ****END OF INPUT****

CARTESIAN COORDINATES (ANGSTROEM)
---------------------------------
  C      4.999862   -1.596133   -5.924876
  N      5.281560   -1.974132   -4.535764
  C      3.766779   -2.266110   -6.511752
  C      2.496702   -1.844161   -5.735704
  H      1.626416   -2.217434   -6.308950
  H      2.481824   -2.456069   -4.793414
  F      2.459729   -0.509204   -5.505757
  C      4.792500   -1.361316   -3.457295
  C      3.939898   -0.374925   -3.557359
  N      5.259860   -1.754224   -2.239133
  H      5.922824   -2.521451   -2.186720
  H      4.654678   -1.640404   -1.442016
  H      5.709139   -2.875599   -4.387021
  H      3.330101   -0.317639   -4.361247
  H      3.698494    0.114468   -2.708333
  H      4.843333   -0.517930   -5.943019
  H      5.901695   -1.822503   -6.496467
  H      3.886191   -3.357076   -6.533604
  H      3.685602   -1.922168   -7.547128

 Total Charge           Charge          ....    0
 Multiplicity           Mult            ....    1
 Number of Electrons    NEL             ....   64
 Basis Dimension        Dim             ....  251

ORBITAL ENERGIES
----------------

  NO   OCC          E(Eh)            E(eV)
   0   2.0000     -24.786181      -674.4663
   1   2.0000     -14.396670      -391.7533
   2   2.0000     -14.386198      -391.4684
   3   2.0000     -10.316494      -280.7261
   4   2.0000     -10.266636      -279.3694
   5   2.0000     -10.265393      -279.3355
   6   2.0000     -10.244656      -278.7713
   7   2.0000     -10.121013      -275.4068
   8   2.0000      -1.243995       -33.8508
   9   2.0000      -0.976733       -26.5782
  10   2.0000      -0.892684       -24.2912
  11   2.0000      -0.801933       -21.8217
  12   2.0000      -0.727798       -19.8044
  13   2.0000      -0.709516       -19.3069
  14   2.0000      -0.629674       -17.1343
  15   2.0000      -0.584884       -15.9155
  16   2.0000      -0.566233       -15.4080
  17   2.0000      -0.536983       -14.6121
  18   2.0000      -0.532844       -14.4994
  19   2.0000      -0.512376       -13.9425
  20   2.0000      -0.501407       -13.6440
  21   2.0000      -0.472807       -12.8657
  22   2.0000      -0.442626       -12.0445
  23   2.0000      -0.424160       -11.5420
  24   2.0000      -0.401084       -10.9140
  25   2.0000      -0.392413       -10.6781
  26   2.0000      -0.372580       -10.1384
  27   2.0000      -0.357087        -9.7168
  28   2.0000      -0.349516        -9.5108
  29   2.0000      -0.319487        -8.6937
  30   2.0000      -0.259596        -7.0640
  31   2.0000      -0.173410        -4.7187
  32   0.0000       0.018605         0.5063
  33   0.0000       0.041303         1.1239
  34   0.0000       0.048606         1.3226
  35   0.0000       0.059652         1.6232
  36   0.0000       0.072791         1.9807

MULLIKEN ATOMIC CHARGES
-----------------------
   0 C :    0.648130
   1 N :   -0.544907
   2 C :   -0.200445
   3 C :    0.676361
   4 H :   -0.270406
   5 H :    0.280670
   6 F :   -0.535882
   7 C :    0.869721
   8 C :    0.730717
   9 N :   -0.178112
  10 H :   -0.102950
  11 H :    0.000773
  12 H :   -0.335993
  13 H :   -0.679018
  14 H :   -0.267355
  15 H :    0.236357
  16 H :   -0.340426
  17 H :   -0.049975
  18 H :    0.062739
Sum of atomic charges:   -0.0000000

LOEWDIN ATOMIC CHARGES
----------------------
   0 C :    0.060424
   1 N :   -0.021638
   2 C :   -0.007112
   3 C :    0.139530
   4 H :    0.031406
   5 H :    0.046423
   6 F :   -0.208044
   7 C :   -0.225319
   8 C :    0.184675
   9 N :    0.175263
  10 H :   -0.018202
  11 H :   -0.005758
  12 H :    0.014450
  13 H :   -0.186626
  14 H :   -0.082359
  15 H :    0.028413
  16 H :    0.021208
  17 H :    0.029179
  18 H :    0.024087

  Mayer bond orders larger than 0.100000
B(  0-C ,  1-N ) :   0.9034 B(  0-C ,  2-C ) :   1.1318 B(  0-C , 12-H ) :  -0.1838
B(  0-C , 13-H ) :   0.1146 B(  0-C , 15-H ) :   0.7004 B(  0-C , 16-H ) :   0.9870
B(  0-C , 17-H ) :   0.1088 B(  0-C , 18-H ) :   0.1066 B(  1-N ,  7-C ) :   0.8484
B(  1-N ,  8-C ) :   0.3060 B(  1-N ,  9-N ) :   0.1570 B(  1-N , 12-H ) :   1.4065
B(  1-N , 15-H ) :   0.1405 B(  1-N , 16-H ) :   0.1313 B(  2-C ,  3-C ) :   1.2312
B(  2-C ,  4-H ) :   0.1372 B(  2-C ,  6-F ) :   0.1079 B(  2-C , 17-H ) :   0.9608
B(  2-C , 18-H ) :   0.8951 B(  3-C ,  4-H ) :   1.0289 B(  3-C ,  5-H ) :   0.7892
B(  3-C ,  6-F ) :   0.6230 B(  3-C , 13-H ) :   0.1559 B(  6-F , 13-H ) :   0.2344
B(  7-C ,  8-C ) :   1.8081 B(  7-C ,  9-N ) :   0.6718 B(  7-C , 12-H ) :  -0.2491
B(  7-C , 14-H ) :   0.3683 B(  8-C ,  9-N ) :   0.3455 B(  8-C , 13-H ) :   0.3123
B(  8-C , 14-H ) :   0.6902 B(  9-N , 10-H ) :   1.0827 B(  9-N , 11-H ) :   1.0923
B(  9-N , 14-H ) :   0.1529 B( 10-H , 11-H ) :  -0.1270 B( 13-H , 15-H ) :   0.1192
B( 15-H , 16-H ) :  -0.1355

Dispersion correction           -0.014931052
FINAL SINGLE POINT ENERGY      -405.706969997595

DIPOLE MOMENT
-------------
                                X             Y             Z
Electronic contribution:     -2.26937       2.69565      -0.14116
Nuclear contribution   :      2.43398      -4.26587      -0.19921
                        -----------------------------------------
Total Dipole Moment    :      0.16461      -1.57022      -0.34037
                        -----------------------------------------
Magnitude (a.u.)       :      1.61510
Magnitude (Debye)      :      4.10525

Rotational constants in cm-1:     0.110089     0.049944     0.039407
Rotational constants in MHz :  3300.378855  1497.273856  1181.385913

                             ****ORCA TERMINATED NORMALLY****
TOTAL RUN TIME: 0 days 0 hours 0 minutes 44 seconds 648 msec
