                         Program Version 5.0.0 -  RELEASE  -
|  1> !PBE0 D3BJ RIJCOSX def2-SVPD def2/J TightSCF xyzfile
|  2>
|  3> *xyzfile 0 1 D3.xyz
|  4>
|  5> %MaxCore 64000
|  6>
|  7> %pal nprocs 4
|  8> end
|  9>
| 10> %scf
| 11>   MaxIter 150
| 12> end
| 13>
| 14>
| 15>                          ****END OF INPUT****

CARTESIAN COORDINATES (ANGSTROEM)
---------------------------------
  C      4.999862   -1.596133   -5.924876
  N      5.281560   -1.974132   -4.535764
  C      3.766779   -2.266110   -6.511752
  C      2.496702   -1.844161   -5.735704
  H      1.626416   -2.217434   -6.308950
  H      2.481824   -2.456069   -4.793414
  F      2.459729   -0.509204   -5.505757
  C      4.792500   -1.361316   -3.457295
  N      3.939898   -0.374925   -3.557359
  C      5.259860   -1.754224   -2.239133
  H      5.922824   -2.521451   -2.186720
  H      4.654678   -1.640404   -1.442016
  H      5.709139   -2.875599   -4.387021
  H      3.330101   -0.317639   -4.361247
  H      3.698494    0.114468   -2.708333
  H      4.843333   -0.517930   -5.943019
  H      5.901695   -1.822503   -6.496467
  H      3.886191   -3.357076   -6.533604
  H      3.685602   -1.922168   -7.547128

 Total Charge           Charge          ....    0
 Multiplicity           Mult            ....    1
 Number of Electrons    NEL             ....   64
 Basis Dimension        Dim             ....  251

ORBITAL ENERGIES
----------------

  NO   OCC          E(Eh)            E(eV)
   0   2.0000     -24.822967      -675.4673
   1   2.0000     -14.397500      -391.7759
   2   2.0000     -14.370827      -391.0501
   3   2.0000     -10.336411      -281.2680
   4   2.0000     -10.275367      -279.6070
   5   2.0000     -10.271245      -279.4948
   6   2.0000     -10.256567      -279.0954
   7   2.0000     -10.133007      -275.7332
   8   2.0000      -1.278721       -34.7958
   9   2.0000      -0.983340       -26.7580
  10   2.0000      -0.898908       -24.4605
  11   2.0000      -0.817631       -22.2489
  12   2.0000      -0.746167       -20.3042
  13   2.0000      -0.687404       -18.7052
  14   2.0000      -0.637912       -17.3585
  15   2.0000      -0.613970       -16.7070
  16   2.0000      -0.593057       -16.1379
  17   2.0000      -0.564559       -15.3624
  18   2.0000      -0.533969       -14.5300
  19   2.0000      -0.522010       -14.2046
  20   2.0000      -0.489364       -13.3163
  21   2.0000      -0.486498       -13.2383
  22   2.0000      -0.453123       -12.3301
  23   2.0000      -0.441203       -12.0058
  24   2.0000      -0.402176       -10.9438
  25   2.0000      -0.393672       -10.7124
  26   2.0000      -0.384510       -10.4630
  27   2.0000      -0.370856       -10.0915
  28   2.0000      -0.359106        -9.7718
  29   2.0000      -0.353466        -9.6183
  30   2.0000      -0.260686        -7.0936
  31   2.0000      -0.161872        -4.4048
  32   0.0000       0.015873         0.4319
  33   0.0000       0.040726         1.1082
  34   0.0000       0.047119         1.2822
  35   0.0000       0.050291         1.3685
  36   0.0000       0.074118         2.0168

MULLIKEN ATOMIC CHARGES
-----------------------
   0 C :    0.669231
   1 N :   -0.391169
   2 C :   -0.159432
   3 C :    0.680268
   4 H :   -0.272806
   5 H :    0.270799
   6 F :   -0.441145
   7 C :    0.433864
   8 N :    0.308359
   9 C :    0.310559
  10 H :   -0.208773
  11 H :   -0.249917
  12 H :   -0.297203
  13 H :   -0.362241
  14 H :   -0.109617
  15 H :    0.161582
  16 H :   -0.365528
  17 H :   -0.055149
  18 H :    0.078319
Sum of atomic charges:    0.0000000

LOEWDIN ATOMIC CHARGES
----------------------
   0 C :    0.054853
   1 N :   -0.008133
   2 C :   -0.007348
   3 C :    0.142246
   4 H :    0.035890
   5 H :    0.052740
   6 F :   -0.186855
   7 C :   -0.235551
   8 N :    0.225940
   9 C :    0.132370
  10 H :   -0.113187
  11 H :   -0.116162
  12 H :    0.030477
  13 H :   -0.128990
  14 H :    0.018069
  15 H :    0.022748
  16 H :    0.022114
  17 H :    0.033504
  18 H :    0.025276

  Mayer bond orders larger than 0.100000
B(  0-C ,  1-N ) :   0.9268 B(  0-C ,  2-C ) :   1.1278 B(  0-C , 12-H ) :  -0.2095
B(  0-C , 15-H ) :   0.7400 B(  0-C , 16-H ) :   0.9731 B(  0-C , 17-H ) :   0.1267
B(  1-N ,  7-C ) :   1.0169 B(  1-N ,  8-N ) :   0.1351 B(  1-N ,  9-C ) :   0.2109
B(  1-N , 12-H ) :   1.2490 B(  1-N , 15-H ) :   0.1679 B(  1-N , 16-H ) :   0.1384
B(  2-C ,  3-C ) :   1.2218 B(  2-C ,  4-H ) :   0.1386 B(  2-C , 17-H ) :   0.9492
B(  2-C , 18-H ) :   0.8922 B(  3-C ,  4-H ) :   1.0318 B(  3-C ,  5-H ) :   0.7840
B(  3-C ,  6-F ) :   0.5744 B(  7-C ,  8-N ) :   1.0367 B(  7-C ,  9-C ) :   1.7360
B(  7-C , 10-H ) :   0.1803 B(  7-C , 11-H ) :   0.1651 B(  7-C , 12-H ) :  -0.1513
B(  8-N ,  9-C ) :   0.1265 B(  8-N , 13-H ) :   1.1155 B(  8-N , 14-H ) :   1.1680
B(  9-C , 10-H ) :   0.7715 B(  9-C , 11-H ) :   0.8711 B( 10-H , 11-H ) :   0.2031
B( 13-H , 14-H ) :  -0.2001 B( 15-H , 16-H ) :  -0.1312

Dispersion correction           -0.014829077
FINAL SINGLE POINT ENERGY      -405.722093007939

DIPOLE MOMENT
-------------
                                X             Y             Z
Electronic contribution:     -3.48184       3.86152      -1.50395
Nuclear contribution   :      2.63642      -4.47741       0.00296
                        -----------------------------------------
Total Dipole Moment    :     -0.84542      -0.61588      -1.50099
                        -----------------------------------------
Magnitude (a.u.)       :      1.82949
Magnitude (Debye)      :      4.65019

Rotational constants in cm-1:     0.108041     0.051979     0.040387
Rotational constants in MHz :  3238.993235  1558.297571  1210.782552

                             ****ORCA TERMINATED NORMALLY****
TOTAL RUN TIME: 0 days 0 hours 0 minutes 46 seconds 346 msec
