                         Program Version 5.0.0 -  RELEASE  -
|  1> !wB97X-D3 RIJCOSX def2-SVPD def2/J TightSCF CPCM(Water)
|  2> *xyz -1 1
|  3> C          0.61188        1.65763       -4.50029
|  4> C          1.69499        1.54179       -5.57045
|  5> H          2.69733        1.73466       -5.18400
|  6> H          1.50666        2.27224       -6.35808
|  7> S          1.78029       -0.03313       -6.42874
|  8> O          2.56929        0.21366       -7.60736
|  9> O          0.41688       -0.46297       -6.61859
| 10> C          0.68036        0.65542       -3.34804
| 11> H         -0.35687        1.54923       -4.99113
| 12> H          0.65023        2.67544       -4.09600
| 13> O          2.50513       -0.93326       -5.48257
| 14> H          0.64318       -0.34009       -3.73853
| 15> H         -0.14865        0.81153       -2.68980
| 16> H          1.59447        0.79330       -2.80925
| 17> *
| 18> %MaxCore 64000
| 19>
| 20> %pal nprocs 8
| 21> end
| 22>
| 23> %scf
| 24>   MaxIter 150
| 25> end
| 26>
| 27>
| 28>                          ****END OF INPUT****

CARTESIAN COORDINATES (ANGSTROEM)
---------------------------------
  C      0.611880    1.657630   -4.500290
  C      1.694990    1.541790   -5.570450
  H      2.697330    1.734660   -5.184000
  H      1.506660    2.272240   -6.358080
  S      1.780290   -0.033130   -6.428740
  O      2.569290    0.213660   -7.607360
  O      0.416880   -0.462970   -6.618590
  C      0.680360    0.655420   -3.348040
  H     -0.356870    1.549230   -4.991130
  H      0.650230    2.675440   -4.096000
  O      2.505130   -0.933260   -5.482570
  H      0.643180   -0.340090   -3.738530
  H     -0.148650    0.811530   -2.689800
  H      1.594470    0.793300   -2.809250

 Total Charge           Charge          ....   -1
 Multiplicity           Mult            ....    1
 Number of Electrons    NEL             ....   66
 Basis Dimension        Dim             ....  212

ORBITAL ENERGIES
----------------

  NO   OCC          E(Eh)            E(eV)
   0   2.0000     -89.151290     -2425.9299
   1   2.0000     -19.208981      -522.7029
   2   2.0000     -19.208719      -522.6958
   3   2.0000     -19.191800      -522.2354
   4   2.0000     -10.296188      -280.1735
   5   2.0000     -10.285527      -279.8834
   6   2.0000     -10.263452      -279.2827
   7   2.0000      -8.225688      -223.8324
   8   2.0000      -6.185542      -168.3172
   9   2.0000      -6.185483      -168.3155
  10   2.0000      -6.183799      -168.2697
  11   2.0000      -1.229915       -33.4677
  12   2.0000      -1.092572       -29.7304
  13   2.0000      -1.059955       -28.8429
  14   2.0000      -0.901290       -24.5253
  15   2.0000      -0.814191       -22.1553
  16   2.0000      -0.713901       -19.4262
  17   2.0000      -0.646915       -17.6035
  18   2.0000      -0.591084       -16.0842
  19   2.0000      -0.567282       -15.4365
  20   2.0000      -0.558543       -15.1987
  21   2.0000      -0.537538       -14.6272
  22   2.0000      -0.528984       -14.3944
  23   2.0000      -0.497841       -13.5469
  24   2.0000      -0.455747       -12.4015
  25   2.0000      -0.443954       -12.0806
  26   2.0000      -0.435495       -11.8504
  27   2.0000      -0.430813       -11.7230
  28   2.0000      -0.422803       -11.5051
  29   2.0000      -0.394147       -10.7253
  30   2.0000      -0.379403       -10.3241
  31   2.0000      -0.364191        -9.9102
  32   2.0000      -0.344156        -9.3650
  33   0.0000       0.081961         2.2303
  34   0.0000       0.100094         2.7237
  35   0.0000       0.100771         2.7421
  36   0.0000       0.103612         2.8194
  37   0.0000       0.137709         3.7473

MULLIKEN ATOMIC CHARGES
-----------------------
   0 C :   -0.305238
   1 C :   -0.012244
   2 H :    0.038796
   3 H :    0.047927
   4 S :    1.273198
   5 O :   -0.831695
   6 O :   -0.815628
   7 C :    0.729303
   8 H :    0.008081
   9 H :   -0.095577
  10 O :   -0.863421
  11 H :   -0.119225
  12 H :   -0.035833
  13 H :   -0.018444
Sum of atomic charges:   -1.0000000

LOEWDIN ATOMIC CHARGES
----------------------
   0 C :   -0.082559
   1 C :   -0.081636
   2 H :    0.022517
   3 H :    0.015960
   4 S :    0.850466
   5 O :   -0.599852
   6 O :   -0.592063
   7 C :    0.122108
   8 H :    0.017051
   9 H :    0.028279
  10 O :   -0.636453
  11 H :   -0.038734
  12 H :   -0.014539
  13 H :   -0.010545

  Mayer bond orders larger than 0.100000
B(  0-C ,  1-C ) :   1.2563 B(  0-C ,  2-H ) :   0.1246 B(  0-C ,  3-H ) :   0.1323
B(  0-C ,  7-C ) :   1.2573 B(  0-C ,  8-H ) :   0.9044 B(  0-C ,  9-H ) :   0.9154
B(  0-C , 11-H ) :   0.2148 B(  0-C , 12-H ) :   0.1919 B(  0-C , 13-H ) :   0.2130
B(  1-C ,  2-H ) :   0.9321 B(  1-C ,  3-H ) :   0.9081 B(  1-C ,  4-S ) :   0.9508
B(  1-C ,  8-H ) :   0.1301 B(  1-C ,  9-H ) :   0.1313 B(  4-S ,  5-O ) :   1.3717
B(  4-S ,  6-O ) :   1.2943 B(  4-S , 10-O ) :   1.2291 B(  7-C , 11-H ) :   0.8306
B(  7-C , 12-H ) :   0.7811 B(  7-C , 13-H ) :   0.7641

Dispersion correction           -0.004635695
FINAL SINGLE POINT ENERGY      -742.073278931418

DIPOLE MOMENT
-------------
                                X             Y             Z
Electronic contribution:      2.95298      -4.44201      -8.07553
Nuclear contribution   :     -3.81113       6.97418       9.97106
                        -----------------------------------------
Total Dipole Moment    :     -0.85816       2.53218       1.89553
                        -----------------------------------------
Magnitude (a.u.)       :      3.27741
Magnitude (Debye)      :      8.33050

Rotational constants in cm-1:     0.136135     0.055477     0.052562
Rotational constants in MHz :  4081.221574  1663.170947  1575.772362

                             ****ORCA TERMINATED NORMALLY****
TOTAL RUN TIME: 0 days 0 hours 0 minutes 23 seconds 218 msec
