                         Program Version 5.0.0 -  RELEASE  -
|  1> !wB97X-D3 RIJCOSX def2-SVPD def2/J TightSCF CPCM(Water)
|  2> *xyz 1 1
|  3> C          1.96337       -1.74915       -1.89689
|  4> N          2.73849       -2.01517       -3.09711
|  5> C          4.04974       -2.15472       -3.15204
|  6> N          4.65821       -1.98629       -4.31866
|  7> N          4.76423       -2.45444       -2.05049
|  8> H          4.28736       -2.77626       -1.21750
|  9> H          5.75082       -2.65835       -2.12599
| 10> H          2.34518       -1.69027       -3.97145
| 11> H          4.10900       -1.59268       -5.07176
| 12> H          5.64910       -2.15646       -4.42724
| 13> C          2.08852       -0.30091       -1.41520
| 14> H          2.23127       -2.45162       -1.10264
| 15> H          0.93025       -1.97780       -2.15544
| 16> C          1.96899        0.73358       -2.53565
| 17> H          3.05136       -0.16860       -0.91187
| 18> H          1.31650       -0.13623       -0.65725
| 19> H          2.73046        0.55745       -3.26643
| 20> H          2.08619        1.71595       -2.12808
| 21> H          1.00672        0.65098       -2.99620
| 22> *
| 23> %MaxCore 64000
| 24>
| 25> %pal nprocs 8
| 26> end
| 27>
| 28> %scf
| 29>   MaxIter 150
| 30> end
| 31>
| 32>
| 33>                          ****END OF INPUT****

CARTESIAN COORDINATES (ANGSTROEM)
---------------------------------
  C      1.963370   -1.749150   -1.896890
  N      2.738490   -2.015170   -3.097110
  C      4.049740   -2.154720   -3.152040
  N      4.658210   -1.986290   -4.318660
  N      4.764230   -2.454440   -2.050490
  H      4.287360   -2.776260   -1.217500
  H      5.750820   -2.658350   -2.125990
  H      2.345180   -1.690270   -3.971450
  H      4.109000   -1.592680   -5.071760
  H      5.649100   -2.156460   -4.427240
  C      2.088520   -0.300910   -1.415200
  H      2.231270   -2.451620   -1.102640
  H      0.930250   -1.977800   -2.155440
  C      1.968990    0.733580   -2.535650
  H      3.051360   -0.168600   -0.911870
  H      1.316500   -0.136230   -0.657250
  H      2.730460    0.557450   -3.266430
  H      2.086190    1.715950   -2.128080
  H      1.006720    0.650980   -2.996200

 Total Charge           Charge          ....    1
 Multiplicity           Mult            ....    1
 Number of Electrons    NEL             ....   56
 Basis Dimension        Dim             ....  236

ORBITAL ENERGIES
----------------

  NO   OCC          E(Eh)            E(eV)
   0   2.0000     -14.490105      -394.2958
   1   2.0000     -14.485247      -394.1636
   2   2.0000     -14.484790      -394.1512
   3   2.0000     -10.456219      -284.5282
   4   2.0000     -10.338402      -281.3222
   5   2.0000     -10.291699      -280.0514
   6   2.0000     -10.273603      -279.5589
   7   2.0000      -1.156201       -31.4618
   8   2.0000      -1.043869       -28.4051
   9   2.0000      -1.025020       -27.8922
  10   2.0000      -0.901272       -24.5249
  11   2.0000      -0.822747       -22.3881
  12   2.0000      -0.763490       -20.7756
  13   2.0000      -0.720735       -19.6122
  14   2.0000      -0.712105       -19.3774
  15   2.0000      -0.669257       -18.2114
  16   2.0000      -0.619722       -16.8635
  17   2.0000      -0.611926       -16.6514
  18   2.0000      -0.598153       -16.2766
  19   2.0000      -0.569159       -15.4876
  20   2.0000      -0.549338       -14.9482
  21   2.0000      -0.536250       -14.5921
  22   2.0000      -0.500808       -13.6277
  23   2.0000      -0.461069       -12.5463
  24   2.0000      -0.449250       -12.2247
  25   2.0000      -0.432818       -11.7776
  26   2.0000      -0.398660       -10.8481
  27   2.0000      -0.376138       -10.2352
  28   0.0000       0.079162         2.1541
  29   0.0000       0.085132         2.3166
  30   0.0000       0.111361         3.0303
  31   0.0000       0.116489         3.1698
  32   0.0000       0.128398         3.4939

MULLIKEN ATOMIC CHARGES
-----------------------
   0 C :    0.708630
   1 N :   -0.522453
   2 C :    1.318053
   3 N :   -0.204491
   4 N :   -0.085830
   5 H :    0.025591
   6 H :   -0.081038
   7 H :   -0.045140
   8 H :    0.086085
   9 H :   -0.026144
  10 C :   -0.405309
  11 H :   -0.036827
  12 H :   -0.193426
  13 C :    0.656647
  14 H :    0.002004
  15 H :   -0.056742
  16 H :   -0.114965
  17 H :   -0.047155
  18 H :    0.022512
Sum of atomic charges:    1.0000000

LOEWDIN ATOMIC CHARGES
----------------------
   0 C :    0.076148
   1 N :    0.039435
   2 C :   -0.033477
   3 N :    0.268370
   4 N :    0.278453
   5 H :    0.026800
   6 H :    0.044436
   7 H :    0.062293
   8 H :    0.046714
   9 H :    0.051183
  10 C :   -0.054196
  11 H :    0.031040
  12 H :    0.039699
  13 C :    0.122969
  14 H :    0.019428
  15 H :    0.028761
  16 H :   -0.026053
  17 H :   -0.012810
  18 H :   -0.009193

  Mayer bond orders larger than 0.100000
B(  0-C ,  1-N ) :   0.9017 B(  0-C ,  7-H ) :  -0.1283 B(  0-C , 10-C ) :   1.0865
B(  0-C , 11-H ) :   0.9093 B(  0-C , 12-H ) :   0.7950 B(  0-C , 15-H ) :   0.1105
B(  1-N ,  2-C ) :   1.0605 B(  1-N ,  3-N ) :   0.3019 B(  1-N ,  4-N ) :   0.1902
B(  1-N ,  7-H ) :   1.2067 B(  1-N , 11-H ) :   0.1128 B(  1-N , 12-H ) :   0.2426
B(  2-C ,  3-N ) :   0.7913 B(  2-C ,  4-N ) :   0.9615 B(  2-C ,  6-H ) :  -0.1400
B(  2-C ,  7-H ) :  -0.1709 B(  2-C ,  8-H ) :  -0.1141 B(  2-C ,  9-H ) :  -0.1431
B(  3-N ,  4-N ) :   0.1491 B(  3-N ,  8-H ) :   1.0950 B(  3-N ,  9-H ) :   1.2767
B(  4-N ,  5-H ) :   1.0470 B(  4-N ,  6-H ) :   1.2836 B(  5-H ,  6-H ) :  -0.2025
B(  8-H ,  9-H ) :  -0.1714 B( 10-C , 12-H ) :   0.1288 B( 10-C , 13-C ) :   1.2846
B( 10-C , 14-H ) :   0.9598 B( 10-C , 15-H ) :   0.9740 B( 10-C , 16-H ) :   0.1992
B( 10-C , 17-H ) :   0.1953 B( 10-C , 18-H ) :   0.1891 B( 13-C , 16-H ) :   0.8515
B( 13-C , 17-H ) :   0.8105 B( 13-C , 18-H ) :   0.7830 B( 16-H , 18-H ) :   0.1100

Dispersion correction           -0.005597340
FINAL SINGLE POINT ENERGY      -323.513930008048

DIPOLE MOMENT
-------------
                                X             Y             Z
Electronic contribution:      4.16736      -5.15894      -2.55226
Nuclear contribution   :     -2.72963       4.05673       1.67650
                        -----------------------------------------
Total Dipole Moment    :      1.43774      -1.10221      -0.87576
                        -----------------------------------------
Magnitude (a.u.)       :      2.01219
Magnitude (Debye)      :      5.11457

Rotational constants in cm-1:     0.140891     0.054763     0.048590
Rotational constants in MHz :  4223.814968  1641.764475  1456.690885

                             ****ORCA TERMINATED NORMALLY****
TOTAL RUN TIME: 0 days 0 hours 0 minutes 29 seconds 753 msec
