                         Program Version 5.0.0 -  RELEASE  -
|  1> !wB97X-D3 RIJCOSX def2-SVPD def2/J TightSCF CPCM(Water)
|  2> *xyz 0 1
|  3> C          0.61188        1.65763       -4.50029
|  4> C          1.69499        1.54179       -5.57045
|  5> H          2.69733        1.73466       -5.18400
|  6> H          1.50666        2.27224       -6.35808
|  7> S          1.78029       -0.03313       -6.42874
|  8> F          2.56929        0.21366       -7.60736
|  9> O          0.41688       -0.46297       -6.61859
| 10> C          0.68036        0.65542       -3.34804
| 11> H         -0.35687        1.54923       -4.99113
| 12> H          0.65023        2.67544       -4.09600
| 13> O          2.50513       -0.93326       -5.48257
| 14> H          0.64318       -0.34009       -3.73853
| 15> H         -0.14865        0.81153       -2.68980
| 16> H          1.59447        0.79330       -2.80925
| 17> *
| 18> %MaxCore 64000
| 19>
| 20> %pal nprocs 8
| 21> end
| 22>
| 23> %scf
| 24>   MaxIter 150
| 25> end
| 26>
| 27>
| 28>                          ****END OF INPUT****

CARTESIAN COORDINATES (ANGSTROEM)
---------------------------------
  C      0.611880    1.657630   -4.500290
  C      1.694990    1.541790   -5.570450
  H      2.697330    1.734660   -5.184000
  H      1.506660    2.272240   -6.358080
  S      1.780290   -0.033130   -6.428740
  F      2.569290    0.213660   -7.607360
  O      0.416880   -0.462970   -6.618590
  C      0.680360    0.655420   -3.348040
  H     -0.356870    1.549230   -4.991130
  H      0.650230    2.675440   -4.096000
  O      2.505130   -0.933260   -5.482570
  H      0.643180   -0.340090   -3.738530
  H     -0.148650    0.811530   -2.689800
  H      1.594470    0.793300   -2.809250

 Total Charge           Charge          ....    0
 Multiplicity           Mult            ....    1
 Number of Electrons    NEL             ....   66
 Basis Dimension        Dim             ....  212

ORBITAL ENERGIES
----------------

  NO   OCC          E(Eh)            E(eV)
   0   2.0000     -89.239878     -2428.3405
   1   2.0000     -24.919129      -678.0840
   2   2.0000     -19.270429      -524.3750
   3   2.0000     -19.252977      -523.9001
   4   2.0000     -10.337553      -281.2991
   5   2.0000     -10.304784      -280.4074
   6   2.0000     -10.272886      -279.5394
   7   2.0000      -8.314321      -226.2442
   8   2.0000      -6.277868      -170.8295
   9   2.0000      -6.272049      -170.6711
  10   2.0000      -6.269884      -170.6122
  11   2.0000      -1.492954       -40.6253
  12   2.0000      -1.232175       -33.5292
  13   2.0000      -1.123538       -30.5730
  14   2.0000      -0.933112       -25.3913
  15   2.0000      -0.863090       -23.4859
  16   2.0000      -0.811186       -22.0735
  17   2.0000      -0.736663       -20.0456
  18   2.0000      -0.694872       -18.9084
  19   2.0000      -0.679738       -18.4966
  20   2.0000      -0.661879       -18.0106
  21   2.0000      -0.593356       -16.1460
  22   2.0000      -0.579098       -15.7581
  23   2.0000      -0.555788       -15.1237
  24   2.0000      -0.549383       -14.9495
  25   2.0000      -0.517834       -14.0910
  26   2.0000      -0.494750       -13.4628
  27   2.0000      -0.464015       -12.6265
  28   2.0000      -0.459244       -12.4967
  29   2.0000      -0.442779       -12.0486
  30   2.0000      -0.436948       -11.8900
  31   2.0000      -0.414880       -11.2895
  32   2.0000      -0.411416       -11.1952
  33   0.0000       0.070650         1.9225
  34   0.0000       0.095227         2.5913
  35   0.0000       0.098695         2.6856
  36   0.0000       0.099920         2.7190
  37   0.0000       0.117814         3.2059

MULLIKEN ATOMIC CHARGES
-----------------------
   0 C :   -0.343616
   1 C :   -0.106687
   2 H :    0.113331
   3 H :    0.135272
   4 S :    1.542686
   5 F :   -0.430125
   6 O :   -0.699281
   7 C :    0.701642
   8 H :    0.037207
   9 H :   -0.059760
  10 O :   -0.754461
  11 H :   -0.111570
  12 H :   -0.020750
  13 H :   -0.003889
Sum of atomic charges:    0.0000000

LOEWDIN ATOMIC CHARGES
----------------------
   0 C :   -0.061441
   1 C :   -0.042553
   2 H :    0.039170
   3 H :    0.033661
   4 S :    1.136279
   5 F :   -0.238388
   6 O :   -0.490786
   7 C :    0.132692
   8 H :    0.026911
   9 H :    0.042498
  10 O :   -0.532531
  11 H :   -0.031792
  12 H :   -0.008232
  13 H :   -0.005486

  Mayer bond orders larger than 0.100000
B(  0-C ,  1-C ) :   1.2953 B(  0-C ,  2-H ) :   0.1222 B(  0-C ,  3-H ) :   0.1385
B(  0-C ,  7-C ) :   1.2668 B(  0-C ,  8-H ) :   0.9075 B(  0-C ,  9-H ) :   0.9290
B(  0-C , 11-H ) :   0.2022 B(  0-C , 12-H ) :   0.1894 B(  0-C , 13-H ) :   0.2058
B(  1-C ,  2-H ) :   0.9306 B(  1-C ,  3-H ) :   0.8718 B(  1-C ,  4-S ) :   0.9857
B(  1-C ,  8-H ) :   0.1268 B(  1-C ,  9-H ) :   0.1224 B(  4-S ,  5-F ) :   0.6993
B(  4-S ,  6-O ) :   1.4721 B(  4-S , 10-O ) :   1.4057 B(  7-C , 11-H ) :   0.8346
B(  7-C , 12-H ) :   0.7852 B(  7-C , 13-H ) :   0.7754

Dispersion correction           -0.004622270
FINAL SINGLE POINT ENERGY      -766.467026476359

DIPOLE MOMENT
-------------
                                X             Y             Z
Electronic contribution:      5.21287      -4.78803     -12.09180
Nuclear contribution   :     -4.93724       7.05784      11.92827
                        -----------------------------------------
Total Dipole Moment    :      0.27562       2.26981      -0.16353
                        -----------------------------------------
Magnitude (a.u.)       :      2.29232
Magnitude (Debye)      :      5.82661

Rotational constants in cm-1:     0.134572     0.053398     0.050578
Rotational constants in MHz :  4034.377338  1600.833917  1516.302250

                             ****ORCA TERMINATED NORMALLY****
TOTAL RUN TIME: 0 days 0 hours 0 minutes 24 seconds 147 msec
