                         Program Version 5.0.0 -  RELEASE  -
|  1> !wB97X-D3 RIJCOSX def2-SVPD def2/J TightSCF CPCM(Water)
|  2> *xyz 0 1
|  3> C          1.96337       -1.74915       -1.89689
|  4> C          2.73849       -2.01517       -3.09711
|  5> C          4.04974       -2.15472       -3.15204
|  6> N          4.65821       -1.98629       -4.31866
|  7> N          4.76423       -2.45444       -2.05049
|  8> H          4.28736       -2.77626       -1.21750
|  9> H          5.75082       -2.65835       -2.12599
| 10> H          2.34518       -1.69027       -3.97145
| 11> H          4.10900       -1.59268       -5.07176
| 12> H          5.64910       -2.15646       -4.42724
| 13> C          2.08852       -0.30091       -1.41520
| 14> H          2.23127       -2.45162       -1.10264
| 15> H          0.93025       -1.97780       -2.15544
| 16> C          1.96899        0.73358       -2.53565
| 17> H          3.05136       -0.16860       -0.91187
| 18> H          1.31650       -0.13623       -0.65725
| 19> H          2.73046        0.55745       -3.26643
| 20> H          2.08619        1.71595       -2.12808
| 21> H          1.00672        0.65098       -2.99620
| 22> *
| 23> %MaxCore 64000
| 24>
| 25> %pal nprocs 8
| 26> end
| 27>
| 28> %scf
| 29>   MaxIter 150
| 30> end
| 31>
| 32>
| 33>                          ****END OF INPUT****

CARTESIAN COORDINATES (ANGSTROEM)
---------------------------------
  C      1.963370   -1.749150   -1.896890
  C      2.738490   -2.015170   -3.097110
  C      4.049740   -2.154720   -3.152040
  N      4.658210   -1.986290   -4.318660
  N      4.764230   -2.454440   -2.050490
  H      4.287360   -2.776260   -1.217500
  H      5.750820   -2.658350   -2.125990
  H      2.345180   -1.690270   -3.971450
  H      4.109000   -1.592680   -5.071760
  H      5.649100   -2.156460   -4.427240
  C      2.088520   -0.300910   -1.415200
  H      2.231270   -2.451620   -1.102640
  H      0.930250   -1.977800   -2.155440
  C      1.968990    0.733580   -2.535650
  H      3.051360   -0.168600   -0.911870
  H      1.316500   -0.136230   -0.657250
  H      2.730460    0.557450   -3.266430
  H      2.086190    1.715950   -2.128080
  H      1.006720    0.650980   -2.996200

 Total Charge           Charge          ....    0
 Multiplicity           Mult            ....    1
 Number of Electrons    NEL             ....   56
 Basis Dimension        Dim             ....  236

ORBITAL ENERGIES
----------------

  NO   OCC          E(Eh)            E(eV)
   0   2.0000     -14.432054      -392.7161
   1   2.0000     -14.429709      -392.6523
   2   2.0000     -10.336747      -281.2772
   3   2.0000     -10.270111      -279.4639
   4   2.0000     -10.265743      -279.3451
   5   2.0000     -10.260289      -279.1967
   6   2.0000     -10.209329      -277.8100
   7   2.0000      -1.066425       -29.0189
   8   2.0000      -0.971764       -26.4431
   9   2.0000      -0.900395       -24.5010
  10   2.0000      -0.830215       -22.5913
  11   2.0000      -0.768151       -20.9025
  12   2.0000      -0.700282       -19.0556
  13   2.0000      -0.671980       -18.2855
  14   2.0000      -0.640086       -17.4176
  15   2.0000      -0.603233       -16.4148
  16   2.0000      -0.565316       -15.3830
  17   2.0000      -0.550632       -14.9835
  18   2.0000      -0.538052       -14.6412
  19   2.0000      -0.508400       -13.8343
  20   2.0000      -0.489217       -13.3123
  21   2.0000      -0.474157       -12.9025
  22   2.0000      -0.455877       -12.4051
  23   2.0000      -0.428947       -11.6722
  24   2.0000      -0.409862       -11.1529
  25   2.0000      -0.404729       -11.0132
  26   2.0000      -0.357203        -9.7200
  27   2.0000      -0.250093        -6.8054
  28   0.0000       0.094743         2.5781
  29   0.0000       0.116754         3.1770
  30   0.0000       0.119646         3.2557
  31   0.0000       0.123555         3.3621
  32   0.0000       0.150161         4.0861

MULLIKEN ATOMIC CHARGES
-----------------------
   0 C :    0.225825
   1 C :   -0.327007
   2 C :    0.672112
   3 N :   -0.127948
   4 N :   -0.141280
   5 H :    0.039881
   6 H :   -0.181501
   7 H :   -0.083520
   8 H :    0.095479
   9 H :   -0.134521
  10 C :   -0.300968
  11 H :   -0.066202
  12 H :   -0.057517
  13 C :    0.677207
  14 H :   -0.040090
  15 H :   -0.057779
  16 H :   -0.152081
  17 H :   -0.035337
  18 H :   -0.004754
Sum of atomic charges:    0.0000000

LOEWDIN ATOMIC CHARGES
----------------------
   0 C :   -0.072375
   1 C :   -0.079135
   2 C :   -0.232680
   3 N :    0.182722
   4 N :    0.202472
   5 H :    0.002039
   6 H :    0.006433
   7 H :   -0.054484
   8 H :    0.016283
   9 H :    0.011911
  10 C :   -0.075354
  11 H :    0.006837
  12 H :    0.011856
  13 C :    0.113376
  14 H :    0.012262
  15 H :    0.012993
  16 H :   -0.030208
  17 H :   -0.020810
  18 H :   -0.014139

  Mayer bond orders larger than 0.100000
B(  0-C ,  1-C ) :   1.2593 B(  0-C ,  7-H ) :   0.2982 B(  0-C , 10-C ) :   1.1222
B(  0-C , 11-H ) :   0.8530 B(  0-C , 12-H ) :   0.7524 B(  0-C , 15-H ) :   0.1435
B(  1-C ,  2-C ) :   1.8699 B(  1-C ,  3-N ) :   0.2473 B(  1-C ,  4-N ) :   0.2306
B(  1-C ,  7-H ) :   0.6593 B(  1-C , 11-H ) :   0.2232 B(  1-C , 12-H ) :   0.2598
B(  2-C ,  3-N ) :   0.9019 B(  2-C ,  4-N ) :   0.9278 B(  2-C ,  6-H ) :  -0.1905
B(  2-C ,  7-H ) :   0.3423 B(  2-C ,  9-H ) :  -0.1308 B(  3-N ,  8-H ) :   1.0667
B(  3-N ,  9-H ) :   1.3042 B(  4-N ,  5-H ) :   1.0095 B(  4-N ,  6-H ) :   1.3697
B(  5-H ,  6-H ) :  -0.2059 B(  8-H ,  9-H ) :  -0.1737 B( 10-C , 12-H ) :   0.1022
B( 10-C , 13-C ) :   1.2768 B( 10-C , 14-H ) :   0.9678 B( 10-C , 15-H ) :   0.8944
B( 10-C , 16-H ) :   0.2304 B( 10-C , 17-H ) :   0.2040 B( 10-C , 18-H ) :   0.2045
B( 13-C , 16-H ) :   0.8363 B( 13-C , 17-H ) :   0.7826 B( 13-C , 18-H ) :   0.7709
B( 16-H , 18-H ) :   0.1038

Dispersion correction           -0.005583508
FINAL SINGLE POINT ENERGY      -306.957175076234

DIPOLE MOMENT
-------------
                                X             Y             Z
Electronic contribution:      4.17962      -4.01960      -1.72226
Nuclear contribution   :     -2.83106       3.92601       1.57906
                        -----------------------------------------
Total Dipole Moment    :      1.34856      -0.09359      -0.14319
                        -----------------------------------------
Magnitude (a.u.)       :      1.35937
Magnitude (Debye)      :      3.45524

Rotational constants in cm-1:     0.142679     0.055043     0.048600
Rotational constants in MHz :  4277.395781  1650.135877  1456.977167

                             ****ORCA TERMINATED NORMALLY****
TOTAL RUN TIME: 0 days 0 hours 0 minutes 32 seconds 499 msec
