                         Program Version 5.0.0 -  RELEASE  -
|  1> !wB97X-D3 RIJCOSX def2-SVPD def2/J TightSCF CPCM(Water)
|  2> *xyz 0 1
|  3> C          0.61188        1.65763       -4.50029
|  4> C          1.69499        1.54179       -5.57045
|  5> H          2.69733        1.73466       -5.18400
|  6> H          1.50666        2.27224       -6.35808
|  7> S          1.78029       -0.03313       -6.42874
|  8> O          2.56929        0.21366       -7.60736
|  9> F          0.41688       -0.46297       -6.61859
| 10> C          0.68036        0.65542       -3.34804
| 11> H         -0.35687        1.54923       -4.99113
| 12> H          0.65023        2.67544       -4.09600
| 13> O          2.50513       -0.93326       -5.48257
| 14> H          0.64318       -0.34009       -3.73853
| 15> H         -0.14865        0.81153       -2.68980
| 16> H          1.59447        0.79330       -2.80925
| 17> *
| 18> %MaxCore 64000
| 19>
| 20> %pal nprocs 8
| 21> end
| 22>
| 23> %scf
| 24>   MaxIter 150
| 25> end
| 26>
| 27>
| 28>                          ****END OF INPUT****

CARTESIAN COORDINATES (ANGSTROEM)
---------------------------------
  C      0.611880    1.657630   -4.500290
  C      1.694990    1.541790   -5.570450
  H      2.697330    1.734660   -5.184000
  H      1.506660    2.272240   -6.358080
  S      1.780290   -0.033130   -6.428740
  O      2.569290    0.213660   -7.607360
  F      0.416880   -0.462970   -6.618590
  C      0.680360    0.655420   -3.348040
  H     -0.356870    1.549230   -4.991130
  H      0.650230    2.675440   -4.096000
  O      2.505130   -0.933260   -5.482570
  H      0.643180   -0.340090   -3.738530
  H     -0.148650    0.811530   -2.689800
  H      1.594470    0.793300   -2.809250

 Total Charge           Charge          ....    0
 Multiplicity           Mult            ....    1
 Number of Electrons    NEL             ....   66
 Basis Dimension        Dim             ....  212

ORBITAL ENERGIES
----------------

  NO   OCC          E(Eh)            E(eV)
   0   2.0000     -89.240332     -2428.3529
   1   2.0000     -24.919727      -678.1003
   2   2.0000     -19.270625      -524.3804
   3   2.0000     -19.253063      -523.9025
   4   2.0000     -10.338359      -281.3210
   5   2.0000     -10.303777      -280.3800
   6   2.0000     -10.274147      -279.5737
   7   2.0000      -8.314797      -226.2571
   8   2.0000      -6.278562      -170.8484
   9   2.0000      -6.272428      -170.6814
  10   2.0000      -6.270236      -170.6218
  11   2.0000      -1.492338       -40.6086
  12   2.0000      -1.233758       -33.5723
  13   2.0000      -1.123832       -30.5810
  14   2.0000      -0.935901       -25.4672
  15   2.0000      -0.858225       -23.3535
  16   2.0000      -0.815154       -22.1815
  17   2.0000      -0.735244       -20.0070
  18   2.0000      -0.696672       -18.9574
  19   2.0000      -0.692645       -18.8478
  20   2.0000      -0.652932       -17.7672
  21   2.0000      -0.584148       -15.8955
  22   2.0000      -0.579950       -15.7812
  23   2.0000      -0.558465       -15.1966
  24   2.0000      -0.550609       -14.9828
  25   2.0000      -0.522903       -14.2289
  26   2.0000      -0.496181       -13.5018
  27   2.0000      -0.473027       -12.8717
  28   2.0000      -0.461899       -12.5689
  29   2.0000      -0.442547       -12.0423
  30   2.0000      -0.431405       -11.7391
  31   2.0000      -0.418227       -11.3805
  32   2.0000      -0.408101       -11.1050
  33   0.0000       0.068492         1.8638
  34   0.0000       0.095294         2.5931
  35   0.0000       0.097426         2.6511
  36   0.0000       0.099601         2.7103
  37   0.0000       0.122533         3.3343

MULLIKEN ATOMIC CHARGES
-----------------------
   0 C :   -0.343712
   1 C :   -0.093690
   2 H :    0.112293
   3 H :    0.112964
   4 S :    1.499637
   5 O :   -0.709774
   6 F :   -0.396066
   7 C :    0.715317
   8 H :    0.043057
   9 H :   -0.061341
  10 O :   -0.748913
  11 H :   -0.112076
  12 H :   -0.019684
  13 H :    0.001990
Sum of atomic charges:    0.0000000

LOEWDIN ATOMIC CHARGES
----------------------
   0 C :   -0.071035
   1 C :   -0.035284
   2 H :    0.047550
   3 H :    0.033519
   4 S :    1.130505
   5 O :   -0.493070
   6 F :   -0.235742
   7 C :    0.130822
   8 H :    0.029019
   9 H :    0.040045
  10 O :   -0.530941
  11 H :   -0.032658
  12 H :   -0.008111
  13 H :   -0.004620

  Mayer bond orders larger than 0.100000
B(  0-C ,  1-C ) :   1.2547 B(  0-C ,  2-H ) :   0.1173 B(  0-C ,  3-H ) :   0.1290
B(  0-C ,  7-C ) :   1.2701 B(  0-C ,  8-H ) :   0.9088 B(  0-C ,  9-H ) :   0.9284
B(  0-C , 11-H ) :   0.2067 B(  0-C , 12-H ) :   0.1897 B(  0-C , 13-H ) :   0.2091
B(  1-C ,  2-H ) :   0.9318 B(  1-C ,  3-H ) :   0.9117 B(  1-C ,  4-S ) :   1.0096
B(  1-C ,  8-H ) :   0.1235 B(  1-C ,  9-H ) :   0.1228 B(  4-S ,  5-O ) :   1.5511
B(  4-S ,  6-F ) :   0.6785 B(  4-S , 10-O ) :   1.4310 B(  7-C , 11-H ) :   0.8249
B(  7-C , 12-H ) :   0.7870 B(  7-C , 13-H ) :   0.7751

Dispersion correction           -0.004581112
FINAL SINGLE POINT ENERGY      -766.466670525658

DIPOLE MOMENT
-------------
                                X             Y             Z
Electronic contribution:      1.04457      -6.09557     -10.15175
Nuclear contribution   :     -2.62245       7.78551      10.86491
                        -----------------------------------------
Total Dipole Moment    :     -1.57789       1.68994       0.71315
                        -----------------------------------------
Magnitude (a.u.)       :      2.41955
Magnitude (Debye)      :      6.15000

Rotational constants in cm-1:     0.129509     0.054228     0.052367
Rotational constants in MHz :  3882.596420  1625.701900  1569.934536

                             ****ORCA TERMINATED NORMALLY****
TOTAL RUN TIME: 0 days 0 hours 0 minutes 24 seconds 459 msec
