                         Program Version 5.0.0 -  RELEASE  -
|  1> !wB97X-D3 RIJCOSX def2-SVPD def2/J TightSCF CPCM(Water)
|  2> *xyz 0 1
|  3> C          1.96337       -1.74915       -1.89689
|  4> N          2.73849       -2.01517       -3.09711
|  5> C          4.04974       -2.15472       -3.15204
|  6> C          4.65821       -1.98629       -4.31866
|  7> N          4.76423       -2.45444       -2.05049
|  8> H          4.28736       -2.77626       -1.21750
|  9> H          5.75082       -2.65835       -2.12599
| 10> H          2.34518       -1.69027       -3.97145
| 11> H          4.10900       -1.59268       -5.07176
| 12> H          5.64910       -2.15646       -4.42724
| 13> C          2.08852       -0.30091       -1.41520
| 14> H          2.23127       -2.45162       -1.10264
| 15> H          0.93025       -1.97780       -2.15544
| 16> C          1.96899        0.73358       -2.53565
| 17> H          3.05136       -0.16860       -0.91187
| 18> H          1.31650       -0.13623       -0.65725
| 19> H          2.73046        0.55745       -3.26643
| 20> H          2.08619        1.71595       -2.12808
| 21> H          1.00672        0.65098       -2.99620
| 22> *
| 23> %MaxCore 64000
| 24>
| 25> %pal nprocs 8
| 26> end
| 27>
| 28> %scf
| 29>   MaxIter 150
| 30> end
| 31>
| 32>
| 33>                          ****END OF INPUT****

CARTESIAN COORDINATES (ANGSTROEM)
---------------------------------
  C      1.963370   -1.749150   -1.896890
  N      2.738490   -2.015170   -3.097110
  C      4.049740   -2.154720   -3.152040
  C      4.658210   -1.986290   -4.318660
  N      4.764230   -2.454440   -2.050490
  H      4.287360   -2.776260   -1.217500
  H      5.750820   -2.658350   -2.125990
  H      2.345180   -1.690270   -3.971450
  H      4.109000   -1.592680   -5.071760
  H      5.649100   -2.156460   -4.427240
  C      2.088520   -0.300910   -1.415200
  H      2.231270   -2.451620   -1.102640
  H      0.930250   -1.977800   -2.155440
  C      1.968990    0.733580   -2.535650
  H      3.051360   -0.168600   -0.911870
  H      1.316500   -0.136230   -0.657250
  H      2.730460    0.557450   -3.266430
  H      2.086190    1.715950   -2.128080
  H      1.006720    0.650980   -2.996200

 Total Charge           Charge          ....    0
 Multiplicity           Mult            ....    1
 Number of Electrons    NEL             ....   56
 Basis Dimension        Dim             ....  236

ORBITAL ENERGIES
----------------

  NO   OCC          E(Eh)            E(eV)
   0   2.0000     -14.434792      -392.7906
   1   2.0000     -14.434469      -392.7819
   2   2.0000     -10.344524      -281.4888
   3   2.0000     -10.316731      -280.7325
   4   2.0000     -10.279908      -279.7305
   5   2.0000     -10.267177      -279.3841
   6   2.0000     -10.208860      -277.7972
   7   2.0000      -1.079929       -29.3864
   8   2.0000      -0.989378       -26.9223
   9   2.0000      -0.891298       -24.2535
  10   2.0000      -0.834384       -22.7047
  11   2.0000      -0.775967       -21.1151
  12   2.0000      -0.712606       -19.3910
  13   2.0000      -0.685721       -18.6594
  14   2.0000      -0.635432       -17.2910
  15   2.0000      -0.594888       -16.1877
  16   2.0000      -0.574771       -15.6403
  17   2.0000      -0.556582       -15.1454
  18   2.0000      -0.538222       -14.6458
  19   2.0000      -0.499099       -13.5812
  20   2.0000      -0.496491       -13.5102
  21   2.0000      -0.487872       -13.2757
  22   2.0000      -0.471404       -12.8275
  23   2.0000      -0.442164       -12.0319
  24   2.0000      -0.436968       -11.8905
  25   2.0000      -0.421744       -11.4762
  26   2.0000      -0.346998        -9.4423
  27   2.0000      -0.261438        -7.1141
  28   0.0000       0.091736         2.4963
  29   0.0000       0.115630         3.1465
  30   0.0000       0.117434         3.1955
  31   0.0000       0.125819         3.4237
  32   0.0000       0.146876         3.9967

MULLIKEN ATOMIC CHARGES
-----------------------
   0 C :    0.739691
   1 N :   -0.454416
   2 C :    0.459537
   3 C :    0.368090
   4 N :    0.045525
   5 H :   -0.051179
   6 H :   -0.109963
   7 H :   -0.081203
   8 H :   -0.197509
   9 H :   -0.401863
  10 C :   -0.395490
  11 H :   -0.077251
  12 H :   -0.236968
  13 C :    0.676806
  14 H :   -0.001009
  15 H :   -0.106392
  16 H :   -0.136707
  17 H :   -0.054416
  18 H :    0.014717
Sum of atomic charges:    0.0000000

LOEWDIN ATOMIC CHARGES
----------------------
   0 C :    0.053586
   1 N :   -0.021230
   2 C :   -0.256268
   3 C :    0.111807
   4 N :    0.203603
   5 H :   -0.005557
   6 H :    0.016813
   7 H :    0.037643
   8 H :   -0.107043
   9 H :   -0.107442
  10 C :   -0.064615
  11 H :    0.019008
  12 H :    0.026926
  13 C :    0.118266
  14 H :    0.013505
  15 H :    0.020502
  16 H :   -0.030606
  17 H :   -0.016708
  18 H :   -0.012188

  Mayer bond orders larger than 0.100000
B(  0-C ,  1-N ) :   0.9050 B(  0-C ,  7-H ) :  -0.1265 B(  0-C , 10-C ) :   1.0741
B(  0-C , 11-H ) :   0.8971 B(  0-C , 12-H ) :   0.7800 B(  0-C , 15-H ) :   0.1132
B(  1-N ,  2-C ) :   1.1166 B(  1-N ,  3-C ) :   0.2657 B(  1-N ,  4-N ) :   0.1330
B(  1-N ,  7-H ) :   1.1364 B(  1-N , 11-H ) :   0.1342 B(  1-N , 12-H ) :   0.2494
B(  2-C ,  3-C ) :   1.5305 B(  2-C ,  4-N ) :   1.0572 B(  2-C ,  7-H ) :  -0.1196
B(  2-C ,  8-H ) :   0.1147 B(  2-C ,  9-H ) :   0.1603 B(  3-C ,  4-N ) :   0.1839
B(  3-C ,  8-H ) :   0.8508 B(  3-C ,  9-H ) :   0.7882 B(  4-N ,  5-H ) :   1.0187
B(  4-N ,  6-H ) :   1.2377 B(  5-H ,  6-H ) :  -0.1968 B( 10-C , 12-H ) :   0.1357
B( 10-C , 13-C ) :   1.2806 B( 10-C , 14-H ) :   0.9499 B( 10-C , 15-H ) :   0.9958
B( 10-C , 16-H ) :   0.2051 B( 10-C , 17-H ) :   0.1947 B( 10-C , 18-H ) :   0.1930
B( 13-C , 16-H ) :   0.8561 B( 13-C , 17-H ) :   0.8022 B( 13-C , 18-H ) :   0.7763
B( 16-H , 18-H ) :   0.1136

Dispersion correction           -0.005637449
FINAL SINGLE POINT ENERGY      -306.952594066370

DIPOLE MOMENT
-------------
                                X             Y             Z
Electronic contribution:      1.69761      -3.95643      -0.05264
Nuclear contribution   :     -2.41054       3.93233       1.31148
                        -----------------------------------------
Total Dipole Moment    :     -0.71293      -0.02410       1.25884
                        -----------------------------------------
Magnitude (a.u.)       :      1.44690
Magnitude (Debye)      :      3.67773

Rotational constants in cm-1:     0.144008     0.056232     0.050126
Rotational constants in MHz :  4317.255215  1685.791221  1502.728769

                             ****ORCA TERMINATED NORMALLY****
TOTAL RUN TIME: 0 days 0 hours 0 minutes 29 seconds 753 msec
