                         Program Version 5.0.0 -  RELEASE  -
|  1> !wB97X-D3 RIJCOSX def2-SVPD def2/J TightSCF CPCM(Water)
|  2> *xyz 0 1
|  3> C          0.61188        1.65763       -4.50029
|  4> C          1.69499        1.54179       -5.57045
|  5> H          2.69733        1.73466       -5.18400
|  6> H          1.50666        2.27224       -6.35808
|  7> S          1.78029       -0.03313       -6.42874
|  8> O          2.56929        0.21366       -7.60736
|  9> O          0.41688       -0.46297       -6.61859
| 10> C          0.68036        0.65542       -3.34804
| 11> H         -0.35687        1.54923       -4.99113
| 12> H          0.65023        2.67544       -4.09600
| 13> F          2.50513       -0.93326       -5.48257
| 14> H          0.64318       -0.34009       -3.73853
| 15> H         -0.14865        0.81153       -2.68980
| 16> H          1.59447        0.79330       -2.80925
| 17> *
| 18> %MaxCore 64000
| 19>
| 20> %pal nprocs 8
| 21> end
| 22>
| 23> %scf
| 24>   MaxIter 150
| 25> end
| 26>
| 27>
| 28>                          ****END OF INPUT****

CARTESIAN COORDINATES (ANGSTROEM)
---------------------------------
  C      0.611880    1.657630   -4.500290
  C      1.694990    1.541790   -5.570450
  H      2.697330    1.734660   -5.184000
  H      1.506660    2.272240   -6.358080
  S      1.780290   -0.033130   -6.428740
  O      2.569290    0.213660   -7.607360
  O      0.416880   -0.462970   -6.618590
  C      0.680360    0.655420   -3.348040
  H     -0.356870    1.549230   -4.991130
  H      0.650230    2.675440   -4.096000
  F      2.505130   -0.933260   -5.482570
  H      0.643180   -0.340090   -3.738530
  H     -0.148650    0.811530   -2.689800
  H      1.594470    0.793300   -2.809250

 Total Charge           Charge          ....    0
 Multiplicity           Mult            ....    1
 Number of Electrons    NEL             ....   66
 Basis Dimension        Dim             ....  212

ORBITAL ENERGIES
----------------

  NO   OCC          E(Eh)            E(eV)
   0   2.0000     -89.237145     -2428.2662
   1   2.0000     -24.894641      -677.4176
   2   2.0000     -19.270175      -524.3681
   3   2.0000     -19.270017      -524.3638
   4   2.0000     -10.337008      -281.2843
   5   2.0000     -10.302256      -280.3386
   6   2.0000     -10.275852      -279.6202
   7   2.0000      -8.311517      -226.1679
   8   2.0000      -6.275035      -170.7524
   9   2.0000      -6.269356      -170.5979
  10   2.0000      -6.267217      -170.5397
  11   2.0000      -1.450767       -39.4774
  12   2.0000      -1.243775       -33.8448
  13   2.0000      -1.150411       -31.3043
  14   2.0000      -0.933739       -25.4083
  15   2.0000      -0.852738       -23.2042
  16   2.0000      -0.801094       -21.7989
  17   2.0000      -0.732010       -19.9190
  18   2.0000      -0.669917       -18.2294
  19   2.0000      -0.665429       -18.1072
  20   2.0000      -0.658163       -17.9095
  21   2.0000      -0.595755       -16.2113
  22   2.0000      -0.572769       -15.5858
  23   2.0000      -0.562315       -15.3014
  24   2.0000      -0.550018       -14.9667
  25   2.0000      -0.524489       -14.2721
  26   2.0000      -0.502749       -13.6805
  27   2.0000      -0.473425       -12.8826
  28   2.0000      -0.458392       -12.4735
  29   2.0000      -0.444987       -12.1087
  30   2.0000      -0.440576       -11.9887
  31   2.0000      -0.430576       -11.7166
  32   2.0000      -0.423249       -11.5172
  33   0.0000       0.070930         1.9301
  34   0.0000       0.095856         2.6084
  35   0.0000       0.097386         2.6500
  36   0.0000       0.101767         2.7692
  37   0.0000       0.120179         3.2702

MULLIKEN ATOMIC CHARGES
-----------------------
   0 C :   -0.311812
   1 C :   -0.109426
   2 H :    0.124150
   3 H :    0.125042
   4 S :    1.485977
   5 O :   -0.720870
   6 O :   -0.711272
   7 C :    0.679590
   8 H :    0.035624
   9 H :   -0.060942
  10 F :   -0.409473
  11 H :   -0.117823
  12 H :   -0.014252
  13 H :    0.005487
Sum of atomic charges:    0.0000000

LOEWDIN ATOMIC CHARGES
----------------------
   0 C :   -0.071471
   1 C :   -0.037253
   2 H :    0.039923
   3 H :    0.040892
   4 S :    1.121311
   5 O :   -0.493200
   6 O :   -0.488991
   7 C :    0.133231
   8 H :    0.026057
   9 H :    0.040057
  10 F :   -0.270478
  11 H :   -0.028175
  12 H :   -0.006915
  13 H :   -0.004989

  Mayer bond orders larger than 0.100000
B(  0-C ,  1-C ) :   1.2895 B(  0-C ,  2-H ) :   0.1176 B(  0-C ,  3-H ) :   0.1231
B(  0-C ,  7-C ) :   1.2690 B(  0-C ,  8-H ) :   0.9104 B(  0-C ,  9-H ) :   0.9205
B(  0-C , 11-H ) :   0.1934 B(  0-C , 12-H ) :   0.1900 B(  0-C , 13-H ) :   0.2023
B(  1-C ,  2-H ) :   0.9283 B(  1-C ,  3-H ) :   0.8920 B(  1-C ,  4-S ) :   1.0112
B(  1-C ,  8-H ) :   0.1316 B(  1-C ,  9-H ) :   0.1252 B(  4-S ,  5-O ) :   1.5493
B(  4-S ,  6-O ) :   1.4959 B(  4-S , 10-F ) :   0.6139 B(  7-C , 11-H ) :   0.8368
B(  7-C , 12-H ) :   0.7883 B(  7-C , 13-H ) :   0.7827

Dispersion correction           -0.004577549
FINAL SINGLE POINT ENERGY      -766.488446762553

DIPOLE MOMENT
-------------
                                X             Y             Z
Electronic contribution:      5.11474      -7.04624      -7.91541
Nuclear contribution   :     -4.86824       8.29128       9.64318
                        -----------------------------------------
Total Dipole Moment    :      0.24650       1.24504       1.72778
                        -----------------------------------------
Magnitude (a.u.)       :      2.14385
Magnitude (Debye)      :      5.44924

Rotational constants in cm-1:     0.129339     0.055092     0.051542
Rotational constants in MHz :  3877.477482  1651.602611  1545.182728

                             ****ORCA TERMINATED NORMALLY****
TOTAL RUN TIME: 0 days 0 hours 0 minutes 22 seconds 381 msec
