                         Program Version 5.0.0 -  RELEASE  -
|  1> !wB97X-D3 RIJCOSX def2-SVPD def2/J TightSCF CPCM(Water)
|  2> *xyz 0 1
|  3> C          1.96337       -1.74915       -1.89689
|  4> N          2.73849       -2.01517       -3.09711
|  5> C          4.04974       -2.15472       -3.15204
|  6> N          4.65821       -1.98629       -4.31866
|  7> C          4.76423       -2.45444       -2.05049
|  8> H          4.28736       -2.77626       -1.21750
|  9> H          5.75082       -2.65835       -2.12599
| 10> H          2.34518       -1.69027       -3.97145
| 11> H          4.10900       -1.59268       -5.07176
| 12> H          5.64910       -2.15646       -4.42724
| 13> C          2.08852       -0.30091       -1.41520
| 14> H          2.23127       -2.45162       -1.10264
| 15> H          0.93025       -1.97780       -2.15544
| 16> C          1.96899        0.73358       -2.53565
| 17> H          3.05136       -0.16860       -0.91187
| 18> H          1.31650       -0.13623       -0.65725
| 19> H          2.73046        0.55745       -3.26643
| 20> H          2.08619        1.71595       -2.12808
| 21> H          1.00672        0.65098       -2.99620
| 22> *
| 23> %MaxCore 64000
| 24>
| 25> %pal nprocs 8
| 26> end
| 27>
| 28> %scf
| 29>   MaxIter 150
| 30> end
| 31>
| 32>
| 33>                          ****END OF INPUT****

CARTESIAN COORDINATES (ANGSTROEM)
---------------------------------
  C      1.963370   -1.749150   -1.896890
  N      2.738490   -2.015170   -3.097110
  C      4.049740   -2.154720   -3.152040
  N      4.658210   -1.986290   -4.318660
  C      4.764230   -2.454440   -2.050490
  H      4.287360   -2.776260   -1.217500
  H      5.750820   -2.658350   -2.125990
  H      2.345180   -1.690270   -3.971450
  H      4.109000   -1.592680   -5.071760
  H      5.649100   -2.156460   -4.427240
  C      2.088520   -0.300910   -1.415200
  H      2.231270   -2.451620   -1.102640
  H      0.930250   -1.977800   -2.155440
  C      1.968990    0.733580   -2.535650
  H      3.051360   -0.168600   -0.911870
  H      1.316500   -0.136230   -0.657250
  H      2.730460    0.557450   -3.266430
  H      2.086190    1.715950   -2.128080
  H      1.006720    0.650980   -2.996200

 Total Charge           Charge          ....    0
 Multiplicity           Mult            ....    1
 Number of Electrons    NEL             ....   56
 Basis Dimension        Dim             ....  236

ORBITAL ENERGIES
----------------

  NO   OCC          E(Eh)            E(eV)
   0   2.0000     -14.437360      -392.8605
   1   2.0000     -14.434714      -392.7886
   2   2.0000     -10.345870      -281.5254
   3   2.0000     -10.316141      -280.7165
   4   2.0000     -10.279219      -279.7118
   5   2.0000     -10.266836      -279.3748
   6   2.0000     -10.209096      -277.8036
   7   2.0000      -1.084613       -29.5138
   8   2.0000      -0.993155       -27.0251
   9   2.0000      -0.883145       -24.0316
  10   2.0000      -0.823618       -22.4118
  11   2.0000      -0.796897       -21.6847
  12   2.0000      -0.711061       -19.3490
  13   2.0000      -0.655241       -17.8300
  14   2.0000      -0.648320       -17.6417
  15   2.0000      -0.622741       -16.9457
  16   2.0000      -0.573217       -15.5980
  17   2.0000      -0.549046       -14.9403
  18   2.0000      -0.533640       -14.5211
  19   2.0000      -0.501630       -13.6501
  20   2.0000      -0.494497       -13.4560
  21   2.0000      -0.481487       -13.1019
  22   2.0000      -0.471887       -12.8407
  23   2.0000      -0.443067       -12.0565
  24   2.0000      -0.436114       -11.8673
  25   2.0000      -0.419823       -11.4240
  26   2.0000      -0.343503        -9.3472
  27   2.0000      -0.262837        -7.1522
  28   0.0000       0.093159         2.5350
  29   0.0000       0.114671         3.1204
  30   0.0000       0.118848         3.2340
  31   0.0000       0.121415         3.3039
  32   0.0000       0.143953         3.9172

MULLIKEN ATOMIC CHARGES
-----------------------
   0 C :    0.712487
   1 N :   -0.481698
   2 C :    0.551682
   3 N :   -0.064545
   4 C :    0.377852
   5 H :   -0.074898
   6 H :   -0.561409
   7 H :   -0.147640
   8 H :   -0.014652
   9 H :   -0.061469
  10 C :   -0.352568
  11 H :    0.023432
  12 H :   -0.259780
  13 C :    0.674294
  14 H :   -0.071259
  15 H :   -0.082013
  16 H :   -0.132066
  17 H :   -0.052428
  18 H :    0.016679
Sum of atomic charges:    0.0000000

LOEWDIN ATOMIC CHARGES
----------------------
   0 C :    0.057342
   1 N :   -0.020322
   2 C :   -0.254900
   3 N :    0.192404
   4 C :    0.123132
   5 H :   -0.123163
   6 H :   -0.115166
   7 H :    0.034507
   8 H :    0.012286
   9 H :    0.023448
  10 C :   -0.062657
  11 H :    0.018508
  12 H :    0.027512
  13 C :    0.117308
  14 H :    0.007202
  15 H :    0.021674
  16 H :   -0.029388
  17 H :   -0.017038
  18 H :   -0.012690

  Mayer bond orders larger than 0.100000
B(  0-C ,  1-N ) :   0.8658 B(  0-C ,  4-C ) :   0.1041 B(  0-C ,  7-H ) :  -0.1300
B(  0-C , 10-C ) :   1.0427 B(  0-C , 11-H ) :   0.8766 B(  0-C , 12-H ) :   0.8521
B(  0-C , 15-H ) :   0.1111 B(  1-N ,  2-C ) :   0.9821 B(  1-N ,  3-N ) :   0.2026
B(  1-N ,  4-C ) :   0.3468 B(  1-N ,  7-H ) :   1.2303 B(  1-N , 12-H ) :   0.1969
B(  2-C ,  3-N ) :   0.8954 B(  2-C ,  4-C ) :   1.7002 B(  2-C ,  5-H ) :   0.2794
B(  2-C ,  6-H ) :   0.1570 B(  2-C ,  7-H ) :  -0.1704 B(  3-N ,  4-C ) :   0.2029
B(  3-N ,  8-H ) :   1.1047 B(  3-N ,  9-H ) :   1.2516 B(  4-C ,  5-H ) :   0.6037
B(  4-C ,  6-H ) :   0.9044 B(  5-H , 11-H ) :   0.1151 B(  8-H ,  9-H ) :  -0.1622
B( 10-C , 12-H ) :   0.1308 B( 10-C , 13-C ) :   1.2790 B( 10-C , 14-H ) :   0.9778
B( 10-C , 15-H ) :   0.9691 B( 10-C , 16-H ) :   0.2105 B( 10-C , 17-H ) :   0.1950
B( 10-C , 18-H ) :   0.1947 B( 11-H , 12-H ) :  -0.1290 B( 13-C , 16-H ) :   0.8485
B( 13-C , 17-H ) :   0.8030 B( 13-C , 18-H ) :   0.7723 B( 16-H , 18-H ) :   0.1071

Dispersion correction           -0.005601115
FINAL SINGLE POINT ENERGY      -306.952905138279

DIPOLE MOMENT
-------------
                                X             Y             Z
Electronic contribution:      1.55210      -3.26308      -3.05460
Nuclear contribution   :     -2.38731       3.82978       1.80833
                        -----------------------------------------
Total Dipole Moment    :     -0.83521       0.56670      -1.24627
                        -----------------------------------------
Magnitude (a.u.)       :      1.60372
Magnitude (Debye)      :      4.07633

Rotational constants in cm-1:     0.144922     0.055791     0.049560
Rotational constants in MHz :  4344.653038  1672.561873  1485.775629

                             ****ORCA TERMINATED NORMALLY****
TOTAL RUN TIME: 0 days 0 hours 0 minutes 30 seconds 261 msec
