                         Program Version 5.0.0 -  RELEASE  -
|  1> !wB97X-D3 RIJCOSX def2-SVPD def2/J TightSCF CPCM(Water) xyzfile
|  2>
|  3> *xyzfile 0 1 D4.xyz
|  4>
|  5> %MaxCore 64000
|  6>
|  7> %pal nprocs 18
|  8> end
|  9>
| 10> %scf
| 11>   MaxIter 150
| 12> end
| 13>
| 14>
| 15>                          ****END OF INPUT****

CARTESIAN COORDINATES (ANGSTROEM)
---------------------------------
  C      1.963365   -1.749150   -1.896887
  C      2.738490   -2.015170   -3.097113
  C      0.611877    1.657634   -4.500288
  C      1.694991    1.541794   -5.570447
  H      2.697326    1.734659   -5.183996
  H      1.506656    2.272239   -6.358076
  S      1.780287   -0.033128   -6.428739
  C      4.049736   -2.154717   -3.152044
  N      4.658206   -1.986293   -4.318655
  N      4.764231   -2.454435   -2.050491
  H      4.287363   -2.776259   -1.217496
  H      5.750825   -2.658351   -2.125988
  H      2.345176   -1.690274   -3.971447
  H      4.109004   -1.592677   -5.071760
  H      5.649095   -2.156462   -4.427237
  O      2.569287    0.213657   -7.607360
  F      0.416880   -0.462969   -6.618595
  C      2.088520   -0.300912   -1.415204
  H      2.231272   -2.451616   -1.102643
  H      0.930249   -1.977801   -2.155438
  C      0.680356    0.655418   -3.348038
  H     -0.356865    1.549231   -4.991128
  H      0.650228    2.675438   -4.096000
  C      1.968993    0.733582   -2.535654
  H      3.051356   -0.168602   -0.911868
  H      1.316501   -0.136231   -0.657252
  O      2.505129   -0.933263   -5.482570
  H      2.824195    0.624726   -3.208464
  H      2.058919    1.730331   -2.093112
  H      0.542252   -0.344731   -3.766662
  H     -0.174219    0.829692   -2.685182

 Total Charge           Charge          ....    0
 Multiplicity           Mult            ....    1
 Number of Electrons    NEL             ....  120
 Basis Dimension        Dim             ....  432

ORBITAL ENERGIES
----------------

  NO   OCC          E(Eh)            E(eV)
   0   2.0000     -89.245257     -2428.4869
   1   2.0000     -24.922785      -678.1835
   2   2.0000     -19.272571      -524.4333
   3   2.0000     -19.256726      -524.0022
   4   2.0000     -14.426138      -392.5552
   5   2.0000     -14.414930      -392.2502
   6   2.0000     -10.339575      -281.3542
   7   2.0000     -10.325801      -280.9793
   8   2.0000     -10.301873      -280.3282
   9   2.0000     -10.282074      -279.7895
  10   2.0000     -10.272929      -279.5406
  11   2.0000     -10.268441      -279.4185
  12   2.0000     -10.260418      -279.2002
  13   2.0000     -10.188946      -277.2553
  14   2.0000      -8.318586      -226.3602
  15   2.0000      -6.282311      -170.9504
  16   2.0000      -6.276468      -170.7914
  17   2.0000      -6.274031      -170.7251
  18   2.0000      -1.494640       -40.6712
  19   2.0000      -1.237539       -33.6751
  20   2.0000      -1.131925       -30.8012
  21   2.0000      -1.057244       -28.7691
  22   2.0000      -0.963723       -26.2242
  23   2.0000      -0.942353       -25.6427
  24   2.0000      -0.905131       -24.6299
  25   2.0000      -0.862027       -23.4569
  26   2.0000      -0.833079       -22.6692
  27   2.0000      -0.803006       -21.8509
  28   2.0000      -0.762646       -20.7527
  29   2.0000      -0.725639       -19.7456
  30   2.0000      -0.708686       -19.2843
  31   2.0000      -0.698615       -19.0103
  32   2.0000      -0.688925       -18.7466
  33   2.0000      -0.657246       -17.8846
  34   2.0000      -0.652459       -17.7543
  35   2.0000      -0.630318       -17.1518
  36   2.0000      -0.601436       -16.3659
  37   2.0000      -0.590099       -16.0574
  38   2.0000      -0.578906       -15.7528
  39   2.0000      -0.571062       -15.5394
  40   2.0000      -0.568506       -15.4698
  41   2.0000      -0.549787       -14.9605
  42   2.0000      -0.539102       -14.6697
  43   2.0000      -0.530667       -14.4402
  44   2.0000      -0.512563       -13.9476
  45   2.0000      -0.497056       -13.5256
  46   2.0000      -0.486789       -13.2462
  47   2.0000      -0.475680       -12.9439
  48   2.0000      -0.473979       -12.8976
  49   2.0000      -0.462534       -12.5862
  50   2.0000      -0.451925       -12.2975
  51   2.0000      -0.438605       -11.9350
  52   2.0000      -0.431529       -11.7425
  53   2.0000      -0.422326       -11.4921
  54   2.0000      -0.411140       -11.1877
  55   2.0000      -0.404174       -10.9981
  56   2.0000      -0.396956       -10.8017
  57   2.0000      -0.379891       -10.3374
  58   2.0000      -0.349333        -9.5058
  59   2.0000      -0.239403        -6.5145
  60   0.0000       0.069546         1.8924
  61   0.0000       0.090117         2.4522
  62   0.0000       0.093655         2.5485
  63   0.0000       0.097317         2.6481
  64   0.0000       0.109962         2.9922

MULLIKEN ATOMIC CHARGES
-----------------------
   0 C :    0.238978
   1 C :    0.083416
   2 C :    0.351334
   3 C :   -0.027740
   4 H :    0.186510
   5 H :    0.018099
   6 S :    1.592882
   7 C :    0.619310
   8 N :    0.083667
   9 N :   -0.104217
  10 H :    0.024719
  11 H :   -0.186156
  12 H :   -0.464485
  13 H :   -0.154295
  14 H :   -0.184780
  15 O :   -0.710039
  16 F :   -0.461630
  17 C :    0.545426
  18 H :   -0.319443
  19 H :    0.123306
  20 C :   -0.005275
  21 H :    0.032030
  22 H :    0.015443
  23 C :   -0.158785
  24 H :   -0.028012
  25 H :    0.043569
  26 O :   -0.761771
  27 H :    0.029545
  28 H :   -0.183348
  29 H :   -0.080633
  30 H :   -0.157626
Sum of atomic charges:    0.0000000

LOEWDIN ATOMIC CHARGES
----------------------
   0 C :   -0.059269
   1 C :   -0.058976
   2 C :   -0.025880
   3 C :   -0.019643
   4 H :    0.041571
   5 H :    0.034805
   6 S :    1.199600
   7 C :   -0.215485
   8 N :    0.198326
   9 N :    0.196798
  10 H :   -0.001602
  11 H :    0.002184
  12 H :   -0.146133
  13 H :   -0.077380
  14 H :    0.009714
  15 O :   -0.478057
  16 F :   -0.225076
  17 C :   -0.026003
  18 H :    0.002092
  19 H :    0.006782
  20 C :   -0.022731
  21 H :    0.031684
  22 H :    0.043706
  23 C :   -0.027230
  24 H :    0.015500
  25 H :    0.016486
  26 O :   -0.494095
  27 H :    0.008420
  28 H :    0.026999
  29 H :    0.006706
  30 H :    0.036188

  Mayer bond orders larger than 0.100000
B(  0-C ,  1-C ) :   1.0992 B(  0-C ,  7-C ) :   0.1253 B(  0-C , 12-H ) :   0.4035
B(  0-C , 17-C ) :   1.1155 B(  0-C , 18-H ) :   0.8524 B(  0-C , 19-H ) :   0.6721
B(  0-C , 24-H ) :   0.1271 B(  0-C , 25-H ) :   0.1809 B(  1-C ,  7-C ) :   1.7222
B(  1-C ,  8-N ) :   0.2299 B(  1-C ,  9-N ) :   0.2535 B(  1-C , 10-H ) :  -0.1103
B(  1-C , 18-H ) :   0.2216 B(  1-C , 19-H ) :   0.2673 B(  1-C , 26-O ) :  -0.1319
B(  2-C ,  3-C ) :   1.2763 B(  2-C ,  5-H ) :   0.1672 B(  2-C , 20-C ) :   1.2472
B(  2-C , 21-H ) :   0.7026 B(  2-C , 22-H ) :   0.8076 B(  3-C ,  4-H ) :   0.8816
B(  3-C ,  5-H ) :   0.8890 B(  3-C ,  6-S ) :   1.0743 B(  3-C , 21-H ) :   0.1123
B(  3-C , 22-H ) :   0.1144 B(  6-S , 15-O ) :   1.5421 B(  6-S , 16-F ) :   0.5572
B(  6-S , 26-O ) :   1.3111 B(  7-C ,  8-N ) :   0.8166 B(  7-C ,  9-N ) :   0.9249
B(  7-C , 11-H ) :  -0.1727 B(  7-C , 12-H ) :   0.6330 B(  7-C , 14-H ) :  -0.2502
B(  8-N , 13-H ) :   1.1369 B(  8-N , 14-H ) :   1.4005 B(  9-N , 10-H ) :   1.0291
B(  9-N , 11-H ) :   1.3577 B( 10-H , 11-H ) :  -0.2113 B( 12-H , 23-C ) :   0.1042
B( 12-H , 26-O ) :   0.1813 B( 12-H , 28-H ) :  -0.1136 B( 13-H , 14-H ) :  -0.2136
B( 13-H , 26-O ) :   0.1245 B( 16-F , 26-O ) :   0.1442 B( 17-C , 23-C ) :   1.2245
B( 17-C , 24-H ) :   0.7580 B( 17-C , 25-H ) :   0.6870 B( 20-C , 21-H ) :   0.2489
B( 20-C , 23-C ) :   1.1903 B( 20-C , 27-H ) :   0.1024 B( 20-C , 28-H ) :   0.1564
B( 20-C , 29-H ) :   0.9339 B( 20-C , 30-H ) :   0.8792 B( 23-C , 24-H ) :   0.2433
B( 23-C , 25-H ) :   0.1462 B( 23-C , 27-H ) :   0.9105 B( 23-C , 28-H ) :   0.9137
B( 23-C , 29-H ) :   0.1072 B( 23-C , 30-H ) :   0.1542

Dispersion correction           -0.016327615
FINAL SINGLE POINT ENERGY     -1072.218934914572

DIPOLE MOMENT
-------------
                                X             Y             Z
Electronic contribution:     -3.10770      -1.57899     -21.60705
Nuclear contribution   :      2.64598       3.36033      21.85869
                        -----------------------------------------
Total Dipole Moment    :     -0.46172       1.78134       0.25164
                        -----------------------------------------
Magnitude (a.u.)       :      1.85733
Magnitude (Debye)      :      4.72096

Rotational constants in cm-1:     0.028973     0.014435     0.011026
Rotational constants in MHz :   868.588266   432.748309   330.548534

                             ****ORCA TERMINATED NORMALLY****
TOTAL RUN TIME: 0 days 0 hours 1 minutes 14 seconds 781 msec
