                         Program Version 5.0.0 -  RELEASE  -
|  1> !wB97X-D3 RIJCOSX def2-SVPD def2/J TightSCF CPCM(Water) xyzfile
|  2>
|  3> *xyzfile 0 1 D7.xyz
|  4>
|  5> %MaxCore 64000
|  6>
|  7> %pal nprocs 18
|  8> end
|  9>
| 10> %scf
| 11>   MaxIter 150
| 12> end
| 13>
| 14>
| 15>                          ****END OF INPUT****

CARTESIAN COORDINATES (ANGSTROEM)
---------------------------------
  C      1.963365   -1.749150   -1.896887
  C      2.738490   -2.015170   -3.097113
  C      0.611877    1.657634   -4.500288
  C      1.694991    1.541794   -5.570447
  H      2.697326    1.734659   -5.183996
  H      1.506656    2.272239   -6.358076
  S      1.780287   -0.033128   -6.428739
  C      4.049736   -2.154717   -3.152044
  N      4.658206   -1.986293   -4.318655
  N      4.764231   -2.454435   -2.050491
  H      4.287363   -2.776259   -1.217496
  H      5.750825   -2.658351   -2.125988
  H      2.345176   -1.690274   -3.971447
  H      4.109004   -1.592677   -5.071760
  H      5.649095   -2.156462   -4.427237
  O      2.569287    0.213657   -7.607360
  O      0.416880   -0.462969   -6.618595
  C      2.088520   -0.300912   -1.415204
  H      2.231272   -2.451616   -1.102643
  H      0.930249   -1.977801   -2.155438
  C      0.680356    0.655418   -3.348038
  H     -0.356865    1.549231   -4.991128
  H      0.650228    2.675438   -4.096000
  C      1.968993    0.733582   -2.535654
  H      3.051356   -0.168602   -0.911868
  H      1.316501   -0.136231   -0.657252
  F      2.505129   -0.933263   -5.482570
  H      2.824195    0.624726   -3.208464
  H      2.058919    1.730331   -2.093112
  H      0.542252   -0.344731   -3.766662
  H     -0.174219    0.829692   -2.685182

 Total Charge           Charge          ....    0
 Multiplicity           Mult            ....    1
 Number of Electrons    NEL             ....  120
 Basis Dimension        Dim             ....  432

ORBITAL ENERGIES
----------------

  NO   OCC          E(Eh)            E(eV)
   0   2.0000     -89.241869     -2428.3947
   1   2.0000     -24.906197      -677.7321
   2   2.0000     -19.273181      -524.4499
   3   2.0000     -19.272678      -524.4362
   4   2.0000     -14.431079      -392.6896
   5   2.0000     -14.427223      -392.5847
   6   2.0000     -10.338525      -281.3256
   7   2.0000     -10.335125      -281.2331
   8   2.0000     -10.300794      -280.2988
   9   2.0000     -10.284363      -279.8517
  10   2.0000     -10.276058      -279.6257
  11   2.0000     -10.270841      -279.4838
  12   2.0000     -10.264912      -279.3225
  13   2.0000     -10.203337      -277.6469
  14   2.0000      -8.315293      -226.2706
  15   2.0000      -6.279061      -170.8619
  16   2.0000      -6.273036      -170.6980
  17   2.0000      -6.270959      -170.6415
  18   2.0000      -1.465118       -39.8679
  19   2.0000      -1.248007       -33.9600
  20   2.0000      -1.152782       -31.3688
  21   2.0000      -1.065846       -29.0032
  22   2.0000      -0.972111       -26.4525
  23   2.0000      -0.942042       -25.6343
  24   2.0000      -0.908530       -24.7223
  25   2.0000      -0.862327       -23.4651
  26   2.0000      -0.841282       -22.8924
  27   2.0000      -0.801390       -21.8069
  28   2.0000      -0.769292       -20.9335
  29   2.0000      -0.728711       -19.8292
  30   2.0000      -0.693702       -18.8766
  31   2.0000      -0.684829       -18.6352
  32   2.0000      -0.675505       -18.3814
  33   2.0000      -0.672414       -18.2973
  34   2.0000      -0.648254       -17.6399
  35   2.0000      -0.637570       -17.3492
  36   2.0000      -0.603661       -16.4265
  37   2.0000      -0.596650       -16.2357
  38   2.0000      -0.585125       -15.9221
  39   2.0000      -0.572295       -15.5729
  40   2.0000      -0.563886       -15.3441
  41   2.0000      -0.558717       -15.2035
  42   2.0000      -0.543502       -14.7894
  43   2.0000      -0.527716       -14.3599
  44   2.0000      -0.517223       -14.0744
  45   2.0000      -0.501422       -13.6444
  46   2.0000      -0.494122       -13.4457
  47   2.0000      -0.484093       -13.1728
  48   2.0000      -0.479037       -13.0353
  49   2.0000      -0.460549       -12.5322
  50   2.0000      -0.456959       -12.4345
  51   2.0000      -0.437853       -11.9146
  52   2.0000      -0.436939       -11.8897
  53   2.0000      -0.430616       -11.7177
  54   2.0000      -0.425585       -11.5808
  55   2.0000      -0.409885       -11.1535
  56   2.0000      -0.401587       -10.9277
  57   2.0000      -0.396633       -10.7929
  58   2.0000      -0.356341        -9.6965
  59   2.0000      -0.248540        -6.7631
  60   0.0000       0.071353         1.9416
  61   0.0000       0.091647         2.4938
  62   0.0000       0.093182         2.5356
  63   0.0000       0.098216         2.6726
  64   0.0000       0.114561         3.1174

MULLIKEN ATOMIC CHARGES
-----------------------
   0 C :    0.232284
   1 C :    0.083988
   2 C :    0.393883
   3 C :   -0.029421
   4 H :    0.225357
   5 H :   -0.039627
   6 S :    1.558856
   7 C :    0.662777
   8 N :    0.116440
   9 N :   -0.110186
  10 H :    0.033643
  11 H :   -0.181899
  12 H :   -0.442005
  13 H :   -0.167847
  14 H :   -0.175851
  15 O :   -0.729904
  16 O :   -0.760957
  17 C :    0.518399
  18 H :   -0.308689
  19 H :    0.126380
  20 C :   -0.021666
  21 H :    0.011259
  22 H :    0.021293
  23 C :   -0.157522
  24 H :   -0.026398
  25 H :    0.047999
  26 F :   -0.493144
  27 H :    0.029587
  28 H :   -0.161887
  29 H :   -0.130337
  30 H :   -0.124804
Sum of atomic charges:   -0.0000000

LOEWDIN ATOMIC CHARGES
----------------------
   0 C :   -0.055982
   1 C :   -0.055999
   2 C :   -0.025719
   3 C :   -0.024503
   4 H :    0.033275
   5 H :    0.042070
   6 S :    1.149120
   7 C :   -0.209676
   8 N :    0.201852
   9 N :    0.203494
  10 H :    0.001885
  11 H :    0.006239
  12 H :   -0.114053
  13 H :   -0.044460
  14 H :    0.016755
  15 O :   -0.480451
  16 O :   -0.475814
  17 C :   -0.024398
  18 H :    0.005961
  19 H :    0.009409
  20 C :   -0.022943
  21 H :    0.029060
  22 H :    0.044133
  23 C :   -0.029617
  24 H :    0.016836
  25 H :    0.018350
  26 F :   -0.293976
  27 H :    0.007805
  28 H :    0.028648
  29 H :    0.004787
  30 H :    0.037912

  Mayer bond orders larger than 0.100000
B(  0-C ,  1-C ) :   1.1325 B(  0-C ,  7-C ) :   0.1231 B(  0-C , 12-H ) :   0.3968
B(  0-C , 17-C ) :   1.1209 B(  0-C , 18-H ) :   0.8425 B(  0-C , 19-H ) :   0.6757
B(  0-C , 24-H ) :   0.1195 B(  0-C , 25-H ) :   0.1685 B(  1-C ,  7-C ) :   1.6597
B(  1-C ,  8-N ) :   0.2444 B(  1-C ,  9-N ) :   0.2374 B(  1-C , 10-H ) :  -0.1079
B(  1-C , 18-H ) :   0.2412 B(  1-C , 19-H ) :   0.2754 B(  2-C ,  3-C ) :   1.2680
B(  2-C ,  4-H ) :   0.1068 B(  2-C ,  5-H ) :   0.1655 B(  2-C , 20-C ) :   1.2395
B(  2-C , 21-H ) :   0.7039 B(  2-C , 22-H ) :   0.7930 B(  3-C ,  4-H ) :   0.8564
B(  3-C ,  5-H ) :   0.8588 B(  3-C ,  6-S ) :   1.0909 B(  3-C , 21-H ) :   0.1218
B(  3-C , 22-H ) :   0.1139 B(  6-S , 15-O ) :   1.5051 B(  6-S , 16-O ) :   1.4271
B(  6-S , 26-F ) :   0.6041 B(  7-C ,  8-N ) :   0.8366 B(  7-C ,  9-N ) :   0.9444
B(  7-C , 11-H ) :  -0.1800 B(  7-C , 12-H ) :   0.6287 B(  7-C , 14-H ) :  -0.2393
B(  8-N , 13-H ) :   1.1358 B(  8-N , 14-H ) :   1.3791 B(  9-N , 10-H ) :   1.0182
B(  9-N , 11-H ) :   1.3634 B( 10-H , 11-H ) :  -0.2108 B( 12-H , 23-C ) :   0.1096
B( 13-H , 14-H ) :  -0.1970 B( 13-H , 26-F ) :   0.1569 B( 17-C , 23-C ) :   1.2241
B( 17-C , 24-H ) :   0.7717 B( 17-C , 25-H ) :   0.6965 B( 20-C , 21-H ) :   0.2599
B( 20-C , 23-C ) :   1.1868 B( 20-C , 28-H ) :   0.1580 B( 20-C , 29-H ) :   0.9569
B( 20-C , 30-H ) :   0.8702 B( 23-C , 24-H ) :   0.2461 B( 23-C , 25-H ) :   0.1449
B( 23-C , 27-H ) :   0.9083 B( 23-C , 28-H ) :   0.9191 B( 23-C , 30-H ) :   0.1591

Dispersion correction           -0.016306792
FINAL SINGLE POINT ENERGY     -1072.237396582013

DIPOLE MOMENT
-------------
                                X             Y             Z
Electronic contribution:      1.22870      -2.65284     -19.08375
Nuclear contribution   :      0.26049       3.89757      20.56096
                        -----------------------------------------
Total Dipole Moment    :      1.48919       1.24473       1.47721
                        -----------------------------------------
Magnitude (a.u.)       :      2.43910
Magnitude (Debye)      :      6.19969

Rotational constants in cm-1:     0.029090     0.014735     0.011139
Rotational constants in MHz :   872.086433   441.731892   333.928051

                             ****ORCA TERMINATED NORMALLY****
TOTAL RUN TIME: 0 days 0 hours 1 minutes 13 seconds 14 msec
