                         Program Version 5.0.0 -  RELEASE  -
|  1> !wB97X-D3 RIJCOSX def2-SVPD def2/J TightSCF CPCM(Water) xyzfile
|  2>
|  3> *xyzfile 0 1 D8.xyz
|  4>
|  5> %MaxCore 64000
|  6>
|  7> %pal nprocs 18
|  8> end
|  9>
| 10> %scf
| 11>   MaxIter 150
| 12> end
| 13>
| 14>
| 15>                          ****END OF INPUT****

CARTESIAN COORDINATES (ANGSTROEM)
---------------------------------
  C      1.963365   -1.749150   -1.896887
  N      2.738490   -2.015170   -3.097113
  C      0.611877    1.657634   -4.500288
  C      1.694991    1.541794   -5.570447
  H      2.697326    1.734659   -5.183996
  H      1.506656    2.272239   -6.358076
  S      1.780287   -0.033128   -6.428739
  C      4.049736   -2.154717   -3.152044
  C      4.658206   -1.986293   -4.318655
  N      4.764231   -2.454435   -2.050491
  H      4.287363   -2.776259   -1.217496
  H      5.750825   -2.658351   -2.125988
  H      2.345176   -1.690274   -3.971447
  H      4.109004   -1.592677   -5.071760
  H      5.649095   -2.156462   -4.427237
  O      2.569287    0.213657   -7.607360
  O      0.416880   -0.462969   -6.618595
  C      2.088520   -0.300912   -1.415204
  H      2.231272   -2.451616   -1.102643
  H      0.930249   -1.977801   -2.155438
  C      0.680356    0.655418   -3.348038
  H     -0.356865    1.549231   -4.991128
  H      0.650228    2.675438   -4.096000
  C      1.968993    0.733582   -2.535654
  H      3.051356   -0.168602   -0.911868
  H      1.316501   -0.136231   -0.657252
  F      2.505129   -0.933263   -5.482570
  H      2.824195    0.624726   -3.208464
  H      2.058919    1.730331   -2.093112
  H      0.542252   -0.344731   -3.766662
  H     -0.174219    0.829692   -2.685182

 Total Charge           Charge          ....    0
 Multiplicity           Mult            ....    1
 Number of Electrons    NEL             ....  120
 Basis Dimension        Dim             ....  432

ORBITAL ENERGIES
----------------

  NO   OCC          E(Eh)            E(eV)
   0   2.0000     -89.243418     -2428.4369
   1   2.0000     -24.909112      -677.8114
   2   2.0000     -19.274151      -524.4763
   3   2.0000     -19.274045      -524.4734
   4   2.0000     -14.433857      -392.7652
   5   2.0000     -14.431719      -392.7070
   6   2.0000     -10.343587      -281.4633
   7   2.0000     -10.339864      -281.3620
   8   2.0000     -10.316989      -280.7395
   9   2.0000     -10.303094      -280.3614
  10   2.0000     -10.289704      -279.9971
  11   2.0000     -10.283804      -279.8365
  12   2.0000     -10.281284      -279.7680
  13   2.0000     -10.204574      -277.6806
  14   2.0000      -8.316775      -226.3109
  15   2.0000      -6.280580      -170.9033
  16   2.0000      -6.274494      -170.7377
  17   2.0000      -6.272429      -170.6815
  18   2.0000      -1.467842       -39.9420
  19   2.0000      -1.249315       -33.9956
  20   2.0000      -1.153877       -31.3986
  21   2.0000      -1.080208       -29.3939
  22   2.0000      -0.990277       -26.9468
  23   2.0000      -0.944705       -25.7067
  24   2.0000      -0.901316       -24.5261
  25   2.0000      -0.872039       -23.7294
  26   2.0000      -0.828564       -22.5464
  27   2.0000      -0.816190       -22.2097
  28   2.0000      -0.774658       -21.0795
  29   2.0000      -0.735681       -20.0189
  30   2.0000      -0.699426       -19.0323
  31   2.0000      -0.696060       -18.9407
  32   2.0000      -0.680362       -18.5136
  33   2.0000      -0.675293       -18.3757
  34   2.0000      -0.654553       -17.8113
  35   2.0000      -0.633559       -17.2400
  36   2.0000      -0.602692       -16.4001
  37   2.0000      -0.593186       -16.1414
  38   2.0000      -0.585341       -15.9279
  39   2.0000      -0.575027       -15.6473
  40   2.0000      -0.574568       -15.6348
  41   2.0000      -0.564931       -15.3726
  42   2.0000      -0.540816       -14.7163
  43   2.0000      -0.529867       -14.4184
  44   2.0000      -0.517929       -14.0936
  45   2.0000      -0.505622       -13.7587
  46   2.0000      -0.498449       -13.5635
  47   2.0000      -0.490653       -13.3513
  48   2.0000      -0.477186       -12.9849
  49   2.0000      -0.466523       -12.6947
  50   2.0000      -0.462986       -12.5985
  51   2.0000      -0.455477       -12.3941
  52   2.0000      -0.448971       -12.2171
  53   2.0000      -0.436941       -11.8898
  54   2.0000      -0.431229       -11.7343
  55   2.0000      -0.420051       -11.4302
  56   2.0000      -0.417372       -11.3573
  57   2.0000      -0.409079       -11.1316
  58   2.0000      -0.346407        -9.4262
  59   2.0000      -0.260415        -7.0862
  60   0.0000       0.070778         1.9260
  61   0.0000       0.091215         2.4821
  62   0.0000       0.093060         2.5323
  63   0.0000       0.097036         2.6405
  64   0.0000       0.113828         3.0974

MULLIKEN ATOMIC CHARGES
-----------------------
   0 C :    0.907482
   1 N :   -0.063511
   2 C :    0.389801
   3 C :   -0.040141
   4 H :    0.230820
   5 H :   -0.034376
   6 S :    1.564154
   7 C :    0.630937
   8 C :    0.663352
   9 N :    0.080497
  10 H :    0.008806
  11 H :   -0.126129
  12 H :   -0.584360
  13 H :   -0.332372
  14 H :   -0.589510
  15 O :   -0.726468
  16 O :   -0.756164
  17 C :    0.327851
  18 H :   -0.337828
  19 H :   -0.094607
  20 C :   -0.033890
  21 H :    0.026269
  22 H :    0.029392
  23 C :   -0.039511
  24 H :   -0.014094
  25 H :   -0.062012
  26 F :   -0.602090
  27 H :    0.089550
  28 H :   -0.276401
  29 H :   -0.124015
  30 H :   -0.111431
Sum of atomic charges:   -0.0000000

LOEWDIN ATOMIC CHARGES
----------------------
   0 C :    0.067254
   1 N :    0.000293
   2 C :   -0.023811
   3 C :   -0.024130
   4 H :    0.033614
   5 H :    0.042901
   6 S :    1.148074
   7 C :   -0.232152
   8 C :    0.135766
   9 N :    0.205098
  10 H :   -0.005273
  11 H :    0.016899
  12 H :   -0.044141
  13 H :   -0.150213
  14 H :   -0.101892
  15 O :   -0.476933
  16 O :   -0.475500
  17 C :   -0.014089
  18 H :    0.019127
  19 H :    0.024178
  20 C :   -0.024458
  21 H :    0.030338
  22 H :    0.045648
  23 C :   -0.027943
  24 H :    0.018319
  25 H :    0.026104
  26 F :   -0.296486
  27 H :    0.006296
  28 H :    0.032242
  29 H :    0.004442
  30 H :    0.040428

  Mayer bond orders larger than 0.100000
B(  0-C ,  1-N ) :   0.8779 B(  0-C , 12-H ) :  -0.3062 B(  0-C , 17-C ) :   1.0789
B(  0-C , 18-H ) :   0.9243 B(  0-C , 19-H ) :   0.6861 B(  0-C , 25-H ) :   0.1028
B(  1-N ,  7-C ) :   1.0828 B(  1-N ,  8-C ) :   0.2110 B(  1-N ,  9-N ) :   0.2057
B(  1-N , 12-H ) :   1.1075 B(  1-N , 19-H ) :   0.1342 B(  2-C ,  3-C ) :   1.2729
B(  2-C ,  4-H ) :   0.1001 B(  2-C ,  5-H ) :   0.1584 B(  2-C , 20-C ) :   1.2435
B(  2-C , 21-H ) :   0.6974 B(  2-C , 22-H ) :   0.7932 B(  3-C ,  4-H ) :   0.8600
B(  3-C ,  5-H ) :   0.8649 B(  3-C ,  6-S ) :   1.0795 B(  3-C , 21-H ) :   0.1245
B(  3-C , 22-H ) :   0.1188 B(  6-S , 15-O ) :   1.4995 B(  6-S , 16-O ) :   1.4187
B(  6-S , 26-F ) :   0.6079 B(  7-C ,  8-C ) :   1.5114 B(  7-C ,  9-N ) :   0.9859
B(  7-C , 11-H ) :  -0.1191 B(  7-C , 12-H ) :  -0.3088 B(  7-C , 13-H ) :   0.1324
B(  7-C , 14-H ) :   0.2555 B(  8-C ,  9-N ) :   0.2643 B(  8-C , 13-H ) :   0.4724
B(  8-C , 14-H ) :   0.7424 B(  9-N , 10-H ) :   0.9319 B(  9-N , 11-H ) :   1.2509
B( 10-H , 11-H ) :  -0.2028 B( 12-H , 13-H ) :  -0.1082 B( 12-H , 19-H ) :   0.1706
B( 12-H , 24-H ) :   0.1061 B( 13-H , 14-H ) :  -0.2216 B( 13-H , 26-F ) :   0.3185
B( 17-C , 18-H ) :   0.1259 B( 17-C , 19-H ) :   0.1007 B( 17-C , 23-C ) :   1.2401
B( 17-C , 24-H ) :   0.7848 B( 17-C , 25-H ) :   0.9046 B( 18-H , 19-H ) :  -0.1272
B( 20-C , 21-H ) :   0.2634 B( 20-C , 23-C ) :   1.1655 B( 20-C , 28-H ) :   0.1409
B( 20-C , 29-H ) :   0.9689 B( 20-C , 30-H ) :   0.8810 B( 23-C , 24-H ) :   0.2039
B( 23-C , 25-H ) :   0.1169 B( 23-C , 27-H ) :   0.8692 B( 23-C , 28-H ) :   0.9887
B( 23-C , 30-H ) :   0.1435

Dispersion correction           -0.016408015
FINAL SINGLE POINT ENERGY     -1072.233491665202

DIPOLE MOMENT
-------------
                                X             Y             Z
Electronic contribution:     -1.06082      -2.55061     -17.56121
Nuclear contribution   :      0.50676       3.90127      20.40426
                        -----------------------------------------
Total Dipole Moment    :     -0.55407       1.35066       2.84305
                        -----------------------------------------
Magnitude (a.u.)       :      3.19597
Magnitude (Debye)      :      8.12351

Rotational constants in cm-1:     0.029548     0.014706     0.011197
Rotational constants in MHz :   885.834387   440.871746   335.667619

                             ****ORCA TERMINATED NORMALLY****
TOTAL RUN TIME: 0 days 0 hours 1 minutes 12 seconds 507 msec
