                         Program Version 5.0.0 -  RELEASE  -
|  1> !wB97X-D3 RIJCOSX def2-TZVPD def2/J TightSCF
|  2> *xyz -1 1
|  3> C          2.49670       -1.84416       -5.73570
|  4> O          2.45973       -0.50920       -5.50576
|  5> H          2.07863       -2.36209       -4.89793
|  6> H          3.51118       -2.15388       -5.87645
|  7> H          1.92949       -2.07059       -6.61428
|  8> *
|  9>
| 10> %MaxCore 64000
| 11>
| 12> %pal nprocs 18
| 13> end
| 14>
| 15> %scf
| 16>   MaxIter 150
| 17> end
| 18>
| 19>
| 20>                          ****END OF INPUT****

CARTESIAN COORDINATES (ANGSTROEM)
---------------------------------
  C      2.496700   -1.844160   -5.735700
  O      2.459730   -0.509200   -5.505760
  H      2.078630   -2.362090   -4.897930
  H      3.511180   -2.153880   -5.876450
  H      1.929490   -2.070590   -6.614280

 Total Charge           Charge          ....   -1
 Multiplicity           Mult            ....    1
 Number of Electrons    NEL             ....   18
 Basis Dimension        Dim             ....  104

ORBITAL ENERGIES
----------------

  NO   OCC          E(Eh)            E(eV)
   0   2.0000     -18.872700      -513.5523
   1   2.0000     -10.054445      -273.5954
   2   2.0000      -0.778781       -21.1917
   3   2.0000      -0.506399       -13.7798
   4   2.0000      -0.295815        -8.0495
   5   2.0000      -0.295811        -8.0494
   6   2.0000      -0.196658        -5.3513
   7   2.0000      -0.041206        -1.1213
   8   2.0000      -0.041202        -1.1212
   9   0.0000       0.226409         6.1609
  10   0.0000       0.274608         7.4725
  11   0.0000       0.279804         7.6139
  12   0.0000       0.279808         7.6140
  13   0.0000       0.330531         8.9942

MULLIKEN ATOMIC CHARGES
-----------------------
   0 C :   -0.550592
   1 O :   -0.940389
   2 H :    0.163507
   3 H :    0.163708
   4 H :    0.163766
Sum of atomic charges:   -1.0000000

LOEWDIN ATOMIC CHARGES
----------------------
   0 C :   -0.526312
   1 O :   -0.504393
   2 H :    0.010232
   3 H :    0.010233
   4 H :    0.010240

  Mayer bond orders larger than 0.100000
B(  0-C ,  1-O ) :   1.0629 B(  0-C ,  2-H ) :   0.9596 B(  0-C ,  3-H ) :   0.9597
B(  0-C ,  4-H ) :   0.9597

Dispersion correction           -0.000086560
FINAL SINGLE POINT ENERGY      -115.107071831737

DIPOLE MOMENT
-------------
                                X             Y             Z
Electronic contribution:     -0.05099       1.84002       0.31692
Nuclear contribution   :      0.07809      -2.81948      -0.48564
                        -----------------------------------------
Total Dipole Moment    :      0.02710      -0.97946      -0.16872
                        -----------------------------------------
Magnitude (a.u.)       :      0.99426
Magnitude (Debye)      :      2.52720

Rotational constants in cm-1:     5.477724     0.956378     0.956377
Rotational constants in MHz : 164218.041992 28671.483536 28671.460928

                             ****ORCA TERMINATED NORMALLY****
TOTAL RUN TIME: 0 days 0 hours 0 minutes 4 seconds 922 msec
