                         Program Version 5.0.0 -  RELEASE  -
|  1> !wB97X-D3 RIJCOSX def2-TZVPD def2/J TightSCF
|  2> *xyz 1 1
|  3> C          4.99986       -1.59613       -5.92488
|  4> N          5.28156       -1.97413       -4.53576
|  5> C          4.79250       -1.36132       -3.45730
|  6> N          3.93990       -0.37492       -3.55736
|  7> N          5.25986       -1.75422       -2.23913
|  8> H          5.92282       -2.52145       -2.18672
|  9> H          4.65468       -1.64040       -1.44202
| 10> H          5.70914       -2.87560       -4.38702
| 11> H          3.33010       -0.31764       -4.36125
| 12> H          3.69849        0.11447       -2.70833
| 13> H          5.52133       -2.25562       -6.58673
| 14> H          5.32493       -0.59081       -6.09388
| 15> H          3.94785       -1.66624       -6.10727
| 16> *
| 17>
| 18> %MaxCore 64000
| 19>
| 20> %pal nprocs 18
| 21> end
| 22>
| 23> %scf
| 24>   MaxIter 150
| 25> end
| 26>
| 27>
| 28>                          ****END OF INPUT****

CARTESIAN COORDINATES (ANGSTROEM)
---------------------------------
  C      4.999860   -1.596130   -5.924880
  N      5.281560   -1.974130   -4.535760
  C      4.792500   -1.361320   -3.457300
  N      3.939900   -0.374920   -3.557360
  N      5.259860   -1.754220   -2.239130
  H      5.922820   -2.521450   -2.186720
  H      4.654680   -1.640400   -1.442020
  H      5.709140   -2.875600   -4.387020
  H      3.330100   -0.317640   -4.361250
  H      3.698490    0.114470   -2.708330
  H      5.521330   -2.255620   -6.586730
  H      5.324930   -0.590810   -6.093880
  H      3.947850   -1.666240   -6.107270

 Total Charge           Charge          ....    1
 Multiplicity           Mult            ....    1
 Number of Electrons    NEL             ....   40
 Basis Dimension        Dim             ....  257

ORBITAL ENERGIES
----------------

  NO   OCC          E(Eh)            E(eV)
   0   2.0000     -14.653867      -398.7520
   1   2.0000     -14.652919      -398.7262
   2   2.0000     -14.643272      -398.4637
   3   2.0000     -10.618487      -288.9437
   4   2.0000     -10.478715      -285.1403
   5   2.0000      -1.338103       -36.4116
   6   2.0000      -1.226061       -33.3628
   7   2.0000      -1.209791       -32.9201
   8   2.0000      -1.019129       -27.7319
   9   2.0000      -0.939409       -25.5626
  10   2.0000      -0.895357       -24.3639
  11   2.0000      -0.852684       -23.2027
  12   2.0000      -0.803537       -21.8653
  13   2.0000      -0.794243       -21.6125
  14   2.0000      -0.754391       -20.5280
  15   2.0000      -0.731857       -19.9148
  16   2.0000      -0.691720       -18.8227
  17   2.0000      -0.677669       -18.4403
  18   2.0000      -0.579562       -15.7707
  19   2.0000      -0.551778       -15.0146
  20   0.0000      -0.100108        -2.7241
  21   0.0000      -0.090436        -2.4609
  22   0.0000      -0.057781        -1.5723
  23   0.0000      -0.052012        -1.4153
  24   0.0000      -0.025994        -0.7073

MULLIKEN ATOMIC CHARGES
-----------------------
   0 C :   -0.971210
   1 N :   -0.211668
   2 C :    0.715427
   3 N :   -0.368607
   4 N :   -0.451009
   5 H :    0.240924
   6 H :    0.251530
   7 H :    0.262850
   8 H :    0.245314
   9 H :    0.229938
  10 H :    0.323465
  11 H :    0.373651
  12 H :    0.359395
Sum of atomic charges:    1.0000000

LOEWDIN ATOMIC CHARGES
----------------------
   0 C :   -0.021616
   1 N :    0.043300
   2 C :   -0.431920
   3 N :    0.224183
   4 N :    0.188130
   5 H :    0.135835
   6 H :    0.130268
   7 H :    0.160037
   8 H :    0.140417
   9 H :    0.146899
  10 H :    0.099088
  11 H :    0.097609
  12 H :    0.087771

  Mayer bond orders larger than 0.100000
B(  0-C ,  1-N ) :   0.8867 B(  0-C , 10-H ) :   0.8957 B(  0-C , 11-H ) :   0.8776
B(  0-C , 12-H ) :   0.8511 B(  1-N ,  2-C ) :   1.2560 B(  1-N ,  7-H ) :   0.9509
B(  2-C ,  3-N ) :   1.2014 B(  2-C ,  4-N ) :   1.0724 B(  3-N ,  8-H ) :   0.9516
B(  3-N ,  9-H ) :   0.9844 B(  4-N ,  5-H ) :   0.9494 B(  4-N ,  6-H ) :   0.9690

Dispersion correction           -0.002409744
FINAL SINGLE POINT ENERGY      -245.108168887496

DIPOLE MOMENT
-------------
                                X             Y             Z
Electronic contribution:      0.16445       0.11991       2.67771
Nuclear contribution   :     -0.59263      -0.40751      -2.24260
                        -----------------------------------------
Total Dipole Moment    :     -0.42818      -0.28761       0.43511
                        -----------------------------------------
Magnitude (a.u.)       :      0.67481
Magnitude (Debye)      :      1.71524

Rotational constants in cm-1:     0.316984     0.131419     0.095004
Rotational constants in MHz :  9502.926758  3939.829875  2848.138998

                             ****ORCA TERMINATED NORMALLY****
TOTAL RUN TIME: 0 days 0 hours 0 minutes 20 seconds 563 msec
