                         Program Version 5.0.0 -  RELEASE  -
|  1> !wB97X-D3 RIJCOSX def2-TZVPD def2/J TightSCF
|  2> *xyz 0 1
|  3> C          2.49670       -1.84416       -5.73570
|  4> F          2.45973       -0.50920       -5.50576
|  5> H          2.07863       -2.36209       -4.89793
|  6> H          3.51118       -2.15388       -5.87645
|  7> H          1.92949       -2.07059       -6.61428
|  8> *
|  9>
| 10> %MaxCore 64000
| 11>
| 12> %pal nprocs 18
| 13> end
| 14>
| 15> %scf
| 16>   MaxIter 150
| 17> end
| 18>
| 19>
| 20>                          ****END OF INPUT****

CARTESIAN COORDINATES (ANGSTROEM)
---------------------------------
  C      2.496700   -1.844160   -5.735700
  F      2.459730   -0.509200   -5.505760
  H      2.078630   -2.362090   -4.897930
  H      3.511180   -2.153880   -5.876450
  H      1.929490   -2.070590   -6.614280

 Total Charge           Charge          ....    0
 Multiplicity           Mult            ....    1
 Number of Electrons    NEL             ....   18
 Basis Dimension        Dim             ....  104

ORBITAL ENERGIES
----------------

  NO   OCC          E(Eh)            E(eV)
   0   2.0000     -24.769104      -674.0016
   1   2.0000     -10.338153      -281.3154
   2   2.0000      -1.318099       -35.8673
   3   2.0000      -0.820291       -22.3212
   4   2.0000      -0.599028       -16.3004
   5   2.0000      -0.595391       -16.2014
   6   2.0000      -0.595387       -16.2013
   7   2.0000      -0.446667       -12.1544
   8   2.0000      -0.446658       -12.1542
   9   0.0000       0.074306         2.0220
  10   0.0000       0.117459         3.1962
  11   0.0000       0.134165         3.6508
  12   0.0000       0.134166         3.6508
  13   0.0000       0.161967         4.4073

MULLIKEN ATOMIC CHARGES
-----------------------
   0 C :   -0.331730
   1 F :   -0.285116
   2 H :    0.205542
   3 H :    0.205644
   4 H :    0.205660
Sum of atomic charges:    0.0000000

LOEWDIN ATOMIC CHARGES
----------------------
   0 C :   -0.128194
   1 F :   -0.089145
   2 H :    0.072443
   3 H :    0.072448
   4 H :    0.072449

  Mayer bond orders larger than 0.100000
B(  0-C ,  1-F ) :   0.8335 B(  0-C ,  2-H ) :   0.9503 B(  0-C ,  3-H ) :   0.9503
B(  0-C ,  4-H ) :   0.9503

Dispersion correction           -0.000124156
FINAL SINGLE POINT ENERGY      -139.765876567316

DIPOLE MOMENT
-------------
                                X             Y             Z
Electronic contribution:     -0.08038       2.90201       0.49988
Nuclear contribution   :      0.09898      -3.57380      -0.61557
                        -----------------------------------------
Total Dipole Moment    :      0.01860      -0.67179      -0.11569
                        -----------------------------------------
Magnitude (a.u.)       :      0.68194
Magnitude (Debye)      :      1.73334

Rotational constants in cm-1:     5.477724     0.890368     0.890367
Rotational constants in MHz : 164218.041992 26692.553985 26692.534390

                             ****ORCA TERMINATED NORMALLY****
TOTAL RUN TIME: 0 days 0 hours 0 minutes 4 seconds 629 msec
