                         Program Version 5.0.0 -  RELEASE  -
|  1> !wB97X-D3 RIJCOSX def2-TZVPD def2/J TightSCF
|  2> *xyz 0 1
|  3> C          4.99986       -1.59613       -5.92488
|  4> C          5.28156       -1.97413       -4.53576
|  5> C          4.79250       -1.36132       -3.45730
|  6> N          3.93990       -0.37492       -3.55736
|  7> N          5.25986       -1.75422       -2.23913
|  8> H          5.92282       -2.52145       -2.18672
|  9> H          4.65468       -1.64040       -1.44202
| 10> H          5.70914       -2.87560       -4.38702
| 11> H          3.33010       -0.31764       -4.36125
| 12> H          3.69849        0.11447       -2.70833
| 13> H          5.52133       -2.25562       -6.58673
| 14> H          5.32493       -0.59081       -6.09388
| 15> H          3.94785       -1.66624       -6.10727
| 16> *
| 17>
| 18> %MaxCore 64000
| 19>
| 20> %pal nprocs 18
| 21> end
| 22>
| 23> %scf
| 24>   MaxIter 150
| 25> end
| 26>
| 27>
| 28>                          ****END OF INPUT****

CARTESIAN COORDINATES (ANGSTROEM)
---------------------------------
  C      4.999860   -1.596130   -5.924880
  C      5.281560   -1.974130   -4.535760
  C      4.792500   -1.361320   -3.457300
  N      3.939900   -0.374920   -3.557360
  N      5.259860   -1.754220   -2.239130
  H      5.922820   -2.521450   -2.186720
  H      4.654680   -1.640400   -1.442020
  H      5.709140   -2.875600   -4.387020
  H      3.330100   -0.317640   -4.361250
  H      3.698490    0.114470   -2.708330
  H      5.521330   -2.255620   -6.586730
  H      5.324930   -0.590810   -6.093880
  H      3.947850   -1.666240   -6.107270

 Total Charge           Charge          ....    0
 Multiplicity           Mult            ....    1
 Number of Electrons    NEL             ....   40
 Basis Dimension        Dim             ....  257

ORBITAL ENERGIES
----------------

  NO   OCC          E(Eh)            E(eV)
   0   2.0000     -14.425367      -392.5342
   1   2.0000     -14.415889      -392.2763
   2   2.0000     -10.316673      -280.7310
   3   2.0000     -10.236504      -278.5494
   4   2.0000     -10.197855      -277.4977
   5   2.0000      -1.079228       -29.3673
   6   2.0000      -0.985063       -26.8049
   7   2.0000      -0.865677       -23.5563
   8   2.0000      -0.766648       -20.8616
   9   2.0000      -0.688499       -18.7350
  10   2.0000      -0.646327       -17.5875
  11   2.0000      -0.605130       -16.4664
  12   2.0000      -0.575078       -15.6487
  13   2.0000      -0.528487       -14.3809
  14   2.0000      -0.506241       -13.7755
  15   2.0000      -0.471844       -12.8395
  16   2.0000      -0.453516       -12.3408
  17   2.0000      -0.432532       -11.7698
  18   2.0000      -0.360313        -9.8046
  19   2.0000      -0.246787        -6.7154
  20   0.0000       0.064582         1.7574
  21   0.0000       0.089635         2.4391
  22   0.0000       0.096533         2.6268
  23   0.0000       0.122639         3.3372
  24   0.0000       0.132996         3.6190

MULLIKEN ATOMIC CHARGES
-----------------------
   0 C :   -1.099500
   1 C :   -0.656680
   2 C :    0.683391
   3 N :   -0.420318
   4 N :   -0.497143
   5 H :    0.200553
   6 H :    0.191366
   7 H :    0.353389
   8 H :    0.199163
   9 H :    0.194828
  10 H :    0.317359
  11 H :    0.260711
  12 H :    0.272884
Sum of atomic charges:   -0.0000000

LOEWDIN ATOMIC CHARGES
----------------------
   0 C :   -0.134091
   1 C :   -0.179546
   2 C :   -0.558813
   3 N :    0.128622
   4 N :    0.089421
   5 H :    0.104834
   6 H :    0.087257
   7 H :    0.053618
   8 H :    0.110628
   9 H :    0.107253
  10 H :    0.065246
  11 H :    0.067291
  12 H :    0.058277

  Mayer bond orders larger than 0.100000
B(  0-C ,  1-C ) :   0.6947 B(  0-C , 10-H ) :   0.9469 B(  0-C , 11-H ) :   1.0014
B(  0-C , 12-H ) :   0.9227 B(  1-C ,  2-C ) :   1.2965 B(  1-C ,  3-N ) :   0.1449
B(  1-C ,  7-H ) :   0.9209 B(  2-C ,  3-N ) :   0.9994 B(  2-C ,  4-N ) :   0.9534
B(  2-C ,  7-H ) :  -0.1297 B(  3-N ,  8-H ) :   0.9871 B(  3-N ,  9-H ) :   1.0027
B(  4-N ,  5-H ) :   0.9760 B(  4-N ,  6-H ) :   1.0216

Dispersion correction           -0.002410893
FINAL SINGLE POINT ENERGY      -228.628952827410

DIPOLE MOMENT
-------------
                                X             Y             Z
Electronic contribution:     -0.14855       0.60156       3.07952
Nuclear contribution   :     -0.50372      -0.52081      -2.36443
                        -----------------------------------------
Total Dipole Moment    :     -0.65227       0.08075       0.71510
                        -----------------------------------------
Magnitude (a.u.)       :      0.97126
Magnitude (Debye)      :      2.46873

Rotational constants in cm-1:     0.322219     0.132365     0.095965
Rotational constants in MHz :  9659.878542  3968.206057  2876.950547

                             ****ORCA TERMINATED NORMALLY****
TOTAL RUN TIME: 0 days 0 hours 0 minutes 21 seconds 301 msec
