                         Program Version 5.0.0 -  RELEASE  -
|  1> !wB97X-D3 RIJCOSX def2-TZVPD def2/J TightSCF
|  2> *xyz 0 1
|  3> C          4.99986       -1.59613       -5.92488
|  4> N          5.28156       -1.97413       -4.53576
|  5> C          4.79250       -1.36132       -3.45730
|  6> C          3.93990       -0.37492       -3.55736
|  7> N          5.25986       -1.75422       -2.23913
|  8> H          5.92282       -2.52145       -2.18672
|  9> H          4.65468       -1.64040       -1.44202
| 10> H          5.70914       -2.87560       -4.38702
| 11> H          3.33010       -0.31764       -4.36125
| 12> H          3.69849        0.11447       -2.70833
| 13> H          5.52133       -2.25562       -6.58673
| 14> H          5.32493       -0.59081       -6.09388
| 15> H          3.94785       -1.66624       -6.10727
| 16> *
| 17>
| 18> %MaxCore 64000
| 19>
| 20> %pal nprocs 18
| 21> end
| 22>
| 23> %scf
| 24>   MaxIter 150
| 25> end
| 26>
| 27>
| 28>                          ****END OF INPUT****

CARTESIAN COORDINATES (ANGSTROEM)
---------------------------------
  C      4.999860   -1.596130   -5.924880
  N      5.281560   -1.974130   -4.535760
  C      4.792500   -1.361320   -3.457300
  C      3.939900   -0.374920   -3.557360
  N      5.259860   -1.754220   -2.239130
  H      5.922820   -2.521450   -2.186720
  H      4.654680   -1.640400   -1.442020
  H      5.709140   -2.875600   -4.387020
  H      3.330100   -0.317640   -4.361250
  H      3.698490    0.114470   -2.708330
  H      5.521330   -2.255620   -6.586730
  H      5.324930   -0.590810   -6.093880
  H      3.947850   -1.666240   -6.107270

 Total Charge           Charge          ....    0
 Multiplicity           Mult            ....    1
 Number of Electrons    NEL             ....   40
 Basis Dimension        Dim             ....  257

ORBITAL ENERGIES
----------------

  NO   OCC          E(Eh)            E(eV)
   0   2.0000     -14.425911      -392.5490
   1   2.0000     -14.418658      -392.3516
   2   2.0000     -10.321210      -280.8544
   3   2.0000     -10.298051      -280.2242
   4   2.0000     -10.186020      -277.1757
   5   2.0000      -1.079596       -29.3773
   6   2.0000      -0.992920       -27.0187
   7   2.0000      -0.840245       -22.8642
   8   2.0000      -0.809748       -22.0344
   9   2.0000      -0.673008       -18.3135
  10   2.0000      -0.644651       -17.5418
  11   2.0000      -0.614374       -16.7180
  12   2.0000      -0.557840       -15.1796
  13   2.0000      -0.534212       -14.5366
  14   2.0000      -0.515802       -14.0357
  15   2.0000      -0.481013       -13.0890
  16   2.0000      -0.479933       -13.0596
  17   2.0000      -0.453855       -12.3500
  18   2.0000      -0.344133        -9.3643
  19   2.0000      -0.262343        -7.1387
  20   0.0000       0.065054         1.7702
  21   0.0000       0.083846         2.2816
  22   0.0000       0.095778         2.6063
  23   0.0000       0.123826         3.3695
  24   0.0000       0.131833         3.5873

MULLIKEN ATOMIC CHARGES
-----------------------
   0 C :   -0.949879
   1 N :   -0.234477
   2 C :    0.736546
   3 C :   -1.354147
   4 N :   -0.460823
   5 H :    0.188394
   6 H :    0.225919
   7 H :    0.226551
   8 H :    0.317381
   9 H :    0.353309
  10 H :    0.324341
  11 H :    0.336830
  12 H :    0.290055
Sum of atomic charges:    0.0000000

LOEWDIN ATOMIC CHARGES
----------------------
   0 C :   -0.075360
   1 N :   -0.037700
   2 C :   -0.565839
   3 C :    0.000625
   4 N :    0.098081
   5 H :    0.095544
   6 H :    0.100236
   7 H :    0.127040
   8 H :    0.012294
   9 H :    0.016191
  10 H :    0.075281
  11 H :    0.081220
  12 H :    0.072386

  Mayer bond orders larger than 0.100000
B(  0-C ,  1-N ) :   0.8739 B(  0-C ,  3-C ) :   0.1319 B(  0-C , 10-H ) :   0.8633
B(  0-C , 11-H ) :   0.9174 B(  0-C , 12-H ) :   0.9242 B(  1-N ,  2-C ) :   1.1328
B(  1-N ,  7-H ) :   0.9805 B(  2-C ,  3-C ) :   1.2324 B(  2-C ,  4-N ) :   0.9458
B(  3-C ,  8-H ) :   0.9246 B(  3-C ,  9-H ) :   0.9707 B(  4-N ,  5-H ) :   0.9974
B(  4-N ,  6-H ) :   0.9674

Dispersion correction           -0.002406540
FINAL SINGLE POINT ENERGY      -228.620495222749

DIPOLE MOMENT
-------------
                                X             Y             Z
Electronic contribution:      1.11006      -0.87789       2.10909
Nuclear contribution   :     -0.77547      -0.19690      -2.16626
                        -----------------------------------------
Total Dipole Moment    :      0.33460      -1.07479      -0.05717
                        -----------------------------------------
Magnitude (a.u.)       :      1.12712
Magnitude (Debye)      :      2.86490

Rotational constants in cm-1:     0.340409     0.131955     0.097296
Rotational constants in MHz : 10205.195281  3955.909122  2916.861706

                             ****ORCA TERMINATED NORMALLY****
TOTAL RUN TIME: 0 days 0 hours 0 minutes 18 seconds 412 msec
