                         Program Version 5.0.0 -  RELEASE  -
|  1> !wB97X-D3 RIJCOSX def2-TZVPD def2/J TightSCF
|  2> *xyz 0 1
|  3> C          4.99986       -1.59613       -5.92488
|  4> N          5.28156       -1.97413       -4.53576
|  5> C          4.79250       -1.36132       -3.45730
|  6> N          3.93990       -0.37492       -3.55736
|  7> C          5.25986       -1.75422       -2.23913
|  8> H          5.92282       -2.52145       -2.18672
|  9> H          4.65468       -1.64040       -1.44202
| 10> H          5.70914       -2.87560       -4.38702
| 11> H          3.33010       -0.31764       -4.36125
| 12> H          3.69849        0.11447       -2.70833
| 13> H          5.52133       -2.25562       -6.58673
| 14> H          5.32493       -0.59081       -6.09388
| 15> H          3.94785       -1.66624       -6.10727
| 16> *
| 17>
| 18> %MaxCore 64000
| 19>
| 20> %pal nprocs 18
| 21> end
| 22>
| 23> %scf
| 24>   MaxIter 150
| 25> end
| 26>
| 27>
| 28>                          ****END OF INPUT****

CARTESIAN COORDINATES (ANGSTROEM)
---------------------------------
  C      4.999860   -1.596130   -5.924880
  N      5.281560   -1.974130   -4.535760
  C      4.792500   -1.361320   -3.457300
  N      3.939900   -0.374920   -3.557360
  C      5.259860   -1.754220   -2.239130
  H      5.922820   -2.521450   -2.186720
  H      4.654680   -1.640400   -1.442020
  H      5.709140   -2.875600   -4.387020
  H      3.330100   -0.317640   -4.361250
  H      3.698490    0.114470   -2.708330
  H      5.521330   -2.255620   -6.586730
  H      5.324930   -0.590810   -6.093880
  H      3.947850   -1.666240   -6.107270

 Total Charge           Charge          ....    0
 Multiplicity           Mult            ....    1
 Number of Electrons    NEL             ....   40
 Basis Dimension        Dim             ....  257

ORBITAL ENERGIES
----------------

  NO   OCC          E(Eh)            E(eV)
   0   2.0000     -14.426968      -392.5778
   1   2.0000     -14.425368      -392.5342
   2   2.0000     -10.326493      -280.9982
   3   2.0000     -10.306655      -280.4584
   4   2.0000     -10.180776      -277.0330
   5   2.0000      -1.090365       -29.6703
   6   2.0000      -1.004553       -27.3353
   7   2.0000      -0.854338       -23.2477
   8   2.0000      -0.776693       -21.1349
   9   2.0000      -0.710159       -19.3244
  10   2.0000      -0.647883       -17.6298
  11   2.0000      -0.596258       -16.2250
  12   2.0000      -0.581174       -15.8146
  13   2.0000      -0.553849       -15.0710
  14   2.0000      -0.503757       -13.7079
  15   2.0000      -0.488457       -13.2916
  16   2.0000      -0.478261       -13.0141
  17   2.0000      -0.449289       -12.2258
  18   2.0000      -0.352082        -9.5806
  19   2.0000      -0.246564        -6.7094
  20   0.0000       0.060688         1.6514
  21   0.0000       0.090046         2.4503
  22   0.0000       0.095130         2.5886
  23   0.0000       0.121993         3.3196
  24   0.0000       0.127975         3.4824

MULLIKEN ATOMIC CHARGES
-----------------------
   0 C :   -0.943300
   1 N :   -0.222921
   2 C :    0.849846
   3 N :   -0.421008
   4 C :   -1.499019
   5 H :    0.313831
   6 H :    0.341406
   7 H :    0.233065
   8 H :    0.195933
   9 H :    0.210264
  10 H :    0.309213
  11 H :    0.329034
  12 H :    0.303658
Sum of atomic charges:    0.0000000

LOEWDIN ATOMIC CHARGES
----------------------
   0 C :   -0.077444
   1 N :   -0.027250
   2 C :   -0.574816
   3 N :    0.125714
   4 C :   -0.017646
   5 H :   -0.000589
   6 H :   -0.005844
   7 H :    0.136284
   8 H :    0.103646
   9 H :    0.117764
  10 H :    0.077139
  11 H :    0.076607
  12 H :    0.066435

  Mayer bond orders larger than 0.100000
B(  0-C ,  1-N ) :   0.8381 B(  0-C , 10-H ) :   0.9134 B(  0-C , 11-H ) :   0.9127
B(  0-C , 12-H ) :   0.8992 B(  1-N ,  2-C ) :   1.1804 B(  1-N ,  4-C ) :   0.1142
B(  1-N ,  7-H ) :   0.9408 B(  2-C ,  3-N ) :   1.1071 B(  2-C ,  4-C ) :   0.9912
B(  3-N ,  4-C ) :   0.1086 B(  3-N ,  8-H ) :   0.9912 B(  3-N ,  9-H ) :   0.9898
B(  4-C ,  5-H ) :   0.9820 B(  4-C ,  6-H ) :   0.9990

Dispersion correction           -0.002424049
FINAL SINGLE POINT ENERGY      -228.613429987873

DIPOLE MOMENT
-------------
                                X             Y             Z
Electronic contribution:     -0.17175       0.48615       0.75145
Nuclear contribution   :     -0.50812      -0.47627      -1.89926
                        -----------------------------------------
Total Dipole Moment    :     -0.67987       0.00988      -1.14781
                        -----------------------------------------
Magnitude (a.u.)       :      1.33408
Magnitude (Debye)      :      3.39097

Rotational constants in cm-1:     0.323645     0.137193     0.098606
Rotational constants in MHz :  9702.637007  4112.943433  2956.125886

                             ****ORCA TERMINATED NORMALLY****
TOTAL RUN TIME: 0 days 0 hours 0 minutes 19 seconds 781 msec
