                         Program Version 5.0.0 -  RELEASE  -
|  1> !wB97X-D3 RIJCOSX def2-TZVPD def2/J TightSCF xyzfile
|  2>
|  3> *xyzfile 0 1 D3.xyz
|  4>
|  5> %MaxCore 64000
|  6>
|  7> %pal nprocs 18
|  8> end
|  9>
| 10> %scf
| 11>   MaxIter 150
| 12> end
| 13>
| 14>
| 15>                          ****END OF INPUT****

CARTESIAN COORDINATES (ANGSTROEM)
---------------------------------
  C      4.999862   -1.596133   -5.924876
  N      5.281560   -1.974132   -4.535764
  C      3.766779   -2.266110   -6.511752
  C      2.496702   -1.844161   -5.735704
  H      1.626416   -2.217434   -6.308950
  H      2.481824   -2.456069   -4.793414
  F      2.459729   -0.509204   -5.505757
  C      4.792500   -1.361316   -3.457295
  N      3.939898   -0.374925   -3.557359
  C      5.259860   -1.754224   -2.239133
  H      5.922824   -2.521451   -2.186720
  H      4.654678   -1.640404   -1.442016
  H      5.709139   -2.875599   -4.387021
  H      3.330101   -0.317639   -4.361247
  H      3.698494    0.114468   -2.708333
  H      4.843333   -0.517930   -5.943019
  H      5.901695   -1.822503   -6.496467
  H      3.886191   -3.357076   -6.533604
  H      3.685602   -1.922168   -7.547128

 Total Charge           Charge          ....    0
 Multiplicity           Mult            ....    1
 Number of Electrons    NEL             ....   64
 Basis Dimension        Dim             ....  398

ORBITAL ENERGIES
----------------

  NO   OCC          E(Eh)            E(eV)
   0   2.0000     -24.821814      -675.4359
   1   2.0000     -14.421827      -392.4379
   2   2.0000     -14.396338      -391.7443
   3   2.0000     -10.377695      -282.3914
   4   2.0000     -10.317642      -280.7573
   5   2.0000     -10.317036      -280.7408
   6   2.0000     -10.297724      -280.2153
   7   2.0000     -10.171963      -276.7932
   8   2.0000      -1.377276       -37.4776
   9   2.0000      -1.082343       -29.4521
  10   2.0000      -0.997705       -27.1489
  11   2.0000      -0.916996       -24.9527
  12   2.0000      -0.843614       -22.9559
  13   2.0000      -0.784954       -21.3597
  14   2.0000      -0.730336       -19.8735
  15   2.0000      -0.703517       -19.1437
  16   2.0000      -0.682161       -18.5625
  17   2.0000      -0.648618       -17.6498
  18   2.0000      -0.619853       -16.8671
  19   2.0000      -0.606464       -16.5027
  20   2.0000      -0.574763       -15.6401
  21   2.0000      -0.570043       -15.5117
  22   2.0000      -0.537074       -14.6145
  23   2.0000      -0.524936       -14.2842
  24   2.0000      -0.487030       -13.2528
  25   2.0000      -0.476415       -12.9639
  26   2.0000      -0.467457       -12.7202
  27   2.0000      -0.451328       -12.2813
  28   2.0000      -0.439303       -11.9540
  29   2.0000      -0.437054       -11.8928
  30   2.0000      -0.341193        -9.2843
  31   2.0000      -0.238392        -6.4870
  32   0.0000       0.059191         1.6107
  33   0.0000       0.080719         2.1965
  34   0.0000       0.082406         2.2424
  35   0.0000       0.087678         2.3858
  36   0.0000       0.109867         2.9896

MULLIKEN ATOMIC CHARGES
-----------------------
   0 C :   -0.710338
   1 N :   -0.150110
   2 C :   -0.372174
   3 C :   -0.291763
   4 H :    0.282190
   5 H :    0.266839
   6 F :   -0.376539
   7 C :    0.767583
   8 N :   -0.362257
   9 C :   -1.628909
  10 H :    0.343455
  11 H :    0.351468
  12 H :    0.218000
  13 H :    0.282764
  14 H :    0.179890
  15 H :    0.358346
  16 H :    0.280028
  17 H :    0.275288
  18 H :    0.286239
Sum of atomic charges:   -0.0000000

LOEWDIN ATOMIC CHARGES
----------------------
   0 C :   -0.187514
   1 N :    0.028527
   2 C :   -0.160417
   3 C :   -0.213771
   4 H :    0.123391
   5 H :    0.136475
   6 F :   -0.028520
   7 C :   -0.568188
   8 N :    0.143371
   9 C :   -0.019106
  10 H :   -0.004078
  11 H :   -0.007226
  12 H :    0.142878
  13 H :    0.026449
  14 H :    0.122087
  15 H :    0.117955
  16 H :    0.118424
  17 H :    0.119204
  18 H :    0.110058

  Mayer bond orders larger than 0.100000
B(  0-C ,  1-N ) :   0.9635 B(  0-C ,  2-C ) :   0.8771 B(  0-C , 15-H ) :   0.8505
B(  0-C , 16-H ) :   0.9852 B(  1-N ,  7-C ) :   1.1093 B(  1-N ,  9-C ) :   0.1173
B(  1-N , 12-H ) :   0.9266 B(  2-C ,  3-C ) :   1.0092 B(  2-C , 17-H ) :   0.9514
B(  2-C , 18-H ) :   0.9407 B(  3-C ,  4-H ) :   0.9410 B(  3-C ,  5-H ) :   0.9540
B(  3-C ,  6-F ) :   0.7588 B(  7-C ,  8-N ) :   1.1414 B(  7-C ,  9-C ) :   0.9296
B(  8-N ,  9-C ) :   0.1155 B(  8-N , 13-H ) :   0.8341 B(  8-N , 14-H ) :   1.0036
B(  9-C , 10-H ) :   0.9531 B(  9-C , 11-H ) :   0.9653

Dispersion correction           -0.006195385
FINAL SINGLE POINT ENERGY      -406.488986161095

DIPOLE MOMENT
-------------
                                X             Y             Z
Electronic contribution:     -3.50994       3.86884      -1.54766
Nuclear contribution   :      2.63642      -4.47741       0.00296
                        -----------------------------------------
Total Dipole Moment    :     -0.87353      -0.60857      -1.54470
                        -----------------------------------------
Magnitude (a.u.)       :      1.87604
Magnitude (Debye)      :      4.76850

Rotational constants in cm-1:     0.108041     0.051979     0.040387
Rotational constants in MHz :  3238.993235  1558.297571  1210.782552

                             ****ORCA TERMINATED NORMALLY****
TOTAL RUN TIME: 0 days 0 hours 0 minutes 52 seconds 466 msec
