                         Program Version 5.0.0 -  RELEASE  -
|  1> !PBE0 D3BJ RIJCOSX def2-TZVPD def2/J TightSCF
|  2> *xyz -1 1
|  3> C         -2.79070       -0.78527        5.70281
|  4> C         -2.45380        0.05510        6.94145
|  5> C         -2.07842        1.48042        6.56410
|  6> H         -1.62558       -0.38216        7.49891
|  7> H         -3.32527        0.08775        7.59917
|  8> O         -0.90125        1.85816        6.82810
|  9> O         -2.93658        2.17731        5.96415
| 10> H         -1.94052       -0.82114        5.05412
| 11> H         -3.61590       -0.34261        5.18514
| 12> H         -3.05063       -1.77815        6.00536
| 13> *
| 14> %MaxCore 64000
| 15>
| 16> %pal nprocs 4
| 17> end
| 18>
| 19> %scf
| 20>   MaxIter 150
| 21> end
| 22>
| 23>
| 24>                          ****END OF INPUT****

CARTESIAN COORDINATES (ANGSTROEM)
---------------------------------
  C     -2.790700   -0.785270    5.702810
  C     -2.453800    0.055100    6.941450
  C     -2.078420    1.480420    6.564100
  H     -1.625580   -0.382160    7.498910
  H     -3.325270    0.087750    7.599170
  O     -0.901250    1.858160    6.828100
  O     -2.936580    2.177310    5.964150
  H     -1.940520   -0.821140    5.054120
  H     -3.615900   -0.342610    5.185140
  H     -3.050630   -1.778150    6.005360

 Total Charge           Charge          ....   -1
 Multiplicity           Mult            ....    1
 Number of Electrons    NEL             ....   40
 Basis Dimension        Dim             ....  236

ORBITAL ENERGIES
----------------

  NO   OCC          E(Eh)            E(eV)
   0   2.0000     -18.939841      -515.3793
   1   2.0000     -18.938606      -515.3457
   2   2.0000     -10.100136      -274.8387
   3   2.0000     -10.056853      -273.6609
   4   2.0000     -10.046439      -273.3775
   5   2.0000      -0.845421       -23.0051
   6   2.0000      -0.751115       -20.4389
   7   2.0000      -0.628703       -17.1079
   8   2.0000      -0.494534       -13.4570
   9   2.0000      -0.337480        -9.1833
  10   2.0000      -0.305982        -8.3262
  11   2.0000      -0.274811        -7.4780
  12   2.0000      -0.243613        -6.6291
  13   2.0000      -0.226948        -6.1756
  14   2.0000      -0.220908        -6.0112
  15   2.0000      -0.189197        -5.1483
  16   2.0000      -0.173131        -4.7111
  17   2.0000      -0.059143        -1.6094
  18   2.0000      -0.053251        -1.4490
  19   2.0000      -0.038775        -1.0551
  20   0.0000       0.139953         3.8083
  21   0.0000       0.165244         4.4965
  22   0.0000       0.176740         4.8093
  23   0.0000       0.187797         5.1102
  24   0.0000       0.213174         5.8008

MULLIKEN ATOMIC CHARGES
-----------------------
   0 C :   -0.776690
   1 C :    0.155177
   2 C :    0.274256
   3 H :    0.101745
   4 H :    0.104049
   5 O :   -0.704762
   6 O :   -0.711307
   7 H :    0.204612
   8 H :    0.190735
   9 H :    0.162185
Sum of atomic charges:   -1.0000000

LOEWDIN ATOMIC CHARGES
----------------------
   0 C :   -0.129747
   1 C :   -0.213521
   2 C :   -0.774327
   3 H :    0.087741
   4 H :    0.093943
   5 O :   -0.118057
   6 O :   -0.106196
   7 H :    0.062102
   8 H :    0.056039
   9 H :    0.042024

  Mayer bond orders larger than 0.100000
B(  0-C ,  1-C ) :   0.7111 B(  0-C ,  2-C ) :   0.2063 B(  0-C ,  7-H ) :   0.9848
B(  0-C ,  8-H ) :   1.0218 B(  0-C ,  9-H ) :   0.9774 B(  1-C ,  2-C ) :   0.9317
B(  1-C ,  3-H ) :   1.0135 B(  1-C ,  4-H ) :   0.9405 B(  2-C ,  5-O ) :   1.4709
B(  2-C ,  6-O ) :   1.4973

Dispersion correction           -0.005467074
FINAL SINGLE POINT ENERGY      -267.647497560150

DIPOLE MOMENT
-------------
                                X             Y             Z
Electronic contribution:      1.63635       5.56737       0.67249
Nuclear contribution   :     -2.24498      -7.51881      -0.57245
                        -----------------------------------------
Total Dipole Moment    :     -0.60863      -1.95144       0.10003
                        -----------------------------------------
Magnitude (a.u.)       :      2.04659
Magnitude (Debye)      :      5.20202

Rotational constants in cm-1:     0.305589     0.135336     0.107479
Rotational constants in MHz :  9161.317320  4057.276612  3222.126231

                             ****ORCA TERMINATED NORMALLY****
TOTAL RUN TIME: 0 days 0 hours 0 minutes 28 seconds 870 msec
