                         Program Version 5.0.0 -  RELEASE  -
|  1> !PBE0 D3BJ RIJCOSX def2-TZVPD def2/J TightSCF
|  2> *xyz 1 1
|  3> C         -0.69912        3.48945        3.75516
|  4> H         -0.96672        4.34901        3.14049
|  5> N         -1.08067        3.79296        5.15686
|  6> C          0.77696        3.13839        3.61741
|  7> H         -1.33146        2.65651        3.44632
|  8> H         -0.87449        4.76274        5.42734
|  9> H         -0.68079        3.13476        5.83900
| 10> H         -2.05755        3.53169        5.34620
| 11> H          0.99957        2.92898        2.59199
| 12> H          0.99576        2.27685        4.21303
| 13> H          1.37223        3.96279        3.95046
| 14> *
| 15> %MaxCore 64000
| 16>
| 17> %pal nprocs 4
| 18> end
| 19>
| 20> %scf
| 21>   MaxIter 150
| 22> end
| 23>
| 24>
| 25>                          ****END OF INPUT****

CARTESIAN COORDINATES (ANGSTROEM)
---------------------------------
  C     -0.699120    3.489450    3.755160
  H     -0.966720    4.349010    3.140490
  N     -1.080670    3.792960    5.156860
  C      0.776960    3.138390    3.617410
  H     -1.331460    2.656510    3.446320
  H     -0.874490    4.762740    5.427340
  H     -0.680790    3.134760    5.839000
  H     -2.057550    3.531690    5.346200
  H      0.999570    2.928980    2.591990
  H      0.995760    2.276850    4.213030
  H      1.372230    3.962790    3.950460

 Total Charge           Charge          ....    1
 Multiplicity           Mult            ....    1
 Number of Electrons    NEL             ....   26
 Basis Dimension        Dim             ....  183

ORBITAL ENERGIES
----------------

  NO   OCC          E(Eh)            E(eV)
   0   2.0000     -14.719042      -400.5255
   1   2.0000     -10.475380      -285.0496
   2   2.0000     -10.393236      -282.8143
   3   2.0000      -1.244374       -33.8611
   4   2.0000      -0.989773       -26.9331
   5   2.0000      -0.865482       -23.5510
   6   2.0000      -0.830781       -22.6067
   7   2.0000      -0.782055       -21.2808
   8   2.0000      -0.713976       -19.4283
   9   2.0000      -0.656804       -17.8726
  10   2.0000      -0.594578       -16.1793
  11   2.0000      -0.580028       -15.7834
  12   2.0000      -0.562277       -15.3003
  13   0.0000      -0.193626        -5.2688
  14   0.0000      -0.134147        -3.6503
  15   0.0000      -0.132480        -3.6050
  16   0.0000      -0.123235        -3.3534
  17   0.0000      -0.095639        -2.6025

MULLIKEN ATOMIC CHARGES
-----------------------
   0 C :   -0.202437
   1 H :    0.211283
   2 N :   -0.217824
   3 C :   -0.756204
   4 H :    0.218120
   5 H :    0.334130
   6 H :    0.326582
   7 H :    0.334033
   8 H :    0.213062
   9 H :    0.278009
  10 H :    0.261246
Sum of atomic charges:    1.0000000

LOEWDIN ATOMIC CHARGES
----------------------
   0 C :   -0.201232
   1 H :    0.137690
   2 N :    0.177146
   3 C :   -0.054757
   4 H :    0.135292
   5 H :    0.186344
   6 H :    0.179690
   7 H :    0.181159
   8 H :    0.092640
   9 H :    0.082566
  10 H :    0.083461

  Mayer bond orders larger than 0.100000
B(  0-C ,  1-H ) :   0.9613 B(  0-C ,  2-N ) :   1.0139 B(  0-C ,  3-C ) :   0.8701
B(  0-C ,  4-H ) :   0.9205 B(  2-N ,  5-H ) :   0.8677 B(  2-N ,  6-H ) :   0.8697
B(  2-N ,  7-H ) :   0.8699 B(  3-C ,  8-H ) :   0.9950 B(  3-C ,  9-H ) :   0.9290
B(  3-C , 10-H ) :   0.9682

Dispersion correction           -0.005000239
FINAL SINGLE POINT ENERGY      -135.419127883120

DIPOLE MOMENT
-------------
                                X             Y             Z
Electronic contribution:     -1.31638       0.56850       1.08596
Nuclear contribution   :      0.33986      -0.24565       0.10678
                        -----------------------------------------
Total Dipole Moment    :     -0.97653       0.32285       1.19274
                        -----------------------------------------
Magnitude (a.u.)       :      1.57495
Magnitude (Debye)      :      4.00320

Rotational constants in cm-1:     1.016237     0.277523     0.247812
Rotational constants in MHz : 30466.024354  8319.937961  7429.230177

                             ****ORCA TERMINATED NORMALLY****
TOTAL RUN TIME: 0 days 0 hours 0 minutes 20 seconds 63 msec
