                         Program Version 5.0.0 -  RELEASE  -
|  1> !PBE0 D3BJ RIJCOSX def2-TZVPD def2/J TightSCF xyzfile
|  2>
|  3> *xyzfile 0 1 B.xyz
|  4>
|  5> %MaxCore 64000
|  6>
|  7> %pal nprocs 4
|  8> end
|  9>
| 10> %scf
| 11>   MaxIter 150
| 12> end
| 13>
| 14>
| 15>                          ****END OF INPUT****

CARTESIAN COORDINATES (ANGSTROEM)
---------------------------------
  C     -0.699123    3.489451    3.755163
  H     -0.966716    4.349013    3.140491
  N     -1.080669    3.792957    5.156857
  C      0.776956    3.138391    3.617408
  H     -1.331455    2.656510    3.446323
  H      1.371398    3.888342    4.149744
  H      1.046926    3.232057    2.561331
  C      1.118917    1.731170    4.115155
  H      2.200573    1.654226    4.254882
  C      0.659466    0.635182    3.153306
  H      0.677024    1.576674    5.103150
  H      1.312288    0.638870    2.274207
  H     -0.339563    0.868049    2.772876
  C      0.639957   -0.771175    3.755619
  C     -0.341821   -0.965537    4.915046
  H      1.648266   -1.028665    4.097015
  H      0.398568   -1.482386    2.958453
  H     -0.279892   -2.005646    5.252547
  C     -1.789164   -0.639231    4.557496
  H     -0.032380   -0.352918    5.765118
  H     -2.107151   -1.270102    3.719619
  H     -1.856352    0.391636    4.197604
  C     -2.790700   -0.785275    5.702812
  H     -2.867308   -1.835651    6.001675
  H     -3.774554   -0.486577    5.334807
  C     -2.453797    0.055101    6.941445
  C     -2.078419    1.480421    6.564098
  H     -1.625584   -0.382163    7.498914
  H     -3.325274    0.087746    7.599175
  H     -0.874488    4.762737    5.427344
  H     -0.680793    3.134762    5.839000
  H     -2.057550    3.531691    5.346197
  O     -0.901252    1.858156    6.828104
  O     -2.936582    2.177309    5.964151

 Total Charge           Charge          ....    0
 Multiplicity           Mult            ....    1
 Number of Electrons    NEL             ....  104
 Basis Dimension        Dim             ....  676

ORBITAL ENERGIES
----------------

  NO   OCC          E(Eh)            E(eV)
   0   2.0000     -19.141192      -520.8583
   1   2.0000     -19.139301      -520.8069
   2   2.0000     -14.464066      -393.5873
   3   2.0000     -10.293184      -280.0918
   4   2.0000     -10.290435      -280.0170
   5   2.0000     -10.244259      -278.7605
   6   2.0000     -10.219847      -278.0962
   7   2.0000     -10.216750      -278.0119
   8   2.0000     -10.210344      -277.8376
   9   2.0000     -10.201430      -277.5950
  10   2.0000     -10.200875      -277.5799
  11   2.0000     -10.199651      -277.5466
  12   2.0000     -10.193206      -277.3712
  13   2.0000      -1.057451       -28.7747
  14   2.0000      -1.008393       -27.4398
  15   2.0000      -0.957317       -26.0499
  16   2.0000      -0.846312       -23.0293
  17   2.0000      -0.817853       -22.2549
  18   2.0000      -0.789033       -21.4707
  19   2.0000      -0.741776       -20.1848
  20   2.0000      -0.708711       -19.2850
  21   2.0000      -0.668760       -18.1979
  22   2.0000      -0.629708       -17.1352
  23   2.0000      -0.611428       -16.6378
  24   2.0000      -0.593567       -16.1518
  25   2.0000      -0.566934       -15.4271
  26   2.0000      -0.560214       -15.2442
  27   2.0000      -0.516249       -14.0478
  28   2.0000      -0.500369       -13.6157
  29   2.0000      -0.487878       -13.2758
  30   2.0000      -0.485355       -13.2072
  31   2.0000      -0.461257       -12.5514
  32   2.0000      -0.457526       -12.4499
  33   2.0000      -0.445629       -12.1262
  34   2.0000      -0.434763       -11.8305
  35   2.0000      -0.421989       -11.4829
  36   2.0000      -0.413904       -11.2629
  37   2.0000      -0.413098       -11.2410
  38   2.0000      -0.398913       -10.8550
  39   2.0000      -0.391071       -10.6416
  40   2.0000      -0.374200       -10.1825
  41   2.0000      -0.369410       -10.0522
  42   2.0000      -0.362699        -9.8695
  43   2.0000      -0.347147        -9.4463
  44   2.0000      -0.337112        -9.1733
  45   2.0000      -0.332682        -9.0527
  46   2.0000      -0.318660        -8.6712
  47   2.0000      -0.312879        -8.5139
  48   2.0000      -0.307121        -8.3572
  49   2.0000      -0.261992        -7.1292
  50   2.0000      -0.247847        -6.7443
  51   2.0000      -0.246526        -6.7083
  52   0.0000      -0.010326        -0.2810
  53   0.0000       0.015103         0.4110
  54   0.0000       0.020533         0.5587
  55   0.0000       0.025546         0.6951
  56   0.0000       0.036965         1.0059

MULLIKEN ATOMIC CHARGES
-----------------------
   0 C :   -0.287624
   1 H :    0.139224
   2 N :   -0.041225
   3 C :   -0.194144
   4 H :    0.154409
   5 H :    0.119409
   6 H :    0.130937
   7 C :   -0.051483
   8 H :    0.163266
   9 C :   -0.361645
  10 H :    0.127253
  11 H :    0.144478
  12 H :    0.212187
  13 C :   -0.339414
  14 C :   -0.278215
  15 H :    0.124614
  16 H :    0.174585
  17 H :    0.093265
  18 C :    0.090600
  19 H :    0.200233
  20 H :    0.135682
  21 H :   -0.204182
  22 C :   -0.407501
  23 H :    0.068479
  24 H :    0.212711
  25 C :   -0.206327
  26 C :    0.647257
  27 H :    0.187266
  28 H :    0.145818
  29 H :    0.313709
  30 H :    0.159538
  31 H :    0.287523
  32 O :   -0.823282
  33 O :   -0.837401
Sum of atomic charges:   -0.0000000

LOEWDIN ATOMIC CHARGES
----------------------
   0 C :   -0.162661
   1 H :    0.123422
   2 N :    0.145678
   3 C :   -0.187205
   4 H :    0.117717
   5 H :    0.114351
   6 H :    0.116826
   7 C :   -0.199076
   8 H :    0.119474
   9 C :   -0.216936
  10 H :    0.092423
  11 H :    0.113932
  12 H :    0.096893
  13 C :   -0.207664
  14 C :   -0.208275
  15 H :    0.111462
  16 H :    0.109749
  17 H :    0.117741
  18 C :   -0.210325
  19 H :    0.097927
  20 H :    0.118899
  21 H :    0.092181
  22 C :   -0.198380
  23 H :    0.109695
  24 H :    0.110608
  25 C :   -0.122159
  26 C :   -0.651966
  27 H :    0.109994
  28 H :    0.117375
  29 H :    0.168474
  30 H :    0.069190
  31 H :    0.097033
  32 O :   -0.063927
  33 O :   -0.042469

  Mayer bond orders larger than 0.100000
B(  0-C ,  1-H ) :   0.8914 B(  0-C ,  2-N ) :   1.0079 B(  0-C ,  3-C ) :   1.0604
B(  0-C ,  4-H ) :   1.0053 B(  2-N , 29-H ) :   0.8451 B(  2-N , 30-H ) :   0.8518
B(  2-N , 31-H ) :   0.7934 B(  3-C ,  5-H ) :   0.8998 B(  3-C ,  6-H ) :   0.9057
B(  3-C ,  7-C ) :   1.0492 B(  3-C ,  9-C ) :   0.2754 B(  7-C ,  8-H ) :   0.8304
B(  7-C ,  9-C ) :   0.5845 B(  7-C , 10-H ) :   1.1434 B(  7-C , 13-C ) :   0.3094
B(  7-C , 14-C ) :   0.1237 B(  8-H , 10-H ) :   0.1154 B(  9-C , 11-H ) :   0.9494
B(  9-C , 12-H ) :   0.9775 B(  9-C , 13-C ) :   1.1680 B(  9-C , 18-C ) :   0.1722
B( 13-C , 14-C ) :   0.9942 B( 13-C , 15-H ) :   0.9459 B( 13-C , 16-H ) :   0.9156
B( 13-C , 18-C ) :   0.2119 B( 14-C , 17-H ) :   0.9267 B( 14-C , 18-C ) :   0.7372
B( 14-C , 19-H ) :   0.9911 B( 14-C , 21-H ) :  -0.1067 B( 14-C , 22-C ) :   0.2387
B( 14-C , 25-C ) :   0.1498 B( 18-C , 20-H ) :   0.7603 B( 18-C , 21-H ) :   1.2609
B( 18-C , 22-C ) :   0.9836 B( 18-C , 26-C ) :   0.1301 B( 20-H , 21-H ) :   0.2053
B( 21-H , 22-C ) :   0.2951 B( 22-C , 23-H ) :   0.9319 B( 22-C , 24-H ) :   0.8721
B( 22-C , 25-C ) :   0.9217 B( 22-C , 26-C ) :   0.1861 B( 25-C , 26-C ) :   1.0686
B( 25-C , 27-H ) :   0.9498 B( 25-C , 28-H ) :   0.8883 B( 26-C , 32-O ) :   1.2732
B( 26-C , 33-O ) :   1.1867 B( 30-H , 32-O ) :   0.1971 B( 31-H , 33-O ) :   0.1561
B( 32-O , 33-O ) :   0.1427

Dispersion correction           -0.033467819
FINAL SINGLE POINT ENERGY      -598.493490319454

DIPOLE MOMENT
-------------
                                X             Y             Z
Electronic contribution:     -4.66434       4.82677       6.70635
Nuclear contribution   :      5.60885      -3.40606      -8.06960
                        -----------------------------------------
Total Dipole Moment    :      0.94451       1.42071      -1.36325
                        -----------------------------------------
Magnitude (a.u.)       :      2.18379
Magnitude (Debye)      :      5.55076

Rotational constants in cm-1:     0.028465     0.023505     0.015110
Rotational constants in MHz :   853.363165   704.655786   452.976312

                             ****ORCA TERMINATED NORMALLY****
TOTAL RUN TIME: 0 days 0 hours 6 minutes 16 seconds 958 msec
