                         Program Version 5.0.0 -  RELEASE  -
|  1> !PBE0 D3BJ RIJCOSX def2-TZVPD def2/J TightSCF
|  2> *xyz 0 1
|  3> C         -2.79070       -0.78527        5.70281
|  4> C         -2.45380        0.05510        6.94145
|  5> C         -2.07842        1.48042        6.56410
|  6> H         -1.62558       -0.38216        7.49891
|  7> H         -3.32527        0.08775        7.59917
|  8> F         -0.90125        1.85816        6.82810
|  9> O         -2.93658        2.17731        5.96415
| 10> H         -1.94052       -0.82114        5.05412
| 11> H         -3.61590       -0.34261        5.18514
| 12> H         -3.05063       -1.77815        6.00536
| 13> *
| 14> %MaxCore 64000
| 15>
| 16> %pal nprocs 4
| 17> end
| 18>
| 19> %scf
| 20>   MaxIter 150
| 21> end
| 22>
| 23>
| 24>                          ****END OF INPUT****

CARTESIAN COORDINATES (ANGSTROEM)
---------------------------------
  C     -2.790700   -0.785270    5.702810
  C     -2.453800    0.055100    6.941450
  C     -2.078420    1.480420    6.564100
  H     -1.625580   -0.382160    7.498910
  H     -3.325270    0.087750    7.599170
  F     -0.901250    1.858160    6.828100
  O     -2.936580    2.177310    5.964150
  H     -1.940520   -0.821140    5.054120
  H     -3.615900   -0.342610    5.185140
  H     -3.050630   -1.778150    6.005360

 Total Charge           Charge          ....    0
 Multiplicity           Mult            ....    1
 Number of Electrons    NEL             ....   40
 Basis Dimension        Dim             ....  236

ORBITAL ENERGIES
----------------

  NO   OCC          E(Eh)            E(eV)
   0   2.0000     -24.839745      -675.9238
   1   2.0000     -19.212598      -522.8014
   2   2.0000     -10.399138      -282.9749
   3   2.0000     -10.254817      -279.0477
   4   2.0000     -10.226571      -278.2791
   5   2.0000      -1.346817       -36.6488
   6   2.0000      -1.061635       -28.8886
   7   2.0000      -0.826839       -22.4994
   8   2.0000      -0.711880       -19.3712
   9   2.0000      -0.657718       -17.8974
  10   2.0000      -0.563526       -15.3343
  11   2.0000      -0.550127       -14.9697
  12   2.0000      -0.527268       -14.3477
  13   2.0000      -0.480601       -13.0778
  14   2.0000      -0.450480       -12.2582
  15   2.0000      -0.414842       -11.2884
  16   2.0000      -0.394098       -10.7240
  17   2.0000      -0.388350       -10.5675
  18   2.0000      -0.360781        -9.8174
  19   2.0000      -0.308328        -8.3900
  20   0.0000      -0.028601        -0.7783
  21   0.0000       0.009409         0.2560
  22   0.0000       0.035124         0.9558
  23   0.0000       0.044979         1.2239
  24   0.0000       0.054561         1.4847

MULLIKEN ATOMIC CHARGES
-----------------------
   0 C :   -0.804917
   1 C :    0.122906
   2 C :    0.384047
   3 H :    0.148127
   4 H :    0.138704
   5 F :   -0.169943
   6 O :   -0.466343
   7 H :    0.241843
   8 H :    0.227788
   9 H :    0.177788
Sum of atomic charges:   -0.0000000

LOEWDIN ATOMIC CHARGES
----------------------
   0 C :   -0.085673
   1 C :   -0.157076
   2 C :   -0.482555
   3 H :    0.108807
   4 H :    0.122450
   5 F :    0.196574
   6 O :    0.078936
   7 H :    0.075219
   8 H :    0.073853
   9 H :    0.069464

  Mayer bond orders larger than 0.100000
B(  0-C ,  1-C ) :   0.7761 B(  0-C ,  2-C ) :   0.2002 B(  0-C ,  7-H ) :   0.9455
B(  0-C ,  8-H ) :   1.0040 B(  0-C ,  9-H ) :   0.9867 B(  1-C ,  2-C ) :   0.9149
B(  1-C ,  3-H ) :   0.9763 B(  1-C ,  4-H ) :   0.9297 B(  2-C ,  5-F ) :   1.0544
B(  2-C ,  6-O ) :   1.8122

Dispersion correction           -0.005178714
FINAL SINGLE POINT ENERGY      -292.204070729802

DIPOLE MOMENT
-------------
                                X             Y             Z
Electronic contribution:      3.96498       7.41745       1.48690
Nuclear contribution   :     -3.69486      -8.49563      -1.04945
                        -----------------------------------------
Total Dipole Moment    :      0.27012      -1.07818       0.43744
                        -----------------------------------------
Magnitude (a.u.)       :      1.19448
Magnitude (Debye)      :      3.03613

Rotational constants in cm-1:     0.293725     0.129218     0.102393
Rotational constants in MHz :  8805.653529  3873.869810  3069.666716

                             ****ORCA TERMINATED NORMALLY****
TOTAL RUN TIME: 0 days 0 hours 0 minutes 29 seconds 922 msec
