                         Program Version 5.0.0 -  RELEASE  -
|  1> !PBE0 D3BJ RIJCOSX def2-TZVPD def2/J TightSCF
|  2> *xyz 0 1
|  3> C         -0.69912        3.48945        3.75516
|  4> H         -0.96672        4.34901        3.14049
|  5> C         -1.08067        3.79296        5.15686
|  6> C          0.77696        3.13839        3.61741
|  7> H         -1.33146        2.65651        3.44632
|  8> H         -0.87449        4.76274        5.42734
|  9> H         -0.68079        3.13476        5.83900
| 10> H         -2.05755        3.53169        5.34620
| 11> H          0.99957        2.92898        2.59199
| 12> H          0.99576        2.27685        4.21303
| 13> H          1.37223        3.96279        3.95046
| 14> *
| 15> %MaxCore 64000
| 16>
| 17> %pal nprocs 4
| 18> end
| 19>
| 20> %scf
| 21>   MaxIter 150
| 22> end
| 23>
| 24>
| 25>                          ****END OF INPUT****

CARTESIAN COORDINATES (ANGSTROEM)
---------------------------------
  C     -0.699120    3.489450    3.755160
  H     -0.966720    4.349010    3.140490
  C     -1.080670    3.792960    5.156860
  C      0.776960    3.138390    3.617410
  H     -1.331460    2.656510    3.446320
  H     -0.874490    4.762740    5.427340
  H     -0.680790    3.134760    5.839000
  H     -2.057550    3.531690    5.346200
  H      0.999570    2.928980    2.591990
  H      0.995760    2.276850    4.213030
  H      1.372230    3.962790    3.950460

 Total Charge           Charge          ....    0
 Multiplicity           Mult            ....    1
 Number of Electrons    NEL             ....   26
 Basis Dimension        Dim             ....  183

ORBITAL ENERGIES
----------------

  NO   OCC          E(Eh)            E(eV)
   0   2.0000     -10.207050      -277.7480
   1   2.0000     -10.196040      -277.4484
   2   2.0000     -10.177272      -276.9376
   3   2.0000      -0.814259       -22.1571
   4   2.0000      -0.712433       -19.3863
   5   2.0000      -0.605996       -16.4900
   6   2.0000      -0.485430       -13.2092
   7   2.0000      -0.452130       -12.3031
   8   2.0000      -0.412167       -11.2156
   9   2.0000      -0.407929       -11.1003
  10   2.0000      -0.350909        -9.5487
  11   2.0000      -0.339019        -9.2252
  12   2.0000      -0.335508        -9.1296
  13   0.0000       0.020058         0.5458
  14   0.0000       0.044310         1.2057
  15   0.0000       0.047432         1.2907
  16   0.0000       0.066708         1.8152
  17   0.0000       0.090233         2.4554

MULLIKEN ATOMIC CHARGES
-----------------------
   0 C :    0.208763
   1 H :    0.126017
   2 C :   -0.991712
   3 C :   -0.782254
   4 H :    0.126336
   5 H :    0.231857
   6 H :    0.244178
   7 H :    0.233289
   8 H :    0.179875
   9 H :    0.212716
  10 H :    0.210935
Sum of atomic charges:   -0.0000000

LOEWDIN ATOMIC CHARGES
----------------------
   0 C :   -0.316156
   1 H :    0.104518
   2 C :   -0.134157
   3 C :   -0.116304
   4 H :    0.103381
   5 H :    0.058160
   6 H :    0.054281
   7 H :    0.051975
   8 H :    0.060470
   9 H :    0.066395
  10 H :    0.067437

  Mayer bond orders larger than 0.100000
B(  0-C ,  1-H ) :   0.9730 B(  0-C ,  2-C ) :   0.7907 B(  0-C ,  3-C ) :   0.7674
B(  0-C ,  4-H ) :   0.9783 B(  2-C ,  3-C ) :   0.1974 B(  2-C ,  5-H ) :   0.9733
B(  2-C ,  6-H ) :   0.9999 B(  2-C ,  7-H ) :   0.9912 B(  3-C ,  8-H ) :   1.0192
B(  3-C ,  9-H ) :   0.9899 B(  3-C , 10-H ) :   0.9937

Dispersion correction           -0.005019913
FINAL SINGLE POINT ENERGY      -119.015829922666

DIPOLE MOMENT
-------------
                                X             Y             Z
Electronic contribution:     -0.14320       0.12070      -0.39623
Nuclear contribution   :      0.10024      -0.14218       0.41628
                        -----------------------------------------
Total Dipole Moment    :     -0.04296      -0.02148       0.02006
                        -----------------------------------------
Magnitude (a.u.)       :      0.05205
Magnitude (Debye)      :      0.13230

Rotational constants in cm-1:     1.024179     0.291605     0.259489
Rotational constants in MHz : 30704.103454  8742.106283  7779.285909

                             ****ORCA TERMINATED NORMALLY****
TOTAL RUN TIME: 0 days 0 hours 0 minutes 18 seconds 449 msec
