                         Program Version 5.0.0 -  RELEASE  -
|  1> !PBE0 D3BJ RIJCOSX def2-TZVPD def2/J TightSCF
|  2> *xyz 0 1
|  3> C         -2.79070       -0.78527        5.70281
|  4> C         -2.45380        0.05510        6.94145
|  5> C         -2.07842        1.48042        6.56410
|  6> H         -1.62558       -0.38216        7.49891
|  7> H         -3.32527        0.08775        7.59917
|  8> O         -0.90125        1.85816        6.82810
|  9> F         -2.93658        2.17731        5.96415
| 10> H         -1.94052       -0.82114        5.05412
| 11> H         -3.61590       -0.34261        5.18514
| 12> H         -3.05063       -1.77815        6.00536
| 13> *
| 14> %MaxCore 64000
| 15>
| 16> %pal nprocs 4
| 17> end
| 18>
| 19> %scf
| 20>   MaxIter 150
| 21> end
| 22>
| 23>
| 24>                          ****END OF INPUT****

CARTESIAN COORDINATES (ANGSTROEM)
---------------------------------
  C     -2.790700   -0.785270    5.702810
  C     -2.453800    0.055100    6.941450
  C     -2.078420    1.480420    6.564100
  H     -1.625580   -0.382160    7.498910
  H     -3.325270    0.087750    7.599170
  O     -0.901250    1.858160    6.828100
  F     -2.936580    2.177310    5.964150
  H     -1.940520   -0.821140    5.054120
  H     -3.615900   -0.342610    5.185140
  H     -3.050630   -1.778150    6.005360

 Total Charge           Charge          ....    0
 Multiplicity           Mult            ....    1
 Number of Electrons    NEL             ....   40
 Basis Dimension        Dim             ....  236

ORBITAL ENERGIES
----------------

  NO   OCC          E(Eh)            E(eV)
   0   2.0000     -24.842815      -676.0074
   1   2.0000     -19.210930      -522.7560
   2   2.0000     -10.398963      -282.9702
   3   2.0000     -10.254453      -279.0378
   4   2.0000     -10.230564      -278.3878
   5   2.0000      -1.352026       -36.7905
   6   2.0000      -1.056794       -28.7568
   7   2.0000      -0.829960       -22.5844
   8   2.0000      -0.709735       -19.3129
   9   2.0000      -0.664476       -18.0813
  10   2.0000      -0.567852       -15.4520
  11   2.0000      -0.556684       -15.1482
  12   2.0000      -0.520920       -14.1750
  13   2.0000      -0.481314       -13.0972
  14   2.0000      -0.451451       -12.2846
  15   2.0000      -0.417279       -11.3547
  16   2.0000      -0.397555       -10.8180
  17   2.0000      -0.390873       -10.6362
  18   2.0000      -0.362523        -9.8647
  19   2.0000      -0.302206        -8.2235
  20   0.0000      -0.026054        -0.7090
  21   0.0000       0.007818         0.2127
  22   0.0000       0.034879         0.9491
  23   0.0000       0.044137         1.2010
  24   0.0000       0.054863         1.4929

MULLIKEN ATOMIC CHARGES
-----------------------
   0 C :   -0.824499
   1 C :    0.154258
   2 C :    0.376695
   3 H :    0.119826
   4 H :    0.161338
   5 O :   -0.461728
   6 F :   -0.182728
   7 H :    0.246351
   8 H :    0.234605
   9 H :    0.175884
Sum of atomic charges:   -0.0000000

LOEWDIN ATOMIC CHARGES
----------------------
   0 C :   -0.088427
   1 C :   -0.154459
   2 C :   -0.487710
   3 H :    0.118076
   4 H :    0.118364
   5 O :    0.070716
   6 F :    0.206621
   7 H :    0.076893
   8 H :    0.070071
   9 H :    0.069855

  Mayer bond orders larger than 0.100000
B(  0-C ,  1-C ) :   0.7276 B(  0-C ,  2-C ) :   0.1949 B(  0-C ,  7-H ) :   0.9764
B(  0-C ,  8-H ) :   0.9736 B(  0-C ,  9-H ) :   0.9951 B(  1-C ,  2-C ) :   0.9290
B(  1-C ,  3-H ) :   0.9995 B(  1-C ,  4-H ) :   0.9234 B(  2-C ,  5-O ) :   1.7845
B(  2-C ,  6-F ) :   1.0535

Dispersion correction           -0.005153064
FINAL SINGLE POINT ENERGY      -292.201774755328

DIPOLE MOMENT
-------------
                                X             Y             Z
Electronic contribution:      0.57511       7.92573       0.05263
Nuclear contribution   :     -1.47571      -8.84360      -0.10748
                        -----------------------------------------
Total Dipole Moment    :     -0.90060      -0.91788      -0.05485
                        -----------------------------------------
Magnitude (a.u.)       :      1.28709
Magnitude (Debye)      :      3.27151

Rotational constants in cm-1:     0.283081     0.133379     0.103386
Rotational constants in MHz :  8486.545774  3998.599544  3099.448040

                             ****ORCA TERMINATED NORMALLY****
TOTAL RUN TIME: 0 days 0 hours 0 minutes 30 seconds 409 msec
