                         Program Version 5.0.0 -  RELEASE  -
|  1> !PBE0 D3BJ RIJCOSX def2-TZVPD def2/J TightSCF xyzfile
|  2>
|  3> *xyzfile 0 1 D1.xyz
|  4>
|  5> %MaxCore 64000
|  6>
|  7> %pal nprocs 4
|  8> end
|  9>
| 10> %scf
| 11>   MaxIter 150
| 12> end
| 13>
| 14>
| 15>                          ****END OF INPUT****

CARTESIAN COORDINATES (ANGSTROEM)
---------------------------------
  C     -0.699123    3.489451    3.755163
  H     -0.966716    4.349013    3.140491
  C     -1.080669    3.792957    5.156857
  C      0.776956    3.138391    3.617408
  H     -1.331455    2.656510    3.446323
  H      1.371398    3.888342    4.149744
  H      1.046926    3.232057    2.561331
  C      1.118917    1.731170    4.115155
  H      2.200573    1.654226    4.254882
  C      0.659466    0.635182    3.153306
  H      0.677024    1.576674    5.103150
  H      1.312288    0.638870    2.274207
  H     -0.339563    0.868049    2.772876
  C      0.639957   -0.771175    3.755619
  C     -0.341821   -0.965537    4.915046
  H      1.648266   -1.028665    4.097015
  H      0.398568   -1.482386    2.958453
  H     -0.279892   -2.005646    5.252547
  C     -1.789164   -0.639231    4.557496
  H     -0.032380   -0.352918    5.765118
  H     -2.107151   -1.270102    3.719619
  H     -1.856352    0.391636    4.197604
  C     -2.790700   -0.785275    5.702812
  H     -2.867308   -1.835651    6.001675
  H     -3.774554   -0.486577    5.334807
  C     -2.453797    0.055101    6.941445
  C     -2.078419    1.480421    6.564098
  H     -1.625584   -0.382163    7.498914
  H     -3.325274    0.087746    7.599175
  H     -0.874488    4.762737    5.427344
  H     -0.680793    3.134762    5.839000
  H     -2.057550    3.531691    5.346197
  F     -0.901252    1.858156    6.828104
  O     -2.936582    2.177309    5.964151

 Total Charge           Charge          ....    0
 Multiplicity           Mult            ....    1
 Number of Electrons    NEL             ....  104
 Basis Dimension        Dim             ....  676

ORBITAL ENERGIES
----------------

  NO   OCC          E(Eh)            E(eV)
   0   2.0000     -24.849825      -676.1981
   1   2.0000     -19.218970      -522.9748
   2   2.0000     -10.409623      -283.2602
   3   2.0000     -10.256309      -279.0884
   4   2.0000     -10.239296      -278.6254
   5   2.0000     -10.224177      -278.2140
   6   2.0000     -10.221237      -278.1340
   7   2.0000     -10.216009      -277.9917
   8   2.0000     -10.208794      -277.7954
   9   2.0000     -10.206006      -277.7195
  10   2.0000     -10.198783      -277.5230
  11   2.0000     -10.188749      -277.2500
  12   2.0000     -10.132926      -275.7309
  13   2.0000      -1.363585       -37.1050
  14   2.0000      -1.075627       -29.2693
  15   2.0000      -0.856135       -23.2966
  16   2.0000      -0.831634       -22.6299
  17   2.0000      -0.801244       -21.8030
  18   2.0000      -0.772302       -21.0154
  19   2.0000      -0.730257       -19.8713
  20   2.0000      -0.706249       -19.2180
  21   2.0000      -0.678440       -18.4613
  22   2.0000      -0.645103       -17.5541
  23   2.0000      -0.626516       -17.0484
  24   2.0000      -0.584459       -15.9039
  25   2.0000      -0.578856       -15.7515
  26   2.0000      -0.572092       -15.5674
  27   2.0000      -0.554722       -15.0947
  28   2.0000      -0.536706       -14.6045
  29   2.0000      -0.494343       -13.4518
  30   2.0000      -0.490697       -13.3526
  31   2.0000      -0.473861       -12.8944
  32   2.0000      -0.470810       -12.8114
  33   2.0000      -0.450362       -12.2550
  34   2.0000      -0.442378       -12.0377
  35   2.0000      -0.427676       -11.6377
  36   2.0000      -0.420687       -11.4475
  37   2.0000      -0.412429       -11.2228
  38   2.0000      -0.401780       -10.9330
  39   2.0000      -0.392599       -10.6832
  40   2.0000      -0.379957       -10.3391
  41   2.0000      -0.372624       -10.1396
  42   2.0000      -0.363828        -9.9003
  43   2.0000      -0.356379        -9.6976
  44   2.0000      -0.349849        -9.5199
  45   2.0000      -0.339908        -9.2494
  46   2.0000      -0.334438        -9.1005
  47   2.0000      -0.323485        -8.8025
  48   2.0000      -0.319725        -8.7002
  49   2.0000      -0.309098        -8.4110
  50   2.0000      -0.306011        -8.3270
  51   2.0000      -0.278058        -7.5664
  52   0.0000      -0.039229        -1.0675
  53   0.0000       0.007754         0.2110
  54   0.0000       0.020054         0.5457
  55   0.0000       0.023119         0.6291
  56   0.0000       0.029477         0.8021

MULLIKEN ATOMIC CHARGES
-----------------------
   0 C :    0.225133
   1 H :    0.088482
   2 C :   -1.703138
   3 C :   -0.176245
   4 H :    0.089802
   5 H :    0.131101
   6 H :    0.057445
   7 C :   -0.042678
   8 H :    0.157798
   9 C :   -0.332609
  10 H :    0.007800
  11 H :    0.161861
  12 H :    0.176308
  13 C :   -0.351427
  14 C :   -0.234856
  15 H :    0.127583
  16 H :    0.169179
  17 H :    0.091791
  18 C :    0.014282
  19 H :    0.173898
  20 H :    0.151591
  21 H :   -0.140460
  22 C :   -0.345570
  23 H :    0.082729
  24 H :    0.230107
  25 C :   -0.256757
  26 C :    0.550644
  27 H :    0.225961
  28 H :    0.131583
  29 H :    0.270419
  30 H :    0.489128
  31 H :    0.545061
  32 F :   -0.230950
  33 O :   -0.534996
Sum of atomic charges:    0.0000000

LOEWDIN ATOMIC CHARGES
----------------------
   0 C :   -0.239701
   1 H :    0.110618
   2 C :   -0.121787
   3 C :   -0.209447
   4 H :    0.097675
   5 H :    0.113352
   6 H :    0.107517
   7 C :   -0.203287
   8 H :    0.115338
   9 C :   -0.216697
  10 H :    0.089604
  11 H :    0.115375
  12 H :    0.098070
  13 C :   -0.208294
  14 C :   -0.210910
  15 H :    0.111835
  16 H :    0.110485
  17 H :    0.118116
  18 C :   -0.205793
  19 H :    0.094516
  20 H :    0.124849
  21 H :    0.097909
  22 C :   -0.187641
  23 H :    0.116734
  24 H :    0.116872
  25 C :   -0.096944
  26 C :   -0.442338
  27 H :    0.115210
  28 H :    0.128544
  29 H :    0.070140
  30 H :    0.023356
  31 H :    0.022211
  32 F :    0.164647
  33 O :    0.079869

  Mayer bond orders larger than 0.100000
B(  0-C ,  1-H ) :   0.8668 B(  0-C ,  2-C ) :   0.4155 B(  0-C ,  3-C ) :   0.9192
B(  0-C ,  4-H ) :   1.0964 B(  0-C ,  9-C ) :   0.1124 B(  2-C ,  3-C ) :   0.2592
B(  2-C , 29-H ) :   0.7667 B(  2-C , 30-H ) :   1.0696 B(  2-C , 31-H ) :   0.9325
B(  3-C ,  5-H ) :   0.9122 B(  3-C ,  6-H ) :   0.9407 B(  3-C ,  7-C ) :   1.1162
B(  3-C ,  9-C ) :   0.2963 B(  7-C ,  8-H ) :   0.8287 B(  7-C ,  9-C ) :   0.6370
B(  7-C , 10-H ) :   1.1878 B(  7-C , 13-C ) :   0.2888 B(  7-C , 14-C ) :   0.1348
B(  9-C , 11-H ) :   0.9187 B(  9-C , 12-H ) :   1.0114 B(  9-C , 13-C ) :   1.1191
B(  9-C , 18-C ) :   0.1504 B( 13-C , 14-C ) :   1.0430 B( 13-C , 15-H ) :   0.9574
B( 13-C , 16-H ) :   0.9132 B( 13-C , 18-C ) :   0.2195 B( 14-C , 17-H ) :   0.9433
B( 14-C , 18-C ) :   0.6929 B( 14-C , 19-H ) :   0.9870 B( 14-C , 21-H ) :  -0.1192
B( 14-C , 22-C ) :   0.1999 B( 14-C , 25-C ) :   0.1515 B( 18-C , 20-H ) :   0.7360
B( 18-C , 21-H ) :   1.3009 B( 18-C , 22-C ) :   0.9917 B( 18-C , 26-C ) :   0.1263
B( 20-H , 21-H ) :   0.1945 B( 21-H , 22-C ) :   0.2640 B( 22-C , 23-H ) :   0.9373
B( 22-C , 24-H ) :   0.8747 B( 22-C , 25-C ) :   0.9269 B( 22-C , 26-C ) :   0.1984
B( 25-C , 26-C ) :   1.0470 B( 25-C , 27-H ) :   0.9239 B( 25-C , 28-H ) :   0.9035
B( 26-C , 32-F ) :   0.9569 B( 26-C , 33-O ) :   1.6894 B( 29-H , 30-H ) :   0.1355
B( 29-H , 31-H ) :   0.1130 B( 30-H , 32-F ) :  -0.1800 B( 31-H , 33-O ) :  -0.1617
B( 32-F , 33-O ) :   0.1143

Dispersion correction           -0.032801419
FINAL SINGLE POINT ENERGY      -606.390687300307

DIPOLE MOMENT
-------------
                                X             Y             Z
Electronic contribution:     -5.47555       2.48512      10.83874
Nuclear contribution   :      5.54676      -3.70047     -10.28793
                        -----------------------------------------
Total Dipole Moment    :      0.07121      -1.21535       0.55081
                        -----------------------------------------
Magnitude (a.u.)       :      1.33624
Magnitude (Debye)      :      3.39644

Rotational constants in cm-1:     0.028503     0.023389     0.015214
Rotational constants in MHz :   854.502405   701.197575   456.108322

                             ****ORCA TERMINATED NORMALLY****
TOTAL RUN TIME: 0 days 0 hours 6 minutes 18 seconds 211 msec
