                         Program Version 5.0.0 -  RELEASE  -
|  1> !PBE0 D3BJ RIJCOSX def2-TZVPD def2/J TightSCF xyzfile
|  2>
|  3> *xyzfile 0 1 D2.xyz
|  4>
|  5> %MaxCore 64000
|  6>
|  7> %pal nprocs 4
|  8> end
|  9>
| 10> %scf
| 11>   MaxIter 150
| 12> end
| 13>
| 14>
| 15>                          ****END OF INPUT****

CARTESIAN COORDINATES (ANGSTROEM)
---------------------------------
  C     -0.699123    3.489451    3.755163
  H     -0.966716    4.349013    3.140491
  C     -1.080669    3.792957    5.156857
  C      0.776956    3.138391    3.617408
  H     -1.331455    2.656510    3.446323
  H      1.371398    3.888342    4.149744
  H      1.046926    3.232057    2.561331
  C      1.118917    1.731170    4.115155
  H      2.200573    1.654226    4.254882
  C      0.659466    0.635182    3.153306
  H      0.677024    1.576674    5.103150
  H      1.312288    0.638870    2.274207
  H     -0.339563    0.868049    2.772876
  C      0.639957   -0.771175    3.755619
  C     -0.341821   -0.965537    4.915046
  H      1.648266   -1.028665    4.097015
  H      0.398568   -1.482386    2.958453
  H     -0.279892   -2.005646    5.252547
  C     -1.789164   -0.639231    4.557496
  H     -0.032380   -0.352918    5.765118
  H     -2.107151   -1.270102    3.719619
  H     -1.856352    0.391636    4.197604
  C     -2.790700   -0.785275    5.702812
  H     -2.867308   -1.835651    6.001675
  H     -3.774554   -0.486577    5.334807
  C     -2.453797    0.055101    6.941445
  C     -2.078419    1.480421    6.564098
  H     -1.625584   -0.382163    7.498914
  H     -3.325274    0.087746    7.599175
  H     -0.874488    4.762737    5.427344
  H     -0.680793    3.134762    5.839000
  H     -2.057550    3.531691    5.346197
  O     -0.901252    1.858156    6.828104
  F     -2.936582    2.177309    5.964151

 Total Charge           Charge          ....    0
 Multiplicity           Mult            ....    1
 Number of Electrons    NEL             ....  104
 Basis Dimension        Dim             ....  676

ORBITAL ENERGIES
----------------

  NO   OCC          E(Eh)            E(eV)
   0   2.0000     -24.852950      -676.2831
   1   2.0000     -19.219348      -522.9850
   2   2.0000     -10.411374      -283.3079
   3   2.0000     -10.256754      -279.1005
   4   2.0000     -10.242543      -278.7138
   5   2.0000     -10.226408      -278.2747
   6   2.0000     -10.215797      -277.9860
   7   2.0000     -10.212007      -277.8828
   8   2.0000     -10.204716      -277.6844
   9   2.0000     -10.197849      -277.4976
  10   2.0000     -10.195429      -277.4317
  11   2.0000     -10.188585      -277.2455
  12   2.0000     -10.131722      -275.6982
  13   2.0000      -1.366884       -37.1948
  14   2.0000      -1.075446       -29.2644
  15   2.0000      -0.857456       -23.3326
  16   2.0000      -0.828709       -22.5503
  17   2.0000      -0.799467       -21.7546
  18   2.0000      -0.770736       -20.9728
  19   2.0000      -0.726938       -19.7810
  20   2.0000      -0.703807       -19.1516
  21   2.0000      -0.680485       -18.5169
  22   2.0000      -0.641488       -17.4558
  23   2.0000      -0.627207       -17.0672
  24   2.0000      -0.582044       -15.8382
  25   2.0000      -0.580066       -15.7844
  26   2.0000      -0.574956       -15.6454
  27   2.0000      -0.554144       -15.0790
  28   2.0000      -0.532536       -14.4910
  29   2.0000      -0.496903       -13.5214
  30   2.0000      -0.491924       -13.3859
  31   2.0000      -0.472437       -12.8557
  32   2.0000      -0.466327       -12.6894
  33   2.0000      -0.445404       -12.1201
  34   2.0000      -0.436325       -11.8730
  35   2.0000      -0.431083       -11.7304
  36   2.0000      -0.420865       -11.4523
  37   2.0000      -0.414419       -11.2769
  38   2.0000      -0.400616       -10.9013
  39   2.0000      -0.388410       -10.5692
  40   2.0000      -0.384066       -10.4510
  41   2.0000      -0.378708       -10.3052
  42   2.0000      -0.362860        -9.8739
  43   2.0000      -0.355601        -9.6764
  44   2.0000      -0.348144        -9.4735
  45   2.0000      -0.337570        -9.1858
  46   2.0000      -0.331783        -9.0283
  47   2.0000      -0.322146        -8.7660
  48   2.0000      -0.315645        -8.5891
  49   2.0000      -0.305880        -8.3234
  50   2.0000      -0.303442        -8.2571
  51   2.0000      -0.269134        -7.3235
  52   0.0000      -0.038535        -1.0486
  53   0.0000       0.005270         0.1434
  54   0.0000       0.021123         0.5748
  55   0.0000       0.023016         0.6263
  56   0.0000       0.029704         0.8083

MULLIKEN ATOMIC CHARGES
-----------------------
   0 C :    0.188780
   1 H :    0.080035
   2 C :   -1.642282
   3 C :   -0.211297
   4 H :    0.100120
   5 H :    0.133954
   6 H :    0.057413
   7 C :   -0.083108
   8 H :    0.142906
   9 C :   -0.327833
  10 H :    0.087575
  11 H :    0.157506
  12 H :    0.165962
  13 C :   -0.330001
  14 C :   -0.286119
  15 H :    0.124718
  16 H :    0.163622
  17 H :    0.090734
  18 C :    0.134145
  19 H :    0.213656
  20 H :    0.154078
  21 H :   -0.196310
  22 C :   -0.419515
  23 H :    0.085440
  24 H :    0.238302
  25 C :   -0.217663
  26 C :    0.529541
  27 H :    0.197328
  28 H :    0.166946
  29 H :    0.257615
  30 H :    0.588878
  31 H :    0.405614
  32 O :   -0.525799
  33 F :   -0.224939
Sum of atomic charges:    0.0000000

LOEWDIN ATOMIC CHARGES
----------------------
   0 C :   -0.243083
   1 H :    0.108124
   2 C :   -0.121767
   3 C :   -0.206941
   4 H :    0.094845
   5 H :    0.114331
   6 H :    0.106737
   7 C :   -0.200117
   8 H :    0.115535
   9 C :   -0.217456
  10 H :    0.090808
  11 H :    0.114424
  12 H :    0.096366
  13 C :   -0.208054
  14 C :   -0.208292
  15 H :    0.112235
  16 H :    0.109231
  17 H :    0.117925
  18 C :   -0.206425
  19 H :    0.097261
  20 H :    0.124139
  21 H :    0.097070
  22 C :   -0.192553
  23 H :    0.116988
  24 H :    0.113207
  25 C :   -0.092331
  26 C :   -0.439708
  27 H :    0.123878
  28 H :    0.125151
  29 H :    0.070518
  30 H :    0.002641
  31 H :    0.037287
  32 O :    0.053468
  33 F :    0.194555

  Mayer bond orders larger than 0.100000
B(  0-C ,  1-H ) :   0.8881 B(  0-C ,  2-C ) :   0.3956 B(  0-C ,  3-C ) :   0.9565
B(  0-C ,  4-H ) :   1.0847 B(  0-C ,  9-C ) :   0.1141 B(  2-C ,  3-C ) :   0.3062
B(  2-C , 29-H ) :   0.7730 B(  2-C , 30-H ) :   1.0716 B(  2-C , 31-H ) :   1.0096
B(  2-C , 32-O ) :   0.1353 B(  3-C ,  5-H ) :   0.9007 B(  3-C ,  6-H ) :   0.9458
B(  3-C ,  7-C ) :   1.1425 B(  3-C ,  9-C ) :   0.2997 B(  7-C ,  8-H ) :   0.8212
B(  7-C ,  9-C ) :   0.5993 B(  7-C , 10-H ) :   1.1944 B(  7-C , 13-C ) :   0.2876
B(  7-C , 14-C ) :   0.1415 B(  9-C , 11-H ) :   0.9260 B(  9-C , 12-H ) :   1.0150
B(  9-C , 13-C ) :   1.1190 B(  9-C , 18-C ) :   0.1549 B( 13-C , 14-C ) :   1.0244
B( 13-C , 15-H ) :   0.9502 B( 13-C , 16-H ) :   0.9179 B( 13-C , 18-C ) :   0.2178
B( 14-C , 17-H ) :   0.9413 B( 14-C , 18-C ) :   0.7077 B( 14-C , 19-H ) :   0.9773
B( 14-C , 22-C ) :   0.2195 B( 14-C , 25-C ) :   0.1711 B( 18-C , 20-H ) :   0.7670
B( 18-C , 21-H ) :   1.2387 B( 18-C , 22-C ) :   0.9165 B( 18-C , 26-C ) :   0.1090
B( 20-H , 21-H ) :   0.1710 B( 21-H , 22-C ) :   0.2740 B( 22-C , 23-H ) :   0.9249
B( 22-C , 24-H ) :   0.9044 B( 22-C , 25-C ) :   0.8858 B( 22-C , 26-C ) :   0.1909
B( 25-C , 26-C ) :   1.0716 B( 25-C , 27-H ) :   0.9404 B( 25-C , 28-H ) :   0.9023
B( 26-C , 32-O ) :   1.7455 B( 26-C , 33-F ) :   0.8791 B( 29-H , 30-H ) :   0.1341
B( 29-H , 31-H ) :   0.1089 B( 30-H , 32-O ) :  -0.2369 B( 32-O , 33-F ) :   0.1228

Dispersion correction           -0.032887319
FINAL SINGLE POINT ENERGY      -606.389274352221

DIPOLE MOMENT
-------------
                                X             Y             Z
Electronic contribution:     -8.94606       3.01366       9.46273
Nuclear contribution   :      8.07181      -4.09641      -9.21610
                        -----------------------------------------
Total Dipole Moment    :     -0.87425      -1.08276       0.24663
                        -----------------------------------------
Magnitude (a.u.)       :      1.41333
Magnitude (Debye)      :      3.59240

Rotational constants in cm-1:     0.028400     0.023377     0.015073
Rotational constants in MHz :   851.414727   700.831775   451.871218

                             ****ORCA TERMINATED NORMALLY****
TOTAL RUN TIME: 0 days 0 hours 6 minutes 42 seconds 138 msec
