                         Program Version 5.0.0 -  RELEASE  -
|  1> !PBE D3BJ RIJCOSX def2-SVPD def2/J TightSCF
|  2> *xyz -1 1
|  3> C         -1.36646        2.47911       -4.31393
|  4> C         -2.35773        2.30686       -3.13675
|  5> O         -3.44376        2.84652       -3.25274
|  6> O         -1.97092        1.58304       -2.15123
|  7> H         -1.80853        3.10058       -5.06443
|  8> H         -1.13980        1.52081       -4.73248
|  9> H         -0.46612        2.93495       -3.95827
| 10> *
| 11> %MaxCore 64000
| 12>
| 13> %pal nprocs 4
| 14> end
| 15>
| 16> %scf
| 17>   MaxIter 150
| 18> end
| 19>
| 20>
| 21>                          ****END OF INPUT****

CARTESIAN COORDINATES (ANGSTROEM)
---------------------------------
  C     -1.366460    2.479110   -4.313930
  C     -2.357730    2.306860   -3.136750
  O     -3.443760    2.846520   -3.252740
  O     -1.970920    1.583040   -2.151230
  H     -1.808530    3.100580   -5.064430
  H     -1.139800    1.520810   -4.732480
  H     -0.466120    2.934950   -3.958270

 Total Charge           Charge          ....   -1
 Multiplicity           Mult            ....    1
 Number of Electrons    NEL             ....   32
 Basis Dimension        Dim             ....  110

ORBITAL ENERGIES
----------------

  NO   OCC          E(Eh)            E(eV)
   0   2.0000     -18.507590      -503.6171
   1   2.0000     -18.497375      -503.3392
   2   2.0000      -9.771501      -265.8961
   3   2.0000      -9.705583      -264.1023
   4   2.0000      -0.729128       -19.8406
   5   2.0000      -0.632585       -17.2135
   6   2.0000      -0.464397       -12.6369
   7   2.0000      -0.243173        -6.6171
   8   2.0000      -0.209823        -5.7096
   9   2.0000      -0.194518        -5.2931
  10   2.0000      -0.172566        -4.6958
  11   2.0000      -0.135650        -3.6912
  12   2.0000      -0.125867        -3.4250
  13   2.0000      -0.011121        -0.3026
  14   2.0000       0.002671         0.0727
  15   2.0000       0.020278         0.5518
  16   0.0000       0.156849         4.2681
  17   0.0000       0.199430         5.4268
  18   0.0000       0.201001         5.4695
  19   0.0000       0.224619         6.1122
  20   0.0000       0.242710         6.6045

MULLIKEN ATOMIC CHARGES
-----------------------
   0 C :    0.457925
   1 C :   -0.066766
   2 O :   -0.524365
   3 O :   -0.669189
   4 H :   -0.077531
   5 H :   -0.060237
   6 H :   -0.059836
Sum of atomic charges:   -1.0000000

LOEWDIN ATOMIC CHARGES
----------------------
   0 C :    0.142735
   1 C :   -0.356987
   2 O :   -0.296234
   3 O :   -0.347343
   4 H :   -0.051892
   5 H :   -0.044565
   6 H :   -0.045713

  Mayer bond orders larger than 0.100000
B(  0-C ,  1-C ) :   1.2788 B(  0-C ,  4-H ) :   0.8858 B(  0-C ,  5-H ) :   0.8349
B(  0-C ,  6-H ) :   0.8307 B(  1-C ,  2-O ) :   1.5428 B(  1-C ,  3-O ) :   1.4440
B(  1-C ,  4-H ) :   0.2442 B(  1-C ,  5-H ) :   0.1673 B(  1-C ,  6-H ) :   0.1716

Dispersion correction           -0.003673999
FINAL SINGLE POINT ENERGY      -228.121903346840

DIPOLE MOMENT
-------------
                                X             Y             Z
Electronic contribution:     -2.49511      -0.34939       2.78063
Nuclear contribution   :      3.20990       0.60513      -3.84153
                        -----------------------------------------
Total Dipole Moment    :      0.71480       0.25574      -1.06089
                        -----------------------------------------
Magnitude (a.u.)       :      1.30454
Magnitude (Debye)      :      3.31588

Rotational constants in cm-1:     0.394521     0.330294     0.185888
Rotational constants in MHz : 11827.441786  9901.964904  5572.768963

                             ****ORCA TERMINATED NORMALLY****
TOTAL RUN TIME: 0 days 0 hours 0 minutes 3 seconds 609 msec
