                         Program Version 5.0.0 -  RELEASE  -
|  1> !PBE D3BJ RIJCOSX def2-SVPD def2/J TightSCF
|  2> *xyz 1 1
|  3> C          0.64866        1.00359       -3.64560
|  4> N          0.28128        0.67645       -2.24018
|  5> H          0.39079       -0.31925       -2.02649
|  6> H         -0.69269        0.99010       -2.13812
|  7> H          0.85421        1.21221       -1.57528
|  8> H          0.03905        0.43387       -4.31545
|  9> H          1.67860        0.76457       -3.80989
| 10> H          0.49232        2.04741       -3.82138
| 11> *
| 12> %MaxCore 64000
| 13>
| 14> %pal nprocs 4
| 15> end
| 16>
| 17> %scf
| 18>   MaxIter 150
| 19> end
| 20>
| 21>
| 22>                          ****END OF INPUT****

CARTESIAN COORDINATES (ANGSTROEM)
---------------------------------
  C      0.648660    1.003590   -3.645600
  N      0.281280    0.676450   -2.240180
  H      0.390790   -0.319250   -2.026490
  H     -0.692690    0.990100   -2.138120
  H      0.854210    1.212210   -1.575280
  H      0.039050    0.433870   -4.315450
  H      1.678600    0.764570   -3.809890
  H      0.492320    2.047410   -3.821380

 Total Charge           Charge          ....    1
 Multiplicity           Mult            ....    1
 Number of Electrons    NEL             ....   18
 Basis Dimension        Dim             ....   88

ORBITAL ENERGIES
----------------

  NO   OCC          E(Eh)            E(eV)
   0   2.0000     -14.349028      -390.4569
   1   2.0000     -10.153714      -276.2966
   2   2.0000      -1.141170       -31.0528
   3   2.0000      -0.869235       -23.6531
   4   2.0000      -0.766600       -20.8603
   5   2.0000      -0.757408       -20.6101
   6   2.0000      -0.668956       -18.2032
   7   2.0000      -0.583177       -15.8691
   8   2.0000      -0.581005       -15.8099
   9   0.0000      -0.228244        -6.2108
  10   0.0000      -0.164165        -4.4672
  11   0.0000      -0.160706        -4.3730
  12   0.0000      -0.150769        -4.1026
  13   0.0000      -0.109360        -2.9758

MULLIKEN ATOMIC CHARGES
-----------------------
   0 C :    0.964688
   1 N :   -0.769573
   2 H :    0.338192
   3 H :    0.380064
   4 H :    0.352579
   5 H :   -0.084188
   6 H :   -0.103996
   7 H :   -0.077767
Sum of atomic charges:    1.0000000

LOEWDIN ATOMIC CHARGES
----------------------
   0 C :    0.278140
   1 N :    0.322139
   2 H :    0.107561
   3 H :    0.106192
   4 H :    0.108392
   5 H :    0.026424
   6 H :    0.024291
   7 H :    0.026862

  Mayer bond orders larger than 0.100000
B(  0-C ,  1-N ) :   0.8629 B(  0-C ,  5-H ) :   0.8827 B(  0-C ,  6-H ) :   0.9034
B(  0-C ,  7-H ) :   0.8752 B(  1-N ,  2-H ) :   0.7909 B(  1-N ,  3-H ) :   0.7422
B(  1-N ,  4-H ) :   0.7783 B(  1-N ,  5-H ) :   0.1008 B(  1-N ,  7-H ) :   0.1036

Dispersion correction           -0.003371432
FINAL SINGLE POINT ENERGY       -96.017326439453

DIPOLE MOMENT
-------------
                                X             Y             Z
Electronic contribution:     -0.26008      -0.27565       1.05140
Nuclear contribution   :      0.04246       0.12404      -0.26487
                        -----------------------------------------
Total Dipole Moment    :     -0.21763      -0.15161       0.78653
                        -----------------------------------------
Magnitude (a.u.)       :      0.83005
Magnitude (Debye)      :      2.10981

Rotational constants in cm-1:     2.856727     0.687609     0.685111
Rotational constants in MHz : 85642.512409 20614.005719 20539.101620

                             ****ORCA TERMINATED NORMALLY****
TOTAL RUN TIME: 0 days 0 hours 0 minutes 2 seconds 680 msec
