                         Program Version 5.0.0 -  RELEASE  -
|  1> !PBE D3BJ RIJCOSX def2-SVPD def2/J TightSCF
|  2> *xyz 0 1
|  3> C         -1.36646        2.47911       -4.31393
|  4> C         -2.35773        2.30686       -3.13675
|  5> F         -3.44376        2.84652       -3.25274
|  6> O         -1.97092        1.58304       -2.15123
|  7> H         -1.80853        3.10058       -5.06443
|  8> H         -1.13980        1.52081       -4.73248
|  9> H         -0.46612        2.93495       -3.95827
| 10> *
| 11> %MaxCore 64000
| 12>
| 13> %pal nprocs 4
| 14> end
| 15>
| 16> %scf
| 17>   MaxIter 150
| 18> end
| 19>
| 20>
| 21>                          ****END OF INPUT****

CARTESIAN COORDINATES (ANGSTROEM)
---------------------------------
  C     -1.366460    2.479110   -4.313930
  C     -2.357730    2.306860   -3.136750
  F     -3.443760    2.846520   -3.252740
  O     -1.970920    1.583040   -2.151230
  H     -1.808530    3.100580   -5.064430
  H     -1.139800    1.520810   -4.732480
  H     -0.466120    2.934950   -3.958270

 Total Charge           Charge          ....    0
 Multiplicity           Mult            ....    1
 Number of Electrons    NEL             ....   32
 Basis Dimension        Dim             ....  110

ORBITAL ENERGIES
----------------

  NO   OCC          E(Eh)            E(eV)
   0   2.0000     -24.360973      -662.8958
   1   2.0000     -18.770776      -510.7788
   2   2.0000     -10.075772      -274.1757
   3   2.0000      -9.922218      -269.9973
   4   2.0000      -1.235819       -33.6284
   5   2.0000      -0.925069       -25.1724
   6   2.0000      -0.695169       -18.9165
   7   2.0000      -0.610510       -16.6128
   8   2.0000      -0.510308       -13.8862
   9   2.0000      -0.499326       -13.5874
  10   2.0000      -0.446511       -12.1502
  11   2.0000      -0.398892       -10.8544
  12   2.0000      -0.386106       -10.5065
  13   2.0000      -0.348684        -9.4882
  14   2.0000      -0.309145        -8.4123
  15   2.0000      -0.243722        -6.6320
  16   0.0000      -0.073930        -2.0117
  17   0.0000      -0.005555        -0.1512
  18   0.0000       0.042765         1.1637
  19   0.0000       0.067130         1.8267
  20   0.0000       0.071255         1.9390

MULLIKEN ATOMIC CHARGES
-----------------------
   0 C :    0.417652
   1 C :    0.336698
   2 F :   -0.250366
   3 O :   -0.481271
   4 H :   -0.043483
   5 H :    0.011655
   6 H :    0.009115
Sum of atomic charges:    0.0000000

LOEWDIN ATOMIC CHARGES
----------------------
   0 C :    0.215568
   1 C :   -0.065131
   2 F :    0.006821
   3 O :   -0.138983
   4 H :   -0.018756
   5 H :    0.000552
   6 H :   -0.000071

  Mayer bond orders larger than 0.100000
B(  0-C ,  1-C ) :   1.2772 B(  0-C ,  4-H ) :   0.8842 B(  0-C ,  5-H ) :   0.8122
B(  0-C ,  6-H ) :   0.8081 B(  1-C ,  2-F ) :   0.8927 B(  1-C ,  3-O ) :   1.7700
B(  1-C ,  4-H ) :   0.1582 B(  1-C ,  5-H ) :   0.1399 B(  1-C ,  6-H ) :   0.1458

Dispersion correction           -0.003394305
FINAL SINGLE POINT ENERGY      -252.629997506827

DIPOLE MOMENT
-------------
                                X             Y             Z
Electronic contribution:     -4.32408       0.49847       2.73976
Nuclear contribution   :      4.40923       0.04336      -3.80230
                        -----------------------------------------
Total Dipole Moment    :      0.08515       0.54182      -1.06254
                        -----------------------------------------
Magnitude (a.u.)       :      1.19575
Magnitude (Debye)      :      3.03935

Rotational constants in cm-1:     0.364425     0.322930     0.176742
Rotational constants in MHz : 10925.196996  9681.206479  5298.597717

                             ****ORCA TERMINATED NORMALLY****
TOTAL RUN TIME: 0 days 0 hours 0 minutes 3 seconds 614 msec
