                         Program Version 5.0.0 -  RELEASE  -
|  1> !PBE D3BJ RIJCOSX def2-SVPD def2/J TightSCF
|  2> *xyz 0 1
|  3> C          0.64866        1.00359       -3.64560
|  4> C          0.28128        0.67645       -2.24018
|  5> H          0.39079       -0.31925       -2.02649
|  6> H         -0.69269        0.99010       -2.13812
|  7> H          0.85421        1.21221       -1.57528
|  8> H          0.03905        0.43387       -4.31545
|  9> H          1.67860        0.76457       -3.80989
| 10> H          0.49232        2.04741       -3.82138
| 11> *
| 12> %MaxCore 64000
| 13>
| 14> %pal nprocs 4
| 15> end
| 16>
| 17> %scf
| 18>   MaxIter 150
| 19> end
| 20>
| 21>
| 22>                          ****END OF INPUT****

CARTESIAN COORDINATES (ANGSTROEM)
---------------------------------
  C      0.648660    1.003590   -3.645600
  C      0.281280    0.676450   -2.240180
  H      0.390790   -0.319250   -2.026490
  H     -0.692690    0.990100   -2.138120
  H      0.854210    1.212210   -1.575280
  H      0.039050    0.433870   -4.315450
  H      1.678600    0.764570   -3.809890
  H      0.492320    2.047410   -3.821380

 Total Charge           Charge          ....    0
 Multiplicity           Mult            ....    1
 Number of Electrons    NEL             ....   18
 Basis Dimension        Dim             ....   88

ORBITAL ENERGIES
----------------

  NO   OCC          E(Eh)            E(eV)
   0   2.0000      -9.873472      -268.6708
   1   2.0000      -9.860898      -268.3287
   2   2.0000      -0.692728       -18.8501
   3   2.0000      -0.552084       -15.0230
   4   2.0000      -0.404256       -11.0004
   5   2.0000      -0.398587       -10.8461
   6   2.0000      -0.325497        -8.8572
   7   2.0000      -0.304190        -8.2774
   8   2.0000      -0.299345        -8.1456
   9   0.0000       0.011671         0.3176
  10   0.0000       0.045842         1.2474
  11   0.0000       0.082376         2.2416
  12   0.0000       0.083676         2.2769
  13   0.0000       0.102228         2.7818

MULLIKEN ATOMIC CHARGES
-----------------------
   0 C :    0.222166
   1 C :    0.587629
   2 H :   -0.222373
   3 H :   -0.157677
   4 H :   -0.185305
   5 H :   -0.079908
   6 H :   -0.091682
   7 H :   -0.072849
Sum of atomic charges:    0.0000000

LOEWDIN ATOMIC CHARGES
----------------------
   0 C :    0.072158
   1 C :    0.081123
   2 H :   -0.034293
   3 H :   -0.033862
   4 H :   -0.033748
   5 H :   -0.016487
   6 H :   -0.019361
   7 H :   -0.015531

  Mayer bond orders larger than 0.100000
B(  0-C ,  1-C ) :   1.5059 B(  0-C ,  2-H ) :   0.1762 B(  0-C ,  3-H ) :   0.2146
B(  0-C ,  4-H ) :   0.1773 B(  0-C ,  5-H ) :   0.8527 B(  0-C ,  6-H ) :   0.8823
B(  0-C ,  7-H ) :   0.8448 B(  1-C ,  2-H ) :   0.7842 B(  1-C ,  3-H ) :   0.7685
B(  1-C ,  4-H ) :   0.7720 B(  1-C ,  5-H ) :   0.1633 B(  1-C ,  6-H ) :   0.1525
B(  1-C ,  7-H ) :   0.1689

Dispersion correction           -0.003362860
FINAL SINGLE POINT ENERGY       -79.631947825274

DIPOLE MOMENT
-------------
                                X             Y             Z
Electronic contribution:      0.01296      -0.06293       0.04395
Nuclear contribution   :     -0.02064       0.06655      -0.02194
                        -----------------------------------------
Total Dipole Moment    :     -0.00768       0.00362       0.02202
                        -----------------------------------------
Magnitude (a.u.)       :      0.02360
Magnitude (Debye)      :      0.05998

Rotational constants in cm-1:     2.856742     0.718110     0.715385
Rotational constants in MHz : 85642.970161 21528.388214 21446.695095

                             ****ORCA TERMINATED NORMALLY****
TOTAL RUN TIME: 0 days 0 hours 0 minutes 2 seconds 678 msec
