                         Program Version 5.0.0 -  RELEASE  -
|  1> !PBE D3BJ RIJCOSX def2-SVPD def2/J TightSCF
|  2> *xyz 0 1
|  3> C         -1.36646        2.47911       -4.31393
|  4> C         -2.35773        2.30686       -3.13675
|  5> O         -3.44376        2.84652       -3.25274
|  6> F         -1.97092        1.58304       -2.15123
|  7> H         -1.80853        3.10058       -5.06443
|  8> H         -1.13980        1.52081       -4.73248
|  9> H         -0.46612        2.93495       -3.95827
| 10> *
| 11> %MaxCore 64000
| 12>
| 13> %pal nprocs 4
| 14> end
| 15>
| 16> %scf
| 17>   MaxIter 150
| 18> end
| 19>
| 20>
| 21>                          ****END OF INPUT****

CARTESIAN COORDINATES (ANGSTROEM)
---------------------------------
  C     -1.366460    2.479110   -4.313930
  C     -2.357730    2.306860   -3.136750
  O     -3.443760    2.846520   -3.252740
  F     -1.970920    1.583040   -2.151230
  H     -1.808530    3.100580   -5.064430
  H     -1.139800    1.520810   -4.732480
  H     -0.466120    2.934950   -3.958270

 Total Charge           Charge          ....    0
 Multiplicity           Mult            ....    1
 Number of Electrons    NEL             ....   32
 Basis Dimension        Dim             ....  110

ORBITAL ENERGIES
----------------

  NO   OCC          E(Eh)            E(eV)
   0   2.0000     -24.338728      -662.2905
   1   2.0000     -18.779481      -511.0157
   2   2.0000     -10.070332      -274.0277
   3   2.0000      -9.921804      -269.9860
   4   2.0000      -1.188512       -32.3411
   5   2.0000      -0.963693       -26.2234
   6   2.0000      -0.692068       -18.8321
   7   2.0000      -0.587213       -15.9789
   8   2.0000      -0.484613       -13.1870
   9   2.0000      -0.479880       -13.0582
  10   2.0000      -0.445452       -12.1214
  11   2.0000      -0.396166       -10.7802
  12   2.0000      -0.388254       -10.5649
  13   2.0000      -0.355853        -9.6833
  14   2.0000      -0.332088        -9.0366
  15   2.0000      -0.254511        -6.9256
  16   0.0000      -0.065562        -1.7840
  17   0.0000      -0.005135        -0.1397
  18   0.0000       0.043814         1.1922
  19   0.0000       0.067192         1.8284
  20   0.0000       0.073462         1.9990

MULLIKEN ATOMIC CHARGES
-----------------------
   0 C :    0.434271
   1 C :    0.341370
   2 O :   -0.376905
   3 F :   -0.350830
   4 H :   -0.060984
   5 H :    0.007536
   6 H :    0.005542
Sum of atomic charges:   -0.0000000

LOEWDIN ATOMIC CHARGES
----------------------
   0 C :    0.216755
   1 C :   -0.062432
   2 O :   -0.100164
   3 F :   -0.035766
   4 H :   -0.004971
   5 H :   -0.006064
   6 H :   -0.007358

  Mayer bond orders larger than 0.100000
B(  0-C ,  1-C ) :   1.2494 B(  0-C ,  4-H ) :   0.8909 B(  0-C ,  5-H ) :   0.8129
B(  0-C ,  6-H ) :   0.8107 B(  1-C ,  2-O ) :   1.8711 B(  1-C ,  3-F ) :   0.7607
B(  1-C ,  4-H ) :   0.2061 B(  1-C ,  5-H ) :   0.1300 B(  1-C ,  6-H ) :   0.1330

Dispersion correction           -0.003396747
FINAL SINGLE POINT ENERGY      -252.646835416822

DIPOLE MOMENT
-------------
                                X             Y             Z
Electronic contribution:     -1.94159      -1.53781       4.50847
Nuclear contribution   :      2.88734       1.34891      -4.94049
                        -----------------------------------------
Total Dipole Moment    :      0.94575      -0.18890      -0.43202
                        -----------------------------------------
Magnitude (a.u.)       :      1.05677
Magnitude (Debye)      :      2.68611

Rotational constants in cm-1:     0.375207     0.313199     0.176202
Rotational constants in MHz : 11248.433436  9389.476975  5282.390844

                             ****ORCA TERMINATED NORMALLY****
TOTAL RUN TIME: 0 days 0 hours 0 minutes 3 seconds 721 msec
