                         Program Version 5.0.0 -  RELEASE  -
|  1> !PBE D3BJ RIJCOSX def2-SVPD def2/J TightSCF xyzfile
|  2>
|  3> *xyzfile 0 1 D1.xyz
|  4>
|  5> %MaxCore 64000
|  6>
|  7> %pal nprocs 4
|  8> end
|  9>
| 10> %scf
| 11>   MaxIter 150
| 12> end
| 13>
| 14>
| 15>                          ****END OF INPUT****

CARTESIAN COORDINATES (ANGSTROEM)
---------------------------------
  C      0.648656    1.003595   -3.645601
  C      0.281280    0.676454   -2.240179
  C      0.132968    2.385869   -4.024618
  C     -1.366462    2.479106   -4.313932
  C     -2.357732    2.306858   -3.136753
  H     -1.636802    1.727095   -5.063993
  H     -1.582347    3.445605   -4.768687
  H      0.390790   -0.319253   -2.026495
  H     -0.692686    0.990104   -2.138123
  H      0.854206    1.212214   -1.575279
  F     -3.443763    2.846518   -3.252744
  O     -1.970922    1.583042   -2.151229
  H      0.190993    0.239655   -4.275752
  H      1.731572    0.931729   -3.750751
  H      0.414839    3.102847   -3.245165
  H      0.683167    2.687560   -4.919721

 Total Charge           Charge          ....    0
 Multiplicity           Mult            ....    1
 Number of Electrons    NEL             ....   56
 Basis Dimension        Dim             ....  218

ORBITAL ENERGIES
----------------

  NO   OCC          E(Eh)            E(eV)
   0   2.0000     -24.370471      -663.1542
   1   2.0000     -18.777594      -510.9643
   2   2.0000     -10.085402      -274.4377
   3   2.0000      -9.934547      -270.3328
   4   2.0000      -9.905085      -269.5311
   5   2.0000      -9.878000      -268.7940
   6   2.0000      -9.808583      -266.9051
   7   2.0000      -1.243908       -33.8485
   8   2.0000      -0.946225       -25.7481
   9   2.0000      -0.737847       -20.0778
  10   2.0000      -0.682343       -18.5675
  11   2.0000      -0.622909       -16.9502
  12   2.0000      -0.591848       -16.1050
  13   2.0000      -0.523603       -14.2480
  14   2.0000      -0.513768       -13.9803
  15   2.0000      -0.497451       -13.5363
  16   2.0000      -0.469933       -12.7875
  17   2.0000      -0.431547       -11.7430
  18   2.0000      -0.401751       -10.9322
  19   2.0000      -0.390081       -10.6146
  20   2.0000      -0.363352        -9.8873
  21   2.0000      -0.341002        -9.2791
  22   2.0000      -0.334413        -9.0998
  23   2.0000      -0.318085        -8.6555
  24   2.0000      -0.299580        -8.1520
  25   2.0000      -0.279854        -7.6152
  26   2.0000      -0.271618        -7.3911
  27   2.0000      -0.204975        -5.5777
  28   0.0000      -0.085077        -2.3151
  29   0.0000      -0.006041        -0.1644
  30   0.0000       0.018561         0.5051
  31   0.0000       0.030638         0.8337
  32   0.0000       0.036408         0.9907

MULLIKEN ATOMIC CHARGES
-----------------------
   0 C :   -0.264497
   1 C :    2.143944
   2 C :    0.098169
   3 C :   -0.034768
   4 C :    0.661901
   5 H :    0.190147
   6 H :    0.029377
   7 H :   -0.119322
   8 H :   -1.567848
   9 H :   -0.022356
  10 F :   -0.312739
  11 O :   -0.450741
  12 H :    0.006075
  13 H :   -0.221966
  14 H :   -0.020680
  15 H :   -0.114697
Sum of atomic charges:    0.0000000

LOEWDIN ATOMIC CHARGES
----------------------
   0 C :   -0.059271
   1 C :    0.129923
   2 C :   -0.025452
   3 C :    0.059653
   4 C :    0.036531
   5 H :    0.045954
   6 H :    0.023745
   7 H :   -0.029214
   8 H :   -0.201165
   9 H :   -0.022558
  10 F :    0.024950
  11 O :   -0.084382
  12 H :    0.024637
  13 H :    0.018030
  14 H :    0.036861
  15 H :    0.021759

  Mayer bond orders larger than 0.100000
B(  0-C ,  1-C ) :   0.9558 B(  0-C ,  2-C ) :   1.1936 B(  0-C ,  7-H ) :   0.2333
B(  0-C ,  8-H ) :   0.6307 B(  0-C ,  9-H ) :   0.2728 B(  0-C , 12-H ) :   0.8218
B(  0-C , 13-H ) :   0.9257 B(  0-C , 14-H ) :   0.1221 B(  0-C , 15-H ) :   0.1090
B(  1-C ,  7-H ) :   0.4744 B(  1-C ,  8-H ) :  -1.6107 B(  1-C ,  9-H ) :   0.2942
B(  1-C , 11-O ) :  -0.1373 B(  1-C , 12-H ) :   0.1201 B(  2-C ,  3-C ) :   1.2688
B(  2-C ,  5-H ) :   0.1365 B(  2-C ,  6-H ) :   0.1518 B(  2-C , 12-H ) :   0.1108
B(  2-C , 13-H ) :   0.1304 B(  2-C , 14-H ) :   0.8479 B(  2-C , 15-H ) :   0.8621
B(  3-C ,  4-C ) :   1.1273 B(  3-C ,  5-H ) :   0.7512 B(  3-C ,  6-H ) :   0.8489
B(  3-C , 10-F ) :   0.1118 B(  3-C , 14-H ) :   0.1245 B(  3-C , 15-H ) :   0.1105
B(  4-C ,  6-H ) :   0.1145 B(  4-C , 10-F ) :   0.7963 B(  4-C , 11-O ) :   1.6720
B(  7-H ,  8-H ) :   0.2369 B(  7-H ,  9-H ) :  -0.1220 B(  8-H ,  9-H ) :   0.4797
B(  8-H , 11-O ) :   0.2768 B(  8-H , 13-H ) :   0.1140 B( 12-H , 13-H ) :  -0.1041

Dispersion correction           -0.013365937
FINAL SINGLE POINT ENERGY      -370.272387626649

DIPOLE MOMENT
-------------
                                X             Y             Z
Electronic contribution:    -13.01321       4.56820       1.45299
Nuclear contribution   :     12.79331      -3.91961      -2.45895
                        -----------------------------------------
Total Dipole Moment    :     -0.21990       0.64858      -1.00595
                        -----------------------------------------
Magnitude (a.u.)       :      1.21695
Magnitude (Debye)      :      3.09323

Rotational constants in cm-1:     0.162888     0.059977     0.046450
Rotational constants in MHz :  4883.250030  1798.063289  1392.548669

                             ****ORCA TERMINATED NORMALLY****
TOTAL RUN TIME: 0 days 0 hours 0 minutes 12 seconds 945 msec
