                         Program Version 5.0.0 -  RELEASE  -
|  1> !PBE0 D3BJ RIJCOSX def2-SVPD def2/J TightSCF
|  2> *xyz -1 1
|  3> C          4.26524        2.50052       -0.79589
|  4> C          4.98224        1.65026        0.24742
|  5> O          4.36806        1.38927        1.31371
|  6> O          6.12892        1.23351       -0.04562
|  7> H          4.90412        2.63966       -1.64287
|  8> H          4.02079        3.45265       -0.37328
|  9> H          3.36773        2.00584       -1.10356
| 10> *
| 11> %MaxCore 64000
| 12> %pal nprocs 8
| 13> end
| 14> %scf
| 15>   MaxIter 150
| 16> end
| 17>
| 18>
| 19>                          ****END OF INPUT****

CARTESIAN COORDINATES (ANGSTROEM)
---------------------------------
  C      4.265240    2.500520   -0.795890
  C      4.982240    1.650260    0.247420
  O      4.368060    1.389270    1.313710
  O      6.128920    1.233510   -0.045620
  H      4.904120    2.639660   -1.642870
  H      4.020790    3.452650   -0.373280
  H      3.367730    2.005840   -1.103560

 Total Charge           Charge          ....   -1
 Multiplicity           Mult            ....    1
 Number of Electrons    NEL             ....   32
 Basis Dimension        Dim             ....  110

ORBITAL ENERGIES
----------------

  NO   OCC          E(Eh)            E(eV)
   0   2.0000     -18.950325      -515.6646
   1   2.0000     -18.949217      -515.6344
   2   2.0000     -10.114394      -275.2267
   3   2.0000     -10.043820      -273.3062
   4   2.0000      -0.835904       -22.7461
   5   2.0000      -0.740850       -20.1596
   6   2.0000      -0.559265       -15.2184
   7   2.0000      -0.317529        -8.6404
   8   2.0000      -0.273297        -7.4368
   9   2.0000      -0.259032        -7.0486
  10   2.0000      -0.239769        -6.5244
  11   2.0000      -0.198013        -5.3882
  12   2.0000      -0.178211        -4.8494
  13   2.0000      -0.059181        -1.6104
  14   2.0000      -0.053457        -1.4546
  15   2.0000      -0.037762        -1.0276
  16   0.0000       0.179101         4.8736
  17   0.0000       0.219939         5.9848
  18   0.0000       0.230363         6.2685
  19   0.0000       0.248718         6.7680
  20   0.0000       0.272319         7.4102

MULLIKEN ATOMIC CHARGES
-----------------------
   0 C :    0.309036
   1 C :    0.171221
   2 O :   -0.737927
   3 O :   -0.711188
   4 H :   -0.023116
   5 H :   -0.003693
   6 H :   -0.004334
Sum of atomic charges:   -1.0000000

LOEWDIN ATOMIC CHARGES
----------------------
   0 C :    0.136706
   1 C :   -0.328596
   2 O :   -0.350485
   3 O :   -0.345868
   4 H :   -0.042049
   5 H :   -0.035505
   6 H :   -0.034204

  Mayer bond orders larger than 0.100000
B(  0-C ,  1-C ) :   1.2377 B(  0-C ,  4-H ) :   0.8949 B(  0-C ,  5-H ) :   0.8435
B(  0-C ,  6-H ) :   0.8483 B(  1-C ,  2-O ) :   1.4033 B(  1-C ,  3-O ) :   1.4027
B(  1-C ,  4-H ) :   0.2197 B(  1-C ,  5-H ) :   0.1478 B(  1-C ,  6-H ) :   0.1429

Dispersion correction           -0.003027182
FINAL SINGLE POINT ENERGY      -228.120921300951

DIPOLE MOMENT
-------------
                                X             Y             Z
Electronic contribution:      1.69696      -2.01046       2.44179
Nuclear contribution   :     -2.34880       2.82033      -3.41655
                        -----------------------------------------
Total Dipole Moment    :     -0.65184       0.80986      -0.97476
                        -----------------------------------------
Magnitude (a.u.)       :      1.42511
Magnitude (Debye)      :      3.62234

Rotational constants in cm-1:     0.393413     0.334516     0.186969
Rotational constants in MHz : 11794.232386 10028.538646  5605.197050

                             ****ORCA TERMINATED NORMALLY****
TOTAL RUN TIME: 0 days 0 hours 0 minutes 5 seconds 10 msec
