                         Program Version 5.0.0 -  RELEASE  -
|  1> !PBE0 D3BJ RIJCOSX def2-SVPD def2/J TightSCF
|  2> *xyz 1 1
|  3> C          3.91385       -1.65829        3.01513
|  4> N          5.03927       -0.90115        2.49282
|  5> C          6.21038       -1.41726        2.17824
|  6> N          6.53591       -2.67712        2.55608
|  7> N          7.07675       -0.70082        1.47891
|  8> H          7.95464       -1.12155        1.20755
|  9> H          6.75616        0.10664        0.96028
| 10> H          4.84217        0.01761        2.11519
| 11> H          5.99388       -3.12692        3.28278
| 12> H          7.49844       -2.97548        2.46878
| 13> H          3.08844       -0.99893        3.18495
| 14> H          4.19412       -2.12366        3.93697
| 15> H          3.63051       -2.40965        2.30798
| 16> *
| 17> %MaxCore 64000
| 18> %pal nprocs 8
| 19> end
| 20> %scf
| 21>   MaxIter 150
| 22> end
| 23>
| 24>
| 25>                          ****END OF INPUT****

CARTESIAN COORDINATES (ANGSTROEM)
---------------------------------
  C      3.913850   -1.658290    3.015130
  N      5.039270   -0.901150    2.492820
  C      6.210380   -1.417260    2.178240
  N      6.535910   -2.677120    2.556080
  N      7.076750   -0.700820    1.478910
  H      7.954640   -1.121550    1.207550
  H      6.756160    0.106640    0.960280
  H      4.842170    0.017610    2.115190
  H      5.993880   -3.126920    3.282780
  H      7.498440   -2.975480    2.468780
  H      3.088440   -0.998930    3.184950
  H      4.194120   -2.123660    3.936970
  H      3.630510   -2.409650    2.307980

 Total Charge           Charge          ....    1
 Multiplicity           Mult            ....    1
 Number of Electrons    NEL             ....   40
 Basis Dimension        Dim             ....  164

ORBITAL ENERGIES
----------------

  NO   OCC          E(Eh)            E(eV)
   0   2.0000     -14.630445      -398.1147
   1   2.0000     -14.624411      -397.9504
   2   2.0000     -14.623476      -397.9250
   3   2.0000     -10.572803      -287.7006
   4   2.0000     -10.439388      -284.0702
   5   2.0000      -1.242139       -33.8003
   6   2.0000      -1.130440       -30.7608
   7   2.0000      -1.113319       -30.2949
   8   2.0000      -0.928433       -25.2639
   9   2.0000      -0.847699       -23.0671
  10   2.0000      -0.808933       -22.0122
  11   2.0000      -0.775236       -21.0952
  12   2.0000      -0.712960       -19.4006
  13   2.0000      -0.707527       -19.2528
  14   2.0000      -0.673067       -18.3151
  15   2.0000      -0.663867       -18.0647
  16   2.0000      -0.608557       -16.5597
  17   2.0000      -0.594887       -16.1877
  18   2.0000      -0.497170       -13.5287
  19   2.0000      -0.473717       -12.8905
  20   0.0000      -0.171038        -4.6542
  21   0.0000      -0.150397        -4.0925
  22   0.0000      -0.112056        -3.0492
  23   0.0000      -0.108609        -2.9554
  24   0.0000      -0.083603        -2.2750

MULLIKEN ATOMIC CHARGES
-----------------------
   0 C :    0.960629
   1 N :   -0.638994
   2 C :    1.573280
   3 N :   -0.179833
   4 N :   -0.188712
   5 H :   -0.009298
   6 H :   -0.015345
   7 H :   -0.203568
   8 H :   -0.023633
   9 H :   -0.068872
  10 H :   -0.229715
  11 H :   -0.001257
  12 H :    0.025316
Sum of atomic charges:    1.0000000

LOEWDIN ATOMIC CHARGES
----------------------
   0 C :    0.253138
   1 N :    0.008777
   2 C :   -0.029679
   3 N :    0.277153
   4 N :    0.257500
   5 H :    0.041532
   6 H :    0.043440
   7 H :    0.060617
   8 H :    0.019826
   9 H :    0.036957
  10 H :    0.016616
  11 H :    0.001556
  12 H :    0.012567

  Mayer bond orders larger than 0.100000
B(  0-C ,  1-N ) :   0.8949 B(  0-C ,  7-H ) :  -0.1087 B(  0-C , 10-H ) :   0.8689
B(  0-C , 11-H ) :   0.8369 B(  0-C , 12-H ) :   0.8462 B(  1-N ,  2-C ) :   0.9704
B(  1-N ,  3-N ) :   0.2324 B(  1-N ,  4-N ) :   0.2379 B(  1-N ,  7-H ) :   1.3054
B(  1-N , 10-H ) :   0.1656 B(  1-N , 11-H ) :   0.1545 B(  1-N , 12-H ) :   0.1232
B(  2-C ,  3-N ) :   0.8454 B(  2-C ,  4-N ) :   0.7570 B(  2-C ,  5-H ) :  -0.1066
B(  2-C ,  6-H ) :  -0.1424 B(  2-C ,  7-H ) :  -0.2230 B(  2-C ,  8-H ) :  -0.1268
B(  2-C ,  9-H ) :  -0.1150 B(  3-N ,  4-N ) :   0.1592 B(  3-N ,  8-H ) :   1.0868
B(  3-N ,  9-H ) :   1.2043 B(  4-N ,  5-H ) :   1.1562 B(  4-N ,  6-H ) :   1.1698
B(  5-H ,  6-H ) :  -0.1472 B(  8-H ,  9-H ) :  -0.1587

Dispersion correction           -0.007607147
FINAL SINGLE POINT ENERGY      -244.647395869995

DIPOLE MOMENT
-------------
                                X             Y             Z
Electronic contribution:      2.42918       0.85194      -0.96470
Nuclear contribution   :     -2.01473      -0.74897       0.69347
                        -----------------------------------------
Total Dipole Moment    :      0.41445       0.10297      -0.27124
                        -----------------------------------------
Magnitude (a.u.)       :      0.50590
Magnitude (Debye)      :      1.28591

Rotational constants in cm-1:     0.313249     0.134439     0.096258
Rotational constants in MHz :  9390.961986  4030.377472  2885.728233

                             ****ORCA TERMINATED NORMALLY****
TOTAL RUN TIME: 0 days 0 hours 0 minutes 8 seconds 425 msec
