                         Program Version 5.0.0 -  RELEASE  -
|  1> !PBE0 D3BJ RIJCOSX def2-SVPD def2/J TightSCF
|  2> *xyz 0 1
|  3> C          4.26524        2.50052       -0.79589
|  4> C          4.98224        1.65026        0.24742
|  5> F          4.36806        1.38927        1.31371
|  6> O          6.12892        1.23351       -0.04562
|  7> H          4.90412        2.63966       -1.64287
|  8> H          4.02079        3.45265       -0.37328
|  9> H          3.36773        2.00584       -1.10356
| 10> *
| 11> %MaxCore 64000
| 12> %pal nprocs 8
| 13> end
| 14> %scf
| 15>   MaxIter 150
| 16> end
| 17>
| 18>
| 19>                          ****END OF INPUT****

CARTESIAN COORDINATES (ANGSTROEM)
---------------------------------
  C      4.265240    2.500520   -0.795890
  C      4.982240    1.650260    0.247420
  F      4.368060    1.389270    1.313710
  O      6.128920    1.233510   -0.045620
  H      4.904120    2.639660   -1.642870
  H      4.020790    3.452650   -0.373280
  H      3.367730    2.005840   -1.103560

 Total Charge           Charge          ....    0
 Multiplicity           Mult            ....    1
 Number of Electrons    NEL             ....   32
 Basis Dimension        Dim             ....  110

ORBITAL ENERGIES
----------------

  NO   OCC          E(Eh)            E(eV)
   0   2.0000     -24.858872      -676.4443
   1   2.0000     -19.228926      -523.2457
   2   2.0000     -10.420861      -283.5660
   3   2.0000     -10.261203      -279.2215
   4   2.0000      -1.341746       -36.5108
   5   2.0000      -1.057679       -28.7809
   6   2.0000      -0.792415       -21.5627
   7   2.0000      -0.681828       -18.5535
   8   2.0000      -0.571836       -15.5605
   9   2.0000      -0.566803       -15.4235
  10   2.0000      -0.523115       -14.2347
  11   2.0000      -0.462035       -12.5726
  12   2.0000      -0.449871       -12.2416
  13   2.0000      -0.422613       -11.4999
  14   2.0000      -0.374932       -10.2024
  15   2.0000      -0.311991        -8.4897
  16   0.0000      -0.027429        -0.7464
  17   0.0000       0.019019         0.5175
  18   0.0000       0.065252         1.7756
  19   0.0000       0.091661         2.4942
  20   0.0000       0.100116         2.7243

MULLIKEN ATOMIC CHARGES
-----------------------
   0 C :    0.251002
   1 C :    0.525076
   2 F :   -0.397993
   3 O :   -0.524237
   4 H :    0.001673
   5 H :    0.071326
   6 H :    0.073152
Sum of atomic charges:    0.0000000

LOEWDIN ATOMIC CHARGES
----------------------
   0 C :    0.209337
   1 C :   -0.025535
   2 F :   -0.042573
   3 O :   -0.144626
   4 H :    0.001722
   5 H :    0.000103
   6 H :    0.001571

  Mayer bond orders larger than 0.100000
B(  0-C ,  1-C ) :   1.2497 B(  0-C ,  4-H ) :   0.9129 B(  0-C ,  5-H ) :   0.8244
B(  0-C ,  6-H ) :   0.8266 B(  1-C ,  2-F ) :   0.7112 B(  1-C ,  3-O ) :   1.7552
B(  1-C ,  4-H ) :   0.1830 B(  1-C ,  5-H ) :   0.1108 B(  1-C ,  6-H ) :   0.1080

Dispersion correction           -0.002787693
FINAL SINGLE POINT ENERGY      -252.642805083660

DIPOLE MOMENT
-------------
                                X             Y             Z
Electronic contribution:      0.76999      -2.51471       4.31490
Nuclear contribution   :     -1.76261       3.13449      -4.58927
                        -----------------------------------------
Total Dipole Moment    :     -0.99261       0.61978      -0.27437
                        -----------------------------------------
Magnitude (a.u.)       :      1.20195
Magnitude (Debye)      :      3.05512

Rotational constants in cm-1:     0.370628     0.320375     0.177409
Rotational constants in MHz : 11111.155899  9604.607061  5318.597912

                             ****ORCA TERMINATED NORMALLY****
TOTAL RUN TIME: 0 days 0 hours 0 minutes 4 seconds 806 msec
