                         Program Version 5.0.0 -  RELEASE  -
|  1> !PBE0 D3BJ RIJCOSX def2-SVPD def2/J TightSCF
|  2> *xyz 0 1
|  3> C          3.91385       -1.65829        3.01513
|  4> C          5.03927       -0.90115        2.49282
|  5> C          6.21038       -1.41726        2.17824
|  6> N          6.53591       -2.67712        2.55608
|  7> N          7.07675       -0.70082        1.47891
|  8> H          7.95464       -1.12155        1.20755
|  9> H          6.75616        0.10664        0.96028
| 10> H          4.84217        0.01761        2.11519
| 11> H          5.99388       -3.12692        3.28278
| 12> H          7.49844       -2.97548        2.46878
| 13> H          3.08844       -0.99893        3.18495
| 14> H          4.19412       -2.12366        3.93697
| 15> H          3.63051       -2.40965        2.30798
| 16> *
| 17> %MaxCore 64000
| 18> %pal nprocs 8
| 19> end
| 20> %scf
| 21>   MaxIter 150
| 22> end
| 23>
| 24>
| 25>                          ****END OF INPUT****

CARTESIAN COORDINATES (ANGSTROEM)
---------------------------------
  C      3.913850   -1.658290    3.015130
  C      5.039270   -0.901150    2.492820
  C      6.210380   -1.417260    2.178240
  N      6.535910   -2.677120    2.556080
  N      7.076750   -0.700820    1.478910
  H      7.954640   -1.121550    1.207550
  H      6.756160    0.106640    0.960280
  H      4.842170    0.017610    2.115190
  H      5.993880   -3.126920    3.282780
  H      7.498440   -2.975480    2.468780
  H      3.088440   -0.998930    3.184950
  H      4.194120   -2.123660    3.936970
  H      3.630510   -2.409650    2.307980

 Total Charge           Charge          ....    0
 Multiplicity           Mult            ....    1
 Number of Electrons    NEL             ....   40
 Basis Dimension        Dim             ....  164

ORBITAL ENERGIES
----------------

  NO   OCC          E(Eh)            E(eV)
   0   2.0000     -14.397510      -391.7762
   1   2.0000     -14.393526      -391.6678
   2   2.0000     -10.271254      -279.4950
   3   2.0000     -10.195985      -277.4469
   4   2.0000     -10.154982      -276.3311
   5   2.0000      -0.977713       -26.6049
   6   2.0000      -0.885563       -24.0974
   7   2.0000      -0.770545       -20.9676
   8   2.0000      -0.672233       -18.2924
   9   2.0000      -0.599007       -16.2998
  10   2.0000      -0.555192       -15.1075
  11   2.0000      -0.523861       -14.2550
  12   2.0000      -0.487264       -13.2591
  13   2.0000      -0.439251       -11.9526
  14   2.0000      -0.424723       -11.5573
  15   2.0000      -0.387914       -10.5557
  16   2.0000      -0.373707       -10.1691
  17   2.0000      -0.351399        -9.5620
  18   2.0000      -0.278924        -7.5899
  19   2.0000      -0.169455        -4.6111
  20   0.0000       0.022408         0.6097
  21   0.0000       0.049996         1.3605
  22   0.0000       0.062507         1.7009
  23   0.0000       0.079586         2.1656
  24   0.0000       0.090767         2.4699

MULLIKEN ATOMIC CHARGES
-----------------------
   0 C :    0.660509
   1 C :   -0.749369
   2 C :    1.049637
   3 N :   -0.194718
   4 N :   -0.100795
   5 H :   -0.127072
   6 H :   -0.039137
   7 H :   -0.230690
   8 H :   -0.029405
   9 H :   -0.210558
  10 H :   -0.047432
  11 H :    0.027219
  12 H :   -0.008189
Sum of atomic charges:   -0.0000000

LOEWDIN ATOMIC CHARGES
----------------------
   0 C :    0.079267
   1 C :   -0.074033
   2 C :   -0.227661
   3 N :    0.195960
   4 N :    0.167473
   5 H :   -0.009561
   6 H :    0.008473
   7 H :   -0.051257
   8 H :   -0.011896
   9 H :   -0.013054
  10 H :   -0.016862
  11 H :   -0.029289
  12 H :   -0.017561

  Mayer bond orders larger than 0.100000
B(  0-C ,  1-C ) :   1.2074 B(  0-C ,  7-H ) :   0.1796 B(  0-C , 10-H ) :   0.7997
B(  0-C , 11-H ) :   0.7363 B(  0-C , 12-H ) :   0.7789 B(  1-C ,  2-C ) :   1.5713
B(  1-C ,  3-N ) :   0.2513 B(  1-C ,  4-N ) :   0.3185 B(  1-C ,  7-H ) :   1.0414
B(  1-C , 10-H ) :   0.2542 B(  1-C , 11-H ) :   0.2458 B(  1-C , 12-H ) :   0.1403
B(  2-C ,  3-N ) :   0.7792 B(  2-C ,  4-N ) :   0.7684 B(  2-C ,  6-H ) :  -0.1002
B(  2-C ,  7-H ) :   0.1308 B(  2-C ,  9-H ) :  -0.1434 B(  3-N ,  4-N ) :   0.1068
B(  3-N ,  8-H ) :   1.0459 B(  3-N ,  9-H ) :   1.2943 B(  4-N ,  5-H ) :   1.1459
B(  4-N ,  6-H ) :   1.1623 B(  5-H ,  6-H ) :  -0.1406 B(  8-H ,  9-H ) :  -0.1509
B( 10-H , 11-H ) :   0.1022

Dispersion correction           -0.007961323
FINAL SINGLE POINT ENERGY      -228.192433972936

DIPOLE MOMENT
-------------
                                X             Y             Z
Electronic contribution:      2.97595       0.36478      -1.01631
Nuclear contribution   :     -2.16157      -0.63191       0.72436
                        -----------------------------------------
Total Dipole Moment    :      0.81438      -0.26713      -0.29195
                        -----------------------------------------
Magnitude (a.u.)       :      0.90543
Magnitude (Debye)      :      2.30142

Rotational constants in cm-1:     0.318470     0.135474     0.097247
Rotational constants in MHz :  9547.495553  4061.405016  2915.385882

                             ****ORCA TERMINATED NORMALLY****
TOTAL RUN TIME: 0 days 0 hours 0 minutes 8 seconds 827 msec
