                         Program Version 5.0.0 -  RELEASE  -
|  1> !PBE0 D3BJ RIJCOSX def2-SVPD def2/J TightSCF
|  2> *xyz 0 1
|  3> C          4.26524        2.50052       -0.79589
|  4> C          4.98224        1.65026        0.24742
|  5> O          4.36806        1.38927        1.31371
|  6> F          6.12892        1.23351       -0.04562
|  7> H          4.90412        2.63966       -1.64287
|  8> H          4.02079        3.45265       -0.37328
|  9> H          3.36773        2.00584       -1.10356
| 10> *
| 11> %MaxCore 64000
| 12> %pal nprocs 8
| 13> end
| 14> %scf
| 15>   MaxIter 150
| 16> end
| 17>
| 18>
| 19>                          ****END OF INPUT****

CARTESIAN COORDINATES (ANGSTROEM)
---------------------------------
  C      4.265240    2.500520   -0.795890
  C      4.982240    1.650260    0.247420
  O      4.368060    1.389270    1.313710
  F      6.128920    1.233510   -0.045620
  H      4.904120    2.639660   -1.642870
  H      4.020790    3.452650   -0.373280
  H      3.367730    2.005840   -1.103560

 Total Charge           Charge          ....    0
 Multiplicity           Mult            ....    1
 Number of Electrons    NEL             ....   32
 Basis Dimension        Dim             ....  110

ORBITAL ENERGIES
----------------

  NO   OCC          E(Eh)            E(eV)
   0   2.0000     -24.859438      -676.4597
   1   2.0000     -19.228706      -523.2397
   2   2.0000     -10.421488      -283.5831
   3   2.0000     -10.261461      -279.2285
   4   2.0000      -1.344009       -36.5724
   5   2.0000      -1.055509       -28.7219
   6   2.0000      -0.793010       -21.5789
   7   2.0000      -0.683014       -18.5858
   8   2.0000      -0.572531       -15.5794
   9   2.0000      -0.568271       -15.4634
  10   2.0000      -0.523444       -14.2436
  11   2.0000      -0.462984       -12.5984
  12   2.0000      -0.449226       -12.2241
  13   2.0000      -0.422252       -11.4901
  14   2.0000      -0.371162       -10.0998
  15   2.0000      -0.313508        -8.5310
  16   0.0000      -0.030893        -0.8406
  17   0.0000       0.018915         0.5147
  18   0.0000       0.065341         1.7780
  19   0.0000       0.094570         2.5734
  20   0.0000       0.095493         2.5985

MULLIKEN ATOMIC CHARGES
-----------------------
   0 C :    0.236809
   1 C :    0.510707
   2 O :   -0.544731
   3 F :   -0.374662
   4 H :    0.024796
   5 H :    0.072222
   6 H :    0.074858
Sum of atomic charges:    0.0000000

LOEWDIN ATOMIC CHARGES
----------------------
   0 C :    0.210141
   1 C :   -0.024355
   2 O :   -0.146578
   3 F :   -0.042498
   4 H :   -0.011272
   5 H :    0.006916
   6 H :    0.007646

  Mayer bond orders larger than 0.100000
B(  0-C ,  1-C ) :   1.2688 B(  0-C ,  4-H ) :   0.8995 B(  0-C ,  5-H ) :   0.8253
B(  0-C ,  6-H ) :   0.8291 B(  1-C ,  2-O ) :   1.7297 B(  1-C ,  3-F ) :   0.7518
B(  1-C ,  4-H ) :   0.1343 B(  1-C ,  5-H ) :   0.1264 B(  1-C ,  6-H ) :   0.1203

Dispersion correction           -0.002787544
FINAL SINGLE POINT ENERGY      -252.641858320898

DIPOLE MOMENT
-------------
                                X             Y             Z
Electronic contribution:      3.63555      -2.76824       2.10369
Nuclear contribution   :     -3.58210       3.29544      -3.18468
                        -----------------------------------------
Total Dipole Moment    :      0.05345       0.52719      -1.08099
                        -----------------------------------------
Magnitude (a.u.)       :      1.20388
Magnitude (Debye)      :      3.06002

Rotational constants in cm-1:     0.368075     0.322590     0.177495
Rotational constants in MHz : 11034.605942  9670.991558  5321.154504

                             ****ORCA TERMINATED NORMALLY****
TOTAL RUN TIME: 0 days 0 hours 0 minutes 4 seconds 919 msec
