                         Program Version 5.0.0 -  RELEASE  -
|  1> !PBE0 D3BJ RIJCOSX def2-SVPD def2/J TightSCF
|  2> *xyz 0 1
|  3> C          3.91385       -1.65829        3.01513
|  4> N          5.03927       -0.90115        2.49282
|  5> C          6.21038       -1.41726        2.17824
|  6> C          6.53591       -2.67712        2.55608
|  7> N          7.07675       -0.70082        1.47891
|  8> H          7.95464       -1.12155        1.20755
|  9> H          6.75616        0.10664        0.96028
| 10> H          4.84217        0.01761        2.11519
| 11> H          5.99388       -3.12692        3.28278
| 12> H          7.49844       -2.97548        2.46878
| 13> H          3.08844       -0.99893        3.18495
| 14> H          4.19412       -2.12366        3.93697
| 15> H          3.63051       -2.40965        2.30798
| 16> *
| 17> %MaxCore 64000
| 18> %pal nprocs 8
| 19> end
| 20> %scf
| 21>   MaxIter 150
| 22> end
| 23>
| 24>
| 25>                          ****END OF INPUT****

CARTESIAN COORDINATES (ANGSTROEM)
---------------------------------
  C      3.913850   -1.658290    3.015130
  N      5.039270   -0.901150    2.492820
  C      6.210380   -1.417260    2.178240
  C      6.535910   -2.677120    2.556080
  N      7.076750   -0.700820    1.478910
  H      7.954640   -1.121550    1.207550
  H      6.756160    0.106640    0.960280
  H      4.842170    0.017610    2.115190
  H      5.993880   -3.126920    3.282780
  H      7.498440   -2.975480    2.468780
  H      3.088440   -0.998930    3.184950
  H      4.194120   -2.123660    3.936970
  H      3.630510   -2.409650    2.307980

 Total Charge           Charge          ....    0
 Multiplicity           Mult            ....    1
 Number of Electrons    NEL             ....   40
 Basis Dimension        Dim             ....  164

ORBITAL ENERGIES
----------------

  NO   OCC          E(Eh)            E(eV)
   0   2.0000     -14.404378      -391.9631
   1   2.0000     -14.398005      -391.7896
   2   2.0000     -10.279735      -279.7258
   3   2.0000     -10.256914      -279.1048
   4   2.0000     -10.145931      -276.0848
   5   2.0000      -0.992641       -27.0111
   6   2.0000      -0.905498       -24.6399
   7   2.0000      -0.736029       -20.0284
   8   2.0000      -0.711883       -19.3713
   9   2.0000      -0.587001       -15.9731
  10   2.0000      -0.568555       -15.4712
  11   2.0000      -0.536401       -14.5962
  12   2.0000      -0.466874       -12.7043
  13   2.0000      -0.463163       -12.6033
  14   2.0000      -0.429028       -11.6745
  15   2.0000      -0.398511       -10.8440
  16   2.0000      -0.385101       -10.4791
  17   2.0000      -0.377157       -10.2630
  18   2.0000      -0.264794        -7.2054
  19   2.0000      -0.176379        -4.7995
  20   0.0000       0.021356         0.5811
  21   0.0000       0.044867         1.2209
  22   0.0000       0.060143         1.6366
  23   0.0000       0.077520         2.1094
  24   0.0000       0.091576         2.4919

MULLIKEN ATOMIC CHARGES
-----------------------
   0 C :    0.941386
   1 N :   -0.600458
   2 C :    0.742381
   3 C :    0.319262
   4 N :   -0.143441
   5 H :   -0.018250
   6 H :   -0.132728
   7 H :   -0.342106
   8 H :   -0.086172
   9 H :   -0.458052
  10 H :   -0.304080
  11 H :    0.079348
  12 H :    0.002912
Sum of atomic charges:   -0.0000000

LOEWDIN ATOMIC CHARGES
----------------------
   0 C :    0.205479
   1 N :   -0.060524
   2 C :   -0.241343
   3 C :    0.155315
   4 N :    0.173626
   5 H :    0.009942
   6 H :   -0.006033
   7 H :    0.019615
   8 H :   -0.117175
   9 H :   -0.105882
  10 H :   -0.011289
  11 H :   -0.013819
  12 H :   -0.007913

  Mayer bond orders larger than 0.100000
B(  0-C ,  1-N ) :   0.8897 B(  0-C ,  7-H ) :  -0.1268 B(  0-C , 10-H ) :   0.8949
B(  0-C , 11-H ) :   0.8236 B(  0-C , 12-H ) :   0.8458 B(  1-N ,  2-C ) :   0.9422
B(  1-N ,  3-C ) :   0.3310 B(  1-N ,  4-N ) :   0.1532 B(  1-N ,  7-H ) :   1.3955
B(  1-N , 10-H ) :   0.1568 B(  1-N , 11-H ) :   0.1082 B(  1-N , 12-H ) :   0.1427
B(  2-C ,  3-C ) :   1.7402 B(  2-C ,  4-N ) :   0.7931 B(  2-C ,  7-H ) :  -0.2425
B(  2-C ,  8-H ) :   0.2428 B(  2-C ,  9-H ) :   0.1755 B(  3-C ,  4-N ) :   0.2256
B(  3-C ,  8-H ) :   0.7480 B(  3-C ,  9-H ) :   0.8972 B(  4-N ,  5-H ) :   1.1294
B(  4-N ,  6-H ) :   1.2127 B(  5-H ,  6-H ) :  -0.1412 B(  8-H ,  9-H ) :   0.1146

Dispersion correction           -0.007948480
FINAL SINGLE POINT ENERGY      -228.181388396921

DIPOLE MOMENT
-------------
                                X             Y             Z
Electronic contribution:      1.48792       2.00269      -1.15493
Nuclear contribution   :     -1.85843      -0.99162       0.73717
                        -----------------------------------------
Total Dipole Moment    :     -0.37051       1.01107      -0.41776
                        -----------------------------------------
Magnitude (a.u.)       :      1.15501
Magnitude (Debye)      :      2.93580

Rotational constants in cm-1:     0.336495     0.135025     0.098658
Rotational constants in MHz : 10087.870488  4047.943278  2957.678786

                             ****ORCA TERMINATED NORMALLY****
TOTAL RUN TIME: 0 days 0 hours 0 minutes 9 seconds 164 msec
