                         Program Version 5.0.0 -  RELEASE  -
|  1> !PBE0 D3BJ RIJCOSX def2-SVPD def2/J TightSCF
|  2> *xyz 0 1
|  3> C          3.91385       -1.65829        3.01513
|  4> N          5.03927       -0.90115        2.49282
|  5> C          6.21038       -1.41726        2.17824
|  6> N          6.53591       -2.67712        2.55608
|  7> C          7.07675       -0.70082        1.47891
|  8> H          7.95464       -1.12155        1.20755
|  9> H          6.75616        0.10664        0.96028
| 10> H          4.84217        0.01761        2.11519
| 11> H          5.99388       -3.12692        3.28278
| 12> H          7.49844       -2.97548        2.46878
| 13> H          3.08844       -0.99893        3.18495
| 14> H          4.19412       -2.12366        3.93697
| 15> H          3.63051       -2.40965        2.30798
| 16> *
| 17> %MaxCore 64000
| 18> %pal nprocs 8
| 19> end
| 20> %scf
| 21>   MaxIter 150
| 22> end
| 23>
| 24>
| 25>                          ****END OF INPUT****

CARTESIAN COORDINATES (ANGSTROEM)
---------------------------------
  C      3.913850   -1.658290    3.015130
  N      5.039270   -0.901150    2.492820
  C      6.210380   -1.417260    2.178240
  N      6.535910   -2.677120    2.556080
  C      7.076750   -0.700820    1.478910
  H      7.954640   -1.121550    1.207550
  H      6.756160    0.106640    0.960280
  H      4.842170    0.017610    2.115190
  H      5.993880   -3.126920    3.282780
  H      7.498440   -2.975480    2.468780
  H      3.088440   -0.998930    3.184950
  H      4.194120   -2.123660    3.936970
  H      3.630510   -2.409650    2.307980

 Total Charge           Charge          ....    0
 Multiplicity           Mult            ....    1
 Number of Electrons    NEL             ....   40
 Basis Dimension        Dim             ....  164

ORBITAL ENERGIES
----------------

  NO   OCC          E(Eh)            E(eV)
   0   2.0000     -14.399659      -391.8346
   1   2.0000     -14.396672      -391.7534
   2   2.0000     -10.277124      -279.6548
   3   2.0000     -10.264866      -279.3212
   4   2.0000     -10.142306      -275.9862
   5   2.0000      -0.987381       -26.8680
   6   2.0000      -0.898541       -24.4505
   7   2.0000      -0.762226       -20.7412
   8   2.0000      -0.683448       -18.5976
   9   2.0000      -0.617687       -16.8081
  10   2.0000      -0.549770       -14.9600
  11   2.0000      -0.508862       -13.8468
  12   2.0000      -0.490728       -13.3534
  13   2.0000      -0.471768       -12.8375
  14   2.0000      -0.420365       -11.4387
  15   2.0000      -0.405971       -11.0470
  16   2.0000      -0.393389       -10.7047
  17   2.0000      -0.373132       -10.1534
  18   2.0000      -0.270185        -7.3521
  19   2.0000      -0.173075        -4.7096
  20   0.0000       0.019469         0.5298
  21   0.0000       0.054226         1.4756
  22   0.0000       0.056306         1.5322
  23   0.0000       0.075287         2.0487
  24   0.0000       0.090566         2.4644

MULLIKEN ATOMIC CHARGES
-----------------------
   0 C :    0.961548
   1 N :   -0.607929
   2 C :    0.886787
   3 N :   -0.130295
   4 C :    0.218653
   5 H :   -0.272585
   6 H :   -0.250870
   7 H :   -0.251019
   8 H :   -0.133436
   9 H :   -0.075743
  10 H :   -0.276161
  11 H :   -0.057778
  12 H :   -0.011171
Sum of atomic charges:   -0.0000000

LOEWDIN ATOMIC CHARGES
----------------------
   0 C :    0.198806
   1 N :   -0.055930
   2 C :   -0.234994
   3 N :    0.193394
   4 C :    0.129902
   5 H :   -0.100237
   6 H :   -0.098621
   7 H :    0.034089
   8 H :   -0.025479
   9 H :    0.005118
  10 H :   -0.009657
  11 H :   -0.022358
  12 H :   -0.014033

  Mayer bond orders larger than 0.100000
B(  0-C ,  1-N ) :   0.9092 B(  0-C ,  7-H ) :  -0.1158 B(  0-C , 10-H ) :   0.8636
B(  0-C , 11-H ) :   0.8402 B(  0-C , 12-H ) :   0.8478 B(  1-N ,  2-C ) :   0.9735
B(  1-N ,  3-N ) :   0.1711 B(  1-N ,  4-C ) :   0.2308 B(  1-N ,  7-H ) :   1.2743
B(  1-N , 10-H ) :   0.1621 B(  1-N , 11-H ) :   0.1724 B(  1-N , 12-H ) :   0.1420
B(  2-C ,  3-N ) :   0.8001 B(  2-C ,  4-C ) :   1.5371 B(  2-C ,  5-H ) :   0.1581
B(  2-C ,  7-H ) :  -0.1758 B(  3-N ,  4-C ) :   0.2069 B(  3-N ,  8-H ) :   1.1075
B(  3-N ,  9-H ) :   1.1702 B(  4-C ,  5-H ) :   0.8328 B(  4-C ,  6-H ) :   0.9086
B(  5-H ,  6-H ) :   0.1144 B(  8-H ,  9-H ) :  -0.1556

Dispersion correction           -0.007914072
FINAL SINGLE POINT ENERGY      -228.179412488957

DIPOLE MOMENT
-------------
                                X             Y             Z
Electronic contribution:      0.95580       0.10741       0.01644
Nuclear contribution   :     -1.74889      -0.59133       0.51900
                        -----------------------------------------
Total Dipole Moment    :     -0.79308      -0.48393       0.53544
                        -----------------------------------------
Magnitude (a.u.)       :      1.07231
Magnitude (Debye)      :      2.72561

Rotational constants in cm-1:     0.319878     0.140238     0.099847
Rotational constants in MHz :  9589.703832  4204.215525  2993.343846

                             ****ORCA TERMINATED NORMALLY****
TOTAL RUN TIME: 0 days 0 hours 0 minutes 9 seconds 183 msec
