                         Program Version 5.0.0 -  RELEASE  -
|  1> !PBE0 D3BJ RIJCOSX def2-SVPD def2/J TightSCF xyzfile
|  2>
|  3> *xyzfile 0 1 D3.xyz
|  4>
|  5> %MaxCore 64000
|  6>
|  7> %pal nprocs 4
|  8> end
|  9>
| 10> %scf
| 11>   MaxIter 150
| 12> end
| 13>
| 14>
| 15>                          ****END OF INPUT****

CARTESIAN COORDINATES (ANGSTROEM)
---------------------------------
  C      3.913853   -1.658291    3.015134
  N      5.039266   -0.901154    2.492821
  C      4.084215    1.742081   -2.114724
  C      4.265245    2.500518   -0.795890
  H      4.868534    3.392674   -0.981134
  H      3.307640    2.824571   -0.387809
  C      4.982240    1.650257    0.247422
  C      6.210384   -1.417261    2.178244
  N      6.535913   -2.677122    2.556078
  C      7.076754   -0.700820    1.478906
  H      7.954643   -1.121554    1.207554
  H      6.756161    0.106637    0.960278
  H      4.842168    0.017609    2.115191
  H      5.993876   -3.126918    3.282784
  H      7.498441   -2.975482    2.468776
  F      4.368065    1.389270    1.313706
  O      6.128919    1.233512   -0.045620
  C      3.139159   -2.376572    1.910609
  H      3.267235   -0.939401    3.520693
  H      4.247195   -2.355095    3.790065
  C      1.997274    0.430918   -1.399218
  C      3.412746    0.376886   -1.965497
  H      4.047407   -0.246590   -1.326706
  H      3.390774   -0.118719   -2.942839
  H      5.068475    1.598504   -2.565728
  H      3.503356    2.363939   -2.804565
  C      2.399946   -1.389579    1.009490
  H      2.440750   -3.087118    2.362976
  H      3.844475   -2.970462    1.318677
  C      2.070177   -1.936705   -0.372401
  H      1.481611   -1.061542    1.509912
  H      3.008628   -0.490001    0.897451
  C      1.322238   -0.935775   -1.256413
  H      1.472747   -2.850902   -0.283997
  H      3.003539   -2.234041   -0.862535
  H      1.376444    1.058920   -2.047420
  H      2.015341    0.929780   -0.426535
  H      0.316648   -0.787213   -0.848278
  H      1.185611   -1.379252   -2.248613

 Total Charge           Charge          ....    0
 Multiplicity           Mult            ....    1
 Number of Electrons    NEL             ....  126
 Basis Dimension        Dim             ....  510

ORBITAL ENERGIES
----------------

  NO   OCC          E(Eh)            E(eV)
   0   2.0000     -24.880405      -677.0302
   1   2.0000     -19.235033      -523.4119
   2   2.0000     -14.378222      -391.2513
   3   2.0000     -14.374899      -391.1609
   4   2.0000     -10.426932      -283.7312
   5   2.0000     -10.269657      -279.4516
   6   2.0000     -10.261087      -279.2184
   7   2.0000     -10.253782      -279.0196
   8   2.0000     -10.251316      -278.9525
   9   2.0000     -10.238158      -278.5944
  10   2.0000     -10.236008      -278.5359
  11   2.0000     -10.232206      -278.4325
  12   2.0000     -10.228597      -278.3343
  13   2.0000     -10.228239      -278.3245
  14   2.0000     -10.224320      -278.2179
  15   2.0000     -10.107099      -275.0281
  16   2.0000      -1.364980       -37.1430
  17   2.0000      -1.070038       -29.1172
  18   2.0000      -0.969656       -26.3857
  19   2.0000      -0.883595       -24.0438
  20   2.0000      -0.852117       -23.1873
  21   2.0000      -0.826100       -22.4793
  22   2.0000      -0.796327       -21.6692
  23   2.0000      -0.758761       -20.6469
  24   2.0000      -0.733371       -19.9561
  25   2.0000      -0.709645       -19.3104
  26   2.0000      -0.684105       -18.6154
  27   2.0000      -0.659702       -17.9514
  28   2.0000      -0.626238       -17.0408
  29   2.0000      -0.616878       -16.7861
  30   2.0000      -0.598050       -16.2738
  31   2.0000      -0.590600       -16.0710
  32   2.0000      -0.578047       -15.7294
  33   2.0000      -0.565235       -15.3808
  34   2.0000      -0.546187       -14.8625
  35   2.0000      -0.525362       -14.2958
  36   2.0000      -0.504999       -13.7417
  37   2.0000      -0.498260       -13.5583
  38   2.0000      -0.489086       -13.3087
  39   2.0000      -0.477290       -12.9877
  40   2.0000      -0.473662       -12.8890
  41   2.0000      -0.458221       -12.4688
  42   2.0000      -0.447662       -12.1815
  43   2.0000      -0.443763       -12.0754
  44   2.0000      -0.433171       -11.7872
  45   2.0000      -0.416261       -11.3270
  46   2.0000      -0.412041       -11.2122
  47   2.0000      -0.403111       -10.9692
  48   2.0000      -0.390606       -10.6289
  49   2.0000      -0.383690       -10.4407
  50   2.0000      -0.380797       -10.3620
  51   2.0000      -0.377999       -10.2859
  52   2.0000      -0.369101       -10.0438
  53   2.0000      -0.362032        -9.8514
  54   2.0000      -0.355932        -9.6854
  55   2.0000      -0.349159        -9.5011
  56   2.0000      -0.341922        -9.3042
  57   2.0000      -0.331055        -9.0085
  58   2.0000      -0.328443        -8.9374
  59   2.0000      -0.325412        -8.8549
  60   2.0000      -0.285293        -7.7632
  61   2.0000      -0.251284        -6.8378
  62   2.0000      -0.150751        -4.1022
  63   0.0000      -0.042835        -1.1656
  64   0.0000       0.018822         0.5122
  65   0.0000       0.031579         0.8593
  66   0.0000       0.033145         0.9019
  67   0.0000       0.038104         1.0369

MULLIKEN ATOMIC CHARGES
-----------------------
   0 C :    1.089997
   1 N :    0.024343
   2 C :    0.289375
   3 C :    0.132172
   4 H :   -0.048215
   5 H :    0.231484
   6 C :    0.653590
   7 C :    0.939669
   8 N :   -0.034653
   9 C :    0.704321
  10 H :   -0.284786
  11 H :   -0.625983
  12 H :   -0.903599
  13 H :   -0.088191
  14 H :   -0.182508
  15 F :   -0.540527
  16 O :   -0.582559
  17 C :    0.141577
  18 H :   -0.270324
  19 H :   -0.170097
  20 C :   -0.228921
  21 C :   -0.269068
  22 H :    0.072731
  23 H :   -0.096923
  24 H :    0.089492
  25 H :   -0.045843
  26 C :    0.373553
  27 H :   -0.105897
  28 H :    0.049382
  29 C :   -0.116888
  30 H :    0.043597
  31 H :   -0.699299
  32 C :    0.563645
  33 H :   -0.317877
  34 H :    0.178524
  35 H :   -0.328554
  36 H :    0.240288
  37 H :    0.069806
  38 H :    0.053169
Sum of atomic charges:   -0.0000000

LOEWDIN ATOMIC CHARGES
----------------------
   0 C :    0.055572
   1 N :   -0.000337
   2 C :   -0.013840
   3 C :    0.054754
   4 H :    0.045445
   5 H :    0.022479
   6 C :    0.059267
   7 C :   -0.214572
   8 N :    0.190916
   9 C :    0.169646
  10 H :   -0.092403
  11 H :   -0.192745
  12 H :   -0.047531
  13 H :   -0.034163
  14 H :    0.001810
  15 F :   -0.035507
  16 O :   -0.108484
  17 C :   -0.021867
  18 H :    0.025360
  19 H :    0.007352
  20 C :   -0.040123
  21 C :   -0.029649
  22 H :    0.018640
  23 H :    0.035233
  24 H :    0.033112
  25 H :    0.031275
  26 C :   -0.040197
  27 H :    0.023261
  28 H :    0.023641
  29 C :   -0.040251
  30 H :    0.036852
  31 H :   -0.021100
  32 C :   -0.033735
  33 H :    0.027523
  34 H :    0.022890
  35 H :    0.027399
  36 H :    0.004886
  37 H :    0.024732
  38 H :    0.024457

  Mayer bond orders larger than 0.100000
B(  0-C ,  1-N ) :   0.8851 B(  0-C , 12-H ) :  -0.4149 B(  0-C , 17-C ) :   1.0585
B(  0-C , 18-H ) :   0.6756 B(  0-C , 19-H ) :   0.8264 B(  0-C , 26-C ) :   0.1093
B(  1-N ,  7-C ) :   1.0345 B(  1-N ,  8-N ) :   0.2067 B(  1-N ,  9-C ) :   0.1344
B(  1-N , 12-H ) :   1.0429 B(  1-N , 18-H ) :   0.2012 B(  1-N , 19-H ) :   0.1025
B(  2-C ,  3-C ) :   1.1910 B(  2-C ,  4-H ) :   0.1548 B(  2-C , 21-C ) :   1.2848
B(  2-C , 24-H ) :   0.7140 B(  2-C , 25-H ) :   0.8492 B(  3-C ,  4-H ) :   0.7022
B(  3-C ,  5-H ) :   0.7572 B(  3-C ,  6-C ) :   1.2469 B(  3-C , 24-H ) :   0.1087
B(  3-C , 25-H ) :   0.1273 B(  4-H ,  6-C ) :   0.2577 B(  5-H ,  6-C ) :   0.1511
B(  6-C , 15-F ) :   0.5418 B(  6-C , 16-O ) :   1.6612 B(  7-C ,  8-N ) :   0.6841
B(  7-C ,  9-C ) :   1.5843 B(  7-C , 10-H ) :   0.2522 B(  7-C , 12-H ) :  -0.5883
B(  7-C , 14-H ) :  -0.1143 B(  8-N ,  9-C ) :   0.2794 B(  8-N , 13-H ) :   1.0141
B(  8-N , 14-H ) :   1.2523 B(  8-N , 19-H ) :   0.1022 B(  9-C , 10-H ) :   0.6040
B(  9-C , 11-H ) :   0.5244 B( 10-H , 11-H ) :   0.2559 B( 12-H , 15-F ) :   0.1589
B( 12-H , 18-H ) :   0.1475 B( 13-H , 14-H ) :  -0.1847 B( 17-C , 19-H ) :   0.1376
B( 17-C , 26-C ) :   1.1145 B( 17-C , 27-H ) :   0.9705 B( 17-C , 28-H ) :   0.8952
B( 17-C , 30-H ) :   0.1190 B( 18-H , 19-H ) :  -0.1867 B( 20-C , 21-C ) :   1.2129
B( 20-C , 23-H ) :   0.1474 B( 20-C , 32-C ) :   1.1792 B( 20-C , 35-H ) :   1.0789
B( 20-C , 36-H ) :   0.8093 B( 20-C , 37-H ) :   0.2345 B( 20-C , 38-H ) :   0.1349
B( 21-C , 22-H ) :   0.9313 B( 21-C , 23-H ) :   0.9041 B( 21-C , 24-H ) :   0.1976
B( 21-C , 25-H ) :   0.1725 B( 21-C , 35-H ) :   0.1178 B( 26-C , 27-H ) :   0.1462
B( 26-C , 29-C ) :   1.2573 B( 26-C , 30-H ) :   0.6981 B( 26-C , 31-H ) :   0.5854
B( 26-C , 33-H ) :   0.1086 B( 26-C , 34-H ) :   0.1375 B( 29-C , 31-H ) :   0.1043
B( 29-C , 32-C ) :   1.1318 B( 29-C , 33-H ) :   1.0862 B( 29-C , 34-H ) :   0.8308
B( 29-C , 37-H ) :   0.1132 B( 29-C , 38-H ) :   0.1912 B( 30-H , 31-H ) :   0.2290
B( 32-C , 37-H ) :   0.6997 B( 32-C , 38-H ) :   0.7311

Dispersion correction           -0.038843509
FINAL SINGLE POINT ENERGY      -754.305739279703

DIPOLE MOMENT
-------------
                                X             Y             Z
Electronic contribution:      9.46431       8.66790       6.69467
Nuclear contribution   :    -11.12616      -8.32792      -6.96231
                        -----------------------------------------
Total Dipole Moment    :     -1.66185       0.33998      -0.26765
                        -----------------------------------------
Magnitude (a.u.)       :      1.71725
Magnitude (Debye)      :      4.36491

Rotational constants in cm-1:     0.020226     0.013574     0.009520
Rotational constants in MHz :   606.360011   406.923773   285.390769

                             ****ORCA TERMINATED NORMALLY****
TOTAL RUN TIME: 0 days 0 hours 4 minutes 15 seconds 244 msec
