                         Program Version 5.0.0 -  RELEASE  -
|  1> !PBE0 D3BJ RIJCOSX def2-SVPD def2/J TightSCF xyzfile
|  2>
|  3> *xyzfile 0 1 D5.xyz
|  4>
|  5> %MaxCore 64000
|  6>
|  7> %pal nprocs 4
|  8> end
|  9>
| 10> %scf
| 11>   MaxIter 150
| 12> end
| 13>
| 14>
| 15>                          ****END OF INPUT****

CARTESIAN COORDINATES (ANGSTROEM)
---------------------------------
  C      3.913853   -1.658291    3.015134
  N      5.039266   -0.901154    2.492821
  C      4.084215    1.742081   -2.114724
  C      4.265245    2.500518   -0.795890
  H      4.868534    3.392674   -0.981134
  H      3.307640    2.824571   -0.387809
  C      4.982240    1.650257    0.247422
  C      6.210384   -1.417261    2.178244
  C      6.535913   -2.677122    2.556078
  N      7.076754   -0.700820    1.478906
  H      7.954643   -1.121554    1.207554
  H      6.756161    0.106637    0.960278
  H      4.842168    0.017609    2.115191
  H      5.993876   -3.126918    3.282784
  H      7.498441   -2.975482    2.468776
  O      4.368065    1.389270    1.313706
  F      6.128919    1.233512   -0.045620
  C      3.139159   -2.376572    1.910609
  H      3.267235   -0.939401    3.520693
  H      4.247195   -2.355095    3.790065
  C      1.997274    0.430918   -1.399218
  C      3.412746    0.376886   -1.965497
  H      4.047407   -0.246590   -1.326706
  H      3.390774   -0.118719   -2.942839
  H      5.068475    1.598504   -2.565728
  H      3.503356    2.363939   -2.804565
  C      2.399946   -1.389579    1.009490
  H      2.440750   -3.087118    2.362976
  H      3.844475   -2.970462    1.318677
  C      2.070177   -1.936705   -0.372401
  H      1.481611   -1.061542    1.509912
  H      3.008628   -0.490001    0.897451
  C      1.322238   -0.935775   -1.256413
  H      1.472747   -2.850902   -0.283997
  H      3.003539   -2.234041   -0.862535
  H      1.376444    1.058920   -2.047420
  H      2.015341    0.929780   -0.426535
  H      0.316648   -0.787213   -0.848278
  H      1.185611   -1.379252   -2.248613

 Total Charge           Charge          ....    0
 Multiplicity           Mult            ....    1
 Number of Electrons    NEL             ....  126
 Basis Dimension        Dim             ....  510

ORBITAL ENERGIES
----------------

  NO   OCC          E(Eh)            E(eV)
   0   2.0000     -24.900376      -677.5737
   1   2.0000     -19.265450      -524.2396
   2   2.0000     -14.373354      -391.1189
   3   2.0000     -14.364271      -390.8717
   4   2.0000     -10.451562      -284.4014
   5   2.0000     -10.284341      -279.8511
   6   2.0000     -10.266290      -279.3600
   7   2.0000     -10.258134      -279.1380
   8   2.0000     -10.248218      -278.8682
   9   2.0000     -10.244285      -278.7612
  10   2.0000     -10.237524      -278.5772
  11   2.0000     -10.230630      -278.3896
  12   2.0000     -10.223009      -278.1822
  13   2.0000     -10.216253      -277.9984
  14   2.0000     -10.210858      -277.8516
  15   2.0000     -10.125117      -275.5184
  16   2.0000      -1.386234       -37.7213
  17   2.0000      -1.096301       -29.8319
  18   2.0000      -0.968579       -26.3564
  19   2.0000      -0.885509       -24.0959
  20   2.0000      -0.864110       -23.5136
  21   2.0000      -0.827147       -22.5078
  22   2.0000      -0.790554       -21.5121
  23   2.0000      -0.761159       -20.7122
  24   2.0000      -0.727831       -19.8053
  25   2.0000      -0.711463       -19.3599
  26   2.0000      -0.698411       -19.0047
  27   2.0000      -0.666748       -18.1431
  28   2.0000      -0.635497       -17.2927
  29   2.0000      -0.612847       -16.6764
  30   2.0000      -0.611164       -16.6306
  31   2.0000      -0.607785       -16.5387
  32   2.0000      -0.570753       -15.5310
  33   2.0000      -0.567949       -15.4547
  34   2.0000      -0.550725       -14.9860
  35   2.0000      -0.524623       -14.2757
  36   2.0000      -0.517189       -14.0734
  37   2.0000      -0.506484       -13.7821
  38   2.0000      -0.502580       -13.6759
  39   2.0000      -0.482106       -13.1188
  40   2.0000      -0.467537       -12.7223
  41   2.0000      -0.460656       -12.5351
  42   2.0000      -0.448403       -12.2017
  43   2.0000      -0.437487       -11.9046
  44   2.0000      -0.430317       -11.7095
  45   2.0000      -0.428803       -11.6683
  46   2.0000      -0.417455       -11.3595
  47   2.0000      -0.405133       -11.0242
  48   2.0000      -0.402010       -10.9393
  49   2.0000      -0.392215       -10.6727
  50   2.0000      -0.381789       -10.3890
  51   2.0000      -0.373762       -10.1706
  52   2.0000      -0.369613       -10.0577
  53   2.0000      -0.362471        -9.8633
  54   2.0000      -0.354884        -9.6569
  55   2.0000      -0.352978        -9.6050
  56   2.0000      -0.337189        -9.1754
  57   2.0000      -0.330242        -8.9863
  58   2.0000      -0.324132        -8.8201
  59   2.0000      -0.321000        -8.7349
  60   2.0000      -0.317038        -8.6270
  61   2.0000      -0.240403        -6.5417
  62   2.0000      -0.154983        -4.2173
  63   0.0000      -0.062509        -1.7009
  64   0.0000       0.007365         0.2004
  65   0.0000       0.029754         0.8096
  66   0.0000       0.032349         0.8803
  67   0.0000       0.038370         1.0441

MULLIKEN ATOMIC CHARGES
-----------------------
   0 C :    1.042408
   1 N :    0.040301
   2 C :    0.289229
   3 C :    0.114941
   4 H :   -0.026168
   5 H :    0.192133
   6 C :    0.812926
   7 C :    0.778966
   8 C :    0.464563
   9 N :    0.262142
  10 H :   -0.084660
  11 H :   -0.428317
  12 H :   -1.032624
  13 H :   -0.012209
  14 H :   -0.550879
  15 O :   -0.707350
  16 F :   -0.513728
  17 C :    0.169523
  18 H :   -0.271684
  19 H :   -0.061267
  20 C :   -0.247482
  21 C :   -0.244773
  22 H :    0.074685
  23 H :   -0.106512
  24 H :    0.052324
  25 H :   -0.047111
  26 C :    0.397779
  27 H :   -0.080673
  28 H :    0.034889
  29 C :   -0.110140
  30 H :    0.007652
  31 H :   -0.683500
  32 C :    0.577466
  33 H :   -0.331489
  34 H :    0.182520
  35 H :   -0.330263
  36 H :    0.254725
  37 H :    0.074309
  38 H :    0.047347
Sum of atomic charges:    0.0000000

LOEWDIN ATOMIC CHARGES
----------------------
   0 C :    0.066116
   1 N :    0.005324
   2 C :   -0.020225
   3 C :    0.062310
   4 H :    0.043050
   5 H :    0.036918
   6 C :    0.060987
   7 C :   -0.217153
   8 C :    0.148705
   9 N :    0.204854
  10 H :    0.011577
  11 H :   -0.088578
  12 H :   -0.093480
  13 H :   -0.121955
  14 H :   -0.110657
  15 O :   -0.113722
  16 F :   -0.022707
  17 C :   -0.015517
  18 H :    0.027352
  19 H :    0.012703
  20 C :   -0.035414
  21 C :   -0.031020
  22 H :    0.016811
  23 H :    0.035512
  24 H :    0.027568
  25 H :    0.033282
  26 C :   -0.038698
  27 H :    0.024425
  28 H :    0.020324
  29 C :   -0.041556
  30 H :    0.036608
  31 H :   -0.024602
  32 C :   -0.033598
  33 H :    0.027451
  34 H :    0.020681
  35 H :    0.027516
  36 H :    0.009960
  37 H :    0.025698
  38 H :    0.023153

  Mayer bond orders larger than 0.100000
B(  0-C ,  1-N ) :   0.8644 B(  0-C , 12-H ) :  -0.4711 B(  0-C , 17-C ) :   1.0527
B(  0-C , 18-H ) :   0.7627 B(  0-C , 19-H ) :   0.7896 B(  0-C , 26-C ) :   0.1106
B(  1-N ,  7-C ) :   0.8302 B(  1-N ,  8-C ) :   0.4091 B(  1-N , 12-H ) :   1.0580
B(  1-N , 18-H ) :   0.2057 B(  2-C ,  3-C ) :   1.1904 B(  2-C ,  4-H ) :   0.1547
B(  2-C , 21-C ) :   1.2626 B(  2-C , 24-H ) :   0.7224 B(  2-C , 25-H ) :   0.8624
B(  3-C ,  4-H ) :   0.7220 B(  3-C ,  5-H ) :   0.7914 B(  3-C ,  6-C ) :   1.1887
B(  3-C , 25-H ) :   0.1226 B(  4-H ,  6-C ) :   0.2285 B(  5-H ,  6-C ) :   0.1547
B(  6-C , 15-O ) :   1.5712 B(  6-C , 16-F ) :   0.4165 B(  7-C ,  8-C ) :   1.6363
B(  7-C ,  9-N ) :   0.8281 B(  7-C , 11-H ) :  -0.1349 B(  7-C , 12-H ) :  -0.5407
B(  7-C , 13-H ) :   0.3204 B(  7-C , 14-H ) :   0.3625 B(  8-C ,  9-N ) :   0.2546
B(  8-C , 13-H ) :   0.6216 B(  8-C , 14-H ) :   0.6863 B(  9-N , 10-H ) :   1.1708
B(  9-N , 11-H ) :   1.0739 B( 10-H , 11-H ) :  -0.2355 B( 11-H , 16-F ) :   0.1141
B( 12-H , 15-O ) :   0.1928 B( 12-H , 18-H ) :   0.1155 B( 13-H , 19-H ) :   0.1356
B( 17-C , 19-H ) :   0.1208 B( 17-C , 26-C ) :   1.1414 B( 17-C , 27-H ) :   0.9430
B( 17-C , 28-H ) :   0.9351 B( 17-C , 30-H ) :   0.1165 B( 18-H , 19-H ) :  -0.2147
B( 20-C , 21-C ) :   1.2324 B( 20-C , 23-H ) :   0.1423 B( 20-C , 32-C ) :   1.1771
B( 20-C , 35-H ) :   1.0840 B( 20-C , 36-H ) :   0.8007 B( 20-C , 37-H ) :   0.2316
B( 20-C , 38-H ) :   0.1346 B( 21-C , 22-H ) :   0.9064 B( 21-C , 23-H ) :   0.9250
B( 21-C , 24-H ) :   0.2050 B( 21-C , 25-H ) :   0.1610 B( 21-C , 35-H ) :   0.1162
B( 26-C , 27-H ) :   0.1499 B( 26-C , 29-C ) :   1.2590 B( 26-C , 30-H ) :   0.6671
B( 26-C , 31-H ) :   0.5636 B( 26-C , 33-H ) :   0.1008 B( 26-C , 34-H ) :   0.1346
B( 29-C , 32-C ) :   1.1333 B( 29-C , 33-H ) :   1.0908 B( 29-C , 34-H ) :   0.8285
B( 29-C , 37-H ) :   0.1137 B( 29-C , 38-H ) :   0.1927 B( 30-H , 31-H ) :   0.2998
B( 32-C , 37-H ) :   0.7016 B( 32-C , 38-H ) :   0.7250

Dispersion correction           -0.038915834
FINAL SINGLE POINT ENERGY      -754.326468039404

DIPOLE MOMENT
-------------
                                X             Y             Z
Electronic contribution:     12.78051      10.36198       3.24893
Nuclear contribution   :    -13.35170      -8.48261      -5.12969
                        -----------------------------------------
Total Dipole Moment    :     -0.57119       1.87936      -1.88076
                        -----------------------------------------
Magnitude (a.u.)       :      2.71947
Magnitude (Debye)      :      6.91234

Rotational constants in cm-1:     0.019886     0.013843     0.009504
Rotational constants in MHz :   596.157485   415.004628   284.931121

                             ****ORCA TERMINATED NORMALLY****
TOTAL RUN TIME: 0 days 0 hours 3 minutes 47 seconds 705 msec
