                         Program Version 5.0.0 -  RELEASE  -
|  1> !PBE0 D3BJ RIJCOSX def2-SVPD def2/J TightSCF xyzfile
|  2>
|  3> *xyzfile 0 1 D6.xyz
|  4>
|  5> %MaxCore 64000
|  6>
|  7> %pal nprocs 4
|  8> end
|  9>
| 10> %scf
| 11>   MaxIter 150
| 12> end
| 13>
| 14>
| 15>                          ****END OF INPUT****

CARTESIAN COORDINATES (ANGSTROEM)
---------------------------------
  C      3.913853   -1.658291    3.015134
  N      5.039266   -0.901154    2.492821
  C      4.084215    1.742081   -2.114724
  C      4.265245    2.500518   -0.795890
  H      4.868534    3.392674   -0.981134
  H      3.307640    2.824571   -0.387809
  C      4.982240    1.650257    0.247422
  C      6.210384   -1.417261    2.178244
  N      6.535913   -2.677122    2.556078
  C      7.076754   -0.700820    1.478906
  H      7.954643   -1.121554    1.207554
  H      6.756161    0.106637    0.960278
  H      4.842168    0.017609    2.115191
  H      5.993876   -3.126918    3.282784
  H      7.498441   -2.975482    2.468776
  O      4.368065    1.389270    1.313706
  F      6.128919    1.233512   -0.045620
  C      3.139159   -2.376572    1.910609
  H      3.267235   -0.939401    3.520693
  H      4.247195   -2.355095    3.790065
  C      1.997274    0.430918   -1.399218
  C      3.412746    0.376886   -1.965497
  H      4.047407   -0.246590   -1.326706
  H      3.390774   -0.118719   -2.942839
  H      5.068475    1.598504   -2.565728
  H      3.503356    2.363939   -2.804565
  C      2.399946   -1.389579    1.009490
  H      2.440750   -3.087118    2.362976
  H      3.844475   -2.970462    1.318677
  C      2.070177   -1.936705   -0.372401
  H      1.481611   -1.061542    1.509912
  H      3.008628   -0.490001    0.897451
  C      1.322238   -0.935775   -1.256413
  H      1.472747   -2.850902   -0.283997
  H      3.003539   -2.234041   -0.862535
  H      1.376444    1.058920   -2.047420
  H      2.015341    0.929780   -0.426535
  H      0.316648   -0.787213   -0.848278
  H      1.185611   -1.379252   -2.248613

 Total Charge           Charge          ....    0
 Multiplicity           Mult            ....    1
 Number of Electrons    NEL             ....  126
 Basis Dimension        Dim             ....  510

ORBITAL ENERGIES
----------------

  NO   OCC          E(Eh)            E(eV)
   0   2.0000     -24.869935      -676.7453
   1   2.0000     -19.249159      -523.7962
   2   2.0000     -14.378979      -391.2719
   3   2.0000     -14.360964      -390.7817
   4   2.0000     -10.435795      -283.9724
   5   2.0000     -10.272607      -279.5318
   6   2.0000     -10.257263      -279.1143
   7   2.0000     -10.256436      -279.0918
   8   2.0000     -10.252327      -278.9800
   9   2.0000     -10.241169      -278.6764
  10   2.0000     -10.233090      -278.4565
  11   2.0000     -10.228866      -278.3416
  12   2.0000     -10.223346      -278.1914
  13   2.0000     -10.218261      -278.0530
  14   2.0000     -10.217528      -278.0331
  15   2.0000     -10.117424      -275.3091
  16   2.0000      -1.357532       -36.9403
  17   2.0000      -1.080307       -29.3967
  18   2.0000      -0.964318       -26.2404
  19   2.0000      -0.879421       -23.9303
  20   2.0000      -0.855173       -23.2704
  21   2.0000      -0.823635       -22.4122
  22   2.0000      -0.792613       -21.5681
  23   2.0000      -0.756103       -20.5746
  24   2.0000      -0.731046       -19.8928
  25   2.0000      -0.697330       -18.9753
  26   2.0000      -0.689570       -18.7642
  27   2.0000      -0.655083       -17.8257
  28   2.0000      -0.625996       -17.0342
  29   2.0000      -0.610854       -16.6222
  30   2.0000      -0.591576       -16.0976
  31   2.0000      -0.585215       -15.9245
  32   2.0000      -0.583776       -15.8854
  33   2.0000      -0.566430       -15.4133
  34   2.0000      -0.539902       -14.6915
  35   2.0000      -0.525139       -14.2898
  36   2.0000      -0.502077       -13.6622
  37   2.0000      -0.499864       -13.6020
  38   2.0000      -0.489847       -13.3294
  39   2.0000      -0.478070       -13.0090
  40   2.0000      -0.470384       -12.7998
  41   2.0000      -0.451969       -12.2987
  42   2.0000      -0.447450       -12.1757
  43   2.0000      -0.438361       -11.9284
  44   2.0000      -0.432325       -11.7642
  45   2.0000      -0.425037       -11.5658
  46   2.0000      -0.409255       -11.1364
  47   2.0000      -0.399640       -10.8748
  48   2.0000      -0.396340       -10.7850
  49   2.0000      -0.389761       -10.6059
  50   2.0000      -0.380752       -10.3608
  51   2.0000      -0.368546       -10.0286
  52   2.0000      -0.366745        -9.9796
  53   2.0000      -0.356162        -9.6917
  54   2.0000      -0.353607        -9.6221
  55   2.0000      -0.347724        -9.4621
  56   2.0000      -0.337584        -9.1861
  57   2.0000      -0.326383        -8.8813
  58   2.0000      -0.324348        -8.8260
  59   2.0000      -0.320397        -8.7184
  60   2.0000      -0.314869        -8.5680
  61   2.0000      -0.246124        -6.6974
  62   2.0000      -0.153765        -4.1842
  63   0.0000      -0.046639        -1.2691
  64   0.0000       0.018449         0.5020
  65   0.0000       0.033856         0.9213
  66   0.0000       0.036672         0.9979
  67   0.0000       0.037181         1.0117

MULLIKEN ATOMIC CHARGES
-----------------------
   0 C :    1.089295
   1 N :   -0.005066
   2 C :    0.290327
   3 C :    0.116450
   4 H :   -0.024925
   5 H :    0.195904
   6 C :    0.800143
   7 C :    0.913545
   8 N :   -0.027977
   9 C :    0.868667
  10 H :   -0.229869
  11 H :   -0.802995
  12 H :   -0.879969
  13 H :   -0.087986
  14 H :   -0.184023
  15 O :   -0.683933
  16 F :   -0.566824
  17 C :    0.143490
  18 H :   -0.251709
  19 H :   -0.181530
  20 C :   -0.247315
  21 C :   -0.251417
  22 H :    0.076292
  23 H :   -0.105483
  24 H :    0.055742
  25 H :   -0.050191
  26 C :    0.394824
  27 H :   -0.112367
  28 H :    0.041427
  29 C :   -0.110637
  30 H :    0.026241
  31 H :   -0.688565
  32 C :    0.579683
  33 H :   -0.331048
  34 H :    0.180185
  35 H :   -0.330999
  36 H :    0.261673
  37 H :    0.074471
  38 H :    0.046467
Sum of atomic charges:    0.0000000

LOEWDIN ATOMIC CHARGES
----------------------
   0 C :    0.057999
   1 N :    0.005764
   2 C :   -0.020096
   3 C :    0.060405
   4 H :    0.042436
   5 H :    0.034626
   6 C :    0.066134
   7 C :   -0.211887
   8 N :    0.193849
   9 C :    0.160815
  10 H :   -0.097386
  11 H :   -0.164339
  12 H :   -0.084382
  13 H :   -0.031828
  14 H :    0.001067
  15 O :   -0.118361
  16 F :   -0.032040
  17 C :   -0.022482
  18 H :    0.027923
  19 H :    0.005107
  20 C :   -0.035612
  21 C :   -0.030696
  22 H :    0.018135
  23 H :    0.034512
  24 H :    0.028415
  25 H :    0.031763
  26 C :   -0.036054
  27 H :    0.021708
  28 H :    0.021539
  29 C :   -0.041910
  30 H :    0.037785
  31 H :   -0.021748
  32 C :   -0.033818
  33 H :    0.026255
  34 H :    0.020858
  35 H :    0.027202
  36 H :    0.010096
  37 H :    0.025156
  38 H :    0.023092

  Mayer bond orders larger than 0.100000
B(  0-C ,  1-N ) :   0.8742 B(  0-C , 12-H ) :  -0.4272 B(  0-C , 17-C ) :   1.0546
B(  0-C , 18-H ) :   0.6804 B(  0-C , 19-H ) :   0.8262 B(  0-C , 26-C ) :   0.1123
B(  1-N ,  7-C ) :   1.0264 B(  1-N ,  8-N ) :   0.1976 B(  1-N ,  9-C ) :   0.1193
B(  1-N , 12-H ) :   1.0862 B(  1-N , 18-H ) :   0.2010 B(  1-N , 19-H ) :   0.1038
B(  2-C ,  3-C ) :   1.1892 B(  2-C ,  4-H ) :   0.1532 B(  2-C , 21-C ) :   1.2684
B(  2-C , 24-H ) :   0.7207 B(  2-C , 25-H ) :   0.8597 B(  3-C ,  4-H ) :   0.7098
B(  3-C ,  5-H ) :   0.7749 B(  3-C ,  6-C ) :   1.2219 B(  3-C , 24-H ) :   0.1035
B(  3-C , 25-H ) :   0.1251 B(  4-H ,  6-C ) :   0.2454 B(  5-H ,  6-C ) :   0.1651
B(  6-C , 15-O ) :   1.5553 B(  6-C , 16-F ) :   0.4653 B(  7-C ,  8-N ) :   0.7117
B(  7-C ,  9-C ) :   1.6071 B(  7-C , 10-H ) :   0.2713 B(  7-C , 12-H ) :  -0.5905
B(  7-C , 14-H ) :  -0.1091 B(  7-C , 19-H ) :  -0.1010 B(  8-N ,  9-C ) :   0.2631
B(  8-N , 13-H ) :   1.0131 B(  8-N , 14-H ) :   1.2524 B(  8-N , 19-H ) :   0.1023
B(  9-C , 10-H ) :   0.5567 B(  9-C , 11-H ) :   0.3470 B( 10-H , 11-H ) :   0.2624
B( 11-H , 16-F ) :   0.2392 B( 12-H , 15-O ) :   0.1287 B( 12-H , 18-H ) :   0.1473
B( 13-H , 14-H ) :  -0.1826 B( 15-O , 16-F ) :   0.1035 B( 17-C , 19-H ) :   0.1392
B( 17-C , 26-C ) :   1.1211 B( 17-C , 27-H ) :   0.9684 B( 17-C , 28-H ) :   0.8973
B( 17-C , 30-H ) :   0.1198 B( 18-H , 19-H ) :  -0.1857 B( 20-C , 21-C ) :   1.2315
B( 20-C , 23-H ) :   0.1421 B( 20-C , 32-C ) :   1.1735 B( 20-C , 35-H ) :   1.0839
B( 20-C , 36-H ) :   0.7996 B( 20-C , 37-H ) :   0.2305 B( 20-C , 38-H ) :   0.1347
B( 21-C , 22-H ) :   0.9073 B( 21-C , 23-H ) :   0.9197 B( 21-C , 24-H ) :   0.2038
B( 21-C , 25-H ) :   0.1614 B( 21-C , 35-H ) :   0.1186 B( 26-C , 27-H ) :   0.1508
B( 26-C , 29-C ) :   1.2595 B( 26-C , 30-H ) :   0.6819 B( 26-C , 31-H ) :   0.5696
B( 26-C , 33-H ) :   0.1016 B( 26-C , 34-H ) :   0.1376 B( 29-C , 32-C ) :   1.1319
B( 29-C , 33-H ) :   1.0904 B( 29-C , 34-H ) :   0.8270 B( 29-C , 37-H ) :   0.1133
B( 29-C , 38-H ) :   0.1907 B( 30-H , 31-H ) :   0.2612 B( 32-C , 37-H ) :   0.7027
B( 32-C , 38-H ) :   0.7265

Dispersion correction           -0.038962809
FINAL SINGLE POINT ENERGY      -754.319249767706

DIPOLE MOMENT
-------------
                                X             Y             Z
Electronic contribution:     12.39360       8.53482       4.38064
Nuclear contribution   :    -13.25777      -8.13937      -5.31678
                        -----------------------------------------
Total Dipole Moment    :     -0.86416       0.39545      -0.93614
                        -----------------------------------------
Magnitude (a.u.)       :      1.33398
Magnitude (Debye)      :      3.39072

Rotational constants in cm-1:     0.020021     0.013636     0.009443
Rotational constants in MHz :   600.208195   408.782966   283.102361

                             ****ORCA TERMINATED NORMALLY****
TOTAL RUN TIME: 0 days 0 hours 4 minutes 17 seconds 492 msec
