                         Program Version 5.0.0 -  RELEASE  -
|  1> !wB97X-D3 RIJCOSX def2-SVP def2/J TightSCF
|  2> *xyz -1 1
|  3> C         -0.01741        0.08059       -2.77841
|  4> C         -0.90349       -0.87394       -1.98739
|  5> H         -0.50255       -1.89210       -2.08120
|  6> H         -1.91704       -0.89543       -2.40628
|  7> C         -0.96015       -0.52236       -0.48987
|  8> H         -1.69039       -1.20813       -0.02168
|  9> H         -1.41449        0.48633       -0.40668
| 10> O          0.26170       -0.58031        0.13861
| 11> H         -0.01329       -0.20776       -3.80881
| 12> H          0.98025        0.04284       -2.39348
| 13> H         -0.39697        1.07694       -2.68836
| 14> *
| 15>
| 16> %MaxCore 64000
| 17>
| 18> %pal nprocs 18
| 19> end
| 20>
| 21> %scf
| 22>   MaxIter 150
| 23> end
| 24>
| 25>
| 26>                          ****END OF INPUT****

CARTESIAN COORDINATES (ANGSTROEM)
---------------------------------
  C     -0.017410    0.080590   -2.778410
  C     -0.903490   -0.873940   -1.987390
  H     -0.502550   -1.892100   -2.081200
  H     -1.917040   -0.895430   -2.406280
  C     -0.960150   -0.522360   -0.489870
  H     -1.690390   -1.208130   -0.021680
  H     -1.414490    0.486330   -0.406680
  O      0.261700   -0.580310    0.138610
  H     -0.013290   -0.207760   -3.808810
  H      0.980250    0.042840   -2.393480
  H     -0.396970    1.076940   -2.688360

 Total Charge           Charge          ....   -1
 Multiplicity           Mult            ....    1
 Number of Electrons    NEL             ....   34
 Basis Dimension        Dim             ....   91

ORBITAL ENERGIES
----------------

  NO   OCC          E(Eh)            E(eV)
   0   2.0000     -18.855992      -513.0976
   1   2.0000     -10.099206      -274.8134
   2   2.0000     -10.083627      -274.3894
   3   2.0000     -10.081360      -274.3277
   4   2.0000      -0.750297       -20.4166
   5   2.0000      -0.677951       -18.4480
   6   2.0000      -0.558667       -15.2021
   7   2.0000      -0.451801       -12.2941
   8   2.0000      -0.364188        -9.9101
   9   2.0000      -0.355777        -9.6812
  10   2.0000      -0.303267        -8.2523
  11   2.0000      -0.269997        -7.3470
  12   2.0000      -0.239470        -6.5163
  13   2.0000      -0.231785        -6.3072
  14   2.0000      -0.167723        -4.5640
  15   2.0000      -0.022109        -0.6016
  16   2.0000      -0.018084        -0.4921
  17   0.0000       0.312760         8.5106
  18   0.0000       0.353122         9.6089
  19   0.0000       0.359150         9.7730
  20   0.0000       0.385454        10.4887
  21   0.0000       0.395909        10.7732

MULLIKEN ATOMIC CHARGES
-----------------------
   0 C :    0.012998
   1 C :   -0.044505
   2 H :   -0.046235
   3 H :   -0.088189
   4 C :    0.278157
   5 H :   -0.152498
   6 H :   -0.161634
   7 O :   -0.722502
   8 H :   -0.047032
   9 H :    0.000116
  10 H :   -0.028677
Sum of atomic charges:   -1.0000000

LOEWDIN ATOMIC CHARGES
----------------------
   0 C :   -0.069179
   1 C :   -0.086819
   2 H :   -0.007245
   3 H :   -0.026503
   4 C :    0.013581
   5 H :   -0.073148
   6 H :   -0.075918
   7 O :   -0.676404
   8 H :   -0.010819
   9 H :    0.010743
  10 H :    0.001711

  Mayer bond orders larger than 0.100000
B(  0-C ,  1-C ) :   1.0764 B(  0-C ,  8-H ) :   0.9702 B(  0-C ,  9-H ) :   0.9562
B(  0-C , 10-H ) :   0.9687 B(  1-C ,  2-H ) :   0.9407 B(  1-C ,  3-H ) :   0.9236
B(  1-C ,  4-C ) :   0.9809 B(  4-C ,  5-H ) :   0.8876 B(  4-C ,  6-H ) :   0.8705
B(  4-C ,  7-O ) :   1.4793

Dispersion correction           -0.001939174
FINAL SINGLE POINT ENERGY      -193.513340891559

DIPOLE MOMENT
-------------
                                X             Y             Z
Electronic contribution:      1.45347      -0.51744       2.85189
Nuclear contribution   :     -2.03764       0.64089      -4.61583
                        -----------------------------------------
Total Dipole Moment    :     -0.58417       0.12345      -1.76394
                        -----------------------------------------
Magnitude (a.u.)       :      1.86225
Magnitude (Debye)      :      4.73347

Rotational constants in cm-1:     0.508897     0.174909     0.148249
Rotational constants in MHz : 15256.351998  5243.652192  4444.387232

                             ****ORCA TERMINATED NORMALLY****
TOTAL RUN TIME: 0 days 0 hours 0 minutes 4 seconds 763 msec
