                         Program Version 5.0.0 -  RELEASE  -
|  1> !wB97X-D3 RIJCOSX def2-SVP def2/J TightSCF
|  2> *xyz 1 1
|  3> C          4.36645       -0.13321       -1.41606
|  4> C          4.50829       -0.93187       -2.72425
|  5> H          4.75372       -1.97205       -2.48841
|  6> C          3.29416       -0.91821       -3.65657
|  7> H          5.38564       -0.53624       -3.24264
|  8> C          3.05650       -0.32080       -0.70738
|  9> N          2.38983        0.71129       -0.24391
| 10> N          2.51600       -1.50772       -0.55023
| 11> H          2.96768       -2.32291       -0.95631
| 12> H          1.54987       -1.49063       -0.24988
| 13> H          2.74307        1.64947       -0.41280
| 14> H          1.44036        0.50278        0.03703
| 15> H          4.48784        0.93300       -1.61157
| 16> H          5.16967       -0.41443       -0.72982
| 17> H          3.50670       -1.50229       -4.52754
| 18> H          3.07837        0.08892       -3.94644
| 19> H          2.44880       -1.33173       -3.14739
| 20> *
| 21>
| 22> %MaxCore 64000
| 23>
| 24> %pal nprocs 18
| 25> end
| 26>
| 27> %scf
| 28>   MaxIter 150
| 29> end
| 30>
| 31>
| 32>                          ****END OF INPUT****

CARTESIAN COORDINATES (ANGSTROEM)
---------------------------------
  C      4.366450   -0.133210   -1.416060
  C      4.508290   -0.931870   -2.724250
  H      4.753720   -1.972050   -2.488410
  C      3.294160   -0.918210   -3.656570
  H      5.385640   -0.536240   -3.242640
  C      3.056500   -0.320800   -0.707380
  N      2.389830    0.711290   -0.243910
  N      2.516000   -1.507720   -0.550230
  H      2.967680   -2.322910   -0.956310
  H      1.549870   -1.490630   -0.249880
  H      2.743070    1.649470   -0.412800
  H      1.440360    0.502780    0.037030
  H      4.487840    0.933000   -1.611570
  H      5.169670   -0.414430   -0.729820
  H      3.506700   -1.502290   -4.527540
  H      3.078370    0.088920   -3.946440
  H      2.448800   -1.331730   -3.147390

 Total Charge           Charge          ....    1
 Multiplicity           Mult            ....    1
 Number of Electrons    NEL             ....   48
 Basis Dimension        Dim             ....  139

ORBITAL ENERGIES
----------------

  NO   OCC          E(Eh)            E(eV)
   0   2.0000     -14.681629      -399.5074
   1   2.0000     -14.680115      -399.4662
   2   2.0000     -10.610849      -288.7359
   3   2.0000     -10.485688      -285.3301
   4   2.0000     -10.452178      -284.4182
   5   2.0000     -10.419286      -283.5232
   6   2.0000      -1.321988       -35.9731
   7   2.0000      -1.212192       -32.9854
   8   2.0000      -1.086134       -29.5552
   9   2.0000      -0.997665       -27.1479
  10   2.0000      -0.935895       -25.4670
  11   2.0000      -0.897051       -24.4100
  12   2.0000      -0.868949       -23.6453
  13   2.0000      -0.836990       -22.7756
  14   2.0000      -0.802464       -21.8362
  15   2.0000      -0.762709       -20.7544
  16   2.0000      -0.732269       -19.9260
  17   2.0000      -0.693180       -18.8624
  18   2.0000      -0.678114       -18.4524
  19   2.0000      -0.658715       -17.9245
  20   2.0000      -0.602816       -16.4034
  21   2.0000      -0.597889       -16.2694
  22   2.0000      -0.588919       -16.0253
  23   2.0000      -0.579812       -15.7775
  24   0.0000      -0.123033        -3.3479
  25   0.0000      -0.059303        -1.6137
  26   0.0000      -0.016844        -0.4583
  27   0.0000      -0.009135        -0.2486
  28   0.0000       0.024651         0.6708

MULLIKEN ATOMIC CHARGES
-----------------------
   0 C :    0.039605
   1 C :   -0.160668
   2 H :    0.061231
   3 C :   -0.014950
   4 H :    0.091146
   5 C :   -0.090093
   6 N :   -0.009814
   7 N :   -0.010784
   8 H :    0.201792
   9 H :    0.180445
  10 H :    0.201547
  11 H :    0.178122
  12 H :    0.064318
  13 H :    0.123736
  14 H :    0.082540
  15 H :    0.053034
  16 H :    0.008794
Sum of atomic charges:    1.0000000

LOEWDIN ATOMIC CHARGES
----------------------
   0 C :   -0.037252
   1 C :   -0.036003
   2 H :    0.032448
   3 C :   -0.052284
   4 H :    0.055202
   5 C :    0.159102
   6 N :    0.093899
   7 N :    0.091639
   8 H :    0.123308
   9 H :    0.110559
  10 H :    0.125495
  11 H :    0.110472
  12 H :    0.052957
  13 H :    0.077123
  14 H :    0.049242
  15 H :    0.032872
  16 H :    0.011222

  Mayer bond orders larger than 0.100000
B(  0-C ,  1-C ) :   1.0462 B(  0-C ,  5-C ) :   0.9981 B(  0-C , 12-H ) :   0.9259
B(  0-C , 13-H ) :   0.9145 B(  1-C ,  2-H ) :   0.9507 B(  1-C ,  3-C ) :   1.0779
B(  1-C ,  4-H ) :   0.9464 B(  3-C , 14-H ) :   0.9663 B(  3-C , 15-H ) :   0.9756
B(  3-C , 16-H ) :   0.9623 B(  5-C ,  6-N ) :   1.5218 B(  5-C ,  7-N ) :   1.4959
B(  6-N , 10-H ) :   0.9121 B(  6-N , 11-H ) :   0.9254 B(  7-N ,  8-H ) :   0.9165
B(  7-N ,  9-H ) :   0.9252

Dispersion correction           -0.004608190
FINAL SINGLE POINT ENERGY      -268.077610804713

DIPOLE MOMENT
-------------
                                X             Y             Z
Electronic contribution:     -1.83247       0.90345       5.07763
Nuclear contribution   :      0.92830      -0.63755      -3.99475
                        -----------------------------------------
Total Dipole Moment    :     -0.90416       0.26590       1.08288
                        -----------------------------------------
Magnitude (a.u.)       :      1.43556
Magnitude (Debye)      :      3.64891

Rotational constants in cm-1:     0.183706     0.077449     0.071296
Rotational constants in MHz :  5507.368439  2321.870034  2137.394204

                             ****ORCA TERMINATED NORMALLY****
TOTAL RUN TIME: 0 days 0 hours 0 minutes 9 seconds 640 msec
