                         Program Version 5.0.0 -  RELEASE  -
|  1> !wB97X-D3 RIJCOSX def2-SVP def2/J TightSCF xyzfile
|  2>
|  3> *xyzfile 0 1 B.xyz
|  4>
|  5> %MaxCore 64000
|  6>
|  7> %pal nprocs 18
|  8> end
|  9>
| 10> %scf
| 11>   MaxIter 150
| 12> end
| 13>
| 14>
| 15>                          ****END OF INPUT****

CARTESIAN COORDINATES (ANGSTROEM)
---------------------------------
  C      4.366454   -0.133215   -1.416062
  C      4.508292   -0.931872   -2.724249
  H      4.753716   -1.972051   -2.488408
  C      3.294164   -0.918214   -3.656570
  H      5.385637   -0.536236   -3.242640
  H      2.483463   -1.477378   -3.185764
  H      3.553092   -1.478495   -4.560331
  C      2.772335    0.460100   -4.051448
  H      2.608762    1.065107   -3.155194
  C      1.465354    0.410537   -4.853644
  H      3.532940    0.988848   -4.635671
  C      0.326171   -0.375613   -4.192580
  H      1.666704   -0.022269   -5.839323
  H      1.138198    1.439246   -5.035449
  C     -0.017405    0.080588   -2.778406
  H      0.585573   -1.439385   -4.168057
  H     -0.560005   -0.311425   -4.831461
  H      0.902090    0.201296   -2.206729
  C     -0.903495   -0.873945   -1.987388
  H     -0.479549    1.074657   -2.811915
  H     -0.502554   -1.892096   -2.081204
  H     -1.917039   -0.895427   -2.406277
  C     -0.960148   -0.522365   -0.489867
  H     -1.690392   -1.208130   -0.021677
  H     -1.414490    0.486329   -0.406677
  O      0.261703   -0.580307    0.138611
  C      3.056503   -0.320797   -0.707384
  N      2.389825    0.711285   -0.243909
  N      2.515999   -1.507721   -0.550229
  H      2.967683   -2.322915   -0.956305
  H      1.549872   -1.490634   -0.249876
  H      2.743071    1.649471   -0.412802
  H      1.440364    0.502778    0.037031
  H      4.487835    0.932997   -1.611569
  H      5.169672   -0.414432   -0.729817

 Total Charge           Charge          ....    0
 Multiplicity           Mult            ....    1
 Number of Electrons    NEL             ....  104
 Basis Dimension        Dim             ....  292

ORBITAL ENERGIES
----------------

  NO   OCC          E(Eh)            E(eV)
   0   2.0000     -19.095038      -519.6024
   1   2.0000     -14.461079      -393.5060
   2   2.0000     -14.461017      -393.5043
   3   2.0000     -10.414706      -283.3986
   4   2.0000     -10.335401      -281.2406
   5   2.0000     -10.320659      -280.8394
   6   2.0000     -10.298787      -280.2442
   7   2.0000     -10.292104      -280.0624
   8   2.0000     -10.282544      -279.8022
   9   2.0000     -10.271074      -279.4901
  10   2.0000     -10.263033      -279.2713
  11   2.0000     -10.256675      -279.0983
  12   2.0000     -10.240687      -278.6633
  13   2.0000      -1.116021       -30.3685
  14   2.0000      -1.005505       -27.3612
  15   2.0000      -0.978203       -26.6183
  16   2.0000      -0.946760       -25.7627
  17   2.0000      -0.908875       -24.7317
  18   2.0000      -0.867495       -23.6058
  19   2.0000      -0.826799       -22.4984
  20   2.0000      -0.787256       -21.4223
  21   2.0000      -0.742927       -20.2161
  22   2.0000      -0.726324       -19.7643
  23   2.0000      -0.714400       -19.4398
  24   2.0000      -0.671041       -18.2599
  25   2.0000      -0.654414       -17.8075
  26   2.0000      -0.651431       -17.7263
  27   2.0000      -0.624335       -16.9890
  28   2.0000      -0.606972       -16.5165
  29   2.0000      -0.600868       -16.3504
  30   2.0000      -0.585795       -15.9403
  31   2.0000      -0.563691       -15.3388
  32   2.0000      -0.547439       -14.8966
  33   2.0000      -0.528258       -14.3746
  34   2.0000      -0.518434       -14.1073
  35   2.0000      -0.510473       -13.8907
  36   2.0000      -0.503986       -13.7142
  37   2.0000      -0.499673       -13.5968
  38   2.0000      -0.475429       -12.9371
  39   2.0000      -0.465664       -12.6714
  40   2.0000      -0.456276       -12.4159
  41   2.0000      -0.446348       -12.1457
  42   2.0000      -0.435957       -11.8630
  43   2.0000      -0.430537       -11.7155
  44   2.0000      -0.409465       -11.1421
  45   2.0000      -0.402721       -10.9586
  46   2.0000      -0.393069       -10.6959
  47   2.0000      -0.389021       -10.5858
  48   2.0000      -0.382201       -10.4002
  49   2.0000      -0.373364       -10.1598
  50   2.0000      -0.260150        -7.0790
  51   2.0000      -0.253638        -6.9018
  52   0.0000       0.064061         1.7432
  53   0.0000       0.105093         2.8597
  54   0.0000       0.127244         3.4625
  55   0.0000       0.147867         4.0237
  56   0.0000       0.155710         4.2371

MULLIKEN ATOMIC CHARGES
-----------------------
   0 C :    0.054601
   1 C :   -0.056252
   2 H :    0.033275
   3 C :   -0.033137
   4 H :    0.039810
   5 H :    0.009881
   6 H :    0.029308
   7 C :   -0.050667
   8 H :    0.001321
   9 C :    0.006020
  10 H :    0.017757
  11 C :   -0.030730
  12 H :    0.016704
  13 H :    0.019282
  14 C :   -0.032214
  15 H :    0.009158
  16 H :    0.018032
  17 H :   -0.049168
  18 C :   -0.053296
  19 H :    0.003304
  20 H :   -0.017106
  21 H :   -0.005427
  22 C :    0.272335
  23 H :   -0.040075
  24 H :   -0.054900
  25 O :   -0.656170
  26 C :   -0.124186
  27 N :   -0.001585
  28 N :    0.007503
  29 H :    0.139977
  30 H :    0.138491
  31 H :    0.137828
  32 H :    0.149467
  33 H :    0.028790
  34 H :    0.072069
Sum of atomic charges:   -0.0000000

LOEWDIN ATOMIC CHARGES
----------------------
   0 C :   -0.044915
   1 C :   -0.034302
   2 H :    0.024636
   3 C :   -0.045468
   4 H :    0.033820
   5 H :    0.017582
   6 H :    0.030038
   7 C :   -0.043786
   8 H :    0.010116
   9 C :   -0.036068
  10 H :    0.021988
  11 C :   -0.042056
  12 H :    0.020960
  13 H :    0.023377
  14 C :   -0.048534
  15 H :    0.014077
  16 H :    0.023318
  17 H :    0.003194
  18 C :   -0.068239
  19 H :    0.018102
  20 H :    0.005764
  21 H :    0.011231
  22 C :    0.037386
  23 H :   -0.017402
  24 H :   -0.023192
  25 O :   -0.498989
  26 C :    0.125117
  27 N :    0.083149
  28 N :    0.077721
  29 H :    0.085182
  30 H :    0.030946
  31 H :    0.086047
  32 H :    0.029786
  33 H :    0.035482
  34 H :    0.053934

  Mayer bond orders larger than 0.100000
B(  0-C ,  1-C ) :   1.0616 B(  0-C , 26-C ) :   1.0053 B(  0-C , 33-H ) :   0.9278
B(  0-C , 34-H ) :   0.9213 B(  1-C ,  2-H ) :   0.9480 B(  1-C ,  3-C ) :   1.0816
B(  1-C ,  4-H ) :   0.9452 B(  3-C ,  5-H ) :   0.9307 B(  3-C ,  6-H ) :   0.9423
B(  3-C ,  7-C ) :   1.0573 B(  7-C ,  8-H ) :   0.9385 B(  7-C ,  9-C ) :   1.0795
B(  7-C , 10-H ) :   0.9475 B(  9-C , 11-C ) :   1.0742 B(  9-C , 12-H ) :   0.9496
B(  9-C , 13-H ) :   0.9477 B( 11-C , 14-C ) :   1.0598 B( 11-C , 15-H ) :   0.9458
B( 11-C , 16-H ) :   0.9425 B( 14-C , 17-H ) :   0.9278 B( 14-C , 18-C ) :   1.0678
B( 14-C , 19-H ) :   0.9399 B( 18-C , 20-H ) :   0.9423 B( 18-C , 21-H ) :   0.9412
B( 18-C , 22-C ) :   1.0283 B( 22-C , 23-H ) :   0.9383 B( 22-C , 24-H ) :   0.9343
B( 22-C , 25-O ) :   1.1584 B( 25-O , 30-H ) :   0.2793 B( 25-O , 32-H ) :   0.2767
B( 26-C , 27-N ) :   1.5300 B( 26-C , 28-N ) :   1.5449 B( 27-N , 31-H ) :   0.9318
B( 27-N , 32-H ) :   0.7789 B( 28-N , 29-H ) :   0.9327 B( 28-N , 30-H ) :   0.7781

Dispersion correction           -0.017913791
FINAL SINGLE POINT ENERGY      -578.470983384439

DIPOLE MOMENT
-------------
                                X             Y             Z
Electronic contribution:      2.89651      -0.26908       7.62924
Nuclear contribution   :     -0.17996       0.53390      -8.68067
                        -----------------------------------------
Total Dipole Moment    :      2.71655       0.26482      -1.05143
                        -----------------------------------------
Magnitude (a.u.)       :      2.92494
Magnitude (Debye)      :      7.43461

Rotational constants in cm-1:     0.028240     0.022734     0.014600
Rotational constants in MHz :   846.611263   681.554306   437.693928

                             ****ORCA TERMINATED NORMALLY****
TOTAL RUN TIME: 0 days 0 hours 0 minutes 33 seconds 799 msec
