                         Program Version 5.0.0 -  RELEASE  -
|  1> !wB97X-D3 RIJCOSX def2-SVP def2/J TightSCF
|  2> *xyz 0 1
|  3> C         -0.01741        0.08059       -2.77841
|  4> C         -0.90349       -0.87394       -1.98739
|  5> H         -0.50255       -1.89210       -2.08120
|  6> H         -1.91704       -0.89543       -2.40628
|  7> C         -0.96015       -0.52236       -0.48987
|  8> H         -1.69039       -1.20813       -0.02168
|  9> H         -1.41449        0.48633       -0.40668
| 10> F          0.26170       -0.58031        0.13861
| 11> H         -0.01329       -0.20776       -3.80881
| 12> H          0.98025        0.04284       -2.39348
| 13> H         -0.39697        1.07694       -2.68836
| 14> *
| 15>
| 16> %MaxCore 64000
| 17>
| 18> %pal nprocs 18
| 19> end
| 20>
| 21> %scf
| 22>   MaxIter 150
| 23> end
| 24>
| 25>
| 26>                          ****END OF INPUT****

CARTESIAN COORDINATES (ANGSTROEM)
---------------------------------
  C     -0.017410    0.080590   -2.778410
  C     -0.903490   -0.873940   -1.987390
  H     -0.502550   -1.892100   -2.081200
  H     -1.917040   -0.895430   -2.406280
  C     -0.960150   -0.522360   -0.489870
  H     -1.690390   -1.208130   -0.021680
  H     -1.414490    0.486330   -0.406680
  F      0.261700   -0.580310    0.138610
  H     -0.013290   -0.207760   -3.808810
  H      0.980250    0.042840   -2.393480
  H     -0.396970    1.076940   -2.688360

 Total Charge           Charge          ....    0
 Multiplicity           Mult            ....    1
 Number of Electrons    NEL             ....   34
 Basis Dimension        Dim             ....   91

ORBITAL ENERGIES
----------------

  NO   OCC          E(Eh)            E(eV)
   0   2.0000     -24.769209      -674.0044
   1   2.0000     -10.361449      -281.9494
   2   2.0000     -10.292671      -280.0778
   3   2.0000     -10.274602      -279.5861
   4   2.0000      -1.283735       -34.9322
   5   2.0000      -0.898381       -24.4462
   6   2.0000      -0.793864       -21.6021
   7   2.0000      -0.698399       -19.0044
   8   2.0000      -0.604018       -16.4362
   9   2.0000      -0.590510       -16.0686
  10   2.0000      -0.564641       -15.3647
  11   2.0000      -0.532636       -14.4938
  12   2.0000      -0.494609       -13.4590
  13   2.0000      -0.469533       -12.7766
  14   2.0000      -0.445641       -12.1265
  15   2.0000      -0.417016       -11.3476
  16   2.0000      -0.414912       -11.2903
  17   0.0000       0.145816         3.9679
  18   0.0000       0.186715         5.0808
  19   0.0000       0.189422         5.1544
  20   0.0000       0.209668         5.7054
  21   0.0000       0.217766         5.9257

MULLIKEN ATOMIC CHARGES
-----------------------
   0 C :   -0.029032
   1 C :   -0.158671
   2 H :    0.040418
   3 H :    0.035711
   4 C :    0.249819
   5 H :    0.025179
   6 H :    0.017200
   7 F :   -0.274738
   8 H :    0.031788
   9 H :    0.040506
  10 H :    0.021819
Sum of atomic charges:   -0.0000000

LOEWDIN ATOMIC CHARGES
----------------------
   0 C :   -0.057207
   1 C :   -0.069199
   2 H :    0.027295
   3 H :    0.030709
   4 C :    0.115446
   5 H :    0.012610
   6 H :    0.010443
   7 F :   -0.141697
   8 H :    0.024616
   9 H :    0.026528
  10 H :    0.020455

  Mayer bond orders larger than 0.100000
B(  0-C ,  1-C ) :   1.0760 B(  0-C ,  8-H ) :   0.9755 B(  0-C ,  9-H ) :   0.9748
B(  0-C , 10-H ) :   0.9777 B(  1-C ,  2-H ) :   0.9536 B(  1-C ,  3-H ) :   0.9495
B(  1-C ,  4-C ) :   1.0603 B(  4-C ,  5-H ) :   0.9616 B(  4-C ,  6-H ) :   0.9568
B(  4-C ,  7-F ) :   0.9850

Dispersion correction           -0.001913354
FINAL SINGLE POINT ENERGY      -218.150938192154

DIPOLE MOMENT
-------------
                                X             Y             Z
Electronic contribution:      2.27532      -0.77197       5.92964
Nuclear contribution   :     -2.83598       0.77614      -6.32113
                        -----------------------------------------
Total Dipole Moment    :     -0.56067       0.00417      -0.39149
                        -----------------------------------------
Magnitude (a.u.)       :      0.68384
Magnitude (Debye)      :      1.73817

Rotational constants in cm-1:     0.494803     0.164634     0.139827
Rotational constants in MHz : 14833.819345  4935.593559  4191.919783

                             ****ORCA TERMINATED NORMALLY****
TOTAL RUN TIME: 0 days 0 hours 0 minutes 5 seconds 536 msec
