                         Program Version 5.0.0 -  RELEASE  -
|  1> !wB97X-D3 RIJCOSX def2-SVP def2/J TightSCF
|  2> *xyz 0 1
|  3> C          4.36645       -0.13321       -1.41606
|  4> C          4.50829       -0.93187       -2.72425
|  5> H          4.75372       -1.97205       -2.48841
|  6> C          3.29416       -0.91821       -3.65657
|  7> H          5.38564       -0.53624       -3.24264
|  8> C          3.05650       -0.32080       -0.70738
|  9> C          2.38983        0.71129       -0.24391
| 10> N          2.51600       -1.50772       -0.55023
| 11> H          2.96768       -2.32291       -0.95631
| 12> H          1.54987       -1.49063       -0.24988
| 13> H          2.74307        1.64947       -0.41280
| 14> H          1.44036        0.50278        0.03703
| 15> H          4.48784        0.93300       -1.61157
| 16> H          5.16967       -0.41443       -0.72982
| 17> H          3.50670       -1.50229       -4.52754
| 18> H          3.07837        0.08892       -3.94644
| 19> H          2.44880       -1.33173       -3.14739
| 20> *
| 21>
| 22> %MaxCore 64000
| 23>
| 24> %pal nprocs 18
| 25> end
| 26>
| 27> %scf
| 28>   MaxIter 150
| 29> end
| 30>
| 31>
| 32>                          ****END OF INPUT****

CARTESIAN COORDINATES (ANGSTROEM)
---------------------------------
  C      4.366450   -0.133210   -1.416060
  C      4.508290   -0.931870   -2.724250
  H      4.753720   -1.972050   -2.488410
  C      3.294160   -0.918210   -3.656570
  H      5.385640   -0.536240   -3.242640
  C      3.056500   -0.320800   -0.707380
  C      2.389830    0.711290   -0.243910
  N      2.516000   -1.507720   -0.550230
  H      2.967680   -2.322910   -0.956310
  H      1.549870   -1.490630   -0.249880
  H      2.743070    1.649470   -0.412800
  H      1.440360    0.502780    0.037030
  H      4.487840    0.933000   -1.611570
  H      5.169670   -0.414430   -0.729820
  H      3.506700   -1.502290   -4.527540
  H      3.078370    0.088920   -3.946440
  H      2.448800   -1.331730   -3.147390

 Total Charge           Charge          ....    0
 Multiplicity           Mult            ....    1
 Number of Electrons    NEL             ....   48
 Basis Dimension        Dim             ....  139

ORBITAL ENERGIES
----------------

  NO   OCC          E(Eh)            E(eV)
   0   2.0000     -14.429328      -392.6420
   1   2.0000     -10.301951      -280.3303
   2   2.0000     -10.289561      -279.9932
   3   2.0000     -10.286268      -279.9036
   4   2.0000     -10.271324      -279.4969
   5   2.0000     -10.215500      -277.9779
   6   2.0000      -1.037276       -28.2257
   7   2.0000      -0.900885       -24.5143
   8   2.0000      -0.841403       -22.8957
   9   2.0000      -0.790182       -21.5019
  10   2.0000      -0.705646       -19.2016
  11   2.0000      -0.658446       -17.9172
  12   2.0000      -0.630939       -17.1687
  13   2.0000      -0.559076       -15.2132
  14   2.0000      -0.553525       -15.0622
  15   2.0000      -0.551440       -15.0054
  16   2.0000      -0.490452       -13.3459
  17   2.0000      -0.487189       -13.2571
  18   2.0000      -0.474521       -12.9124
  19   2.0000      -0.457246       -12.4423
  20   2.0000      -0.425411       -11.5760
  21   2.0000      -0.424856       -11.5609
  22   2.0000      -0.411359       -11.1937
  23   2.0000      -0.271235        -7.3807
  24   0.0000       0.128205         3.4886
  25   0.0000       0.138706         3.7744
  26   0.0000       0.176733         4.8092
  27   0.0000       0.179526         4.8852
  28   0.0000       0.195809         5.3282

MULLIKEN ATOMIC CHARGES
-----------------------
   0 C :    0.088198
   1 C :   -0.136845
   2 H :    0.018014
   3 C :    0.005604
   4 H :    0.031377
   5 C :   -0.176935
   6 C :   -0.056553
   7 N :   -0.087532
   8 H :    0.123444
   9 H :    0.128936
  10 H :   -0.023563
  11 H :   -0.041696
  12 H :    0.019599
  13 H :    0.040035
  14 H :    0.026686
  15 H :    0.028799
  16 H :    0.012431
Sum of atomic charges:   -0.0000000

LOEWDIN ATOMIC CHARGES
----------------------
   0 C :   -0.031508
   1 C :   -0.047620
   2 H :    0.015150
   3 C :   -0.056784
   4 H :    0.027294
   5 C :    0.005624
   6 C :   -0.177888
   7 N :   -0.012751
   8 H :    0.071900
   9 H :    0.080823
  10 H :    0.000388
  11 H :   -0.007336
  12 H :    0.034521
  13 H :    0.034528
  14 H :    0.023674
  15 H :    0.024684
  16 H :    0.015302

  Mayer bond orders larger than 0.100000
B(  0-C ,  1-C ) :   1.0561 B(  0-C ,  5-C ) :   1.0114 B(  0-C , 12-H ) :   0.9336
B(  0-C , 13-H ) :   0.9364 B(  1-C ,  2-H ) :   0.9539 B(  1-C ,  3-C ) :   1.0810
B(  1-C ,  4-H ) :   0.9553 B(  3-C , 14-H ) :   0.9715 B(  3-C , 15-H ) :   0.9751
B(  3-C , 16-H ) :   0.9616 B(  5-C ,  6-C ) :   1.8701 B(  5-C ,  7-N ) :   1.2512
B(  6-C , 10-H ) :   0.9521 B(  6-C , 11-H ) :   0.9515 B(  7-N ,  8-H ) :   0.9501
B(  7-N ,  9-H ) :   0.9426

Dispersion correction           -0.004632034
FINAL SINGLE POINT ENERGY      -251.617258404570

DIPOLE MOMENT
-------------
                                X             Y             Z
Electronic contribution:     -0.64890      -0.35229       3.30573
Nuclear contribution   :      0.70803      -0.34641      -3.68680
                        -----------------------------------------
Total Dipole Moment    :      0.05913      -0.69870      -0.38108
                        -----------------------------------------
Magnitude (a.u.)       :      0.79806
Magnitude (Debye)      :      2.02850

Rotational constants in cm-1:     0.186653     0.080341     0.073591
Rotational constants in MHz :  5595.710092  2408.571280  2206.200061

                             ****ORCA TERMINATED NORMALLY****
TOTAL RUN TIME: 0 days 0 hours 0 minutes 9 seconds 974 msec
