                         Program Version 5.0.0 -  RELEASE  -
|  1> !wB97X-D3 RIJCOSX def2-SVP def2/J TightSCF
|  2> *xyz 0 1
|  3> C          4.36645       -0.13321       -1.41606
|  4> C          4.50829       -0.93187       -2.72425
|  5> H          4.75372       -1.97205       -2.48841
|  6> C          3.29416       -0.91821       -3.65657
|  7> H          5.38564       -0.53624       -3.24264
|  8> C          3.05650       -0.32080       -0.70738
|  9> N          2.38983        0.71129       -0.24391
| 10> C          2.51600       -1.50772       -0.55023
| 11> H          2.96768       -2.32291       -0.95631
| 12> H          1.54987       -1.49063       -0.24988
| 13> H          2.74307        1.64947       -0.41280
| 14> H          1.44036        0.50278        0.03703
| 15> H          4.48784        0.93300       -1.61157
| 16> H          5.16967       -0.41443       -0.72982
| 17> H          3.50670       -1.50229       -4.52754
| 18> H          3.07837        0.08892       -3.94644
| 19> H          2.44880       -1.33173       -3.14739
| 20> *
| 21>
| 22> %MaxCore 64000
| 23>
| 24> %pal nprocs 18
| 25> end
| 26>
| 27> %scf
| 28>   MaxIter 150
| 29> end
| 30>
| 31>
| 32>                          ****END OF INPUT****

CARTESIAN COORDINATES (ANGSTROEM)
---------------------------------
  C      4.366450   -0.133210   -1.416060
  C      4.508290   -0.931870   -2.724250
  H      4.753720   -1.972050   -2.488410
  C      3.294160   -0.918210   -3.656570
  H      5.385640   -0.536240   -3.242640
  C      3.056500   -0.320800   -0.707380
  N      2.389830    0.711290   -0.243910
  C      2.516000   -1.507720   -0.550230
  H      2.967680   -2.322910   -0.956310
  H      1.549870   -1.490630   -0.249880
  H      2.743070    1.649470   -0.412800
  H      1.440360    0.502780    0.037030
  H      4.487840    0.933000   -1.611570
  H      5.169670   -0.414430   -0.729820
  H      3.506700   -1.502290   -4.527540
  H      3.078370    0.088920   -3.946440
  H      2.448800   -1.331730   -3.147390

 Total Charge           Charge          ....    0
 Multiplicity           Mult            ....    1
 Number of Electrons    NEL             ....   48
 Basis Dimension        Dim             ....  139

ORBITAL ENERGIES
----------------

  NO   OCC          E(Eh)            E(eV)
   0   2.0000     -14.428679      -392.6243
   1   2.0000     -10.302173      -280.3364
   2   2.0000     -10.288064      -279.9524
   3   2.0000     -10.283871      -279.8383
   4   2.0000     -10.263333      -279.2795
   5   2.0000     -10.212621      -277.8995
   6   2.0000      -1.036335       -28.2001
   7   2.0000      -0.901147       -24.5215
   8   2.0000      -0.828747       -22.5514
   9   2.0000      -0.794303       -21.6141
  10   2.0000      -0.709146       -19.2968
  11   2.0000      -0.647217       -17.6117
  12   2.0000      -0.625050       -17.0085
  13   2.0000      -0.579870       -15.7791
  14   2.0000      -0.552614       -15.0374
  15   2.0000      -0.526492       -14.3266
  16   2.0000      -0.498707       -13.5705
  17   2.0000      -0.483294       -13.1511
  18   2.0000      -0.462834       -12.5944
  19   2.0000      -0.453852       -12.3499
  20   2.0000      -0.427981       -11.6459
  21   2.0000      -0.415707       -11.3120
  22   2.0000      -0.413549       -11.2532
  23   2.0000      -0.268127        -7.2961
  24   0.0000       0.133470         3.6319
  25   0.0000       0.138172         3.7599
  26   0.0000       0.170020         4.6265
  27   0.0000       0.181110         4.9283
  28   0.0000       0.202234         5.5031

MULLIKEN ATOMIC CHARGES
-----------------------
   0 C :    0.086080
   1 C :   -0.113821
   2 H :    0.032495
   3 C :    0.005991
   4 H :    0.023976
   5 C :   -0.188993
   6 N :   -0.094149
   7 C :   -0.048539
   8 H :   -0.021797
   9 H :   -0.039757
  10 H :    0.120649
  11 H :    0.126237
  12 H :   -0.004869
  13 H :    0.050425
  14 H :    0.025016
  15 H :    0.013452
  16 H :    0.027606
Sum of atomic charges:   -0.0000000

LOEWDIN ATOMIC CHARGES
----------------------
   0 C :   -0.033806
   1 C :   -0.036981
   2 H :    0.023453
   3 C :   -0.057083
   4 H :    0.023443
   5 C :    0.009496
   6 N :   -0.012071
   7 C :   -0.184480
   8 H :   -0.001265
   9 H :   -0.007178
  10 H :    0.072102
  11 H :    0.080135
  12 H :    0.017595
  13 H :    0.042457
  14 H :    0.022999
  15 H :    0.018043
  16 H :    0.023142

  Mayer bond orders larger than 0.100000
B(  0-C ,  1-C ) :   1.0775 B(  0-C ,  5-C ) :   0.9847 B(  0-C , 12-H ) :   0.9354
B(  0-C , 13-H ) :   0.9334 B(  1-C ,  2-H ) :   0.9514 B(  1-C ,  3-C ) :   1.0892
B(  1-C ,  4-H ) :   0.9561 B(  3-C , 14-H ) :   0.9714 B(  3-C , 15-H ) :   0.9744
B(  3-C , 16-H ) :   0.9617 B(  5-C ,  6-N ) :   1.2687 B(  5-C ,  7-C ) :   1.8551
B(  6-N , 10-H ) :   0.9456 B(  6-N , 11-H ) :   0.9433 B(  7-C ,  8-H ) :   0.9539
B(  7-C ,  9-H ) :   0.9506

Dispersion correction           -0.004569653
FINAL SINGLE POINT ENERGY      -251.614735113124

DIPOLE MOMENT
-------------
                                X             Y             Z
Electronic contribution:     -0.76094       1.64405       3.60321
Nuclear contribution   :      0.73787      -0.87128      -3.75926
                        -----------------------------------------
Total Dipole Moment    :     -0.02307       0.77277      -0.15605
                        -----------------------------------------
Magnitude (a.u.)       :      0.78871
Magnitude (Debye)      :      2.00473

Rotational constants in cm-1:     0.191039     0.078358     0.072723
Rotational constants in MHz :  5727.202281  2349.118247  2180.181745

                             ****ORCA TERMINATED NORMALLY****
TOTAL RUN TIME: 0 days 0 hours 0 minutes 9 seconds 930 msec
