                         Program Version 5.0.0 -  RELEASE  -
|  1> !wB97X-D3 RIJCOSX def2-SVP def2/J TightSCF xyzfile
|  2>
|  3> *xyzfile 0 1 D1.xyz
|  4>
|  5> %MaxCore 64000
|  6>
|  7> %pal nprocs 18
|  8> end
|  9>
| 10> %scf
| 11>   MaxIter 150
| 12> end
| 13>
| 14>
| 15>                          ****END OF INPUT****

CARTESIAN COORDINATES (ANGSTROEM)
---------------------------------
  C      4.366454   -0.133215   -1.416062
  C      4.508292   -0.931872   -2.724249
  H      4.753716   -1.972051   -2.488408
  C      3.294164   -0.918214   -3.656570
  H      5.385637   -0.536236   -3.242640
  H      2.483463   -1.477378   -3.185764
  H      3.553092   -1.478495   -4.560331
  C      2.772335    0.460100   -4.051448
  H      2.608762    1.065107   -3.155194
  C      1.465354    0.410537   -4.853644
  H      3.532940    0.988848   -4.635671
  C      0.326171   -0.375613   -4.192580
  H      1.666704   -0.022269   -5.839323
  H      1.138198    1.439246   -5.035449
  C     -0.017405    0.080588   -2.778406
  H      0.585573   -1.439385   -4.168057
  H     -0.560005   -0.311425   -4.831461
  H      0.902090    0.201296   -2.206729
  C     -0.903495   -0.873945   -1.987388
  H     -0.479549    1.074657   -2.811915
  H     -0.502554   -1.892096   -2.081204
  H     -1.917039   -0.895427   -2.406277
  C     -0.960148   -0.522365   -0.489867
  H     -1.690392   -1.208130   -0.021677
  H     -1.414490    0.486329   -0.406677
  F      0.261703   -0.580307    0.138611
  C      3.056503   -0.320797   -0.707384
  C      2.389825    0.711285   -0.243909
  N      2.515999   -1.507721   -0.550229
  H      2.967683   -2.322915   -0.956305
  H      1.549872   -1.490634   -0.249876
  H      2.743071    1.649471   -0.412802
  H      1.440364    0.502778    0.037031
  H      4.487835    0.932997   -1.611569
  H      5.169672   -0.414432   -0.729817

 Total Charge           Charge          ....    0
 Multiplicity           Mult            ....    1
 Number of Electrons    NEL             ....  104
 Basis Dimension        Dim             ....  292

ORBITAL ENERGIES
----------------

  NO   OCC          E(Eh)            E(eV)
   0   2.0000     -24.810329      -675.1234
   1   2.0000     -14.404272      -391.9602
   2   2.0000     -10.380699      -282.4732
   3   2.0000     -10.300708      -280.2965
   4   2.0000     -10.285603      -279.8855
   5   2.0000     -10.281221      -279.7662
   6   2.0000     -10.281065      -279.7620
   7   2.0000     -10.278777      -279.6997
   8   2.0000     -10.278583      -279.6945
   9   2.0000     -10.274840      -279.5926
  10   2.0000     -10.274418      -279.5811
  11   2.0000     -10.272163      -279.5198
  12   2.0000     -10.189561      -277.2720
  13   2.0000      -1.332369       -36.2556
  14   2.0000      -1.019079       -27.7305
  15   2.0000      -0.929581       -25.2952
  16   2.0000      -0.906376       -24.6637
  17   2.0000      -0.879225       -23.9249
  18   2.0000      -0.838666       -22.8213
  19   2.0000      -0.811172       -22.0731
  20   2.0000      -0.790611       -21.5136
  21   2.0000      -0.742431       -20.2026
  22   2.0000      -0.719923       -19.5901
  23   2.0000      -0.689769       -18.7696
  24   2.0000      -0.658587       -17.9211
  25   2.0000      -0.643255       -17.5039
  26   2.0000      -0.635407       -17.2903
  27   2.0000      -0.626177       -17.0391
  28   2.0000      -0.615677       -16.7534
  29   2.0000      -0.587811       -15.9951
  30   2.0000      -0.572265       -15.5721
  31   2.0000      -0.559524       -15.2254
  32   2.0000      -0.541908       -14.7461
  33   2.0000      -0.536145       -14.5892
  34   2.0000      -0.526162       -14.3176
  35   2.0000      -0.519939       -14.1483
  36   2.0000      -0.494305       -13.4507
  37   2.0000      -0.484976       -13.1969
  38   2.0000      -0.474348       -12.9077
  39   2.0000      -0.466721       -12.7001
  40   2.0000      -0.459843       -12.5130
  41   2.0000      -0.450142       -12.2490
  42   2.0000      -0.443079       -12.0568
  43   2.0000      -0.435155       -11.8412
  44   2.0000      -0.431237       -11.7346
  45   2.0000      -0.423071       -11.5123
  46   2.0000      -0.404886       -11.0175
  47   2.0000      -0.402362       -10.9488
  48   2.0000      -0.395739       -10.7686
  49   2.0000      -0.392463       -10.6795
  50   2.0000      -0.387979       -10.5574
  51   2.0000      -0.252506        -6.8710
  52   0.0000       0.130642         3.5549
  53   0.0000       0.141661         3.8548
  54   0.0000       0.150868         4.1053
  55   0.0000       0.154738         4.2106
  56   0.0000       0.160366         4.3638

MULLIKEN ATOMIC CHARGES
-----------------------
   0 C :    0.084718
   1 C :   -0.051290
   2 H :    0.014765
   3 C :   -0.018407
   4 H :    0.020499
   5 H :   -0.013383
   6 H :    0.012659
   7 C :   -0.051461
   8 H :    0.028019
   9 C :    0.003883
  10 H :    0.013857
  11 C :   -0.032621
  12 H :    0.016176
  13 H :    0.017202
  14 C :   -0.060605
  15 H :    0.014912
  16 H :    0.014685
  17 H :    0.022550
  18 C :   -0.110920
  19 H :    0.015876
  20 H :    0.027641
  21 H :    0.038108
  22 C :    0.267044
  23 H :    0.039555
  24 H :    0.038907
  25 F :   -0.239036
  26 C :   -0.204401
  27 C :   -0.061774
  28 N :   -0.096133
  29 H :    0.113432
  30 H :    0.125208
  31 H :   -0.045958
  32 H :    0.005624
  33 H :    0.017584
  34 H :    0.033084
Sum of atomic charges:    0.0000000

LOEWDIN ATOMIC CHARGES
----------------------
   0 C :   -0.033754
   1 C :   -0.040663
   2 H :    0.017395
   3 C :   -0.044393
   4 H :    0.024926
   5 H :    0.009003
   6 H :    0.021655
   7 C :   -0.042879
   8 H :    0.021615
   9 C :   -0.035225
  10 H :    0.021312
  11 C :   -0.040176
  12 H :    0.021061
  13 H :    0.022323
  14 C :   -0.047991
  15 H :    0.016783
  16 H :    0.020642
  17 H :    0.027929
  18 C :   -0.059705
  19 H :    0.022126
  20 H :    0.023597
  21 H :    0.032948
  22 C :    0.123177
  23 H :    0.020469
  24 H :    0.022422
  25 F :   -0.052190
  26 C :    0.001965
  27 C :   -0.190204
  28 N :   -0.021448
  29 H :    0.064031
  30 H :    0.043573
  31 H :   -0.009367
  32 H :   -0.025339
  33 H :    0.031387
  34 H :    0.032995

  Mayer bond orders larger than 0.100000
B(  0-C ,  1-C ) :   1.0621 B(  0-C , 26-C ) :   1.0165 B(  0-C , 33-H ) :   0.9322
B(  0-C , 34-H ) :   0.9313 B(  1-C ,  2-H ) :   0.9475 B(  1-C ,  3-C ) :   1.0805
B(  1-C ,  4-H ) :   0.9466 B(  3-C ,  5-H ) :   0.9255 B(  3-C ,  6-H ) :   0.9448
B(  3-C ,  7-C ) :   1.0582 B(  7-C ,  8-H ) :   0.9374 B(  7-C ,  9-C ) :   1.0822
B(  7-C , 10-H ) :   0.9461 B(  9-C , 11-C ) :   1.0785 B(  9-C , 12-H ) :   0.9489
B(  9-C , 13-H ) :   0.9484 B( 11-C , 14-C ) :   1.0612 B( 11-C , 15-H ) :   0.9468
B( 11-C , 16-H ) :   0.9444 B( 14-C , 17-H ) :   0.9369 B( 14-C , 18-C ) :   1.0604
B( 14-C , 19-H ) :   0.9430 B( 18-C , 20-H ) :   0.9452 B( 18-C , 21-H ) :   0.9413
B( 18-C , 22-C ) :   1.0702 B( 22-C , 23-H ) :   0.9606 B( 22-C , 24-H ) :   0.9599
B( 22-C , 25-F ) :   0.8911 B( 26-C , 27-C ) :   1.8378 B( 26-C , 28-N ) :   1.2725
B( 27-C , 31-H ) :   0.9432 B( 27-C , 32-H ) :   0.9221 B( 28-N , 29-H ) :   0.9482
B( 28-N , 30-H ) :   0.9073

Dispersion correction           -0.017828120
FINAL SINGLE POINT ENERGY      -586.390047362799

DIPOLE MOMENT
-------------
                                X             Y             Z
Electronic contribution:     -2.72823      -1.67158      10.53386
Nuclear contribution   :      1.82572       1.04089     -11.09065
                        -----------------------------------------
Total Dipole Moment    :     -0.90251      -0.63068      -0.55679
                        -----------------------------------------
Magnitude (a.u.)       :      1.23382
Magnitude (Debye)      :      3.13612

Rotational constants in cm-1:     0.028436     0.022359     0.014416
Rotational constants in MHz :   852.496561   670.291843   432.183951

                             ****ORCA TERMINATED NORMALLY****
TOTAL RUN TIME: 0 days 0 hours 0 minutes 34 seconds 420 msec
