                         Program Version 5.0.0 -  RELEASE  -
|  1> !TPSS D3BJ RIJCOSX def2-SVPD def2/J TightSCF
|  2> *xyz -1 1
|  3> C         -1.36646        2.47911       -4.31393
|  4> C         -2.35773        2.30686       -3.13675
|  5> O         -3.44376        2.84652       -3.25274
|  6> O         -1.97092        1.58304       -2.15123
|  7> H         -1.80853        3.10058       -5.06443
|  8> H         -1.13980        1.52081       -4.73248
|  9> H         -0.46612        2.93495       -3.95827
| 10> *
| 11> %MaxCore 64000
| 12>
| 13> %pal nprocs 4
| 14> end
| 15>
| 16> %scf
| 17>   MaxIter 150
| 18> end
| 19>
| 20>
| 21>                          ****END OF INPUT****

CARTESIAN COORDINATES (ANGSTROEM)
---------------------------------
  C     -1.366460    2.479110   -4.313930
  C     -2.357730    2.306860   -3.136750
  O     -3.443760    2.846520   -3.252740
  O     -1.970920    1.583040   -2.151230
  H     -1.808530    3.100580   -5.064430
  H     -1.139800    1.520810   -4.732480
  H     -0.466120    2.934950   -3.958270

 Total Charge           Charge          ....   -1
 Multiplicity           Mult            ....    1
 Number of Electrons    NEL             ....   32
 Basis Dimension        Dim             ....  110

ORBITAL ENERGIES
----------------

  NO   OCC          E(Eh)            E(eV)
   0   2.0000     -18.640261      -507.2273
   1   2.0000     -18.629722      -506.9405
   2   2.0000      -9.874673      -268.7035
   3   2.0000      -9.812046      -266.9993
   4   2.0000      -0.743691       -20.2369
   5   2.0000      -0.646605       -17.5950
   6   2.0000      -0.478391       -13.0177
   7   2.0000      -0.249361        -6.7855
   8   2.0000      -0.215733        -5.8704
   9   2.0000      -0.201465        -5.4821
  10   2.0000      -0.175312        -4.7705
  11   2.0000      -0.137616        -3.7447
  12   2.0000      -0.127710        -3.4752
  13   2.0000      -0.010020        -0.2727
  14   2.0000       0.002306         0.0628
  15   2.0000       0.018730         0.5097
  16   0.0000       0.163780         4.4567
  17   0.0000       0.204211         5.5569
  18   0.0000       0.208107         5.6629
  19   0.0000       0.231063         6.2876
  20   0.0000       0.249556         6.7908

MULLIKEN ATOMIC CHARGES
-----------------------
   0 C :    0.396412
   1 C :    0.029404
   2 O :   -0.575875
   3 O :   -0.714459
   4 H :   -0.059001
   5 H :   -0.038267
   6 H :   -0.038213
Sum of atomic charges:   -1.0000000

LOEWDIN ATOMIC CHARGES
----------------------
   0 C :    0.151146
   1 C :   -0.332791
   2 O :   -0.308993
   3 O :   -0.360442
   4 H :   -0.054134
   5 H :   -0.046820
   6 H :   -0.047966

  Mayer bond orders larger than 0.100000
B(  0-C ,  1-C ) :   1.2471 B(  0-C ,  4-H ) :   0.9000 B(  0-C ,  5-H ) :   0.8501
B(  0-C ,  6-H ) :   0.8464 B(  1-C ,  2-O ) :   1.5166 B(  1-C ,  3-O ) :   1.4182
B(  1-C ,  4-H ) :   0.2308 B(  1-C ,  5-H ) :   0.1578 B(  1-C ,  6-H ) :   0.1618

Dispersion correction           -0.004503120
FINAL SINGLE POINT ENERGY      -228.403635772585

DIPOLE MOMENT
-------------
                                X             Y             Z
Electronic contribution:     -2.48627      -0.34644       2.76833
Nuclear contribution   :      3.20990       0.60513      -3.84153
                        -----------------------------------------
Total Dipole Moment    :      0.72363       0.25869      -1.07319
                        -----------------------------------------
Magnitude (a.u.)       :      1.31996
Magnitude (Debye)      :      3.35508

Rotational constants in cm-1:     0.394521     0.330294     0.185888
Rotational constants in MHz : 11827.441786  9901.964904  5572.768963

                             ****ORCA TERMINATED NORMALLY****
TOTAL RUN TIME: 0 days 0 hours 0 minutes 4 seconds 923 msec
