                         Program Version 5.0.0 -  RELEASE  -
|  1> !TPSS D3BJ RIJCOSX def2-SVPD def2/J TightSCF
|  2> *xyz 1 1
|  3> C          0.64866        1.00359       -3.64560
|  4> N          0.28128        0.67645       -2.24018
|  5> H          0.39079       -0.31925       -2.02649
|  6> H         -0.69269        0.99010       -2.13812
|  7> H          0.85421        1.21221       -1.57528
|  8> H          0.03905        0.43387       -4.31545
|  9> H          1.67860        0.76457       -3.80989
| 10> H          0.49232        2.04741       -3.82138
| 11> *
| 12> %MaxCore 64000
| 13>
| 14> %pal nprocs 4
| 15> end
| 16>
| 17> %scf
| 18>   MaxIter 150
| 19> end
| 20>
| 21>
| 22>                          ****END OF INPUT****

CARTESIAN COORDINATES (ANGSTROEM)
---------------------------------
  C      0.648660    1.003590   -3.645600
  N      0.281280    0.676450   -2.240180
  H      0.390790   -0.319250   -2.026490
  H     -0.692690    0.990100   -2.138120
  H      0.854210    1.212210   -1.575280
  H      0.039050    0.433870   -4.315450
  H      1.678600    0.764570   -3.809890
  H      0.492320    2.047410   -3.821380

 Total Charge           Charge          ....    1
 Multiplicity           Mult            ....    1
 Number of Electrons    NEL             ....   18
 Basis Dimension        Dim             ....   88

ORBITAL ENERGIES
----------------

  NO   OCC          E(Eh)            E(eV)
   0   2.0000     -14.467513      -393.6810
   1   2.0000     -10.261828      -279.2385
   2   2.0000      -1.158541       -31.5255
   3   2.0000      -0.882323       -24.0092
   4   2.0000      -0.773152       -21.0385
   5   2.0000      -0.763793       -20.7839
   6   2.0000      -0.672661       -18.3040
   7   2.0000      -0.591857       -16.1052
   8   2.0000      -0.589618       -16.0443
   9   0.0000      -0.218426        -5.9437
  10   0.0000      -0.153697        -4.1823
  11   0.0000      -0.150427        -4.0933
  12   0.0000      -0.141711        -3.8562
  13   0.0000      -0.099147        -2.6979

MULLIKEN ATOMIC CHARGES
-----------------------
   0 C :    0.855576
   1 N :   -0.827109
   2 H :    0.362917
   3 H :    0.400923
   4 H :    0.374630
   5 H :   -0.051647
   6 H :   -0.069794
   7 H :   -0.045495
Sum of atomic charges:    1.0000000

LOEWDIN ATOMIC CHARGES
----------------------
   0 C :    0.291662
   1 N :    0.319774
   2 H :    0.107443
   3 H :    0.105982
   4 H :    0.108132
   5 H :    0.022911
   6 H :    0.020738
   7 H :    0.023359

  Mayer bond orders larger than 0.100000
B(  0-C ,  1-N ) :   0.8297 B(  0-C ,  5-H ) :   0.9033 B(  0-C ,  6-H ) :   0.9240
B(  0-C ,  7-H ) :   0.8958 B(  1-N ,  2-H ) :   0.7704 B(  1-N ,  3-H ) :   0.7246
B(  1-N ,  4-H ) :   0.7602

Dispersion correction           -0.004021675
FINAL SINGLE POINT ENERGY       -96.167692334694

DIPOLE MOMENT
-------------
                                X             Y             Z
Electronic contribution:     -0.25931      -0.27582       1.04882
Nuclear contribution   :      0.04246       0.12404      -0.26487
                        -----------------------------------------
Total Dipole Moment    :     -0.21685      -0.15178       0.78395
                        -----------------------------------------
Magnitude (a.u.)       :      0.82743
Magnitude (Debye)      :      2.10315

Rotational constants in cm-1:     2.856727     0.687609     0.685111
Rotational constants in MHz : 85642.512409 20614.005719 20539.101620

                             ****ORCA TERMINATED NORMALLY****
TOTAL RUN TIME: 0 days 0 hours 0 minutes 3 seconds 206 msec
