                         Program Version 5.0.0 -  RELEASE  -
|  1> !TPSS D3BJ RIJCOSX def2-SVPD def2/J TightSCF
|  2> *xyz 0 1
|  3> C         -1.36646        2.47911       -4.31393
|  4> C         -2.35773        2.30686       -3.13675
|  5> F         -3.44376        2.84652       -3.25274
|  6> O         -1.97092        1.58304       -2.15123
|  7> H         -1.80853        3.10058       -5.06443
|  8> H         -1.13980        1.52081       -4.73248
|  9> H         -0.46612        2.93495       -3.95827
| 10> *
| 11> %MaxCore 64000
| 12>
| 13> %pal nprocs 4
| 14> end
| 15>
| 16> %scf
| 17>   MaxIter 150
| 18> end
| 19>
| 20>
| 21>                          ****END OF INPUT****

CARTESIAN COORDINATES (ANGSTROEM)
---------------------------------
  C     -1.366460    2.479110   -4.313930
  C     -2.357730    2.306860   -3.136750
  F     -3.443760    2.846520   -3.252740
  O     -1.970920    1.583040   -2.151230
  H     -1.808530    3.100580   -5.064430
  H     -1.139800    1.520810   -4.732480
  H     -0.466120    2.934950   -3.958270

 Total Charge           Charge          ....    0
 Multiplicity           Mult            ....    1
 Number of Electrons    NEL             ....   32
 Basis Dimension        Dim             ....  110

ORBITAL ENERGIES
----------------

  NO   OCC          E(Eh)            E(eV)
   0   2.0000     -24.512478      -667.0184
   1   2.0000     -18.904804      -514.4259
   2   2.0000     -10.179415      -276.9960
   3   2.0000     -10.029796      -272.9246
   4   2.0000      -1.256585       -34.1934
   5   2.0000      -0.940632       -25.5959
   6   2.0000      -0.709037       -19.2939
   7   2.0000      -0.615925       -16.7602
   8   2.0000      -0.513378       -13.9697
   9   2.0000      -0.504850       -13.7377
  10   2.0000      -0.452567       -12.3150
  11   2.0000      -0.406092       -11.0503
  12   2.0000      -0.393473       -10.7069
  13   2.0000      -0.351178        -9.5560
  14   2.0000      -0.309805        -8.4302
  15   2.0000      -0.246840        -6.7168
  16   0.0000      -0.067761        -1.8439
  17   0.0000       0.001463         0.0398
  18   0.0000       0.047963         1.3051
  19   0.0000       0.074968         2.0400
  20   0.0000       0.077440         2.1073

MULLIKEN ATOMIC CHARGES
-----------------------
   0 C :    0.344277
   1 C :    0.439813
   2 F :   -0.297933
   3 O :   -0.534927
   4 H :   -0.017100
   5 H :    0.034284
   6 H :    0.031586
Sum of atomic charges:    0.0000000

LOEWDIN ATOMIC CHARGES
----------------------
   0 C :    0.225950
   1 C :   -0.038832
   2 F :   -0.006847
   3 O :   -0.152344
   4 H :   -0.021853
   5 H :   -0.002720
   6 H :   -0.003354

  Mayer bond orders larger than 0.100000
B(  0-C ,  1-C ) :   1.2491 B(  0-C ,  4-H ) :   0.8988 B(  0-C ,  5-H ) :   0.8292
B(  0-C ,  6-H ) :   0.8260 B(  1-C ,  2-F ) :   0.8423 B(  1-C ,  3-O ) :   1.7278
B(  1-C ,  4-H ) :   0.1417 B(  1-C ,  5-H ) :   0.1284 B(  1-C ,  6-H ) :   0.1338

Dispersion correction           -0.004148568
FINAL SINGLE POINT ENERGY      -252.929879185239

DIPOLE MOMENT
-------------
                                X             Y             Z
Electronic contribution:     -4.32270       0.50103       2.73425
Nuclear contribution   :      4.40923       0.04336      -3.80230
                        -----------------------------------------
Total Dipole Moment    :      0.08653       0.54439      -1.06805
                        -----------------------------------------
Magnitude (a.u.)       :      1.20191
Magnitude (Debye)      :      3.05501

Rotational constants in cm-1:     0.364425     0.322930     0.176742
Rotational constants in MHz : 10925.196996  9681.206479  5298.597717

                             ****ORCA TERMINATED NORMALLY****
TOTAL RUN TIME: 0 days 0 hours 0 minutes 4 seconds 821 msec
