                         Program Version 5.0.0 -  RELEASE  -
|  1> !TPSS D3BJ RIJCOSX def2-SVPD def2/J TightSCF
|  2> *xyz 0 1
|  3> C          0.64866        1.00359       -3.64560
|  4> C          0.28128        0.67645       -2.24018
|  5> H          0.39079       -0.31925       -2.02649
|  6> H         -0.69269        0.99010       -2.13812
|  7> H          0.85421        1.21221       -1.57528
|  8> H          0.03905        0.43387       -4.31545
|  9> H          1.67860        0.76457       -3.80989
| 10> H          0.49232        2.04741       -3.82138
| 11> *
| 12> %MaxCore 64000
| 13>
| 14> %pal nprocs 4
| 15> end
| 16>
| 17> %scf
| 18>   MaxIter 150
| 19> end
| 20>
| 21>
| 22>                          ****END OF INPUT****

CARTESIAN COORDINATES (ANGSTROEM)
---------------------------------
  C      0.648660    1.003590   -3.645600
  C      0.281280    0.676450   -2.240180
  H      0.390790   -0.319250   -2.026490
  H     -0.692690    0.990100   -2.138120
  H      0.854210    1.212210   -1.575280
  H      0.039050    0.433870   -4.315450
  H      1.678600    0.764570   -3.809890
  H      0.492320    2.047410   -3.821380

 Total Charge           Charge          ....    0
 Multiplicity           Mult            ....    1
 Number of Electrons    NEL             ....   18
 Basis Dimension        Dim             ....   88

ORBITAL ENERGIES
----------------

  NO   OCC          E(Eh)            E(eV)
   0   2.0000      -9.979433      -271.5542
   1   2.0000      -9.966584      -271.2045
   2   2.0000      -0.707302       -19.2467
   3   2.0000      -0.566145       -15.4056
   4   2.0000      -0.411654       -11.2017
   5   2.0000      -0.405878       -11.0445
   6   2.0000      -0.327896        -8.9225
   7   2.0000      -0.312235        -8.4964
   8   2.0000      -0.307063        -8.3556
   9   0.0000       0.019061         0.5187
  10   0.0000       0.052098         1.4177
  11   0.0000       0.090422         2.4605
  12   0.0000       0.091707         2.4955
  13   0.0000       0.111931         3.0458

MULLIKEN ATOMIC CHARGES
-----------------------
   0 C :    0.152446
   1 C :    0.517624
   2 H :   -0.192652
   3 H :   -0.135545
   4 H :   -0.161625
   5 H :   -0.059240
   6 H :   -0.069071
   7 H :   -0.051936
Sum of atomic charges:    0.0000000

LOEWDIN ATOMIC CHARGES
----------------------
   0 C :    0.082814
   1 C :    0.091815
   2 H :   -0.037458
   3 H :   -0.037290
   4 H :   -0.037129
   5 H :   -0.020272
   6 H :   -0.023179
   7 H :   -0.019301

  Mayer bond orders larger than 0.100000
B(  0-C ,  1-C ) :   1.4557 B(  0-C ,  2-H ) :   0.1604 B(  0-C ,  3-H ) :   0.1974
B(  0-C ,  4-H ) :   0.1621 B(  0-C ,  5-H ) :   0.8761 B(  0-C ,  6-H ) :   0.9033
B(  0-C ,  7-H ) :   0.8687 B(  1-C ,  2-H ) :   0.8177 B(  1-C ,  3-H ) :   0.7992
B(  1-C ,  4-H ) :   0.8034 B(  1-C ,  5-H ) :   0.1471 B(  1-C ,  6-H ) :   0.1359
B(  1-C ,  7-H ) :   0.1512

Dispersion correction           -0.004031520
FINAL SINGLE POINT ENERGY       -79.776693017022

DIPOLE MOMENT
-------------
                                X             Y             Z
Electronic contribution:      0.01278      -0.06493       0.04541
Nuclear contribution   :     -0.02064       0.06655      -0.02194
                        -----------------------------------------
Total Dipole Moment    :     -0.00786       0.00162       0.02347
                        -----------------------------------------
Magnitude (a.u.)       :      0.02481
Magnitude (Debye)      :      0.06306

Rotational constants in cm-1:     2.856742     0.718110     0.715385
Rotational constants in MHz : 85642.970161 21528.388214 21446.695095

                             ****ORCA TERMINATED NORMALLY****
TOTAL RUN TIME: 0 days 0 hours 0 minutes 3 seconds 582 msec
