                         Program Version 5.0.0 -  RELEASE  -
|  1> !TPSS D3BJ RIJCOSX def2-SVPD def2/J TightSCF
|  2> *xyz 0 1
|  3> C         -1.36646        2.47911       -4.31393
|  4> C         -2.35773        2.30686       -3.13675
|  5> O         -3.44376        2.84652       -3.25274
|  6> F         -1.97092        1.58304       -2.15123
|  7> H         -1.80853        3.10058       -5.06443
|  8> H         -1.13980        1.52081       -4.73248
|  9> H         -0.46612        2.93495       -3.95827
| 10> *
| 11> %MaxCore 64000
| 12>
| 13> %pal nprocs 4
| 14> end
| 15>
| 16> %scf
| 17>   MaxIter 150
| 18> end
| 19>
| 20>
| 21>                          ****END OF INPUT****

CARTESIAN COORDINATES (ANGSTROEM)
---------------------------------
  C     -1.366460    2.479110   -4.313930
  C     -2.357730    2.306860   -3.136750
  O     -3.443760    2.846520   -3.252740
  F     -1.970920    1.583040   -2.151230
  H     -1.808530    3.100580   -5.064430
  H     -1.139800    1.520810   -4.732480
  H     -0.466120    2.934950   -3.958270

 Total Charge           Charge          ....    0
 Multiplicity           Mult            ....    1
 Number of Electrons    NEL             ....   32
 Basis Dimension        Dim             ....  110

ORBITAL ENERGIES
----------------

  NO   OCC          E(Eh)            E(eV)
   0   2.0000     -24.490256      -666.4137
   1   2.0000     -18.913660      -514.6669
   2   2.0000     -10.173988      -276.8483
   3   2.0000     -10.029406      -272.9140
   4   2.0000      -1.209340       -32.9078
   5   2.0000      -0.979571       -26.6555
   6   2.0000      -0.706176       -19.2160
   7   2.0000      -0.592123       -16.1125
   8   2.0000      -0.487733       -13.2719
   9   2.0000      -0.485348       -13.2070
  10   2.0000      -0.451227       -12.2785
  11   2.0000      -0.403050       -10.9675
  12   2.0000      -0.395450       -10.7607
  13   2.0000      -0.359099        -9.7716
  14   2.0000      -0.333233        -9.0677
  15   2.0000      -0.257486        -7.0066
  16   0.0000      -0.059174        -1.6102
  17   0.0000       0.001936         0.0527
  18   0.0000       0.049014         1.3338
  19   0.0000       0.073739         2.0065
  20   0.0000       0.080554         2.1920

MULLIKEN ATOMIC CHARGES
-----------------------
   0 C :    0.359967
   1 C :    0.443157
   2 O :   -0.436113
   3 F :   -0.392135
   4 H :   -0.034364
   5 H :    0.030803
   6 H :    0.028685
Sum of atomic charges:   -0.0000000

LOEWDIN ATOMIC CHARGES
----------------------
   0 C :    0.227028
   1 C :   -0.036060
   2 O :   -0.113309
   3 F :   -0.049668
   4 H :   -0.008130
   5 H :   -0.009280
   6 H :   -0.010581

  Mayer bond orders larger than 0.100000
B(  0-C ,  1-C ) :   1.2236 B(  0-C ,  4-H ) :   0.9083 B(  0-C ,  5-H ) :   0.8288
B(  0-C ,  6-H ) :   0.8272 B(  1-C ,  2-O ) :   1.8226 B(  1-C ,  3-F ) :   0.7158
B(  1-C ,  4-H ) :   0.1904 B(  1-C ,  5-H ) :   0.1174 B(  1-C ,  6-H ) :   0.1199

Dispersion correction           -0.004151358
FINAL SINGLE POINT ENERGY      -252.947069615745

DIPOLE MOMENT
-------------
                                X             Y             Z
Electronic contribution:     -1.93842      -1.53661       4.50402
Nuclear contribution   :      2.88734       1.34891      -4.94049
                        -----------------------------------------
Total Dipole Moment    :      0.94892      -0.18770      -0.43647
                        -----------------------------------------
Magnitude (a.u.)       :      1.06122
Magnitude (Debye)      :      2.69741

Rotational constants in cm-1:     0.375207     0.313199     0.176202
Rotational constants in MHz : 11248.433436  9389.476975  5282.390844

                             ****ORCA TERMINATED NORMALLY****
TOTAL RUN TIME: 0 days 0 hours 0 minutes 4 seconds 712 msec
