                         Program Version 5.0.0 -  RELEASE  -
|  1> !TPSS D3BJ RIJCOSX def2-SVPD def2/J TightSCF xyzfile
|  2>
|  3> *xyzfile 0 1 D1.xyz
|  4>
|  5> %MaxCore 64000
|  6>
|  7> %pal nprocs 4
|  8> end
|  9>
| 10> %scf
| 11>   MaxIter 150
| 12> end
| 13>
| 14>
| 15>                          ****END OF INPUT****

CARTESIAN COORDINATES (ANGSTROEM)
---------------------------------
  C      0.648656    1.003595   -3.645601
  C      0.281280    0.676454   -2.240179
  C      0.132968    2.385869   -4.024618
  C     -1.366462    2.479106   -4.313932
  C     -2.357732    2.306858   -3.136753
  H     -1.636802    1.727095   -5.063993
  H     -1.582347    3.445605   -4.768687
  H      0.390790   -0.319253   -2.026495
  H     -0.692686    0.990104   -2.138123
  H      0.854206    1.212214   -1.575279
  F     -3.443763    2.846518   -3.252744
  O     -1.970922    1.583042   -2.151229
  H      0.190993    0.239655   -4.275752
  H      1.731572    0.931729   -3.750751
  H      0.414839    3.102847   -3.245165
  H      0.683167    2.687560   -4.919721

 Total Charge           Charge          ....    0
 Multiplicity           Mult            ....    1
 Number of Electrons    NEL             ....   56
 Basis Dimension        Dim             ....  218

ORBITAL ENERGIES
----------------

  NO   OCC          E(Eh)            E(eV)
   0   2.0000     -24.521678      -667.2688
   1   2.0000     -18.910357      -514.5770
   2   2.0000     -10.188983      -277.2563
   3   2.0000     -10.039752      -273.1955
   4   2.0000     -10.009725      -272.3785
   5   2.0000      -9.981777      -271.6180
   6   2.0000      -9.913523      -269.7607
   7   2.0000      -1.264425       -34.4067
   8   2.0000      -0.961501       -26.1638
   9   2.0000      -0.751491       -20.4491
  10   2.0000      -0.694896       -18.9091
  11   2.0000      -0.630028       -17.1439
  12   2.0000      -0.601732       -16.3740
  13   2.0000      -0.531204       -14.4548
  14   2.0000      -0.519339       -14.1319
  15   2.0000      -0.503300       -13.6955
  16   2.0000      -0.476275       -12.9601
  17   2.0000      -0.437588       -11.9074
  18   2.0000      -0.408182       -11.1072
  19   2.0000      -0.395422       -10.7600
  20   2.0000      -0.367726       -10.0063
  21   2.0000      -0.345160        -9.3923
  22   2.0000      -0.338944        -9.2231
  23   2.0000      -0.320619        -8.7245
  24   2.0000      -0.302820        -8.2402
  25   2.0000      -0.286112        -7.7855
  26   2.0000      -0.275224        -7.4892
  27   2.0000      -0.208450        -5.6722
  28   0.0000      -0.078461        -2.1350
  29   0.0000       0.001606         0.0437
  30   0.0000       0.025795         0.7019
  31   0.0000       0.038167         1.0386
  32   0.0000       0.043430         1.1818

MULLIKEN ATOMIC CHARGES
-----------------------
   0 C :   -0.303247
   1 C :    2.012042
   2 C :    0.053691
   3 C :   -0.066039
   4 C :    0.752125
   5 H :    0.202424
   6 H :    0.056044
   7 H :   -0.082871
   8 H :   -1.478731
   9 H :   -0.006580
  10 F :   -0.371688
  11 O :   -0.518433
  12 H :    0.017769
  13 H :   -0.183755
  14 H :   -0.000974
  15 H :   -0.081778
Sum of atomic charges:    0.0000000

LOEWDIN ATOMIC CHARGES
----------------------
   0 C :   -0.048652
   1 C :    0.139946
   2 C :   -0.014861
   3 C :    0.070203
   4 C :    0.059991
   5 H :    0.041078
   6 H :    0.019033
   7 H :   -0.032659
   8 H :   -0.199554
   9 H :   -0.026236
  10 F :    0.010732
  11 O :   -0.100303
  12 H :    0.019438
  13 H :    0.013205
  14 H :    0.031701
  15 H :    0.016941

  Mayer bond orders larger than 0.100000
B(  0-C ,  1-C ) :   0.9378 B(  0-C ,  2-C ) :   1.1747 B(  0-C ,  7-H ) :   0.2087
B(  0-C ,  8-H ) :   0.6179 B(  0-C ,  9-H ) :   0.2443 B(  0-C , 12-H ) :   0.8564
B(  0-C , 13-H ) :   0.9574 B(  0-C , 14-H ) :   0.1137 B(  0-C , 15-H ) :   0.1056
B(  1-C ,  7-H ) :   0.5355 B(  1-C ,  8-H ) :  -1.3631 B(  1-C ,  9-H ) :   0.3523
B(  1-C , 11-O ) :  -0.1384 B(  1-C , 12-H ) :   0.1104 B(  2-C ,  3-C ) :   1.2429
B(  2-C ,  5-H ) :   0.1228 B(  2-C ,  6-H ) :   0.1424 B(  2-C , 13-H ) :   0.1105
B(  2-C , 14-H ) :   0.8820 B(  2-C , 15-H ) :   0.8931 B(  3-C ,  4-C ) :   1.1158
B(  3-C ,  5-H ) :   0.7733 B(  3-C ,  6-H ) :   0.8637 B(  3-C , 10-F ) :   0.1145
B(  3-C , 14-H ) :   0.1103 B(  4-C ,  6-H ) :   0.1075 B(  4-C , 10-F ) :   0.7311
B(  4-C , 11-O ) :   1.6417 B(  7-H ,  8-H ) :   0.2129 B(  7-H ,  9-H ) :  -0.1032
B(  8-H ,  9-H ) :   0.4587 B(  8-H , 11-O ) :   0.2073 B(  8-H , 13-H ) :   0.1099

Dispersion correction           -0.016533197
FINAL SINGLE POINT ENERGY      -370.764376099632

DIPOLE MOMENT
-------------
                                X             Y             Z
Electronic contribution:    -13.00649       4.56548       1.45441
Nuclear contribution   :     12.79331      -3.91961      -2.45895
                        -----------------------------------------
Total Dipole Moment    :     -0.21318       0.64587      -1.00454
                        -----------------------------------------
Magnitude (a.u.)       :      1.21313
Magnitude (Debye)      :      3.08353

Rotational constants in cm-1:     0.162888     0.059977     0.046450
Rotational constants in MHz :  4883.250030  1798.063289  1392.548669

                             ****ORCA TERMINATED NORMALLY****
TOTAL RUN TIME: 0 days 0 hours 0 minutes 19 seconds 94 msec
