                         Program Version 5.0.0 -  RELEASE  -
|  1> !DLPNO-CCSD(T) aug-cc-pVTZ aug-cc-pVTZ/C TightSCF TightPNO RIJCOSX def2/J
|  2> *xyz -1 1
|  3> C         -0.98480        1.28474       -2.92869
|  4> C         -0.10608        1.76991       -4.08984
|  5> H         -0.34774        2.82220       -4.26294
|  6> H          0.94968        1.74588       -3.80878
|  7> C         -0.25875        1.00432       -5.40983
|  8> C          0.39596       -0.37070       -5.33994
|  9> H          0.23915        1.56939       -6.20125
| 10> H         -1.30936        0.88869       -5.68245
| 11> O         -0.32633       -1.39040       -5.49128
| 12> O          1.61941       -0.40073       -5.03683
| 13> H         -2.01317        1.31546       -3.22263
| 14> H         -0.83724        1.91975       -2.08023
| 15> H         -0.71656        0.28077       -2.67373
| 16> *
| 17> %MaxCore 64000
| 18>
| 19> %pal nprocs 8
| 20> end
| 21>
| 22> %scf
| 23>   MaxIter 150
| 24> end
| 25>
| 26>
| 27>                          ****END OF INPUT****

CARTESIAN COORDINATES (ANGSTROEM)
---------------------------------
  C     -0.984800    1.284740   -2.928690
  C     -0.106080    1.769910   -4.089840
  H     -0.347740    2.822200   -4.262940
  H      0.949680    1.745880   -3.808780
  C     -0.258750    1.004320   -5.409830
  C      0.395960   -0.370700   -5.339940
  H      0.239150    1.569390   -6.201250
  H     -1.309360    0.888690   -5.682450
  O     -0.326330   -1.390400   -5.491280
  O      1.619410   -0.400730   -5.036830
  H     -2.013170    1.315460   -3.222630
  H     -0.837240    1.919750   -2.080230
  H     -0.716560    0.280770   -2.673730

 Total Charge           Charge          ....   -1
 Multiplicity           Mult            ....    1
 Number of Electrons    NEL             ....   48
 Basis Dimension        Dim             ....  437

ORBITAL ENERGIES
----------------

  NO   OCC          E(Eh)            E(eV)
   0   2.0000     -20.285757      -552.0035
   1   2.0000     -20.283088      -551.9309
   2   2.0000     -11.126926      -302.7790
   3   2.0000     -11.077169      -301.4251
   4   2.0000     -11.074540      -301.3536
   5   2.0000     -11.055219      -300.8278
   6   2.0000      -1.162548       -31.6346
   7   2.0000      -1.054309       -28.6892
   8   2.0000      -0.913950       -24.8698
   9   2.0000      -0.799735       -21.7619
  10   2.0000      -0.670784       -18.2530
  11   2.0000      -0.522573       -14.2199
  12   2.0000      -0.472046       -12.8450
  13   2.0000      -0.468772       -12.7559
  14   2.0000      -0.426480       -11.6051
  15   2.0000      -0.415233       -11.2991
  16   2.0000      -0.379596       -10.3293
  17   2.0000      -0.367049        -9.9879
  18   2.0000      -0.343897        -9.3579
  19   2.0000      -0.325270        -8.8511
  20   2.0000      -0.307892        -8.3782
  21   2.0000      -0.199085        -5.4174
  22   2.0000      -0.197184        -5.3657
  23   2.0000      -0.185113        -5.0372
  24   0.0000       0.111734         3.0404
  25   0.0000       0.122158         3.3241
  26   0.0000       0.129866         3.5338
  27   0.0000       0.142316         3.8726
  28   0.0000       0.149327         4.0634

MULLIKEN ATOMIC CHARGES
-----------------------
   0 C :   -0.958195
   1 C :   -0.434231
   2 H :    0.226270
   3 H :    0.288665
   4 C :   -0.171359
   5 C :    0.574902
   6 H :    0.251578
   7 H :    0.191665
   8 O :   -0.906808
   9 O :   -0.908216
  10 H :    0.266977
  11 H :    0.270820
  12 H :    0.307931
Sum of atomic charges:   -1.0000000

LOEWDIN ATOMIC CHARGES
----------------------
   0 C :    0.585289
   1 C :    0.228644
   2 H :   -0.171542
   3 H :   -0.174204
   4 C :    0.189033
   5 C :   -1.205818
   6 H :   -0.178251
   7 H :   -0.190560
   8 O :    0.242502
   9 O :    0.252749
  10 H :   -0.192991
  11 H :   -0.199910
  12 H :   -0.184940

  Mayer bond orders larger than 0.100000
B(  0-C ,  1-C ) :   0.7816 B(  0-C , 10-H ) :   0.9597 B(  0-C , 11-H ) :   0.9762
B(  0-C , 12-H ) :   0.9114 B(  1-C ,  2-H ) :   0.9798 B(  1-C ,  3-H ) :   0.9295
B(  1-C ,  4-C ) :   0.9053 B(  1-C ,  5-C ) :   0.1151 B(  4-C ,  5-C ) :   0.6296
B(  4-C ,  6-H ) :   0.9794 B(  4-C ,  7-H ) :   0.9622 B(  5-C ,  8-O ) :   1.3257
B(  5-C ,  9-O ) :   1.3971

E(0)                                       ...   -305.421901793
E(0)                                       ...   -305.421901793
E(CORR)(strong-pairs)                      ...     -1.211438224
E(CORR)(weak-pairs)                        ...     -0.001163625
E(CORR)(corrected)                         ...     -1.212601849
E(TOT)                                     ...   -306.634503642
E(CCSD(T))                                 ...   -306.686050991
FINAL SINGLE POINT ENERGY      -306.686050991098

DIPOLE MOMENT
-------------
                                X             Y             Z
Electronic contribution:      3.05335      -5.50536      -3.86281
Nuclear contribution   :     -4.15791       7.87420       4.69333
                        -----------------------------------------
Total Dipole Moment    :     -1.10456       2.36884       0.83053
                        -----------------------------------------
Magnitude (a.u.)       :      2.74249
Magnitude (Debye)      :      6.97086

Rotational constants in cm-1:     0.200385     0.078723     0.072676
Rotational constants in MHz :  6007.394681  2360.059351  2178.761275

                             ****ORCA TERMINATED NORMALLY****
TOTAL RUN TIME: 0 days 0 hours 13 minutes 51 seconds 884 msec
