                         Program Version 5.0.0 -  RELEASE  -
|  1> !DLPNO-CCSD(T) aug-cc-pVTZ aug-cc-pVTZ/C TightSCF TightPNO RIJCOSX def2/J
|  2> *xyz 1 1
|  3> C          0.81607       -2.10149       -2.18655
|  4> H          1.69623       -2.36869       -1.60046
|  5> N          1.10055       -2.46749       -3.59927
|  6> C          0.51624       -0.61363       -2.03937
|  7> H         -0.02007       -2.71285       -1.84084
|  8> C         -0.86862       -0.19392       -2.54630
|  9> H          1.70061       -1.75723       -4.07838
| 10> H          0.29386       -2.35977       -4.25632
| 11> H          1.50132       -3.42848       -3.69491
| 12> H          1.29904       -0.05680       -2.55898
| 13> H          0.61239       -0.36558       -0.97917
| 14> H         -0.95781       -0.43872       -3.58410
| 15> H         -0.99113        0.86113       -2.41690
| 16> H         -1.62334       -0.71130       -1.99167
| 17> *
| 18> %MaxCore 64000
| 19>
| 20> %pal nprocs 8
| 21> end
| 22>
| 23> %scf
| 24>   MaxIter 150
| 25> end
| 26>
| 27>
| 28>                          ****END OF INPUT****

CARTESIAN COORDINATES (ANGSTROEM)
---------------------------------
  C      0.816070   -2.101490   -2.186550
  H      1.696230   -2.368690   -1.600460
  N      1.100550   -2.467490   -3.599270
  C      0.516240   -0.613630   -2.039370
  H     -0.020070   -2.712850   -1.840840
  C     -0.868620   -0.193920   -2.546300
  H      1.700610   -1.757230   -4.078380
  H      0.293860   -2.359770   -4.256320
  H      1.501320   -3.428480   -3.694910
  H      1.299040   -0.056800   -2.558980
  H      0.612390   -0.365580   -0.979170
  H     -0.957810   -0.438720   -3.584100
  H     -0.991130    0.861130   -2.416900
  H     -1.623340   -0.711300   -1.991670

 Total Charge           Charge          ....    1
 Multiplicity           Mult            ....    1
 Number of Electrons    NEL             ....   34
 Basis Dimension        Dim             ....  414

ORBITAL ENERGIES
----------------

  NO   OCC          E(Eh)            E(eV)
   0   2.0000     -15.899627      -432.6508
   1   2.0000     -11.474008      -312.2236
   2   2.0000     -11.401234      -310.2434
   3   2.0000     -11.365009      -309.2576
   4   2.0000      -1.508330       -41.0438
   5   2.0000      -1.239565       -33.7303
   6   2.0000      -1.124867       -30.6092
   7   2.0000      -1.009853       -27.4795
   8   2.0000      -0.962130       -26.1809
   9   2.0000      -0.938539       -25.5389
  10   2.0000      -0.860058       -23.4034
  11   2.0000      -0.786304       -21.3964
  12   2.0000      -0.767678       -20.8896
  13   2.0000      -0.738370       -20.0921
  14   2.0000      -0.667712       -18.1694
  15   2.0000      -0.659626       -17.9493
  16   2.0000      -0.657619       -17.8947
  17   0.0000      -0.116214        -3.1623
  18   0.0000      -0.081826        -2.2266
  19   0.0000      -0.079509        -2.1635
  20   0.0000      -0.068463        -1.8630
  21   0.0000      -0.045266        -1.2318

MULLIKEN ATOMIC CHARGES
-----------------------
   0 C :   -0.330892
   1 H :    0.349993
   2 N :    0.041270
   3 C :   -0.457400
   4 H :    0.361871
   5 C :   -0.931291
   6 H :    0.149998
   7 H :    0.166979
   8 H :    0.140708
   9 H :    0.274989
  10 H :    0.336632
  11 H :    0.290254
  12 H :    0.315675
  13 H :    0.291215
Sum of atomic charges:    1.0000000

LOEWDIN ATOMIC CHARGES
----------------------
   0 C :    0.327492
   1 H :   -0.112368
   2 N :    1.078289
   3 C :    0.314261
   4 H :   -0.109834
   5 C :    0.633630
   6 H :   -0.125546
   7 H :   -0.124238
   8 H :   -0.099571
   9 H :   -0.141269
  10 H :   -0.124833
  11 H :   -0.185605
  12 H :   -0.160932
  13 H :   -0.169474

  Mayer bond orders larger than 0.100000
B(  0-C ,  1-H ) :   0.8956 B(  0-C ,  2-N ) :   0.7657 B(  0-C ,  3-C ) :   0.9070
B(  0-C ,  4-H ) :   0.8652 B(  2-N ,  6-H ) :   0.9827 B(  2-N ,  7-H ) :   0.9918
B(  2-N ,  8-H ) :   1.0273 B(  3-C ,  5-C ) :   0.8394 B(  3-C ,  9-H ) :   0.9380
B(  3-C , 10-H ) :   0.8974 B(  5-C , 11-H ) :   0.9296 B(  5-C , 12-H ) :   0.9552
B(  5-C , 13-H ) :   0.9451

E(0)                                       ...   -173.714429448
E(0)                                       ...   -173.714429448
E(CORR)(strong-pairs)                      ...     -0.804015156
E(CORR)(weak-pairs)                        ...     -0.000697563
E(CORR)(corrected)                         ...     -0.804712718
E(TOT)                                     ...   -174.519142167
E(CCSD(T))                                 ...   -174.547844382
FINAL SINGLE POINT ENERGY      -174.547844382152

DIPOLE MOMENT
-------------
                                X             Y             Z
Electronic contribution:      1.49504      -1.86076      -0.71370
Nuclear contribution   :     -0.52914       0.42437      -0.52967
                        -----------------------------------------
Total Dipole Moment    :      0.96591      -1.43639      -1.24337
                        -----------------------------------------
Magnitude (a.u.)       :      2.13124
Magnitude (Debye)      :      5.41718

Rotational constants in cm-1:     0.462856     0.150885     0.132529
Rotational constants in MHz : 13876.083919  4523.416930  3973.119974

                             ****ORCA TERMINATED NORMALLY****
TOTAL RUN TIME: 0 days 0 hours 5 minutes 50 seconds 727 msec
