                         Program Version 5.0.0 -  RELEASE  -
|  1> !DLPNO-CCSD(T) aug-cc-pVTZ aug-cc-pVTZ/C TightSCF TightPNO RIJCOSX def2/J
|  2> *xyz 0 1
|  3> C         -0.98480        1.28474       -2.92869
|  4> C         -0.10608        1.76991       -4.08984
|  5> H         -0.34774        2.82220       -4.26294
|  6> H          0.94968        1.74588       -3.80878
|  7> C         -0.25875        1.00432       -5.40983
|  8> C          0.39596       -0.37070       -5.33994
|  9> H          0.23915        1.56939       -6.20125
| 10> H         -1.30936        0.88869       -5.68245
| 11> F         -0.32633       -1.39040       -5.49128
| 12> O          1.61941       -0.40073       -5.03683
| 13> H         -2.01317        1.31546       -3.22263
| 14> H         -0.83724        1.91975       -2.08023
| 15> H         -0.71656        0.28077       -2.67373
| 16> *
| 17> %MaxCore 64000
| 18>
| 19> %pal nprocs 8
| 20> end
| 21>
| 22> %scf
| 23>   MaxIter 150
| 24> end
| 25>
| 26>
| 27>                          ****END OF INPUT****

CARTESIAN COORDINATES (ANGSTROEM)
---------------------------------
  C     -0.984800    1.284740   -2.928690
  C     -0.106080    1.769910   -4.089840
  H     -0.347740    2.822200   -4.262940
  H      0.949680    1.745880   -3.808780
  C     -0.258750    1.004320   -5.409830
  C      0.395960   -0.370700   -5.339940
  H      0.239150    1.569390   -6.201250
  H     -1.309360    0.888690   -5.682450
  F     -0.326330   -1.390400   -5.491280
  O      1.619410   -0.400730   -5.036830
  H     -2.013170    1.315460   -3.222630
  H     -0.837240    1.919750   -2.080230
  H     -0.716560    0.280770   -2.673730

 Total Charge           Charge          ....    0
 Multiplicity           Mult            ....    1
 Number of Electrons    NEL             ....   48
 Basis Dimension        Dim             ....  437

ORBITAL ENERGIES
----------------

  NO   OCC          E(Eh)            E(eV)
   0   2.0000     -26.375173      -717.7049
   1   2.0000     -20.560703      -559.4852
   2   2.0000     -11.430299      -311.0343
   3   2.0000     -11.261022      -306.4280
   4   2.0000     -11.240322      -305.8647
   5   2.0000     -11.219345      -305.2939
   6   2.0000      -1.727261       -47.0012
   7   2.0000      -1.370567       -37.2950
   8   2.0000      -1.092379       -29.7251
   9   2.0000      -0.990652       -26.9570
  10   2.0000      -0.904372       -24.6092
  11   2.0000      -0.835596       -22.7377
  12   2.0000      -0.769328       -20.9345
  13   2.0000      -0.761920       -20.7329
  14   2.0000      -0.712832       -19.3972
  15   2.0000      -0.633027       -17.2255
  16   2.0000      -0.631022       -17.1710
  17   2.0000      -0.583373       -15.8744
  18   2.0000      -0.576974       -15.7003
  19   2.0000      -0.526584       -14.3291
  20   2.0000      -0.498317       -13.5599
  21   2.0000      -0.497368       -13.5341
  22   2.0000      -0.480066       -13.0633
  23   2.0000      -0.464540       -12.6408
  24   0.0000       0.026724         0.7272
  25   0.0000       0.036323         0.9884
  26   0.0000       0.038764         1.0548
  27   0.0000       0.045964         1.2508
  28   0.0000       0.058267         1.5855

MULLIKEN ATOMIC CHARGES
-----------------------
   0 C :   -0.946105
   1 C :   -0.407298
   2 H :    0.259076
   3 H :    0.294355
   4 C :   -0.268784
   5 C :    0.700441
   6 H :    0.296732
   7 H :    0.222126
   8 F :   -0.307501
   9 O :   -0.702411
  10 H :    0.275293
  11 H :    0.294371
  12 H :    0.289706
Sum of atomic charges:    0.0000000

LOEWDIN ATOMIC CHARGES
----------------------
   0 C :    0.608162
   1 C :    0.258788
   2 H :   -0.147816
   3 H :   -0.161918
   4 C :    0.258577
   5 C :   -0.914735
   6 H :   -0.154989
   7 H :   -0.168980
   8 F :    0.580035
   9 O :    0.390407
  10 H :   -0.184396
  11 H :   -0.179066
  12 H :   -0.184070

  Mayer bond orders larger than 0.100000
B(  0-C ,  1-C ) :   0.7970 B(  0-C , 10-H ) :   0.9479 B(  0-C , 11-H ) :   0.9618
B(  0-C , 12-H ) :   0.9249 B(  1-C ,  2-H ) :   0.9518 B(  1-C ,  3-H ) :   0.9308
B(  1-C ,  4-C ) :   0.9129 B(  4-C ,  5-C ) :   0.7275 B(  4-C ,  6-H ) :   0.9331
B(  4-C ,  7-H ) :   0.9456 B(  5-C ,  8-F ) :   0.7432 B(  5-C ,  9-O ) :   1.6636

E(0)                                       ...   -329.973448500
E(0)                                       ...   -329.973448500
E(CORR)(strong-pairs)                      ...     -1.212140135
E(CORR)(weak-pairs)                        ...     -0.001141302
E(CORR)(corrected)                         ...     -1.213281437
E(TOT)                                     ...   -331.186729938
E(CCSD(T))                                 ...   -331.234698971
FINAL SINGLE POINT ENERGY      -331.234698971479

DIPOLE MOMENT
-------------
                                X             Y             Z
Electronic contribution:      2.64639      -9.01492      -5.69526
Nuclear contribution   :     -3.72230       9.78546       5.57872
                        -----------------------------------------
Total Dipole Moment    :     -1.07591       0.77054      -0.11654
                        -----------------------------------------
Magnitude (a.u.)       :      1.32849
Magnitude (Debye)      :      3.37677

Rotational constants in cm-1:     0.192703     0.076176     0.069525
Rotational constants in MHz :  5777.081080  2283.698999  2084.312921

                             ****ORCA TERMINATED NORMALLY****
TOTAL RUN TIME: 0 days 0 hours 13 minutes 9 seconds 769 msec
