                         Program Version 5.0.0 -  RELEASE  -
|  1> !DLPNO-CCSD(T) aug-cc-pVTZ aug-cc-pVTZ/C TightSCF TightPNO RIJCOSX def2/J
|  2> *xyz 0 1
|  3> C          0.81607       -2.10149       -2.18655
|  4> H          1.69623       -2.36869       -1.60046
|  5> C          1.10055       -2.46749       -3.59927
|  6> C          0.51624       -0.61363       -2.03937
|  7> H         -0.02007       -2.71285       -1.84084
|  8> C         -0.86862       -0.19392       -2.54630
|  9> H          1.70061       -1.75723       -4.07838
| 10> H          0.29386       -2.35977       -4.25632
| 11> H          1.50132       -3.42848       -3.69491
| 12> H          1.29904       -0.05680       -2.55898
| 13> H          0.61239       -0.36558       -0.97917
| 14> H         -0.95781       -0.43872       -3.58410
| 15> H         -0.99113        0.86113       -2.41690
| 16> H         -1.62334       -0.71130       -1.99167
| 17> *
| 18> %MaxCore 64000
| 19>
| 20> %pal nprocs 8
| 21> end
| 22>
| 23> %scf
| 24>   MaxIter 150
| 25> end
| 26>
| 27>
| 28>                          ****END OF INPUT****

CARTESIAN COORDINATES (ANGSTROEM)
---------------------------------
  C      0.816070   -2.101490   -2.186550
  H      1.696230   -2.368690   -1.600460
  C      1.100550   -2.467490   -3.599270
  C      0.516240   -0.613630   -2.039370
  H     -0.020070   -2.712850   -1.840840
  C     -0.868620   -0.193920   -2.546300
  H      1.700610   -1.757230   -4.078380
  H      0.293860   -2.359770   -4.256320
  H      1.501320   -3.428480   -3.694910
  H      1.299040   -0.056800   -2.558980
  H      0.612390   -0.365580   -0.979170
  H     -0.957810   -0.438720   -3.584100
  H     -0.991130    0.861130   -2.416900
  H     -1.623340   -0.711300   -1.991670

 Total Charge           Charge          ....    0
 Multiplicity           Mult            ....    1
 Number of Electrons    NEL             ....   34
 Basis Dimension        Dim             ....  414

ORBITAL ENERGIES
----------------

  NO   OCC          E(Eh)            E(eV)
   0   2.0000     -11.211662      -305.0848
   1   2.0000     -11.208237      -304.9916
   2   2.0000     -11.201610      -304.8113
   3   2.0000     -11.184984      -304.3589
   4   2.0000      -1.078124       -29.3373
   5   2.0000      -0.986427       -26.8421
   6   2.0000      -0.878901       -23.9161
   7   2.0000      -0.783706       -21.3257
   8   2.0000      -0.629986       -17.1428
   9   2.0000      -0.623618       -16.9695
  10   2.0000      -0.581548       -15.8247
  11   2.0000      -0.551112       -14.9965
  12   2.0000      -0.534693       -14.5497
  13   2.0000      -0.498357       -13.5610
  14   2.0000      -0.467207       -12.7133
  15   2.0000      -0.458368       -12.4728
  16   2.0000      -0.452601       -12.3159
  17   0.0000       0.032771         0.8917
  18   0.0000       0.038525         1.0483
  19   0.0000       0.039968         1.0876
  20   0.0000       0.041998         1.1428
  21   0.0000       0.057526         1.5654

MULLIKEN ATOMIC CHARGES
-----------------------
   0 C :   -0.396262
   1 H :    0.232458
   2 C :   -1.071414
   3 C :   -0.406756
   4 H :    0.276607
   5 C :   -0.983696
   6 H :    0.292399
   7 H :    0.327745
   8 H :    0.324604
   9 H :    0.239106
  10 H :    0.284231
  11 H :    0.322090
  12 H :    0.297191
  13 H :    0.261696
Sum of atomic charges:    0.0000000

LOEWDIN ATOMIC CHARGES
----------------------
   0 C :    0.264647
   1 H :   -0.143642
   2 C :    0.593314
   3 C :    0.270183
   4 H :   -0.140836
   5 C :    0.606134
   6 H :   -0.204352
   7 H :   -0.204462
   8 H :   -0.183660
   9 H :   -0.151370
  10 H :   -0.150686
  11 H :   -0.189726
  12 H :   -0.183874
  13 H :   -0.181671

  Mayer bond orders larger than 0.100000
B(  0-C ,  1-H ) :   0.9983 B(  0-C ,  2-C ) :   0.7686 B(  0-C ,  3-C ) :   0.8672
B(  0-C ,  4-H ) :   0.9269 B(  2-C ,  6-H ) :   0.9613 B(  2-C ,  7-H ) :   0.9244
B(  2-C ,  8-H ) :   0.9258 B(  3-C ,  5-C ) :   0.8127 B(  3-C ,  9-H ) :   0.9606
B(  3-C , 10-H ) :   0.9479 B(  5-C , 11-H ) :   0.9118 B(  5-C , 12-H ) :   0.9652
B(  5-C , 13-H ) :   0.9764

E(0)                                       ...   -157.343419568
E(0)                                       ...   -157.343419568
E(CORR)(strong-pairs)                      ...     -0.778265589
E(CORR)(weak-pairs)                        ...     -0.000690715
E(CORR)(corrected)                         ...     -0.778956304
E(TOT)                                     ...   -158.122375873
E(CCSD(T))                                 ...   -158.150649522
FINAL SINGLE POINT ENERGY      -158.150649521851

DIPOLE MOMENT
-------------
                                X             Y             Z
Electronic contribution:      0.31611      -0.06718       0.82833
Nuclear contribution   :     -0.30980       0.07990      -0.83209
                        -----------------------------------------
Total Dipole Moment    :      0.00631       0.01272      -0.00376
                        -----------------------------------------
Magnitude (a.u.)       :      0.01469
Magnitude (Debye)      :      0.03735

Rotational constants in cm-1:     0.470198     0.157622     0.138278
Rotational constants in MHz : 14096.185772  4725.380109  4145.481686

                             ****ORCA TERMINATED NORMALLY****
TOTAL RUN TIME: 0 days 0 hours 6 minutes 46 seconds 536 msec
