                         Program Version 5.0.0 -  RELEASE  -
|  1> !DLPNO-CCSD(T) aug-cc-pVTZ aug-cc-pVTZ/C TightSCF TightPNO RIJCOSX def2/J
|  2> *xyz 0 1
|  3> C         -0.98480        1.28474       -2.92869
|  4> C         -0.10608        1.76991       -4.08984
|  5> H         -0.34774        2.82220       -4.26294
|  6> H          0.94968        1.74588       -3.80878
|  7> C         -0.25875        1.00432       -5.40983
|  8> C          0.39596       -0.37070       -5.33994
|  9> H          0.23915        1.56939       -6.20125
| 10> H         -1.30936        0.88869       -5.68245
| 11> O         -0.32633       -1.39040       -5.49128
| 12> F          1.61941       -0.40073       -5.03683
| 13> H         -2.01317        1.31546       -3.22263
| 14> H         -0.83724        1.91975       -2.08023
| 15> H         -0.71656        0.28077       -2.67373
| 16> *
| 17> %MaxCore 64000
| 18>
| 19> %pal nprocs 8
| 20> end
| 21>
| 22> %scf
| 23>   MaxIter 150
| 24> end
| 25>
| 26>
| 27>                          ****END OF INPUT****

CARTESIAN COORDINATES (ANGSTROEM)
---------------------------------
  C     -0.984800    1.284740   -2.928690
  C     -0.106080    1.769910   -4.089840
  H     -0.347740    2.822200   -4.262940
  H      0.949680    1.745880   -3.808780
  C     -0.258750    1.004320   -5.409830
  C      0.395960   -0.370700   -5.339940
  H      0.239150    1.569390   -6.201250
  H     -1.309360    0.888690   -5.682450
  O     -0.326330   -1.390400   -5.491280
  F      1.619410   -0.400730   -5.036830
  H     -2.013170    1.315460   -3.222630
  H     -0.837240    1.919750   -2.080230
  H     -0.716560    0.280770   -2.673730

 Total Charge           Charge          ....    0
 Multiplicity           Mult            ....    1
 Number of Electrons    NEL             ....   48
 Basis Dimension        Dim             ....  437

ORBITAL ENERGIES
----------------

  NO   OCC          E(Eh)            E(eV)
   0   2.0000     -26.373616      -717.6626
   1   2.0000     -20.562600      -559.5368
   2   2.0000     -11.428833      -310.9944
   3   2.0000     -11.260752      -306.4206
   4   2.0000     -11.245930      -306.0173
   5   2.0000     -11.220152      -305.3158
   6   2.0000      -1.725752       -46.9601
   7   2.0000      -1.370929       -37.3049
   8   2.0000      -1.097087       -29.8533
   9   2.0000      -0.990866       -26.9628
  10   2.0000      -0.900647       -24.5078
  11   2.0000      -0.839353       -22.8399
  12   2.0000      -0.775028       -21.0896
  13   2.0000      -0.765096       -20.8193
  14   2.0000      -0.699419       -19.0322
  15   2.0000      -0.637447       -17.3458
  16   2.0000      -0.632184       -17.2026
  17   2.0000      -0.588958       -16.0264
  18   2.0000      -0.571711       -15.5571
  19   2.0000      -0.527272       -14.3478
  20   2.0000      -0.512868       -13.9558
  21   2.0000      -0.503164       -13.6918
  22   2.0000      -0.483753       -13.1636
  23   2.0000      -0.455807       -12.4031
  24   0.0000       0.025576         0.6959
  25   0.0000       0.035116         0.9556
  26   0.0000       0.039637         1.0786
  27   0.0000       0.045122         1.2278
  28   0.0000       0.057893         1.5753

MULLIKEN ATOMIC CHARGES
-----------------------
   0 C :   -0.925303
   1 C :   -0.460409
   2 H :    0.249301
   3 H :    0.272383
   4 C :   -0.256599
   5 C :    0.724227
   6 H :    0.295262
   7 H :    0.254620
   8 O :   -0.701362
   9 F :   -0.326604
  10 H :    0.283312
  11 H :    0.297689
  12 H :    0.293483
Sum of atomic charges:    0.0000000

LOEWDIN ATOMIC CHARGES
----------------------
   0 C :    0.610079
   1 C :    0.257324
   2 H :   -0.148220
   3 H :   -0.159222
   4 C :    0.258109
   5 C :   -0.920585
   6 H :   -0.159220
   7 H :   -0.159044
   8 O :    0.381634
   9 F :    0.583271
  10 H :   -0.180104
  11 H :   -0.180514
  12 H :   -0.183507

  Mayer bond orders larger than 0.100000
B(  0-C ,  1-C ) :   0.8079 B(  0-C , 10-H ) :   0.9457 B(  0-C , 11-H ) :   0.9536
B(  0-C , 12-H ) :   0.9272 B(  1-C ,  2-H ) :   0.9701 B(  1-C ,  3-H ) :   0.9329
B(  1-C ,  4-C ) :   0.8967 B(  1-C ,  5-C ) :   0.1230 B(  4-C ,  5-C ) :   0.7512
B(  4-C ,  6-H ) :   0.9519 B(  4-C ,  7-H ) :   0.9270 B(  4-C ,  9-F ) :   0.1125
B(  5-C ,  8-O ) :   1.6023 B(  5-C ,  9-F ) :   0.7864

E(0)                                       ...   -329.975229885
E(0)                                       ...   -329.975229885
E(CORR)(strong-pairs)                      ...     -1.211704034
E(CORR)(weak-pairs)                        ...     -0.001131743
E(CORR)(corrected)                         ...     -1.212835777
E(TOT)                                     ...   -331.188065662
E(CCSD(T))                                 ...   -331.235885478
FINAL SINGLE POINT ENERGY      -331.235885478430

DIPOLE MOMENT
-------------
                                X             Y             Z
Electronic contribution:      6.05297      -7.25479      -4.88532
Nuclear contribution   :     -5.92016       8.66755       5.06539
                        -----------------------------------------
Total Dipole Moment    :      0.13281       1.41277       0.18007
                        -----------------------------------------
Magnitude (a.u.)       :      1.43038
Magnitude (Debye)      :      3.63573

Rotational constants in cm-1:     0.191324     0.076691     0.070269
Rotational constants in MHz :  5735.753800  2299.148675  2106.608556

                             ****ORCA TERMINATED NORMALLY****
TOTAL RUN TIME: 0 days 0 hours 12 minutes 26 seconds 830 msec
