                         Program Version 5.0.0 -  RELEASE  -
|  1> !DLPNO-CCSD(T) aug-cc-pVTZ aug-cc-pVTZ/C TightSCF TightPNO RIJCOSX def2/J
|  2>
|  3> *xyzfile 0 1 D2.xyz
|  4>
|  5> %MaxCore 64000
|  6>
|  7> %pal nprocs 18
|  8> end
|  9>
| 10> %scf
| 11>   MaxIter 150
| 12> end
| 13>
| 14>
| 15>                          ****END OF INPUT****

CARTESIAN COORDINATES (ANGSTROEM)
---------------------------------
  C      0.816067   -2.101491   -2.186546
  H      1.696232   -2.368691   -1.600457
  C      1.100552   -2.467492   -3.599269
  C      0.516243   -0.613634   -2.039373
  H     -0.020066   -2.712849   -1.840844
  C     -0.868621   -0.193925   -2.546303
  C     -0.984801    1.284739   -2.928686
  H     -0.764939    1.904116   -2.051568
  H     -2.032613    1.478953   -3.178952
  C     -0.106085    1.769914   -4.089836
  H     -0.347744    2.822196   -4.262942
  H      0.949683    1.745875   -3.808781
  C     -0.258747    1.004323   -5.409829
  C      0.395958   -0.370696   -5.339939
  H      0.239150    1.569393   -6.201253
  H     -1.309360    0.888694   -5.682455
  H      1.700606   -1.757225   -4.078378
  H      0.293855   -2.359766   -4.256324
  H      1.501324   -3.428479   -3.694915
  O     -0.326329   -1.390398   -5.491279
  F      1.619412   -0.400726   -5.036827
  H     -1.607271   -0.412651   -1.768955
  H     -1.157234   -0.796164   -3.409254
  H      1.299044   -0.056805   -2.558982
  H      0.612393   -0.365579   -0.979171

 Total Charge           Charge          ....    0
 Multiplicity           Mult            ....    1
 Number of Electrons    NEL             ....   80
 Basis Dimension        Dim             ....  805

ORBITAL ENERGIES
----------------

  NO   OCC          E(Eh)            E(eV)
   0   2.0000     -26.381596      -717.8797
   1   2.0000     -20.565513      -559.6161
   2   2.0000     -11.438228      -311.2500
   3   2.0000     -11.264272      -306.5164
   4   2.0000     -11.244910      -305.9896
   5   2.0000     -11.227704      -305.5213
   6   2.0000     -11.212746      -305.1143
   7   2.0000     -11.208050      -304.9865
   8   2.0000     -11.194246      -304.6109
   9   2.0000     -11.139218      -303.1135
  10   2.0000      -1.741421       -47.3865
  11   2.0000      -1.386736       -37.7350
  12   2.0000      -1.110916       -30.2296
  13   2.0000      -1.071855       -29.1666
  14   2.0000      -1.011020       -27.5113
  15   2.0000      -0.959899       -26.1202
  16   2.0000      -0.906844       -24.6765
  17   2.0000      -0.871506       -23.7149
  18   2.0000      -0.825788       -22.4708
  19   2.0000      -0.788773       -21.4636
  20   2.0000      -0.779571       -21.2132
  21   2.0000      -0.759209       -20.6591
  22   2.0000      -0.713554       -19.4168
  23   2.0000      -0.652657       -17.7597
  24   2.0000      -0.633865       -17.2483
  25   2.0000      -0.609008       -16.5720
  26   2.0000      -0.605479       -16.4759
  27   2.0000      -0.592788       -16.1306
  28   2.0000      -0.587411       -15.9843
  29   2.0000      -0.551521       -15.0077
  30   2.0000      -0.534345       -14.5403
  31   2.0000      -0.528177       -14.3724
  32   2.0000      -0.516675       -14.0594
  33   2.0000      -0.494824       -13.4648
  34   2.0000      -0.481807       -13.1106
  35   2.0000      -0.469604       -12.7786
  36   2.0000      -0.454101       -12.3567
  37   2.0000      -0.443490       -12.0680
  38   2.0000      -0.436571       -11.8797
  39   2.0000      -0.408984       -11.1290
  40   0.0000       0.023700         0.6449
  41   0.0000       0.032647         0.8884
  42   0.0000       0.035641         0.9698
  43   0.0000       0.038353         1.0436
  44   0.0000       0.048034         1.3071

MULLIKEN ATOMIC CHARGES
-----------------------
   0 C :   -0.506129
   1 H :    0.208704
   2 C :   -1.177180
   3 C :   -0.375596
   4 H :    0.171843
   5 C :   -0.383275
   6 C :   -0.595423
   7 H :    0.231773
   8 H :    0.205363
   9 C :   -0.342931
  10 H :    0.326626
  11 H :    0.200811
  12 C :   -0.424401
  13 C :    1.133203
  14 H :    0.302921
  15 H :    0.270061
  16 H :    0.423996
  17 H :    0.463855
  18 H :    0.271849
  19 O :   -0.861788
  20 F :   -0.469669
  21 H :    0.456422
  22 H :    0.066517
  23 H :    0.063710
  24 H :    0.338738
Sum of atomic charges:    0.0000000

LOEWDIN ATOMIC CHARGES
----------------------
   0 C :    0.291731
   1 H :   -0.143065
   2 C :    0.569042
   3 C :    0.294679
   4 H :   -0.134979
   5 C :    0.297406
   6 C :    0.302513
   7 H :   -0.136119
   8 H :   -0.143210
   9 C :    0.286618
  10 H :   -0.139366
  11 H :   -0.161720
  12 C :    0.303648
  13 C :   -0.788667
  14 H :   -0.150844
  15 H :   -0.145965
  16 H :   -0.414592
  17 H :   -0.459909
  18 H :   -0.165225
  19 O :    0.557973
  20 F :    0.726614
  21 H :   -0.130313
  22 H :   -0.203604
  23 H :   -0.174654
  24 H :   -0.137991

  Mayer bond orders larger than 0.100000
B(  0-C ,  1-H ) :   1.0238 B(  0-C ,  2-C ) :   0.7144 B(  0-C ,  3-C ) :   0.8781
B(  0-C ,  4-H ) :   1.0473 B(  2-C , 16-H ) :   0.9914 B(  2-C , 17-H ) :   0.8066
B(  2-C , 18-H ) :   0.9949 B(  3-C ,  5-C ) :   0.7428 B(  3-C , 22-H ) :   0.1171
B(  3-C , 23-H ) :   1.1620 B(  3-C , 24-H ) :   0.8745 B(  5-C ,  6-C ) :   0.9006
B(  5-C , 21-H ) :   0.7767 B(  5-C , 22-H ) :   1.1668 B(  6-C ,  7-H ) :   0.9920
B(  6-C ,  8-H ) :   1.0144 B(  6-C ,  9-C ) :   0.8039 B(  9-C , 10-H ) :   0.8982
B(  9-C , 11-H ) :   1.0260 B(  9-C , 12-C ) :   0.9234 B( 12-C , 13-C ) :   0.8489
B( 12-C , 14-H ) :   0.9386 B( 12-C , 15-H ) :   0.9679 B( 12-C , 20-F ) :   0.1641
B( 13-C , 19-O ) :   1.3029 B( 13-C , 20-F ) :   0.5912 B( 16-H , 20-F ) :  -0.1827

E(0)                                       ...   -486.092094422
E(0)                                       ...   -486.092094422
E(CORR)(strong-pairs)                      ...     -1.975933213
E(CORR)(weak-pairs)                        ...     -0.002635899
E(CORR)(corrected)                         ...     -1.978569111
E(TOT)                                     ...   -488.070663533
E(CCSD(T))                                 ...   -488.150978033
FINAL SINGLE POINT ENERGY      -488.150978032583

DIPOLE MOMENT
-------------
                                X             Y             Z
Electronic contribution:      3.59773      -0.18408      -9.81276
Nuclear contribution   :     -3.57245       1.60200       9.69133
                        -----------------------------------------
Total Dipole Moment    :      0.02528       1.41792      -0.12143
                        -----------------------------------------
Magnitude (a.u.)       :      1.42333
Magnitude (Debye)      :      3.61782

Rotational constants in cm-1:     0.051520     0.042563     0.028962
Rotational constants in MHz :  1544.537298  1275.996546   868.258224

                             ****ORCA TERMINATED NORMALLY****
TOTAL RUN TIME: 0 days 2 hours 2 minutes 23 seconds 663 msec
