                         Program Version 5.0.0 -  RELEASE  -
|  1> !PBE0 D3BJ RIJCOSX def2-TZVP def2/J TightSCF
|  2> *xyz -1 1
|  3> C          0.84888        2.66797       -4.30235
|  4> C          2.09343        1.86104       -4.65684
|  5> H          2.44481        2.04157       -5.67499
|  6> H          2.90175        2.13786       -3.98034
|  7> S          1.87964        0.07859       -4.46297
|  8> O          3.20757       -0.46611       -4.42026
|  9> O          1.07506       -0.05616       -3.26876
| 10> O          1.13166       -0.31996       -5.67903
| 11> H          0.05064        2.40112       -4.96303
| 12> H          1.06043        3.71210       -4.40203
| 13> H          0.56237        2.45684       -3.29327
| 14> *
| 15>
| 16> %MaxCore 64000
| 17>
| 18> %pal nprocs 4
| 19> end
| 20>
| 21> %scf
| 22>   MaxIter 150
| 23> end
| 24>
| 25>
| 26>                          ****END OF INPUT****

CARTESIAN COORDINATES (ANGSTROEM)
---------------------------------
  C      0.848880    2.667970   -4.302350
  C      2.093430    1.861040   -4.656840
  H      2.444810    2.041570   -5.674990
  H      2.901750    2.137860   -3.980340
  S      1.879640    0.078590   -4.462970
  O      3.207570   -0.466110   -4.420260
  O      1.075060   -0.056160   -3.268760
  O      1.131660   -0.319960   -5.679030
  H      0.050640    2.401120   -4.963030
  H      1.060430    3.712100   -4.402030
  H      0.562370    2.456840   -3.293270

 Total Charge           Charge          ....   -1
 Multiplicity           Mult            ....    1
 Number of Electrons    NEL             ....   58
 Basis Dimension        Dim             ....  222

ORBITAL ENERGIES
----------------

  NO   OCC          E(Eh)            E(eV)
   0   2.0000     -88.992321     -2421.6042
   1   2.0000     -18.980127      -516.4755
   2   2.0000     -18.976916      -516.3881
   3   2.0000     -18.963689      -516.0282
   4   2.0000     -10.074226      -274.1336
   5   2.0000     -10.067550      -273.9520
   6   2.0000      -7.937965      -216.0030
   7   2.0000      -5.875383      -159.8773
   8   2.0000      -5.874011      -159.8400
   9   2.0000      -5.873771      -159.8334
  10   2.0000      -0.946464       -25.7546
  11   2.0000      -0.818399       -22.2698
  12   2.0000      -0.792174       -21.5562
  13   2.0000      -0.647644       -17.6233
  14   2.0000      -0.516854       -14.0643
  15   2.0000      -0.391852       -10.6628
  16   2.0000      -0.325714        -8.8631
  17   2.0000      -0.323872        -8.8130
  18   2.0000      -0.283207        -7.7065
  19   2.0000      -0.270020        -7.3476
  20   2.0000      -0.262070        -7.1313
  21   2.0000      -0.235583        -6.4106
  22   2.0000      -0.219324        -5.9681
  23   2.0000      -0.160167        -4.3584
  24   2.0000      -0.159650        -4.3443
  25   2.0000      -0.125405        -3.4124
  26   2.0000      -0.115290        -3.1372
  27   2.0000      -0.104550        -2.8449
  28   2.0000      -0.071793        -1.9536
  29   0.0000       0.185916         5.0590
  30   0.0000       0.228260         6.2113
  31   0.0000       0.243388         6.6229
  32   0.0000       0.249105         6.7785
  33   0.0000       0.276368         7.5204

MULLIKEN ATOMIC CHARGES
-----------------------
   0 C :   -0.341546
   1 C :   -0.246279
   2 H :    0.082468
   3 H :    0.075755
   4 S :    0.805588
   5 O :   -0.537188
   6 O :   -0.549657
   7 O :   -0.588469
   8 H :    0.108626
   9 H :    0.068186
  10 H :    0.122515
Sum of atomic charges:   -1.0000000

LOEWDIN ATOMIC CHARGES
----------------------
   0 C :   -0.349929
   1 C :   -0.434347
   2 H :    0.116901
   3 H :    0.115882
   4 S :    0.391976
   5 O :   -0.366837
   6 O :   -0.374381
   7 O :   -0.428407
   8 H :    0.114452
   9 H :    0.098711
  10 H :    0.115979

  Mayer bond orders larger than 0.100000
B(  0-C ,  1-C ) :   0.9885 B(  0-C ,  8-H ) :   0.9724 B(  0-C ,  9-H ) :   0.9599
B(  0-C , 10-H ) :   0.9696 B(  1-C ,  2-H ) :   0.9581 B(  1-C ,  3-H ) :   0.9503
B(  1-C ,  4-S ) :   0.8781 B(  4-S ,  5-O ) :   1.8376 B(  4-S ,  6-O ) :   1.7702
B(  4-S ,  7-O ) :   1.7612

Dispersion correction           -0.008291641
FINAL SINGLE POINT ENERGY      -702.841961350046

DIPOLE MOMENT
-------------
                                X             Y             Z
Electronic contribution:      1.61768      -7.77621       0.05861
Nuclear contribution   :     -1.55288       9.51857       0.00420
                        -----------------------------------------
Total Dipole Moment    :      0.06480       1.74237       0.06281
                        -----------------------------------------
Magnitude (a.u.)       :      1.74470
Magnitude (Debye)      :      4.43468

Rotational constants in cm-1:     0.163401     0.083833     0.082462
Rotational constants in MHz :  4898.624208  2513.264548  2472.149188

                             ****ORCA TERMINATED NORMALLY****
TOTAL RUN TIME: 0 days 0 hours 0 minutes 24 seconds 568 msec
