                         Program Version 5.0.0 -  RELEASE  -
|  1> !PBE0 D3BJ RIJCOSX def2-TZVP def2/J TightSCF
|  2> *xyz 1 1
|  3> C         -0.46129        2.23469       -4.98962
|  4> C          0.84888        2.66797       -4.30235
|  5> C         -0.42384        2.39877       -6.47432
|  6> N         -0.95947        3.49265       -7.00740
|  7> N          0.14558        1.48689       -7.20399
|  8> H          0.56537        0.69681       -6.72386
|  9> H          0.22068        1.58177       -8.20752
| 10> H         -1.40624        4.18151       -6.40326
| 11> H         -0.93421        3.68160       -7.99947
| 12> H         -1.28888        2.82674       -4.59500
| 13> H         -0.65170        1.18634       -4.75655
| 14> H          1.66208        2.08894       -4.68750
| 15> H          0.76716        2.51042       -3.24717
| 16> H          1.02677        3.70527       -4.49537
| 17> *
| 18>
| 19> %MaxCore 64000
| 20>
| 21> %pal nprocs 4
| 22> end
| 23>
| 24> %scf
| 25>   MaxIter 150
| 26> end
| 27>
| 28>
| 29>                          ****END OF INPUT****

CARTESIAN COORDINATES (ANGSTROEM)
---------------------------------
  C     -0.461290    2.234690   -4.989620
  C      0.848880    2.667970   -4.302350
  C     -0.423840    2.398770   -6.474320
  N     -0.959470    3.492650   -7.007400
  N      0.145580    1.486890   -7.203990
  H      0.565370    0.696810   -6.723860
  H      0.220680    1.581770   -8.207520
  H     -1.406240    4.181510   -6.403260
  H     -0.934210    3.681600   -7.999470
  H     -1.288880    2.826740   -4.595000
  H     -0.651700    1.186340   -4.756550
  H      1.662080    2.088940   -4.687500
  H      0.767160    2.510420   -3.247170
  H      1.026770    3.705270   -4.495370

 Total Charge           Charge          ....    1
 Multiplicity           Mult            ....    1
 Number of Electrons    NEL             ....   40
 Basis Dimension        Dim             ....  209

ORBITAL ENERGIES
----------------

  NO   OCC          E(Eh)            E(eV)
   0   2.0000     -14.630644      -398.1201
   1   2.0000     -14.626942      -398.0193
   2   2.0000     -10.542980      -286.8891
   3   2.0000     -10.420223      -283.5487
   4   2.0000     -10.374758      -282.3115
   5   2.0000      -1.231980       -33.5239
   6   2.0000      -1.135285       -30.8927
   7   2.0000      -0.992131       -26.9973
   8   2.0000      -0.881528       -23.9876
   9   2.0000      -0.834025       -22.6950
  10   2.0000      -0.793921       -21.6037
  11   2.0000      -0.767475       -20.8841
  12   2.0000      -0.715622       -19.4731
  13   2.0000      -0.663326       -18.0500
  14   2.0000      -0.637255       -17.3406
  15   2.0000      -0.628136       -17.0925
  16   2.0000      -0.557665       -15.1748
  17   2.0000      -0.547459       -14.8971
  18   2.0000      -0.540762       -14.7149
  19   2.0000      -0.504863       -13.7380
  20   0.0000      -0.201713        -5.4889
  21   0.0000      -0.150924        -4.1068
  22   0.0000      -0.104410        -2.8412
  23   0.0000      -0.102772        -2.7966
  24   0.0000      -0.075456        -2.0533

MULLIKEN ATOMIC CHARGES
-----------------------
   0 C :   -0.268586
   1 C :   -0.343150
   2 C :    0.320946
   3 N :   -0.356961
   4 N :   -0.323494
   5 H :    0.304476
   6 H :    0.287169
   7 H :    0.304051
   8 H :    0.285466
   9 H :    0.154626
  10 H :    0.172221
  11 H :    0.138695
  12 H :    0.178733
  13 H :    0.145810
Sum of atomic charges:    1.0000000

LOEWDIN ATOMIC CHARGES
----------------------
   0 C :   -0.223782
   1 C :   -0.261363
   2 C :   -0.298022
   3 N :    0.104129
   4 N :    0.128219
   5 H :    0.215688
   6 H :    0.202452
   7 H :    0.211486
   8 H :    0.196107
   9 H :    0.162733
  10 H :    0.166356
  11 H :    0.126311
  12 H :    0.140101
  13 H :    0.129585

  Mayer bond orders larger than 0.100000
B(  0-C ,  1-C ) :   0.9871 B(  0-C ,  2-C ) :   0.9997 B(  0-C ,  9-H ) :   0.9513
B(  0-C , 10-H ) :   0.9432 B(  1-C , 11-H ) :   0.9642 B(  1-C , 12-H ) :   0.9580
B(  1-C , 13-H ) :   0.9591 B(  2-C ,  3-N ) :   1.4615 B(  2-C ,  4-N ) :   1.4964
B(  3-N ,  7-H ) :   0.8791 B(  3-N ,  8-H ) :   0.8851 B(  4-N ,  5-H ) :   0.8777
B(  4-N ,  6-H ) :   0.8823

Dispersion correction           -0.008491359
FINAL SINGLE POINT ENERGY      -228.854158091806

DIPOLE MOMENT
-------------
                                X             Y             Z
Electronic contribution:     -1.55442      -0.26602      -3.88251
Nuclear contribution   :      1.33202       0.27544       2.83701
                        -----------------------------------------
Total Dipole Moment    :     -0.22240       0.00942      -1.04550
                        -----------------------------------------
Magnitude (a.u.)       :      1.06894
Magnitude (Debye)      :      2.71702

Rotational constants in cm-1:     0.258570     0.126296     0.098869
Rotational constants in MHz :  7751.748523  3786.267300  2964.011691

                             ****ORCA TERMINATED NORMALLY****
TOTAL RUN TIME: 0 days 0 hours 0 minutes 25 seconds 946 msec
