                         Program Version 5.0.0 -  RELEASE  -
|  1> !PBE0 D3BJ RIJCOSX def2-TZVP def2/J TightSCF xyzfile
|  2>
|  3> *xyzfile 0 1 B.xyz
|  4>
|  5> %MaxCore 64000
|  6>
|  7> %pal nprocs 18
|  8> end
|  9>
| 10> %scf
| 11>   MaxIter 150
| 12> end
| 13>
| 14>
| 15>                          ****END OF INPUT****

CARTESIAN COORDINATES (ANGSTROEM)
---------------------------------
  C     -0.461293    2.234686   -4.989619
  C      0.848883    2.667967   -4.302351
  C      2.093434    1.861037   -4.656845
  H      2.444814    2.041567   -5.674990
  H      2.901748    2.137864   -3.980338
  S      1.879644    0.078594   -4.462965
  C     -0.423841    2.398772   -6.474317
  N     -0.959467    3.492647   -7.007401
  N      0.145585    1.486891   -7.203987
  H      0.565371    0.696807   -6.723858
  H      0.220682    1.581768   -8.207520
  H     -1.406243    4.181507   -6.403261
  H     -0.934215    3.681601   -7.999468
  O      3.207574   -0.466111   -4.420259
  O      1.075064   -0.056160   -3.268758
  O      1.131661   -0.319960   -5.679031
  H      0.668432    2.559427   -3.232850
  H      1.034074    3.729426   -4.497081
  H     -1.288884    2.826737   -4.594997
  H     -0.651696    1.186343   -4.756552

 Total Charge           Charge          ....    0
 Multiplicity           Mult            ....    1
 Number of Electrons    NEL             ....   88
 Basis Dimension        Dim             ....  376

ORBITAL ENERGIES
----------------

  NO   OCC          E(Eh)            E(eV)
   0   2.0000     -89.148948     -2425.8662
   1   2.0000     -19.141463      -520.8657
   2   2.0000     -19.126735      -520.4649
   3   2.0000     -19.124603      -520.4069
   4   2.0000     -14.491595      -394.3364
   5   2.0000     -14.459220      -393.4554
   6   2.0000     -10.394112      -282.8382
   7   2.0000     -10.271763      -279.5089
   8   2.0000     -10.251191      -278.9491
   9   2.0000     -10.226245      -278.2703
  10   2.0000      -8.094705      -220.2681
  11   2.0000      -6.032334      -164.1481
  12   2.0000      -6.031179      -164.1167
  13   2.0000      -6.029828      -164.0800
  14   2.0000      -1.103361       -30.0240
  15   2.0000      -1.083861       -29.4934
  16   2.0000      -0.989610       -26.9287
  17   2.0000      -0.964989       -26.2587
  18   2.0000      -0.963335       -26.2137
  19   2.0000      -0.856973       -23.3194
  20   2.0000      -0.776492       -21.1294
  21   2.0000      -0.712011       -19.3748
  22   2.0000      -0.666315       -18.1313
  23   2.0000      -0.647608       -17.6223
  24   2.0000      -0.620554       -16.8861
  25   2.0000      -0.577290       -15.7089
  26   2.0000      -0.536224       -14.5914
  27   2.0000      -0.526937       -14.3387
  28   2.0000      -0.497431       -13.5358
  29   2.0000      -0.485108       -13.2005
  30   2.0000      -0.458828       -12.4853
  31   2.0000      -0.448722       -12.2104
  32   2.0000      -0.427128       -11.6228
  33   2.0000      -0.419098       -11.4042
  34   2.0000      -0.401838       -10.9346
  35   2.0000      -0.386542       -10.5184
  36   2.0000      -0.370400       -10.0791
  37   2.0000      -0.357850        -9.7376
  38   2.0000      -0.317554        -8.6411
  39   2.0000      -0.311683        -8.4813
  40   2.0000      -0.281977        -7.6730
  41   2.0000      -0.271164        -7.3787
  42   2.0000      -0.262438        -7.1413
  43   2.0000      -0.230937        -6.2841
  44   0.0000      -0.055721        -1.5163
  45   0.0000      -0.027218        -0.7406
  46   0.0000       0.012558         0.3417
  47   0.0000       0.035718         0.9719
  48   0.0000       0.059701         1.6246

MULLIKEN ATOMIC CHARGES
-----------------------
   0 C :   -0.280495
   1 C :   -0.158734
   2 C :   -0.348098
   3 H :    0.119161
   4 H :    0.143356
   5 S :    0.844541
   6 C :    0.266378
   7 N :   -0.387286
   8 N :   -0.314487
   9 H :    0.314130
  10 H :    0.239172
  11 H :    0.279428
  12 H :    0.259203
  13 O :   -0.485564
  14 O :   -0.499625
  15 O :   -0.577291
  16 H :    0.145978
  17 H :    0.100079
  18 H :    0.123893
  19 H :    0.216259
Sum of atomic charges:    0.0000000

LOEWDIN ATOMIC CHARGES
----------------------
   0 C :   -0.212511
   1 C :   -0.276376
   2 C :   -0.395892
   3 H :    0.125043
   4 H :    0.141697
   5 S :    0.423615
   6 C :   -0.308470
   7 N :    0.061645
   8 N :    0.131230
   9 H :    0.152452
  10 H :    0.181313
  11 H :    0.196999
  12 H :    0.181676
  13 O :   -0.313828
  14 O :   -0.332383
  15 O :   -0.374538
  16 H :    0.158164
  17 H :    0.135217
  18 H :    0.149609
  19 H :    0.175339

  Mayer bond orders larger than 0.100000
B(  0-C ,  1-C ) :   0.9651 B(  0-C ,  6-C ) :   1.0002 B(  0-C , 18-H ) :   0.9512
B(  0-C , 19-H ) :   0.9248 B(  1-C ,  2-C ) :   1.0125 B(  1-C , 16-H ) :   0.9363
B(  1-C , 17-H ) :   0.9390 B(  2-C ,  3-H ) :   0.9469 B(  2-C ,  4-H ) :   0.9492
B(  2-C ,  5-S ) :   0.8985 B(  5-S , 13-O ) :   1.9164 B(  5-S , 14-O ) :   1.7842
B(  5-S , 15-O ) :   1.4895 B(  6-C ,  7-N ) :   1.3694 B(  6-C ,  8-N ) :   1.6076
B(  7-N , 11-H ) :   0.8901 B(  7-N , 12-H ) :   0.8959 B(  8-N ,  9-H ) :   0.7333
B(  8-N , 10-H ) :   0.8999 B(  9-H , 15-O ) :   0.2145

Dispersion correction           -0.019880335
FINAL SINGLE POINT ENERGY      -891.374264193681

DIPOLE MOMENT
-------------
                                X             Y             Z
Electronic contribution:      3.11617      -7.69311       1.09532
Nuclear contribution   :     -5.91573      12.15027      -4.18945
                        -----------------------------------------
Total Dipole Moment    :     -2.79955       4.45717      -3.09414
                        -----------------------------------------
Magnitude (a.u.)       :      6.10553
Magnitude (Debye)      :     15.51903

Rotational constants in cm-1:     0.082044     0.024757     0.022371
Rotational constants in MHz :  2459.631375   742.181961   670.660570

                             ****ORCA TERMINATED NORMALLY****
TOTAL RUN TIME: 0 days 0 hours 0 minutes 31 seconds 605 msec
