                         Program Version 5.0.0 -  RELEASE  -
|  1> !PBE0 D3BJ RIJCOSX def2-TZVP def2/J TightSCF
|  2> *xyz 0 1
|  3> C          0.84888        2.66797       -4.30235
|  4> C          2.09343        1.86104       -4.65684
|  5> H          2.44481        2.04157       -5.67499
|  6> H          2.90175        2.13786       -3.98034
|  7> S          1.87964        0.07859       -4.46297
|  8> F          3.20757       -0.46611       -4.42026
|  9> O          1.07506       -0.05616       -3.26876
| 10> O          1.13166       -0.31996       -5.67903
| 11> H          0.05064        2.40112       -4.96303
| 12> H          1.06043        3.71210       -4.40203
| 13> H          0.56237        2.45684       -3.29327
| 14> *
| 15>
| 16> %MaxCore 64000
| 17>
| 18> %pal nprocs 4
| 19> end
| 20>
| 21> %scf
| 22>   MaxIter 150
| 23> end
| 24>
| 25>
| 26>                          ****END OF INPUT****

CARTESIAN COORDINATES (ANGSTROEM)
---------------------------------
  C      0.848880    2.667970   -4.302350
  C      2.093430    1.861040   -4.656840
  H      2.444810    2.041570   -5.674990
  H      2.901750    2.137860   -3.980340
  S      1.879640    0.078590   -4.462970
  F      3.207570   -0.466110   -4.420260
  O      1.075060   -0.056160   -3.268760
  O      1.131660   -0.319960   -5.679030
  H      0.050640    2.401120   -4.963030
  H      1.060430    3.712100   -4.402030
  H      0.562370    2.456840   -3.293270

 Total Charge           Charge          ....    0
 Multiplicity           Mult            ....    1
 Number of Electrons    NEL             ....   58
 Basis Dimension        Dim             ....  222

ORBITAL ENERGIES
----------------

  NO   OCC          E(Eh)            E(eV)
   0   2.0000     -89.260692     -2428.9069
   1   2.0000     -24.896574      -677.4702
   2   2.0000     -19.217367      -522.9311
   3   2.0000     -19.204854      -522.5906
   4   2.0000     -10.279772      -279.7268
   5   2.0000     -10.233935      -278.4795
   6   2.0000      -8.206908      -223.3213
   7   2.0000      -6.147128      -167.2719
   8   2.0000      -6.141104      -167.1079
   9   2.0000      -6.140621      -167.0948
  10   2.0000      -1.422584       -38.7105
  11   2.0000      -1.131091       -30.7786
  12   2.0000      -1.030935       -28.0532
  13   2.0000      -0.841043       -22.8859
  14   2.0000      -0.759707       -20.6727
  15   2.0000      -0.692991       -18.8572
  16   2.0000      -0.609580       -16.5875
  17   2.0000      -0.607921       -16.5424
  18   2.0000      -0.572486       -15.5781
  19   2.0000      -0.505744       -13.7620
  20   2.0000      -0.497703       -13.5432
  21   2.0000      -0.457917       -12.4606
  22   2.0000      -0.441447       -12.0124
  23   2.0000      -0.418391       -11.3850
  24   2.0000      -0.399319       -10.8660
  25   2.0000      -0.395656       -10.7664
  26   2.0000      -0.347109        -9.4453
  27   2.0000      -0.331942        -9.0326
  28   2.0000      -0.318500        -8.6668
  29   0.0000       0.028385         0.7724
  30   0.0000       0.043018         1.1706
  31   0.0000       0.069941         1.9032
  32   0.0000       0.073991         2.0134
  33   0.0000       0.084363         2.2956

MULLIKEN ATOMIC CHARGES
-----------------------
   0 C :   -0.362505
   1 C :   -0.254440
   2 H :    0.149282
   3 H :    0.131346
   4 S :    0.833728
   5 F :   -0.083966
   6 O :   -0.404648
   7 O :   -0.439129
   8 H :    0.147132
   9 H :    0.132109
  10 H :    0.151091
Sum of atomic charges:   -0.0000000

LOEWDIN ATOMIC CHARGES
----------------------
   0 C :   -0.308390
   1 C :   -0.400835
   2 H :    0.139037
   3 H :    0.134083
   4 S :    0.516213
   5 F :    0.107244
   6 O :   -0.260346
   7 O :   -0.308795
   8 H :    0.128390
   9 H :    0.125467
  10 H :    0.127932

  Mayer bond orders larger than 0.100000
B(  0-C ,  1-C ) :   1.0068 B(  0-C ,  8-H ) :   0.9665 B(  0-C ,  9-H ) :   0.9540
B(  0-C , 10-H ) :   0.9632 B(  1-C ,  2-H ) :   0.9355 B(  1-C ,  3-H ) :   0.9326
B(  1-C ,  4-S ) :   0.9199 B(  4-S ,  5-F ) :   1.1584 B(  4-S ,  6-O ) :   1.9219
B(  4-S ,  7-O ) :   1.9006

Dispersion correction           -0.007928436
FINAL SINGLE POINT ENERGY      -727.347249268635

DIPOLE MOMENT
-------------
                                X             Y             Z
Electronic contribution:      4.16700      -9.36021       0.10553
Nuclear contribution   :     -3.08754      10.54185      -0.04092
                        -----------------------------------------
Total Dipole Moment    :      1.07946       1.18165       0.06461
                        -----------------------------------------
Magnitude (a.u.)       :      1.60178
Magnitude (Debye)      :      4.07141

Rotational constants in cm-1:     0.158925     0.081210     0.079022
Rotational constants in MHz :  4764.450166  2434.603461  2369.014434

                             ****ORCA TERMINATED NORMALLY****
TOTAL RUN TIME: 0 days 0 hours 0 minutes 28 seconds 618 msec
