                         Program Version 5.0.0 -  RELEASE  -
|  1> !PBE0 D3BJ RIJCOSX def2-TZVP def2/J TightSCF
|  2> *xyz 0 1
|  3> C         -0.46129        2.23469       -4.98962
|  4> C          0.84888        2.66797       -4.30235
|  5> C         -0.42384        2.39877       -6.47432
|  6> C         -0.95947        3.49265       -7.00740
|  7> N          0.14558        1.48689       -7.20399
|  8> H          0.56537        0.69681       -6.72386
|  9> H          0.22068        1.58177       -8.20752
| 10> H         -1.40624        4.18151       -6.40326
| 11> H         -0.93421        3.68160       -7.99947
| 12> H         -1.28888        2.82674       -4.59500
| 13> H         -0.65170        1.18634       -4.75655
| 14> H          1.66208        2.08894       -4.68750
| 15> H          0.76716        2.51042       -3.24717
| 16> H          1.02677        3.70527       -4.49537
| 17> *
| 18>
| 19> %MaxCore 64000
| 20>
| 21> %pal nprocs 4
| 22> end
| 23>
| 24> %scf
| 25>   MaxIter 150
| 26> end
| 27>
| 28>
| 29>                          ****END OF INPUT****

CARTESIAN COORDINATES (ANGSTROEM)
---------------------------------
  C     -0.461290    2.234690   -4.989620
  C      0.848880    2.667970   -4.302350
  C     -0.423840    2.398770   -6.474320
  C     -0.959470    3.492650   -7.007400
  N      0.145580    1.486890   -7.203990
  H      0.565370    0.696810   -6.723860
  H      0.220680    1.581770   -8.207520
  H     -1.406240    4.181510   -6.403260
  H     -0.934210    3.681600   -7.999470
  H     -1.288880    2.826740   -4.595000
  H     -0.651700    1.186340   -4.756550
  H      1.662080    2.088940   -4.687500
  H      0.767160    2.510420   -3.247170
  H      1.026770    3.705270   -4.495370

 Total Charge           Charge          ....    0
 Multiplicity           Mult            ....    1
 Number of Electrons    NEL             ....   40
 Basis Dimension        Dim             ....  209

ORBITAL ENERGIES
----------------

  NO   OCC          E(Eh)            E(eV)
   0   2.0000     -14.384302      -391.4168
   1   2.0000     -10.239152      -278.6215
   2   2.0000     -10.219865      -278.0967
   3   2.0000     -10.203899      -277.6622
   4   2.0000     -10.148542      -276.1559
   5   2.0000      -0.962076       -26.1794
   6   2.0000      -0.801090       -21.7988
   7   2.0000      -0.734453       -19.9855
   8   2.0000      -0.654607       -17.8128
   9   2.0000      -0.586558       -15.9610
  10   2.0000      -0.545105       -14.8331
  11   2.0000      -0.494190       -13.4476
  12   2.0000      -0.450671       -12.2634
  13   2.0000      -0.432521       -11.7695
  14   2.0000      -0.404103       -10.9962
  15   2.0000      -0.393540       -10.7088
  16   2.0000      -0.363607        -9.8942
  17   2.0000      -0.345839        -9.4108
  18   2.0000      -0.343016        -9.3339
  19   2.0000      -0.195980        -5.3329
  20   0.0000       0.032719         0.8903
  21   0.0000       0.055384         1.5071
  22   0.0000       0.077822         2.1176
  23   0.0000       0.087446         2.3795
  24   0.0000       0.097712         2.6589

MULLIKEN ATOMIC CHARGES
-----------------------
   0 C :   -0.234029
   1 C :   -0.334041
   2 C :    0.209227
   3 C :   -0.435406
   4 N :   -0.440903
   5 H :    0.233347
   6 H :    0.235291
   7 H :    0.106972
   8 H :    0.092424
   9 H :    0.119357
  10 H :    0.096363
  11 H :    0.105005
  12 H :    0.120311
  13 H :    0.126081
Sum of atomic charges:   -0.0000000

LOEWDIN ATOMIC CHARGES
----------------------
   0 C :   -0.241568
   1 C :   -0.295385
   2 C :   -0.382069
   3 C :   -0.283279
   4 N :    0.014652
   5 H :    0.174930
   6 H :    0.176092
   7 H :    0.106866
   8 H :    0.094849
   9 H :    0.149630
  10 H :    0.135548
  11 H :    0.113828
  12 H :    0.115444
  13 H :    0.120462

  Mayer bond orders larger than 0.100000
B(  0-C ,  1-C ) :   0.9880 B(  0-C ,  2-C ) :   0.9768 B(  0-C ,  9-H ) :   0.9730
B(  0-C , 10-H ) :   0.9609 B(  1-C , 11-H ) :   0.9721 B(  1-C , 12-H ) :   0.9700
B(  1-C , 13-H ) :   0.9734 B(  2-C ,  3-C ) :   1.7676 B(  2-C ,  4-N ) :   1.2102
B(  3-C ,  7-H ) :   0.9826 B(  3-C ,  8-H ) :   0.9801 B(  4-N ,  5-H ) :   0.9151
B(  4-N ,  6-H ) :   0.9095

Dispersion correction           -0.008838256
FINAL SINGLE POINT ENERGY      -212.390428704730

DIPOLE MOMENT
-------------
                                X             Y             Z
Electronic contribution:     -0.70360      -1.19902      -2.59777
Nuclear contribution   :      1.14741       0.51394       2.60761
                        -----------------------------------------
Total Dipole Moment    :      0.44382      -0.68508       0.00983
                        -----------------------------------------
Magnitude (a.u.)       :      0.81634
Magnitude (Debye)      :      2.07496

Rotational constants in cm-1:     0.269157     0.129188     0.102123
Rotational constants in MHz :  8069.118715  3872.945231  3061.580645

                             ****ORCA TERMINATED NORMALLY****
TOTAL RUN TIME: 0 days 0 hours 0 minutes 21 seconds 489 msec
