                         Program Version 5.0.0 -  RELEASE  -
|  1> !PBE0 D3BJ RIJCOSX def2-TZVP def2/J TightSCF
|  2> *xyz 0 1
|  3> C          0.84888        2.66797       -4.30235
|  4> C          2.09343        1.86104       -4.65684
|  5> H          2.44481        2.04157       -5.67499
|  6> H          2.90175        2.13786       -3.98034
|  7> S          1.87964        0.07859       -4.46297
|  8> O          3.20757       -0.46611       -4.42026
|  9> F          1.07506       -0.05616       -3.26876
| 10> O          1.13166       -0.31996       -5.67903
| 11> H          0.05064        2.40112       -4.96303
| 12> H          1.06043        3.71210       -4.40203
| 13> H          0.56237        2.45684       -3.29327
| 14> *
| 15>
| 16> %MaxCore 64000
| 17>
| 18> %pal nprocs 4
| 19> end
| 20>
| 21> %scf
| 22>   MaxIter 150
| 23> end
| 24>
| 25>
| 26>                          ****END OF INPUT****

CARTESIAN COORDINATES (ANGSTROEM)
---------------------------------
  C      0.848880    2.667970   -4.302350
  C      2.093430    1.861040   -4.656840
  H      2.444810    2.041570   -5.674990
  H      2.901750    2.137860   -3.980340
  S      1.879640    0.078590   -4.462970
  O      3.207570   -0.466110   -4.420260
  F      1.075060   -0.056160   -3.268760
  O      1.131660   -0.319960   -5.679030
  H      0.050640    2.401120   -4.963030
  H      1.060430    3.712100   -4.402030
  H      0.562370    2.456840   -3.293270

 Total Charge           Charge          ....    0
 Multiplicity           Mult            ....    1
 Number of Electrons    NEL             ....   58
 Basis Dimension        Dim             ....  222

ORBITAL ENERGIES
----------------

  NO   OCC          E(Eh)            E(eV)
   0   2.0000     -89.260105     -2428.8909
   1   2.0000     -24.890866      -677.3149
   2   2.0000     -19.221060      -523.0316
   3   2.0000     -19.204990      -522.5943
   4   2.0000     -10.279739      -279.7259
   5   2.0000     -10.240701      -278.6636
   6   2.0000      -8.206320      -223.3053
   7   2.0000      -6.146731      -167.2610
   8   2.0000      -6.140427      -167.0895
   9   2.0000      -6.139984      -167.0774
  10   2.0000      -1.413781       -38.4709
  11   2.0000      -1.135389       -30.8955
  12   2.0000      -1.034087       -28.1389
  13   2.0000      -0.846423       -23.0323
  14   2.0000      -0.753000       -20.4902
  15   2.0000      -0.696012       -18.9395
  16   2.0000      -0.615013       -16.7354
  17   2.0000      -0.602682       -16.3998
  18   2.0000      -0.563966       -15.3463
  19   2.0000      -0.508085       -13.8257
  20   2.0000      -0.491094       -13.3634
  21   2.0000      -0.465813       -12.6754
  22   2.0000      -0.452273       -12.3070
  23   2.0000      -0.424235       -11.5440
  24   2.0000      -0.408424       -11.1138
  25   2.0000      -0.396384       -10.7862
  26   2.0000      -0.348427        -9.4812
  27   2.0000      -0.332762        -9.0549
  28   2.0000      -0.321663        -8.7529
  29   0.0000       0.018415         0.5011
  30   0.0000       0.053622         1.4591
  31   0.0000       0.064610         1.7581
  32   0.0000       0.078594         2.1386
  33   0.0000       0.083501         2.2722

MULLIKEN ATOMIC CHARGES
-----------------------
   0 C :   -0.373946
   1 C :   -0.254343
   2 H :    0.163468
   3 H :    0.144654
   4 S :    0.833996
   5 O :   -0.390169
   6 F :   -0.095894
   7 O :   -0.442119
   8 H :    0.149786
   9 H :    0.135574
  10 H :    0.128992
Sum of atomic charges:    0.0000000

LOEWDIN ATOMIC CHARGES
----------------------
   0 C :   -0.323290
   1 C :   -0.392697
   2 H :    0.149273
   3 H :    0.138747
   4 S :    0.518694
   5 O :   -0.251085
   6 F :    0.097909
   7 O :   -0.309631
   8 H :    0.126539
   9 H :    0.126210
  10 H :    0.119331

  Mayer bond orders larger than 0.100000
B(  0-C ,  1-C ) :   0.9933 B(  0-C ,  8-H ) :   0.9650 B(  0-C ,  9-H ) :   0.9577
B(  0-C , 10-H ) :   0.9674 B(  1-C ,  2-H ) :   0.9392 B(  1-C ,  3-H ) :   0.9373
B(  1-C ,  4-S ) :   0.9139 B(  4-S ,  5-O ) :   1.9688 B(  4-S ,  6-F ) :   1.1343
B(  4-S ,  7-O ) :   1.8969

Dispersion correction           -0.007876464
FINAL SINGLE POINT ENERGY      -727.351737264692

DIPOLE MOMENT
-------------
                                X             Y             Z
Electronic contribution:      0.56649      -8.63908       2.03367
Nuclear contribution   :     -0.86540      10.11467      -1.24082
                        -----------------------------------------
Total Dipole Moment    :     -0.29891       1.47560       0.79286
                        -----------------------------------------
Magnitude (a.u.)       :      1.70158
Magnitude (Debye)      :      4.32506

Rotational constants in cm-1:     0.154065     0.083345     0.080357
Rotational constants in MHz :  4618.752213  2498.631937  2409.037217

                             ****ORCA TERMINATED NORMALLY****
TOTAL RUN TIME: 0 days 0 hours 0 minutes 21 seconds 835 msec
