                         Program Version 5.0.0 -  RELEASE  -
|  1> !PBE0 D3BJ RIJCOSX def2-TZVP def2/J TightSCF
|  2> *xyz 0 1
|  3> C         -0.46129        2.23469       -4.98962
|  4> C          0.84888        2.66797       -4.30235
|  5> C         -0.42384        2.39877       -6.47432
|  6> N         -0.95947        3.49265       -7.00740
|  7> C          0.14558        1.48689       -7.20399
|  8> H          0.56537        0.69681       -6.72386
|  9> H          0.22068        1.58177       -8.20752
| 10> H         -1.40624        4.18151       -6.40326
| 11> H         -0.93421        3.68160       -7.99947
| 12> H         -1.28888        2.82674       -4.59500
| 13> H         -0.65170        1.18634       -4.75655
| 14> H          1.66208        2.08894       -4.68750
| 15> H          0.76716        2.51042       -3.24717
| 16> H          1.02677        3.70527       -4.49537
| 17> *
| 18>
| 19> %MaxCore 64000
| 20>
| 21> %pal nprocs 4
| 22> end
| 23>
| 24> %scf
| 25>   MaxIter 150
| 26> end
| 27>
| 28>
| 29>                          ****END OF INPUT****

CARTESIAN COORDINATES (ANGSTROEM)
---------------------------------
  C     -0.461290    2.234690   -4.989620
  C      0.848880    2.667970   -4.302350
  C     -0.423840    2.398770   -6.474320
  N     -0.959470    3.492650   -7.007400
  C      0.145580    1.486890   -7.203990
  H      0.565370    0.696810   -6.723860
  H      0.220680    1.581770   -8.207520
  H     -1.406240    4.181510   -6.403260
  H     -0.934210    3.681600   -7.999470
  H     -1.288880    2.826740   -4.595000
  H     -0.651700    1.186340   -4.756550
  H      1.662080    2.088940   -4.687500
  H      0.767160    2.510420   -3.247170
  H      1.026770    3.705270   -4.495370

 Total Charge           Charge          ....    0
 Multiplicity           Mult            ....    1
 Number of Electrons    NEL             ....   40
 Basis Dimension        Dim             ....  209

ORBITAL ENERGIES
----------------

  NO   OCC          E(Eh)            E(eV)
   0   2.0000     -14.380979      -391.3263
   1   2.0000     -10.236904      -278.5603
   2   2.0000     -10.219580      -278.0889
   3   2.0000     -10.202433      -277.6223
   4   2.0000     -10.146850      -276.1098
   5   2.0000      -0.949263       -25.8308
   6   2.0000      -0.802726       -21.8433
   7   2.0000      -0.738417       -20.0934
   8   2.0000      -0.655509       -17.8373
   9   2.0000      -0.580780       -15.8038
  10   2.0000      -0.534865       -14.5544
  11   2.0000      -0.496508       -13.5107
  12   2.0000      -0.452100       -12.3023
  13   2.0000      -0.427502       -11.6329
  14   2.0000      -0.404891       -11.0177
  15   2.0000      -0.394306       -10.7296
  16   2.0000      -0.361095        -9.8259
  17   2.0000      -0.348306        -9.4779
  18   2.0000      -0.339209        -9.2303
  19   2.0000      -0.200003        -5.4424
  20   0.0000       0.034882         0.9492
  21   0.0000       0.055670         1.5149
  22   0.0000       0.078382         2.1329
  23   0.0000       0.085550         2.3279
  24   0.0000       0.100756         2.7417

MULLIKEN ATOMIC CHARGES
-----------------------
   0 C :   -0.225453
   1 C :   -0.337515
   2 C :    0.226647
   3 N :   -0.471989
   4 C :   -0.421715
   5 H :    0.110311
   6 H :    0.091569
   7 H :    0.231932
   8 H :    0.232620
   9 H :    0.086867
  10 H :    0.122802
  11 H :    0.124602
  12 H :    0.117791
  13 H :    0.111531
Sum of atomic charges:   -0.0000000

LOEWDIN ATOMIC CHARGES
----------------------
   0 C :   -0.239939
   1 C :   -0.293437
   2 C :   -0.373267
   3 N :   -0.008375
   4 C :   -0.270380
   5 H :    0.111849
   6 H :    0.099850
   7 H :    0.169956
   8 H :    0.169470
   9 H :    0.134358
  10 H :    0.149126
  11 H :    0.119710
  12 H :    0.114503
  13 H :    0.116577

  Mayer bond orders larger than 0.100000
B(  0-C ,  1-C ) :   0.9928 B(  0-C ,  2-C ) :   0.9595 B(  0-C ,  9-H ) :   0.9641
B(  0-C , 10-H ) :   0.9744 B(  1-C , 11-H ) :   0.9731 B(  1-C , 12-H ) :   0.9698
B(  1-C , 13-H ) :   0.9731 B(  2-C ,  3-N ) :   1.1700 B(  2-C ,  4-C ) :   1.7977
B(  3-N ,  7-H ) :   0.9164 B(  3-N ,  8-H ) :   0.9123 B(  4-C ,  5-H ) :   0.9831
B(  4-C ,  6-H ) :   0.9790

Dispersion correction           -0.008843506
FINAL SINGLE POINT ENERGY      -212.390346459744

DIPOLE MOMENT
-------------
                                X             Y             Z
Electronic contribution:     -1.71661       0.61213      -2.41630
Nuclear contribution   :      1.40335       0.04939       2.56207
                        -----------------------------------------
Total Dipole Moment    :     -0.31326       0.66152       0.14577
                        -----------------------------------------
Magnitude (a.u.)       :      0.74632
Magnitude (Debye)      :      1.89698

Rotational constants in cm-1:     0.271383     0.128194     0.101873
Rotational constants in MHz :  8135.853259  3843.152748  3054.074278

                             ****ORCA TERMINATED NORMALLY****
TOTAL RUN TIME: 0 days 0 hours 0 minutes 28 seconds 102 msec
