                         Program Version 5.0.0 -  RELEASE  -
|  1> !PBE0 D3BJ RIJCOSX def2-TZVP def2/J TightSCF
|  2> *xyz 0 1
|  3> C          0.84888        2.66797       -4.30235
|  4> C          2.09343        1.86104       -4.65684
|  5> H          2.44481        2.04157       -5.67499
|  6> H          2.90175        2.13786       -3.98034
|  7> S          1.87964        0.07859       -4.46297
|  8> O          3.20757       -0.46611       -4.42026
|  9> O          1.07506       -0.05616       -3.26876
| 10> F          1.13166       -0.31996       -5.67903
| 11> H          0.05064        2.40112       -4.96303
| 12> H          1.06043        3.71210       -4.40203
| 13> H          0.56237        2.45684       -3.29327
| 14> *
| 15>
| 16> %MaxCore 64000
| 17>
| 18> %pal nprocs 4
| 19> end
| 20>
| 21> %scf
| 22>   MaxIter 150
| 23> end
| 24>
| 25>
| 26>                          ****END OF INPUT****

CARTESIAN COORDINATES (ANGSTROEM)
---------------------------------
  C      0.848880    2.667970   -4.302350
  C      2.093430    1.861040   -4.656840
  H      2.444810    2.041570   -5.674990
  H      2.901750    2.137860   -3.980340
  S      1.879640    0.078590   -4.462970
  O      3.207570   -0.466110   -4.420260
  O      1.075060   -0.056160   -3.268760
  F      1.131660   -0.319960   -5.679030
  H      0.050640    2.401120   -4.963030
  H      1.060430    3.712100   -4.402030
  H      0.562370    2.456840   -3.293270

 Total Charge           Charge          ....    0
 Multiplicity           Mult            ....    1
 Number of Electrons    NEL             ....   58
 Basis Dimension        Dim             ....  222

ORBITAL ENERGIES
----------------

  NO   OCC          E(Eh)            E(eV)
   0   2.0000     -89.258326     -2428.8425
   1   2.0000     -24.872344      -676.8109
   2   2.0000     -19.220861      -523.0262
   3   2.0000     -19.217499      -522.9347
   4   2.0000     -10.278971      -279.7050
   5   2.0000     -10.235073      -278.5105
   6   2.0000      -8.204604      -223.2586
   7   2.0000      -6.144978      -167.2134
   8   2.0000      -6.138931      -167.0488
   9   2.0000      -6.138190      -167.0286
  10   2.0000      -1.383460       -37.6459
  11   2.0000      -1.144259       -31.1369
  12   2.0000      -1.053478       -28.6666
  13   2.0000      -0.842385       -22.9225
  14   2.0000      -0.741734       -20.1836
  15   2.0000      -0.687722       -18.7139
  16   2.0000      -0.594798       -16.1853
  17   2.0000      -0.581264       -15.8170
  18   2.0000      -0.565723       -15.3941
  19   2.0000      -0.507724       -13.8159
  20   2.0000      -0.493091       -13.4177
  21   2.0000      -0.472744       -12.8640
  22   2.0000      -0.445150       -12.1132
  23   2.0000      -0.417169       -11.3517
  24   2.0000      -0.414399       -11.2764
  25   2.0000      -0.394042       -10.7224
  26   2.0000      -0.355183        -9.6650
  27   2.0000      -0.343866        -9.3571
  28   2.0000      -0.335743        -9.1360
  29   0.0000       0.023724         0.6456
  30   0.0000       0.052288         1.4228
  31   0.0000       0.064088         1.7439
  32   0.0000       0.078530         2.1369
  33   0.0000       0.090382         2.4594

MULLIKEN ATOMIC CHARGES
-----------------------
   0 C :   -0.358196
   1 C :   -0.269350
   2 H :    0.143143
   3 H :    0.158449
   4 S :    0.841295
   5 O :   -0.398344
   6 O :   -0.413414
   7 F :   -0.119907
   8 H :    0.126828
   9 H :    0.131613
  10 H :    0.157882
Sum of atomic charges:    0.0000000

LOEWDIN ATOMIC CHARGES
----------------------
   0 C :   -0.319965
   1 C :   -0.396570
   2 H :    0.135976
   3 H :    0.149134
   4 S :    0.524564
   5 O :   -0.254524
   6 O :   -0.262989
   7 F :    0.050416
   8 H :    0.121304
   9 H :    0.124430
  10 H :    0.128222

  Mayer bond orders larger than 0.100000
B(  0-C ,  1-C ) :   0.9944 B(  0-C ,  8-H ) :   0.9685 B(  0-C ,  9-H ) :   0.9558
B(  0-C , 10-H ) :   0.9623 B(  1-C ,  2-H ) :   0.9420 B(  1-C ,  3-H ) :   0.9384
B(  1-C ,  4-S ) :   0.9134 B(  4-S ,  5-O ) :   1.9656 B(  4-S ,  6-O ) :   1.9179
B(  4-S ,  7-F ) :   1.1080

Dispersion correction           -0.007896858
FINAL SINGLE POINT ENERGY      -727.367246934600

DIPOLE MOMENT
-------------
                                X             Y             Z
Electronic contribution:      0.64937      -9.11556      -2.04612
Nuclear contribution   :     -0.92438      10.38956       1.27076
                        -----------------------------------------
Total Dipole Moment    :     -0.27501       1.27401      -0.77536
                        -----------------------------------------
Magnitude (a.u.)       :      1.51654
Magnitude (Debye)      :      3.85475

Rotational constants in cm-1:     0.154243     0.082247     0.080562
Rotational constants in MHz :  4624.087322  2465.703680  2415.175852

                             ****ORCA TERMINATED NORMALLY****
TOTAL RUN TIME: 0 days 0 hours 0 minutes 26 seconds 121 msec
