                         Program Version 5.0.0 -  RELEASE  -
|  1> !PBE0 D3BJ RIJCOSX def2-TZVP def2/J TightSCF xyzfile
|  2>
|  3> *xyzfile 0 1 D1.xyz
|  4>
|  5> %MaxCore 64000
|  6>
|  7> %pal nprocs 18
|  8> end
|  9>
| 10> %scf
| 11>   MaxIter 150
| 12> end
| 13>
| 14>
| 15>                          ****END OF INPUT****

CARTESIAN COORDINATES (ANGSTROEM)
---------------------------------
  C     -0.461293    2.234686   -4.989619
  C      0.848883    2.667967   -4.302351
  C      2.093434    1.861037   -4.656845
  H      2.444814    2.041567   -5.674990
  H      2.901748    2.137864   -3.980338
  S      1.879644    0.078594   -4.462965
  C     -0.423841    2.398772   -6.474317
  C     -0.959467    3.492647   -7.007401
  N      0.145585    1.486891   -7.203987
  H      0.565371    0.696807   -6.723858
  H      0.220682    1.581768   -8.207520
  H     -1.406243    4.181507   -6.403261
  H     -0.934215    3.681601   -7.999468
  F      3.207574   -0.466111   -4.420259
  O      1.075064   -0.056160   -3.268758
  O      1.131661   -0.319960   -5.679031
  H      0.668432    2.559427   -3.232850
  H      1.034074    3.729426   -4.497081
  H     -1.288884    2.826737   -4.594997
  H     -0.651696    1.186343   -4.756552

 Total Charge           Charge          ....    0
 Multiplicity           Mult            ....    1
 Number of Electrons    NEL             ....   88
 Basis Dimension        Dim             ....  376

ORBITAL ENERGIES
----------------

  NO   OCC          E(Eh)            E(eV)
   0   2.0000     -89.281092     -2429.4620
   1   2.0000     -24.912675      -677.9083
   2   2.0000     -19.235072      -523.4129
   3   2.0000     -19.232081      -523.3315
   4   2.0000     -14.355908      -390.6441
   5   2.0000     -10.286503      -279.9100
   6   2.0000     -10.249025      -278.8902
   7   2.0000     -10.232149      -278.4309
   8   2.0000     -10.221626      -278.1446
   9   2.0000     -10.141642      -275.9681
  10   2.0000      -8.227425      -223.8796
  11   2.0000      -6.167514      -167.8266
  12   2.0000      -6.161614      -167.6661
  13   2.0000      -6.161262      -167.6565
  14   2.0000      -1.438636       -39.1473
  15   2.0000      -1.154021       -31.4025
  16   2.0000      -1.059386       -28.8274
  17   2.0000      -0.946160       -25.7463
  18   2.0000      -0.857361       -23.3300
  19   2.0000      -0.792236       -21.5578
  20   2.0000      -0.759818       -20.6757
  21   2.0000      -0.714577       -19.4446
  22   2.0000      -0.664217       -18.0743
  23   2.0000      -0.628281       -17.0964
  24   2.0000      -0.617164       -16.7939
  25   2.0000      -0.596759       -16.2386
  26   2.0000      -0.574448       -15.6315
  27   2.0000      -0.540849       -14.7172
  28   2.0000      -0.516429       -14.0527
  29   2.0000      -0.505945       -13.7675
  30   2.0000      -0.487625       -13.2690
  31   2.0000      -0.471552       -12.8316
  32   2.0000      -0.460877       -12.5411
  33   2.0000      -0.427551       -11.6343
  34   2.0000      -0.411204       -11.1894
  35   2.0000      -0.405663       -11.0386
  36   2.0000      -0.393078       -10.6962
  37   2.0000      -0.376395       -10.2422
  38   2.0000      -0.364038        -9.9060
  39   2.0000      -0.357298        -9.7226
  40   2.0000      -0.344158        -9.3650
  41   2.0000      -0.339322        -9.2334
  42   2.0000      -0.330667        -8.9979
  43   2.0000      -0.186292        -5.0693
  44   0.0000       0.012711         0.3459
  45   0.0000       0.034111         0.9282
  46   0.0000       0.052718         1.4345
  47   0.0000       0.056728         1.5437
  48   0.0000       0.063561         1.7296

MULLIKEN ATOMIC CHARGES
-----------------------
   0 C :   -0.298587
   1 C :   -0.159652
   2 C :   -0.329275
   3 H :    0.170799
   4 H :    0.152223
   5 S :    0.852064
   6 C :    0.187001
   7 C :   -0.451639
   8 N :   -0.448972
   9 H :    0.266642
  10 H :    0.218577
  11 H :    0.100173
  12 H :    0.091496
  13 F :   -0.078887
  14 O :   -0.383166
  15 O :   -0.445045
  16 H :    0.128189
  17 H :    0.128758
  18 H :    0.130348
  19 H :    0.168952
Sum of atomic charges:   -0.0000000

LOEWDIN ATOMIC CHARGES
----------------------
   0 C :   -0.217503
   1 C :   -0.267627
   2 C :   -0.372381
   3 H :    0.145162
   4 H :    0.140136
   5 S :    0.540359
   6 C :   -0.384285
   7 C :   -0.295310
   8 N :    0.015905
   9 H :    0.137733
  10 H :    0.169252
  11 H :    0.103817
  12 H :    0.094228
  13 F :    0.114156
  14 O :   -0.243387
  15 O :   -0.282572
  16 H :    0.147879
  17 H :    0.151754
  18 H :    0.154885
  19 H :    0.147799

  Mayer bond orders larger than 0.100000
B(  0-C ,  1-C ) :   0.9806 B(  0-C ,  6-C ) :   0.9482 B(  0-C , 18-H ) :   0.9617
B(  0-C , 19-H ) :   0.9744 B(  1-C ,  2-C ) :   1.0194 B(  1-C , 16-H ) :   0.9481
B(  1-C , 17-H ) :   0.9308 B(  2-C ,  3-H ) :   0.9219 B(  2-C ,  4-H ) :   0.9311
B(  2-C ,  5-S ) :   0.9378 B(  5-S , 13-F ) :   1.1719 B(  5-S , 14-O ) :   1.9352
B(  5-S , 15-O ) :   1.7604 B(  6-C ,  7-C ) :   1.7474 B(  6-C ,  8-N ) :   1.2512
B(  7-C , 11-H ) :   0.9813 B(  7-C , 12-H ) :   0.9817 B(  8-N ,  9-H ) :   0.8391
B(  8-N , 10-H ) :   0.9157 B(  9-H , 15-O ) :   0.1114

Dispersion correction           -0.019871998
FINAL SINGLE POINT ENERGY      -899.265148450001

DIPOLE MOMENT
-------------
                                X             Y             Z
Electronic contribution:     10.17851     -13.97417       5.46035
Nuclear contribution   :     -8.53047      14.15581      -5.17613
                        -----------------------------------------
Total Dipole Moment    :      1.64804       0.18164       0.28422
                        -----------------------------------------
Magnitude (a.u.)       :      1.68220
Magnitude (Debye)      :      4.27581

Rotational constants in cm-1:     0.081196     0.024861     0.022477
Rotational constants in MHz :  2434.181666   745.320670   673.846846

                             ****ORCA TERMINATED NORMALLY****
TOTAL RUN TIME: 0 days 0 hours 0 minutes 29 seconds 360 msec
