                         Program Version 5.0.0 -  RELEASE  -
|  1> !PBE0 D3BJ RIJCOSX def2-TZVP def2/J TightSCF xyzfile
|  2>
|  3> *xyzfile 0 1 D4.xyz
|  4>
|  5> %MaxCore 64000
|  6>
|  7> %pal nprocs 18
|  8> end
|  9>
| 10> %scf
| 11>   MaxIter 150
| 12> end
| 13>
| 14>
| 15>                          ****END OF INPUT****

CARTESIAN COORDINATES (ANGSTROEM)
---------------------------------
  C     -0.461293    2.234686   -4.989619
  C      0.848883    2.667967   -4.302351
  C      2.093434    1.861037   -4.656845
  H      2.444814    2.041567   -5.674990
  H      2.901748    2.137864   -3.980338
  S      1.879644    0.078594   -4.462965
  C     -0.423841    2.398772   -6.474317
  N     -0.959467    3.492647   -7.007401
  C      0.145585    1.486891   -7.203987
  H      0.565371    0.696807   -6.723858
  H      0.220682    1.581768   -8.207520
  H     -1.406243    4.181507   -6.403261
  H     -0.934215    3.681601   -7.999468
  O      3.207574   -0.466111   -4.420259
  F      1.075064   -0.056160   -3.268758
  O      1.131661   -0.319960   -5.679031
  H      0.668432    2.559427   -3.232850
  H      1.034074    3.729426   -4.497081
  H     -1.288884    2.826737   -4.594997
  H     -0.651696    1.186343   -4.756552

 Total Charge           Charge          ....    0
 Multiplicity           Mult            ....    1
 Number of Electrons    NEL             ....   88
 Basis Dimension        Dim             ....  376

ORBITAL ENERGIES
----------------

  NO   OCC          E(Eh)            E(eV)
   0   2.0000     -89.261631     -2428.9325
   1   2.0000     -24.891949      -677.3444
   2   2.0000     -19.221348      -523.0395
   3   2.0000     -19.207736      -522.6691
   4   2.0000     -14.378919      -391.2703
   5   2.0000     -10.274794      -279.5914
   6   2.0000     -10.251882      -278.9679
   7   2.0000     -10.233430      -278.4658
   8   2.0000     -10.232206      -278.4325
   9   2.0000     -10.128695      -275.6158
  10   2.0000      -8.208026      -223.3517
  11   2.0000      -6.148505      -167.3093
  12   2.0000      -6.141963      -167.1313
  13   2.0000      -6.141756      -167.1257
  14   2.0000      -1.415101       -38.5068
  15   2.0000      -1.138337       -30.9757
  16   2.0000      -1.041690       -28.3458
  17   2.0000      -0.948511       -25.8103
  18   2.0000      -0.856732       -23.3129
  19   2.0000      -0.789095       -21.4724
  20   2.0000      -0.744893       -20.2696
  21   2.0000      -0.724576       -19.7167
  22   2.0000      -0.658036       -17.9061
  23   2.0000      -0.615590       -16.7510
  24   2.0000      -0.607001       -16.5173
  25   2.0000      -0.583154       -15.8684
  26   2.0000      -0.570791       -15.5320
  27   2.0000      -0.531275       -14.4567
  28   2.0000      -0.510103       -13.8806
  29   2.0000      -0.494007       -13.4426
  30   2.0000      -0.490938       -13.3591
  31   2.0000      -0.476546       -12.9675
  32   2.0000      -0.457068       -12.4375
  33   2.0000      -0.424731       -11.5575
  34   2.0000      -0.414586       -11.2815
  35   2.0000      -0.406608       -11.0644
  36   2.0000      -0.390747       -10.6328
  37   2.0000      -0.385405       -10.4874
  38   2.0000      -0.354593        -9.6490
  39   2.0000      -0.345067        -9.3898
  40   2.0000      -0.338160        -9.2018
  41   2.0000      -0.333536        -9.0760
  42   2.0000      -0.303373        -8.2552
  43   2.0000      -0.195754        -5.3267
  44   0.0000       0.019578         0.5327
  45   0.0000       0.037760         1.0275
  46   0.0000       0.049928         1.3586
  47   0.0000       0.056916         1.5488
  48   0.0000       0.064489         1.7548

MULLIKEN ATOMIC CHARGES
-----------------------
   0 C :   -0.288597
   1 C :   -0.188181
   2 C :   -0.311999
   3 H :    0.186772
   4 H :    0.155950
   5 S :    0.831487
   6 C :    0.198019
   7 N :   -0.476656
   8 C :   -0.467318
   9 H :    0.199825
  10 H :    0.083882
  11 H :    0.224613
  12 H :    0.233962
  13 O :   -0.394010
  14 F :   -0.089407
  15 O :   -0.409486
  16 H :    0.124258
  17 H :    0.119987
  18 H :    0.107029
  19 H :    0.159870
Sum of atomic charges:   -0.0000000

LOEWDIN ATOMIC CHARGES
----------------------
   0 C :   -0.224145
   1 C :   -0.282058
   2 C :   -0.362152
   3 H :    0.156037
   4 H :    0.142338
   5 S :    0.532484
   6 C :   -0.384236
   7 N :   -0.015657
   8 C :   -0.255529
   9 H :    0.092585
  10 H :    0.097457
  11 H :    0.165890
  12 H :    0.169277
  13 O :   -0.248015
  14 F :    0.101321
  15 O :   -0.263310
  16 H :    0.139982
  17 H :    0.147135
  18 H :    0.140337
  19 H :    0.150259

  Mayer bond orders larger than 0.100000
B(  0-C ,  1-C ) :   0.9584 B(  0-C ,  6-C ) :   0.9410 B(  0-C , 18-H ) :   0.9588
B(  0-C , 19-H ) :   0.9926 B(  1-C ,  2-C ) :   1.0099 B(  1-C , 16-H ) :   0.9633
B(  1-C , 17-H ) :   0.9326 B(  2-C ,  3-H ) :   0.9263 B(  2-C ,  4-H ) :   0.9406
B(  2-C ,  5-S ) :   0.9290 B(  5-S , 13-O ) :   1.9823 B(  5-S , 14-F ) :   1.1314
B(  5-S , 15-O ) :   1.8053 B(  6-C ,  7-N ) :   1.1436 B(  6-C ,  8-C ) :   1.7824
B(  7-N , 11-H ) :   0.9172 B(  7-N , 12-H ) :   0.9136 B(  8-C ,  9-H ) :   0.9454
B(  8-C , 10-H ) :   0.9813

Dispersion correction           -0.019882813
FINAL SINGLE POINT ENERGY      -899.248732408783

DIPOLE MOMENT
-------------
                                X             Y             Z
Electronic contribution:      5.54383     -11.69344       7.31678
Nuclear contribution   :     -6.09390      13.51614      -6.45360
                        -----------------------------------------
Total Dipole Moment    :     -0.55007       1.82269       0.86318
                        -----------------------------------------
Magnitude (a.u.)       :      2.09042
Magnitude (Debye)      :      5.31343

Rotational constants in cm-1:     0.081469     0.024519     0.022336
Rotational constants in MHz :  2442.393231   735.066768   669.628729

                             ****ORCA TERMINATED NORMALLY****
TOTAL RUN TIME: 0 days 0 hours 0 minutes 28 seconds 582 msec
