                         Program Version 5.0.0 -  RELEASE  -
|  1> !PBE0 D3BJ RIJCOSX def2-TZVP def2/J TightSCF xyzfile
|  2>
|  3> *xyzfile 0 1 D6.xyz
|  4>
|  5> %MaxCore 64000
|  6>
|  7> %pal nprocs 18
|  8> end
|  9>
| 10> %scf
| 11>   MaxIter 150
| 12> end
| 13>
| 14>
| 15>                          ****END OF INPUT****

CARTESIAN COORDINATES (ANGSTROEM)
---------------------------------
  C     -0.461293    2.234686   -4.989619
  C      0.848883    2.667967   -4.302351
  C      2.093434    1.861037   -4.656845
  H      2.444814    2.041567   -5.674990
  H      2.901748    2.137864   -3.980338
  S      1.879644    0.078594   -4.462965
  C     -0.423841    2.398772   -6.474317
  N     -0.959467    3.492647   -7.007401
  C      0.145585    1.486891   -7.203987
  H      0.565371    0.696807   -6.723858
  H      0.220682    1.581768   -8.207520
  H     -1.406243    4.181507   -6.403261
  H     -0.934215    3.681601   -7.999468
  O      3.207574   -0.466111   -4.420259
  O      1.075064   -0.056160   -3.268758
  F      1.131661   -0.319960   -5.679031
  H      0.668432    2.559427   -3.232850
  H      1.034074    3.729426   -4.497081
  H     -1.288884    2.826737   -4.594997
  H     -0.651696    1.186343   -4.756552

 Total Charge           Charge          ....    0
 Multiplicity           Mult            ....    1
 Number of Electrons    NEL             ....   88
 Basis Dimension        Dim             ....  376

ORBITAL ENERGIES
----------------

  NO   OCC          E(Eh)            E(eV)
   0   2.0000     -89.257254     -2428.8134
   1   2.0000     -24.872559      -676.8167
   2   2.0000     -19.219453      -522.9879
   3   2.0000     -19.216815      -522.9161
   4   2.0000     -14.391580      -391.6148
   5   2.0000     -10.272544      -279.5301
   6   2.0000     -10.248984      -278.8890
   7   2.0000     -10.247939      -278.8606
   8   2.0000     -10.236009      -278.5360
   9   2.0000     -10.151178      -276.2276
  10   2.0000      -8.203713      -223.2344
  11   2.0000      -6.144168      -167.1913
  12   2.0000      -6.137948      -167.0221
  13   2.0000      -6.137235      -167.0027
  14   2.0000      -1.389139       -37.8004
  15   2.0000      -1.144018       -31.1303
  16   2.0000      -1.052712       -28.6457
  17   2.0000      -0.960917       -26.1479
  18   2.0000      -0.854845       -23.2615
  19   2.0000      -0.793747       -21.5990
  20   2.0000      -0.745369       -20.2825
  21   2.0000      -0.731938       -19.9170
  22   2.0000      -0.656729       -17.8705
  23   2.0000      -0.618419       -16.8280
  24   2.0000      -0.586501       -15.9595
  25   2.0000      -0.574904       -15.6439
  26   2.0000      -0.565874       -15.3982
  27   2.0000      -0.547268       -14.8919
  28   2.0000      -0.514062       -13.9884
  29   2.0000      -0.502060       -13.6617
  30   2.0000      -0.483623       -13.1601
  31   2.0000      -0.472096       -12.8464
  32   2.0000      -0.462922       -12.5968
  33   2.0000      -0.424706       -11.5568
  34   2.0000      -0.416624       -11.3369
  35   2.0000      -0.407197       -11.0804
  36   2.0000      -0.393056       -10.6956
  37   2.0000      -0.386203       -10.5091
  38   2.0000      -0.359189        -9.7740
  39   2.0000      -0.353031        -9.6065
  40   2.0000      -0.349343        -9.5061
  41   2.0000      -0.338325        -9.2063
  42   2.0000      -0.334527        -9.1030
  43   2.0000      -0.212115        -5.7719
  44   0.0000       0.022200         0.6041
  45   0.0000       0.035599         0.9687
  46   0.0000       0.044194         1.2026
  47   0.0000       0.057504         1.5648
  48   0.0000       0.065326         1.7776

MULLIKEN ATOMIC CHARGES
-----------------------
   0 C :   -0.314925
   1 C :   -0.134077
   2 C :   -0.346472
   3 H :    0.176183
   4 H :    0.166542
   5 S :    0.836948
   6 C :    0.219943
   7 N :   -0.467746
   8 C :   -0.464415
   9 H :    0.140920
  10 H :    0.093646
  11 H :    0.231967
  12 H :    0.235828
  13 O :   -0.404292
  14 O :   -0.406839
  15 F :   -0.095278
  16 H :    0.136107
  17 H :    0.114564
  18 H :    0.111527
  19 H :    0.169869
Sum of atomic charges:   -0.0000000

LOEWDIN ATOMIC CHARGES
----------------------
   0 C :   -0.220381
   1 C :   -0.275118
   2 C :   -0.366413
   3 H :    0.144091
   4 H :    0.151097
   5 S :    0.535921
   6 C :   -0.375871
   7 N :   -0.005651
   8 C :   -0.275657
   9 H :    0.091027
  10 H :    0.100016
  11 H :    0.170031
  12 H :    0.170723
  13 O :   -0.251973
  14 O :   -0.259316
  15 F :    0.077786
  16 H :    0.149060
  17 H :    0.145044
  18 H :    0.143044
  19 H :    0.152539

  Mayer bond orders larger than 0.100000
B(  0-C ,  1-C ) :   0.9718 B(  0-C ,  6-C ) :   0.9376 B(  0-C , 18-H ) :   0.9590
B(  0-C , 19-H ) :   0.9899 B(  1-C ,  2-C ) :   1.0023 B(  1-C , 16-H ) :   0.9499
B(  1-C , 17-H ) :   0.9307 B(  2-C ,  3-H ) :   0.9326 B(  2-C ,  4-H ) :   0.9371
B(  2-C ,  5-S ) :   0.9207 B(  5-S , 13-O ) :   1.9755 B(  5-S , 14-O ) :   1.9039
B(  5-S , 15-F ) :   1.0790 B(  6-C ,  7-N ) :   1.1668 B(  6-C ,  8-C ) :   1.7573
B(  7-N , 11-H ) :   0.9145 B(  7-N , 12-H ) :   0.9127 B(  8-C ,  9-H ) :   0.9850
B(  8-C , 10-H ) :   0.9775

Dispersion correction           -0.019787813
FINAL SINGLE POINT ENERGY      -899.264515501349

DIPOLE MOMENT
-------------
                                X             Y             Z
Electronic contribution:      5.53335     -11.97140       3.17357
Nuclear contribution   :     -6.15577      13.80449      -3.81895
                        -----------------------------------------
Total Dipole Moment    :     -0.62241       1.83310      -0.64538
                        -----------------------------------------
Magnitude (a.u.)       :      2.04062
Magnitude (Debye)      :      5.18686

Rotational constants in cm-1:     0.081431     0.024887     0.022470
Rotational constants in MHz :  2441.231544   746.086417   673.646914

                             ****ORCA TERMINATED NORMALLY****
TOTAL RUN TIME: 0 days 0 hours 0 minutes 25 seconds 345 msec
