                         Program Version 5.0.0 -  RELEASE  -
|  1> !B3LYP D3BJ RIJCOSX def2-SVPD def2/J TightSCF
|  2> *xyz -1 1
|  3> C          0.84888        2.66797       -4.30235
|  4> C          2.09343        1.86104       -4.65684
|  5> H          2.44481        2.04157       -5.67499
|  6> H          2.90175        2.13786       -3.98034
|  7> S          1.87964        0.07859       -4.46297
|  8> O          3.20757       -0.46611       -4.42026
|  9> O          1.07506       -0.05616       -3.26876
| 10> O          1.13166       -0.31996       -5.67903
| 11> H          0.05064        2.40112       -4.96303
| 12> H          1.06043        3.71210       -4.40203
| 13> H          0.56237        2.45684       -3.29327
| 14> *
| 15>
| 16> %MaxCore 64000
| 17>
| 18> %pal nprocs 4
| 19> end
| 20>
| 21> %scf
| 22>   MaxIter 150
| 23> end
| 24>
| 25>
| 26>                          ****END OF INPUT****

CARTESIAN COORDINATES (ANGSTROEM)
---------------------------------
  C      0.848880    2.667970   -4.302350
  C      2.093430    1.861040   -4.656840
  H      2.444810    2.041570   -5.674990
  H      2.901750    2.137860   -3.980340
  S      1.879640    0.078590   -4.462970
  O      3.207570   -0.466110   -4.420260
  O      1.075060   -0.056160   -3.268760
  O      1.131660   -0.319960   -5.679030
  H      0.050640    2.401120   -4.963030
  H      1.060430    3.712100   -4.402030
  H      0.562370    2.456840   -3.293270

 Total Charge           Charge          ....   -1
 Multiplicity           Mult            ....    1
 Number of Electrons    NEL             ....   58
 Basis Dimension        Dim             ....  176

ORBITAL ENERGIES
----------------

  NO   OCC          E(Eh)            E(eV)
   0   2.0000     -88.880449     -2418.5600
   1   2.0000     -18.922923      -514.9189
   2   2.0000     -18.919642      -514.8296
   3   2.0000     -18.907348      -514.4951
   4   2.0000     -10.042972      -273.2832
   5   2.0000     -10.038087      -273.1502
   6   2.0000      -7.934318      -215.9038
   7   2.0000      -5.903290      -160.6367
   8   2.0000      -5.903106      -160.6317
   9   2.0000      -5.902570      -160.6171
  10   2.0000      -0.933116       -25.3914
  11   2.0000      -0.796270       -21.6676
  12   2.0000      -0.769766       -20.9464
  13   2.0000      -0.625171       -17.0118
  14   2.0000      -0.499934       -13.6039
  15   2.0000      -0.379931       -10.3384
  16   2.0000      -0.318813        -8.6753
  17   2.0000      -0.316513        -8.6128
  18   2.0000      -0.277519        -7.5517
  19   2.0000      -0.264764        -7.2046
  20   2.0000      -0.257316        -7.0019
  21   2.0000      -0.231072        -6.2878
  22   2.0000      -0.215076        -5.8525
  23   2.0000      -0.154037        -4.1916
  24   2.0000      -0.153575        -4.1790
  25   2.0000      -0.119824        -3.2606
  26   2.0000      -0.110585        -3.0092
  27   2.0000      -0.100253        -2.7280
  28   2.0000      -0.067661        -1.8411
  29   0.0000       0.142101         3.8668
  30   0.0000       0.169598         4.6150
  31   0.0000       0.179186         4.8759
  32   0.0000       0.184275         5.0144
  33   0.0000       0.205941         5.6039

MULLIKEN ATOMIC CHARGES
-----------------------
   0 C :    0.982246
   1 C :   -0.173243
   2 H :   -0.164443
   3 H :   -0.116977
   4 S :    1.362987
   5 O :   -0.789320
   6 O :   -0.808259
   7 O :   -0.841581
   8 H :   -0.132445
   9 H :   -0.207474
  10 H :   -0.111489
Sum of atomic charges:   -1.0000000

LOEWDIN ATOMIC CHARGES
----------------------
   0 C :    0.105138
   1 C :   -0.126631
   2 H :    0.000778
   3 H :   -0.006519
   4 S :    0.860396
   5 O :   -0.573752
   6 O :   -0.573092
   7 O :   -0.599597
   8 H :   -0.018670
   9 H :   -0.038832
  10 H :   -0.029218

  Mayer bond orders larger than 0.100000
B(  0-C ,  1-C ) :   1.2734 B(  0-C ,  3-H ) :   0.1105 B(  0-C ,  8-H ) :   0.7711
B(  0-C ,  9-H ) :   0.6931 B(  0-C , 10-H ) :   0.7774 B(  1-C ,  2-H ) :   0.9595
B(  1-C ,  3-H ) :   0.9607 B(  1-C ,  4-S ) :   0.9017 B(  1-C ,  8-H ) :   0.2062
B(  1-C ,  9-H ) :   0.2474 B(  1-C , 10-H ) :   0.2255 B(  4-S ,  5-O ) :   1.3381
B(  4-S ,  6-O ) :   1.2934 B(  4-S ,  7-O ) :   1.2600

Dispersion correction           -0.016784693
FINAL SINGLE POINT ENERGY      -702.587884618687

DIPOLE MOMENT
-------------
                                X             Y             Z
Electronic contribution:      1.61468      -7.63315       0.05803
Nuclear contribution   :     -1.55288       9.51857       0.00420
                        -----------------------------------------
Total Dipole Moment    :      0.06180       1.88542       0.06223
                        -----------------------------------------
Magnitude (a.u.)       :      1.88746
Magnitude (Debye)      :      4.79754

Rotational constants in cm-1:     0.163401     0.083833     0.082462
Rotational constants in MHz :  4898.624208  2513.264548  2472.149188

                             ****ORCA TERMINATED NORMALLY****
TOTAL RUN TIME: 0 days 0 hours 0 minutes 22 seconds 35 msec
