                         Program Version 5.0.0 -  RELEASE  -
|  1> !B3LYP D3BJ RIJCOSX def2-SVPD def2/J TightSCF
|  2> *xyz 1 1
|  3> C         -0.46129        2.23469       -4.98962
|  4> C          0.84888        2.66797       -4.30235
|  5> C         -0.42384        2.39877       -6.47432
|  6> N         -0.95947        3.49265       -7.00740
|  7> N          0.14558        1.48689       -7.20399
|  8> H          0.56537        0.69681       -6.72386
|  9> H          0.22068        1.58177       -8.20752
| 10> H         -1.40624        4.18151       -6.40326
| 11> H         -0.93421        3.68160       -7.99947
| 12> H         -1.28888        2.82674       -4.59500
| 13> H         -0.65170        1.18634       -4.75655
| 14> H          1.66208        2.08894       -4.68750
| 15> H          0.76716        2.51042       -3.24717
| 16> H          1.02677        3.70527       -4.49537
| 17> *
| 18>
| 19> %MaxCore 64000
| 20>
| 21> %pal nprocs 4
| 22> end
| 23>
| 24> %scf
| 25>   MaxIter 150
| 26> end
| 27>
| 28>
| 29>                          ****END OF INPUT****

CARTESIAN COORDINATES (ANGSTROEM)
---------------------------------
  C     -0.461290    2.234690   -4.989620
  C      0.848880    2.667970   -4.302350
  C     -0.423840    2.398770   -6.474320
  N     -0.959470    3.492650   -7.007400
  N      0.145580    1.486890   -7.203990
  H      0.565370    0.696810   -6.723860
  H      0.220680    1.581770   -8.207520
  H     -1.406240    4.181510   -6.403260
  H     -0.934210    3.681600   -7.999470
  H     -1.288880    2.826740   -4.595000
  H     -0.651700    1.186340   -4.756550
  H      1.662080    2.088940   -4.687500
  H      0.767160    2.510420   -3.247170
  H      1.026770    3.705270   -4.495370

 Total Charge           Charge          ....    1
 Multiplicity           Mult            ....    1
 Number of Electrons    NEL             ....   40
 Basis Dimension        Dim             ....  172

ORBITAL ENERGIES
----------------

  NO   OCC          E(Eh)            E(eV)
   0   2.0000     -14.579505      -396.7285
   1   2.0000     -14.575614      -396.6226
   2   2.0000     -10.505637      -285.8729
   3   2.0000     -10.382408      -282.5197
   4   2.0000     -10.340499      -281.3793
   5   2.0000      -1.197017       -32.5725
   6   2.0000      -1.102316       -29.9956
   7   2.0000      -0.962911       -26.2022
   8   2.0000      -0.857506       -23.3339
   9   2.0000      -0.814708       -22.1693
  10   2.0000      -0.780550       -21.2398
  11   2.0000      -0.750181       -20.4135
  12   2.0000      -0.704406       -19.1679
  13   2.0000      -0.650175       -17.6922
  14   2.0000      -0.624272       -16.9873
  15   2.0000      -0.615938       -16.7605
  16   2.0000      -0.546858       -14.8808
  17   2.0000      -0.536973       -14.6118
  18   2.0000      -0.530433       -14.4338
  19   2.0000      -0.494880       -13.4664
  20   0.0000      -0.213001        -5.7960
  21   0.0000      -0.163082        -4.4377
  22   0.0000      -0.119429        -3.2498
  23   0.0000      -0.117019        -3.1842
  24   0.0000      -0.087530        -2.3818

MULLIKEN ATOMIC CHARGES
-----------------------
   0 C :   -0.152989
   1 C :    0.840092
   2 C :    0.647306
   3 N :    0.106339
   4 N :    0.248373
   5 H :    0.038203
   6 H :   -0.195511
   7 H :    0.019065
   8 H :   -0.173213
   9 H :   -0.075009
  10 H :   -0.053317
  11 H :   -0.094927
  12 H :   -0.052169
  13 H :   -0.102243
Sum of atomic charges:    1.0000000

LOEWDIN ATOMIC CHARGES
----------------------
   0 C :    0.015865
   1 C :    0.182356
   2 C :   -0.049752
   3 N :    0.287389
   4 N :    0.291368
   5 H :    0.057757
   6 H :    0.051893
   7 H :    0.053100
   8 H :    0.042387
   9 H :    0.036484
  10 H :    0.041953
  11 H :   -0.010825
  12 H :    0.005451
  13 H :   -0.005423

  Mayer bond orders larger than 0.100000
B(  0-C ,  1-C ) :   1.2673 B(  0-C ,  2-C ) :   1.1416 B(  0-C ,  3-N ) :   0.1024
B(  0-C ,  9-H ) :   0.8626 B(  0-C , 10-H ) :   0.8670 B(  0-C , 11-H ) :   0.2050
B(  0-C , 12-H ) :   0.1714 B(  0-C , 13-H ) :   0.1820 B(  1-C , 11-H ) :   0.7654
B(  1-C , 12-H ) :   0.8089 B(  1-C , 13-H ) :   0.8050 B(  2-C ,  3-N ) :   1.0569
B(  2-C ,  4-N ) :   1.2342 B(  2-C ,  6-H ) :  -0.1637 B(  2-C ,  8-H ) :  -0.2055
B(  2-C ,  9-H ) :   0.1403 B(  2-C , 10-H ) :   0.1009 B(  3-N ,  4-N ) :   0.1586
B(  3-N ,  7-H ) :   1.0965 B(  3-N ,  8-H ) :   1.3218 B(  4-N ,  5-H ) :   1.0699
B(  4-N ,  6-H ) :   1.2958 B(  5-H ,  6-H ) :  -0.1681 B(  7-H ,  8-H ) :  -0.1815

Dispersion correction           -0.016636179
FINAL SINGLE POINT ENERGY      -228.753025779003

DIPOLE MOMENT
-------------
                                X             Y             Z
Electronic contribution:     -1.55635      -0.26826      -3.87904
Nuclear contribution   :      1.33202       0.27544       2.83701
                        -----------------------------------------
Total Dipole Moment    :     -0.22433       0.00718      -1.04203
                        -----------------------------------------
Magnitude (a.u.)       :      1.06593
Magnitude (Debye)      :      2.70938

Rotational constants in cm-1:     0.258570     0.126296     0.098869
Rotational constants in MHz :  7751.748523  3786.267300  2964.011691

                             ****ORCA TERMINATED NORMALLY****
TOTAL RUN TIME: 0 days 0 hours 0 minutes 18 seconds 635 msec
