                         Program Version 5.0.0 -  RELEASE  -
|  1> !B3LYP D3BJ RIJCOSX def2-SVPD def2/J TightSCF
|  2> *xyz 0 1
|  3> C          0.84888        2.66797       -4.30235
|  4> C          2.09343        1.86104       -4.65684
|  5> H          2.44481        2.04157       -5.67499
|  6> H          2.90175        2.13786       -3.98034
|  7> S          1.87964        0.07859       -4.46297
|  8> F          3.20757       -0.46611       -4.42026
|  9> O          1.07506       -0.05616       -3.26876
| 10> O          1.13166       -0.31996       -5.67903
| 11> H          0.05064        2.40112       -4.96303
| 12> H          1.06043        3.71210       -4.40203
| 13> H          0.56237        2.45684       -3.29327
| 14> *
| 15>
| 16> %MaxCore 64000
| 17>
| 18> %pal nprocs 4
| 19> end
| 20>
| 21> %scf
| 22>   MaxIter 150
| 23> end
| 24>
| 25>
| 26>                          ****END OF INPUT****

CARTESIAN COORDINATES (ANGSTROEM)
---------------------------------
  C      0.848880    2.667970   -4.302350
  C      2.093430    1.861040   -4.656840
  H      2.444810    2.041570   -5.674990
  H      2.901750    2.137860   -3.980340
  S      1.879640    0.078590   -4.462970
  F      3.207570   -0.466110   -4.420260
  O      1.075060   -0.056160   -3.268760
  O      1.131660   -0.319960   -5.679030
  H      0.050640    2.401120   -4.963030
  H      1.060430    3.712100   -4.402030
  H      0.562370    2.456840   -3.293270

 Total Charge           Charge          ....    0
 Multiplicity           Mult            ....    1
 Number of Electrons    NEL             ....   58
 Basis Dimension        Dim             ....  176

ORBITAL ENERGIES
----------------

  NO   OCC          E(Eh)            E(eV)
   0   2.0000     -89.139959     -2425.6216
   1   2.0000     -24.821005      -675.4139
   2   2.0000     -19.153798      -521.2013
   3   2.0000     -19.141406      -520.8641
   4   2.0000     -10.245822      -278.8030
   5   2.0000     -10.202181      -277.6155
   6   2.0000      -8.194755      -222.9906
   7   2.0000      -6.167753      -167.8331
   8   2.0000      -6.161366      -167.6593
   9   2.0000      -6.159900      -167.6194
  10   2.0000      -1.384927       -37.6858
  11   2.0000      -1.108932       -30.1756
  12   2.0000      -1.004083       -27.3225
  13   2.0000      -0.817418       -22.2431
  14   2.0000      -0.741390       -20.1743
  15   2.0000      -0.676374       -18.4051
  16   2.0000      -0.596166       -16.2225
  17   2.0000      -0.594218       -16.1695
  18   2.0000      -0.558646       -15.2015
  19   2.0000      -0.495547       -13.4845
  20   2.0000      -0.488027       -13.2799
  21   2.0000      -0.448088       -12.1931
  22   2.0000      -0.433222       -11.7886
  23   2.0000      -0.410281       -11.1643
  24   2.0000      -0.390825       -10.6349
  25   2.0000      -0.386723       -10.5233
  26   2.0000      -0.337753        -9.1907
  27   2.0000      -0.323232        -8.7956
  28   2.0000      -0.308773        -8.4021
  29   0.0000      -0.007691        -0.2093
  30   0.0000       0.018152         0.4939
  31   0.0000       0.032837         0.8935
  32   0.0000       0.038972         1.0605
  33   0.0000       0.049111         1.3364

MULLIKEN ATOMIC CHARGES
-----------------------
   0 C :    0.974291
   1 C :   -0.208941
   2 H :   -0.108467
   3 H :   -0.061077
   4 S :    1.531684
   5 F :   -0.408042
   6 O :   -0.662203
   7 O :   -0.692130
   8 H :   -0.111105
   9 H :   -0.167704
  10 H :   -0.086305
Sum of atomic charges:    0.0000000

LOEWDIN ATOMIC CHARGES
----------------------
   0 C :    0.149519
   1 C :   -0.090200
   2 H :    0.021350
   3 H :    0.011729
   4 S :    1.126640
   5 F :   -0.254057
   6 O :   -0.463363
   7 O :   -0.483298
   8 H :   -0.000744
   9 H :   -0.006433
  10 H :   -0.011144

  Mayer bond orders larger than 0.100000
B(  0-C ,  1-C ) :   1.3397 B(  0-C ,  3-H ) :   0.1132 B(  0-C ,  8-H ) :   0.7750
B(  0-C ,  9-H ) :   0.7049 B(  0-C , 10-H ) :   0.7759 B(  1-C ,  2-H ) :   0.9568
B(  1-C ,  3-H ) :   0.9356 B(  1-C ,  4-S ) :   0.9457 B(  1-C ,  8-H ) :   0.1994
B(  1-C ,  9-H ) :   0.2358 B(  1-C , 10-H ) :   0.2186 B(  4-S ,  5-F ) :   0.6947
B(  4-S ,  6-O ) :   1.5074 B(  4-S ,  7-O ) :   1.4680

Dispersion correction           -0.016042197
FINAL SINGLE POINT ENERGY      -727.068637410114

DIPOLE MOMENT
-------------
                                X             Y             Z
Electronic contribution:      4.16230      -9.27321       0.10413
Nuclear contribution   :     -3.08754      10.54185      -0.04092
                        -----------------------------------------
Total Dipole Moment    :      1.07476       1.26865       0.06321
                        -----------------------------------------
Magnitude (a.u.)       :      1.66390
Magnitude (Debye)      :      4.22930

Rotational constants in cm-1:     0.158925     0.081210     0.079022
Rotational constants in MHz :  4764.450166  2434.603461  2369.014434

                             ****ORCA TERMINATED NORMALLY****
TOTAL RUN TIME: 0 days 0 hours 0 minutes 20 seconds 728 msec
