                         Program Version 5.0.0 -  RELEASE  -
|  1> !B3LYP D3BJ RIJCOSX def2-SVPD def2/J TightSCF
|  2> *xyz 0 1
|  3> C         -0.46129        2.23469       -4.98962
|  4> C          0.84888        2.66797       -4.30235
|  5> C         -0.42384        2.39877       -6.47432
|  6> C         -0.95947        3.49265       -7.00740
|  7> N          0.14558        1.48689       -7.20399
|  8> H          0.56537        0.69681       -6.72386
|  9> H          0.22068        1.58177       -8.20752
| 10> H         -1.40624        4.18151       -6.40326
| 11> H         -0.93421        3.68160       -7.99947
| 12> H         -1.28888        2.82674       -4.59500
| 13> H         -0.65170        1.18634       -4.75655
| 14> H          1.66208        2.08894       -4.68750
| 15> H          0.76716        2.51042       -3.24717
| 16> H          1.02677        3.70527       -4.49537
| 17> *
| 18>
| 19> %MaxCore 64000
| 20>
| 21> %pal nprocs 4
| 22> end
| 23>
| 24> %scf
| 25>   MaxIter 150
| 26> end
| 27>
| 28>
| 29>                          ****END OF INPUT****

CARTESIAN COORDINATES (ANGSTROEM)
---------------------------------
  C     -0.461290    2.234690   -4.989620
  C      0.848880    2.667970   -4.302350
  C     -0.423840    2.398770   -6.474320
  C     -0.959470    3.492650   -7.007400
  N      0.145580    1.486890   -7.203990
  H      0.565370    0.696810   -6.723860
  H      0.220680    1.581770   -8.207520
  H     -1.406240    4.181510   -6.403260
  H     -0.934210    3.681600   -7.999470
  H     -1.288880    2.826740   -4.595000
  H     -0.651700    1.186340   -4.756550
  H      1.662080    2.088940   -4.687500
  H      0.767160    2.510420   -3.247170
  H      1.026770    3.705270   -4.495370

 Total Charge           Charge          ....    0
 Multiplicity           Mult            ....    1
 Number of Electrons    NEL             ....   40
 Basis Dimension        Dim             ....  172

ORBITAL ENERGIES
----------------

  NO   OCC          E(Eh)            E(eV)
   0   2.0000     -14.334033      -390.0489
   1   2.0000     -10.201252      -277.5902
   2   2.0000     -10.182240      -277.0728
   3   2.0000     -10.169780      -276.7338
   4   2.0000     -10.115184      -275.2481
   5   2.0000      -0.927887       -25.2491
   6   2.0000      -0.771182       -20.9849
   7   2.0000      -0.706844       -19.2342
   8   2.0000      -0.630693       -17.1620
   9   2.0000      -0.568665       -15.4742
  10   2.0000      -0.530207       -14.4277
  11   2.0000      -0.479666       -13.0524
  12   2.0000      -0.438108       -11.9215
  13   2.0000      -0.420060       -11.4304
  14   2.0000      -0.393079       -10.6962
  15   2.0000      -0.382185       -10.3998
  16   2.0000      -0.353767        -9.6265
  17   2.0000      -0.336933        -9.1684
  18   2.0000      -0.332205        -9.0398
  19   2.0000      -0.187571        -5.1041
  20   0.0000       0.012977         0.3531
  21   0.0000       0.039983         1.0880
  22   0.0000       0.051436         1.3997
  23   0.0000       0.057300         1.5592
  24   0.0000       0.065405         1.7798

MULLIKEN ATOMIC CHARGES
-----------------------
   0 C :    0.023620
   1 C :    0.846608
   2 C :   -0.095158
   3 C :    0.596353
   4 N :    0.368286
   5 H :   -0.136932
   6 H :   -0.252018
   7 H :   -0.216219
   8 H :   -0.598640
   9 H :   -0.020296
  10 H :   -0.157325
  11 H :   -0.129100
  12 H :   -0.088900
  13 H :   -0.140280
Sum of atomic charges:    0.0000000

LOEWDIN ATOMIC CHARGES
----------------------
   0 C :   -0.026054
   1 C :    0.143163
   2 C :   -0.270770
   3 C :    0.183272
   4 N :    0.175339
   5 H :    0.003825
   6 H :    0.011422
   7 H :   -0.086293
   8 H :   -0.095552
   9 H :    0.018893
  10 H :    0.013159
  11 H :   -0.027689
  12 H :   -0.023921
  13 H :   -0.018792

  Mayer bond orders larger than 0.100000
B(  0-C ,  1-C ) :   1.2415 B(  0-C ,  2-C ) :   1.1620 B(  0-C ,  3-C ) :   0.1888
B(  0-C ,  4-N ) :   0.1042 B(  0-C ,  9-H ) :   0.8140 B(  0-C , 10-H ) :   0.8005
B(  0-C , 11-H ) :   0.2313 B(  0-C , 12-H ) :   0.1888 B(  0-C , 13-H ) :   0.1956
B(  1-C , 11-H ) :   0.7679 B(  1-C , 12-H ) :   0.7799 B(  1-C , 13-H ) :   0.8195
B(  2-C ,  3-C ) :   1.5899 B(  2-C ,  4-N ) :   1.3110 B(  2-C ,  8-H ) :   0.1680
B(  2-C ,  9-H ) :   0.1817 B(  2-C , 10-H ) :   0.1823 B(  3-C ,  4-N ) :   0.2643
B(  3-C ,  7-H ) :   0.8957 B(  3-C ,  8-H ) :   0.6329 B(  4-N ,  5-H ) :   1.0845
B(  4-N ,  6-H ) :   1.2477 B(  5-H ,  6-H ) :  -0.1370

Dispersion correction           -0.017373533
FINAL SINGLE POINT ENERGY      -212.296093196808

DIPOLE MOMENT
-------------
                                X             Y             Z
Electronic contribution:     -0.72495      -1.16800      -2.59607
Nuclear contribution   :      1.14741       0.51394       2.60761
                        -----------------------------------------
Total Dipole Moment    :      0.42247      -0.65406       0.01154
                        -----------------------------------------
Magnitude (a.u.)       :      0.77872
Magnitude (Debye)      :      1.97934

Rotational constants in cm-1:     0.269157     0.129188     0.102123
Rotational constants in MHz :  8069.118715  3872.945231  3061.580645

                             ****ORCA TERMINATED NORMALLY****
TOTAL RUN TIME: 0 days 0 hours 0 minutes 21 seconds 376 msec
