                         Program Version 5.0.0 -  RELEASE  -
|  1> !B3LYP D3BJ RIJCOSX def2-SVPD def2/J TightSCF
|  2> *xyz 0 1
|  3> C          0.84888        2.66797       -4.30235
|  4> C          2.09343        1.86104       -4.65684
|  5> H          2.44481        2.04157       -5.67499
|  6> H          2.90175        2.13786       -3.98034
|  7> S          1.87964        0.07859       -4.46297
|  8> O          3.20757       -0.46611       -4.42026
|  9> F          1.07506       -0.05616       -3.26876
| 10> O          1.13166       -0.31996       -5.67903
| 11> H          0.05064        2.40112       -4.96303
| 12> H          1.06043        3.71210       -4.40203
| 13> H          0.56237        2.45684       -3.29327
| 14> *
| 15>
| 16> %MaxCore 64000
| 17>
| 18> %pal nprocs 4
| 19> end
| 20>
| 21> %scf
| 22>   MaxIter 150
| 23> end
| 24>
| 25>
| 26>                          ****END OF INPUT****

CARTESIAN COORDINATES (ANGSTROEM)
---------------------------------
  C      0.848880    2.667970   -4.302350
  C      2.093430    1.861040   -4.656840
  H      2.444810    2.041570   -5.674990
  H      2.901750    2.137860   -3.980340
  S      1.879640    0.078590   -4.462970
  O      3.207570   -0.466110   -4.420260
  F      1.075060   -0.056160   -3.268760
  O      1.131660   -0.319960   -5.679030
  H      0.050640    2.401120   -4.963030
  H      1.060430    3.712100   -4.402030
  H      0.562370    2.456840   -3.293270

 Total Charge           Charge          ....    0
 Multiplicity           Mult            ....    1
 Number of Electrons    NEL             ....   58
 Basis Dimension        Dim             ....  176

ORBITAL ENERGIES
----------------

  NO   OCC          E(Eh)            E(eV)
   0   2.0000     -89.139444     -2425.6076
   1   2.0000     -24.815720      -675.2701
   2   2.0000     -19.157394      -521.2992
   3   2.0000     -19.141445      -520.8652
   4   2.0000     -10.245702      -278.7997
   5   2.0000     -10.208951      -277.7997
   6   2.0000      -8.194211      -222.9758
   7   2.0000      -6.167296      -167.8207
   8   2.0000      -6.160815      -167.6443
   9   2.0000      -6.159344      -167.6043
  10   2.0000      -1.376307       -37.4512
  11   2.0000      -1.113017       -30.2867
  12   2.0000      -1.007312       -27.4104
  13   2.0000      -0.822512       -22.3817
  14   2.0000      -0.734912       -19.9980
  15   2.0000      -0.678806       -18.4712
  16   2.0000      -0.602598       -16.3975
  17   2.0000      -0.589461       -16.0400
  18   2.0000      -0.549667       -14.9572
  19   2.0000      -0.497811       -13.5461
  20   2.0000      -0.481624       -13.1057
  21   2.0000      -0.455962       -12.4074
  22   2.0000      -0.443199       -12.0601
  23   2.0000      -0.415938       -11.3183
  24   2.0000      -0.400108       -10.8875
  25   2.0000      -0.387229       -10.5370
  26   2.0000      -0.339178        -9.2295
  27   2.0000      -0.323879        -8.8132
  28   2.0000      -0.311769        -8.4837
  29   0.0000      -0.011795        -0.3210
  30   0.0000       0.023967         0.6522
  31   0.0000       0.034149         0.9292
  32   0.0000       0.038104         1.0369
  33   0.0000       0.046534         1.2663

MULLIKEN ATOMIC CHARGES
-----------------------
   0 C :    0.981749
   1 C :   -0.168684
   2 H :   -0.113773
   3 H :   -0.071416
   4 S :    1.497329
   5 O :   -0.639946
   6 F :   -0.408928
   7 O :   -0.694479
   8 H :   -0.109171
   9 H :   -0.168154
  10 H :   -0.104526
Sum of atomic charges:   -0.0000000

LOEWDIN ATOMIC CHARGES
----------------------
   0 C :    0.135109
   1 C :   -0.077871
   2 H :    0.033868
   3 H :    0.015992
   4 S :    1.121456
   5 O :   -0.458327
   6 F :   -0.258189
   7 O :   -0.482588
   8 H :   -0.004909
   9 H :   -0.007952
  10 H :   -0.016590

  Mayer bond orders larger than 0.100000
B(  0-C ,  1-C ) :   1.2916 B(  0-C ,  3-H ) :   0.1010 B(  0-C ,  8-H ) :   0.7846
B(  0-C ,  9-H ) :   0.7034 B(  0-C , 10-H ) :   0.7762 B(  1-C ,  2-H ) :   0.9593
B(  1-C ,  3-H ) :   0.9649 B(  1-C ,  4-S ) :   0.9717 B(  1-C ,  8-H ) :   0.1971
B(  1-C ,  9-H ) :   0.2368 B(  1-C , 10-H ) :   0.2052 B(  4-S ,  5-O ) :   1.5543
B(  4-S ,  6-F ) :   0.6781 B(  4-S ,  7-O ) :   1.4825

Dispersion correction           -0.015930520
FINAL SINGLE POINT ENERGY      -727.073083005765

DIPOLE MOMENT
-------------
                                X             Y             Z
Electronic contribution:      0.56905      -8.55703       2.02869
Nuclear contribution   :     -0.86540      10.11467      -1.24082
                        -----------------------------------------
Total Dipole Moment    :     -0.29635       1.55764       0.78787
                        -----------------------------------------
Magnitude (a.u.)       :      1.77054
Magnitude (Debye)      :      4.50036

Rotational constants in cm-1:     0.154065     0.083345     0.080357
Rotational constants in MHz :  4618.752213  2498.631937  2409.037217

                             ****ORCA TERMINATED NORMALLY****
TOTAL RUN TIME: 0 days 0 hours 0 minutes 21 seconds 899 msec
