                         Program Version 5.0.0 -  RELEASE  -
|  1> !B3LYP D3BJ RIJCOSX def2-SVPD def2/J TightSCF
|  2> *xyz 0 1
|  3> C         -0.46129        2.23469       -4.98962
|  4> C          0.84888        2.66797       -4.30235
|  5> C         -0.42384        2.39877       -6.47432
|  6> N         -0.95947        3.49265       -7.00740
|  7> C          0.14558        1.48689       -7.20399
|  8> H          0.56537        0.69681       -6.72386
|  9> H          0.22068        1.58177       -8.20752
| 10> H         -1.40624        4.18151       -6.40326
| 11> H         -0.93421        3.68160       -7.99947
| 12> H         -1.28888        2.82674       -4.59500
| 13> H         -0.65170        1.18634       -4.75655
| 14> H          1.66208        2.08894       -4.68750
| 15> H          0.76716        2.51042       -3.24717
| 16> H          1.02677        3.70527       -4.49537
| 17> *
| 18>
| 19> %MaxCore 64000
| 20>
| 21> %pal nprocs 4
| 22> end
| 23>
| 24> %scf
| 25>   MaxIter 150
| 26> end
| 27>
| 28>
| 29>                          ****END OF INPUT****

CARTESIAN COORDINATES (ANGSTROEM)
---------------------------------
  C     -0.461290    2.234690   -4.989620
  C      0.848880    2.667970   -4.302350
  C     -0.423840    2.398770   -6.474320
  N     -0.959470    3.492650   -7.007400
  C      0.145580    1.486890   -7.203990
  H      0.565370    0.696810   -6.723860
  H      0.220680    1.581770   -8.207520
  H     -1.406240    4.181510   -6.403260
  H     -0.934210    3.681600   -7.999470
  H     -1.288880    2.826740   -4.595000
  H     -0.651700    1.186340   -4.756550
  H      1.662080    2.088940   -4.687500
  H      0.767160    2.510420   -3.247170
  H      1.026770    3.705270   -4.495370

 Total Charge           Charge          ....    0
 Multiplicity           Mult            ....    1
 Number of Electrons    NEL             ....   40
 Basis Dimension        Dim             ....  172

ORBITAL ENERGIES
----------------

  NO   OCC          E(Eh)            E(eV)
   0   2.0000     -14.330784      -389.9605
   1   2.0000     -10.199171      -277.5336
   2   2.0000     -10.182014      -277.0667
   3   2.0000     -10.168404      -276.6963
   4   2.0000     -10.114109      -275.2189
   5   2.0000      -0.915383       -24.9088
   6   2.0000      -0.772815       -21.0294
   7   2.0000      -0.710667       -19.3382
   8   2.0000      -0.631505       -17.1841
   9   2.0000      -0.563106       -15.3229
  10   2.0000      -0.520468       -14.1626
  11   2.0000      -0.481853       -13.1119
  12   2.0000      -0.439433       -11.9576
  13   2.0000      -0.415602       -11.3091
  14   2.0000      -0.394091       -10.7238
  15   2.0000      -0.382843       -10.4177
  16   2.0000      -0.351314        -9.5597
  17   2.0000      -0.339568        -9.2401
  18   2.0000      -0.328302        -8.9335
  19   2.0000      -0.191646        -5.2150
  20   0.0000       0.014649         0.3986
  21   0.0000       0.040174         1.0932
  22   0.0000       0.051360         1.3976
  23   0.0000       0.057711         1.5704
  24   0.0000       0.066620         1.8128

MULLIKEN ATOMIC CHARGES
-----------------------
   0 C :    0.032466
   1 C :    0.815018
   2 C :    0.052862
   3 N :    0.209976
   4 C :    0.566297
   5 H :   -0.201665
   6 H :   -0.546939
   7 H :   -0.132254
   8 H :   -0.232779
   9 H :   -0.187524
  10 H :   -0.017307
  11 H :   -0.132799
  12 H :   -0.084623
  13 H :   -0.140729
Sum of atomic charges:   -0.0000000

LOEWDIN ATOMIC CHARGES
----------------------
   0 C :   -0.026054
   1 C :    0.144046
   2 C :   -0.263781
   3 N :    0.174207
   4 C :    0.175431
   5 H :   -0.077413
   6 H :   -0.085223
   7 H :   -0.003112
   8 H :    0.000715
   9 H :    0.008805
  10 H :    0.021205
  11 H :   -0.022451
  12 H :   -0.024404
  13 H :   -0.021972

  Mayer bond orders larger than 0.100000
B(  0-C ,  1-C ) :   1.2605 B(  0-C ,  2-C ) :   1.1033 B(  0-C ,  3-N ) :   0.1209
B(  0-C ,  4-C ) :   0.1895 B(  0-C ,  9-H ) :   0.7997 B(  0-C , 10-H ) :   0.8140
B(  0-C , 11-H ) :   0.2086 B(  0-C , 12-H ) :   0.1750 B(  0-C , 13-H ) :   0.2101
B(  1-C ,  9-H ) :   0.1128 B(  1-C , 11-H ) :   0.8080 B(  1-C , 12-H ) :   0.7823
B(  1-C , 13-H ) :   0.7989 B(  2-C ,  3-N ) :   1.1504 B(  2-C ,  4-C ) :   1.6986
B(  2-C ,  5-H ) :   0.1510 B(  2-C ,  6-H ) :   0.2224 B(  2-C ,  8-H ) :  -0.1330
B(  2-C ,  9-H ) :   0.1701 B(  2-C , 10-H ) :   0.1405 B(  3-N ,  4-C ) :   0.2790
B(  3-N ,  7-H ) :   1.1051 B(  3-N ,  8-H ) :   1.2908 B(  4-C ,  5-H ) :   0.7642
B(  4-C ,  6-H ) :   0.6277 B(  7-H ,  8-H ) :  -0.1653

Dispersion correction           -0.017388539
FINAL SINGLE POINT ENERGY      -212.296077742957

DIPOLE MOMENT
-------------
                                X             Y             Z
Electronic contribution:     -1.70052       0.57588      -2.42237
Nuclear contribution   :      1.40335       0.04939       2.56207
                        -----------------------------------------
Total Dipole Moment    :     -0.29717       0.62527       0.13971
                        -----------------------------------------
Magnitude (a.u.)       :      0.70625
Magnitude (Debye)      :      1.79514

Rotational constants in cm-1:     0.271383     0.128194     0.101873
Rotational constants in MHz :  8135.853259  3843.152748  3054.074278

                             ****ORCA TERMINATED NORMALLY****
TOTAL RUN TIME: 0 days 0 hours 0 minutes 20 seconds 909 msec
