                         Program Version 5.0.0 -  RELEASE  -
|  1> !B3LYP D3BJ RIJCOSX def2-SVPD def2/J TightSCF
|  2> *xyz 0 1
|  3> C          0.84888        2.66797       -4.30235
|  4> C          2.09343        1.86104       -4.65684
|  5> H          2.44481        2.04157       -5.67499
|  6> H          2.90175        2.13786       -3.98034
|  7> S          1.87964        0.07859       -4.46297
|  8> O          3.20757       -0.46611       -4.42026
|  9> O          1.07506       -0.05616       -3.26876
| 10> F          1.13166       -0.31996       -5.67903
| 11> H          0.05064        2.40112       -4.96303
| 12> H          1.06043        3.71210       -4.40203
| 13> H          0.56237        2.45684       -3.29327
| 14> *
| 15>
| 16> %MaxCore 64000
| 17>
| 18> %pal nprocs 4
| 19> end
| 20>
| 21> %scf
| 22>   MaxIter 150
| 23> end
| 24>
| 25>
| 26>                          ****END OF INPUT****

CARTESIAN COORDINATES (ANGSTROEM)
---------------------------------
  C      0.848880    2.667970   -4.302350
  C      2.093430    1.861040   -4.656840
  H      2.444810    2.041570   -5.674990
  H      2.901750    2.137860   -3.980340
  S      1.879640    0.078590   -4.462970
  O      3.207570   -0.466110   -4.420260
  O      1.075060   -0.056160   -3.268760
  F      1.131660   -0.319960   -5.679030
  H      0.050640    2.401120   -4.963030
  H      1.060430    3.712100   -4.402030
  H      0.562370    2.456840   -3.293270

 Total Charge           Charge          ....    0
 Multiplicity           Mult            ....    1
 Number of Electrons    NEL             ....   58
 Basis Dimension        Dim             ....  176

ORBITAL ENERGIES
----------------

  NO   OCC          E(Eh)            E(eV)
   0   2.0000     -89.137761     -2425.5618
   1   2.0000     -24.797538      -674.7753
   2   2.0000     -19.157022      -521.2891
   3   2.0000     -19.153633      -521.1969
   4   2.0000     -10.244761      -278.7741
   5   2.0000     -10.203353      -277.6474
   6   2.0000      -8.192472      -222.9285
   7   2.0000      -6.165287      -167.7660
   8   2.0000      -6.159324      -167.6037
   9   2.0000      -6.157813      -167.5626
  10   2.0000      -1.345527       -36.6137
  11   2.0000      -1.121272       -30.5114
  12   2.0000      -1.026818       -27.9411
  13   2.0000      -0.818371       -22.2690
  14   2.0000      -0.723183       -19.6788
  15   2.0000      -0.670996       -18.2587
  16   2.0000      -0.582996       -15.8641
  17   2.0000      -0.568001       -15.4561
  18   2.0000      -0.551284       -15.0012
  19   2.0000      -0.497558       -13.5392
  20   2.0000      -0.483120       -13.1464
  21   2.0000      -0.462050       -12.5730
  22   2.0000      -0.436498       -11.8777
  23   2.0000      -0.408139       -11.1060
  24   2.0000      -0.405278       -11.0282
  25   2.0000      -0.385894       -10.5007
  26   2.0000      -0.345171        -9.3926
  27   2.0000      -0.334962        -9.1148
  28   2.0000      -0.325378        -8.8540
  29   0.0000      -0.008525        -0.2320
  30   0.0000       0.023698         0.6449
  31   0.0000       0.033721         0.9176
  32   0.0000       0.037891         1.0311
  33   0.0000       0.047195         1.2843

MULLIKEN ATOMIC CHARGES
-----------------------
   0 C :    1.009527
   1 C :   -0.200826
   2 H :   -0.118430
   3 H :   -0.063030
   4 S :    1.513860
   5 O :   -0.651209
   6 O :   -0.675921
   7 F :   -0.426588
   8 H :   -0.133643
   9 H :   -0.169299
  10 H :   -0.084441
Sum of atomic charges:    0.0000000

LOEWDIN ATOMIC CHARGES
----------------------
   0 C :    0.136824
   1 C :   -0.080644
   2 H :    0.019525
   3 H :    0.026586
   4 S :    1.122184
   5 O :   -0.459302
   6 O :   -0.461326
   7 F :   -0.274300
   8 H :   -0.008557
   9 H :   -0.008843
  10 H :   -0.012149

  Mayer bond orders larger than 0.100000
B(  0-C ,  1-C ) :   1.3058 B(  0-C ,  8-H ) :   0.7631 B(  0-C ,  9-H ) :   0.6982
B(  0-C , 10-H ) :   0.7822 B(  1-C ,  2-H ) :   0.9545 B(  1-C ,  3-H ) :   0.9600
B(  1-C ,  4-S ) :   0.9683 B(  1-C ,  8-H ) :   0.2013 B(  1-C ,  9-H ) :   0.2347
B(  1-C , 10-H ) :   0.2203 B(  4-S ,  5-O ) :   1.5487 B(  4-S ,  6-O ) :   1.5154
B(  4-S ,  7-F ) :   0.6258 B(  5-O ,  6-O ) :   0.1023

Dispersion correction           -0.015980707
FINAL SINGLE POINT ENERGY      -727.088929805642

DIPOLE MOMENT
-------------
                                X             Y             Z
Electronic contribution:      0.64787      -9.03164      -2.04495
Nuclear contribution   :     -0.92438      10.38956       1.27076
                        -----------------------------------------
Total Dipole Moment    :     -0.27651       1.35792      -0.77419
                        -----------------------------------------
Magnitude (a.u.)       :      1.58738
Magnitude (Debye)      :      4.03480

Rotational constants in cm-1:     0.154243     0.082247     0.080562
Rotational constants in MHz :  4624.087322  2465.703680  2415.175852

                             ****ORCA TERMINATED NORMALLY****
TOTAL RUN TIME: 0 days 0 hours 0 minutes 21 seconds 462 msec
