                         Program Version 5.0.0 -  RELEASE  -
|  1> !B3LYP D3BJ RIJCOSX def2-SVPD def2/J TightSCF xyzfile
|  2>
|  3> *xyzfile 0 1 D2.xyz
|  4>
|  5> %MaxCore 64000
|  6>
|  7> %pal nprocs 4
|  8> end
|  9>
| 10> %scf
| 11>   MaxIter 150
| 12> end
| 13>
| 14>
| 15>                          ****END OF INPUT****

CARTESIAN COORDINATES (ANGSTROEM)
---------------------------------
  C     -0.461293    2.234686   -4.989619
  C      0.848883    2.667967   -4.302351
  C      2.093434    1.861037   -4.656845
  H      2.444814    2.041567   -5.674990
  H      2.901748    2.137864   -3.980338
  S      1.879644    0.078594   -4.462965
  C     -0.423841    2.398772   -6.474317
  N     -0.959467    3.492647   -7.007401
  C      0.145585    1.486891   -7.203987
  H      0.565371    0.696807   -6.723858
  H      0.220682    1.581768   -8.207520
  H     -1.406243    4.181507   -6.403261
  H     -0.934215    3.681601   -7.999468
  F      3.207574   -0.466111   -4.420259
  O      1.075064   -0.056160   -3.268758
  O      1.131661   -0.319960   -5.679031
  H      0.668432    2.559427   -3.232850
  H      1.034074    3.729426   -4.497081
  H     -1.288884    2.826737   -4.594997
  H     -0.651696    1.186343   -4.756552

 Total Charge           Charge          ....    0
 Multiplicity           Mult            ....    1
 Number of Electrons    NEL             ....   88
 Basis Dimension        Dim             ....  296

ORBITAL ENERGIES
----------------

  NO   OCC          E(Eh)            E(eV)
   0   2.0000     -89.142132     -2425.6807
   1   2.0000     -24.820696      -675.4055
   2   2.0000     -19.154911      -521.2316
   3   2.0000     -19.143577      -520.9232
   4   2.0000     -14.325845      -389.8261
   5   2.0000     -10.240454      -278.6569
   6   2.0000     -10.210146      -277.8322
   7   2.0000     -10.191286      -277.3190
   8   2.0000     -10.184637      -277.1381
   9   2.0000     -10.091998      -274.6172
  10   2.0000      -8.196194      -223.0298
  11   2.0000      -6.169188      -167.8722
  12   2.0000      -6.163106      -167.7066
  13   2.0000      -6.161228      -167.6555
  14   2.0000      -1.384382       -37.6710
  15   2.0000      -1.112417       -30.2704
  16   2.0000      -1.010660       -27.5015
  17   2.0000      -0.911024       -24.7902
  18   2.0000      -0.824295       -22.4302
  19   2.0000      -0.765627       -20.8338
  20   2.0000      -0.724243       -19.7077
  21   2.0000      -0.697994       -18.9934
  22   2.0000      -0.638601       -17.3772
  23   2.0000      -0.598371       -16.2825
  24   2.0000      -0.590149       -16.0588
  25   2.0000      -0.563579       -15.3358
  26   2.0000      -0.560907       -15.2631
  27   2.0000      -0.514690       -14.0054
  28   2.0000      -0.498363       -13.5612
  29   2.0000      -0.487861       -13.2754
  30   2.0000      -0.474292       -12.9061
  31   2.0000      -0.460091       -12.5197
  32   2.0000      -0.443371       -12.0647
  33   2.0000      -0.407093       -11.0776
  34   2.0000      -0.402623       -10.9559
  35   2.0000      -0.389936       -10.6107
  36   2.0000      -0.375411       -10.2155
  37   2.0000      -0.363576        -9.8934
  38   2.0000      -0.340766        -9.2727
  39   2.0000      -0.338646        -9.2150
  40   2.0000      -0.323291        -8.7972
  41   2.0000      -0.317147        -8.6300
  42   2.0000      -0.295973        -8.0538
  43   2.0000      -0.184126        -5.0103
  44   0.0000      -0.003837        -0.1044
  45   0.0000       0.011645         0.3169
  46   0.0000       0.026413         0.7187
  47   0.0000       0.030415         0.8276
  48   0.0000       0.045949         1.2503

MULLIKEN ATOMIC CHARGES
-----------------------
   0 C :    0.539374
   1 C :    0.323278
   2 C :    0.232399
   3 H :    0.147064
   4 H :   -0.256153
   5 S :    1.585150
   6 C :    0.086983
   7 N :    0.144501
   8 C :    0.998648
   9 H :   -0.200200
  10 H :   -0.791437
  11 H :   -0.158472
  12 H :   -0.250507
  13 F :   -0.466080
  14 O :   -0.691193
  15 O :   -0.798091
  16 H :    0.066899
  17 H :   -0.294509
  18 H :   -0.275704
  19 H :    0.058049
Sum of atomic charges:   -0.0000000

LOEWDIN ATOMIC CHARGES
----------------------
   0 C :    0.036146
   1 C :   -0.002093
   2 C :   -0.034024
   3 H :    0.019919
   4 H :    0.012332
   5 S :    1.171326
   6 C :   -0.234327
   7 N :    0.168799
   8 C :    0.206411
   9 H :   -0.187860
  10 H :   -0.074466
  11 H :   -0.007687
  12 H :   -0.000625
  13 F :   -0.248409
  14 O :   -0.455059
  15 O :   -0.460637
  16 H :    0.022591
  17 H :    0.033078
  18 H :    0.018388
  19 H :    0.016195

  Mayer bond orders larger than 0.100000
B(  0-C ,  1-C ) :   1.1515 B(  0-C ,  6-C ) :   1.0902 B(  0-C ,  7-N ) :   0.1242
B(  0-C ,  8-C ) :   0.2054 B(  0-C , 16-H ) :   0.1404 B(  0-C , 18-H ) :   0.6434
B(  0-C , 19-H ) :   0.8120 B(  1-C ,  2-C ) :   1.3435 B(  1-C ,  3-H ) :   0.1346
B(  1-C ,  4-H ) :   0.2356 B(  1-C , 16-H ) :   0.7384 B(  1-C , 17-H ) :   0.8044
B(  1-C , 18-H ) :   0.1830 B(  1-C , 19-H ) :   0.1636 B(  2-C ,  3-H ) :   0.8563
B(  2-C ,  4-H ) :   0.7427 B(  2-C ,  5-S ) :   0.9318 B(  2-C ,  9-H ) :   0.1047
B(  2-C , 15-O ) :   0.1581 B(  2-C , 16-H ) :   0.1437 B(  2-C , 17-H ) :   0.1218
B(  4-H ,  5-S ) :   0.1017 B(  4-H ,  9-H ) :  -0.1216 B(  5-S , 13-F ) :   0.6476
B(  5-S , 14-O ) :   1.4961 B(  5-S , 15-O ) :   1.3989 B(  6-C ,  7-N ) :   1.0154
B(  6-C ,  8-C ) :   1.8051 B(  6-C ,  9-H ) :   0.3055 B(  6-C , 10-H ) :   0.2701
B(  6-C , 12-H ) :  -0.1347 B(  6-C , 18-H ) :   0.1931 B(  7-N ,  8-C ) :   0.3371
B(  7-N , 11-H ) :   1.1678 B(  7-N , 12-H ) :   1.3496 B(  8-C ,  9-H ) :   0.5425
B(  8-C , 10-H ) :   0.5503 B(  9-H , 10-H ) :  -0.2834 B(  9-H , 15-O ) :   0.1224
B( 11-H , 12-H ) :  -0.1616

Dispersion correction           -0.038748752
FINAL SINGLE POINT ENERGY      -898.893634813471

DIPOLE MOMENT
-------------
                                X             Y             Z
Electronic contribution:      9.24114     -12.40715       5.37665
Nuclear contribution   :     -8.42493      13.96425      -5.19491
                        -----------------------------------------
Total Dipole Moment    :      0.81621       1.55710       0.18174
                        -----------------------------------------
Magnitude (a.u.)       :      1.76742
Magnitude (Debye)      :      4.49243

Rotational constants in cm-1:     0.082815     0.024151     0.022015
Rotational constants in MHz :  2482.732265   724.035221   660.002136

                             ****ORCA TERMINATED NORMALLY****
TOTAL RUN TIME: 0 days 0 hours 1 minutes 11 seconds 611 msec
