                         Program Version 5.0.0 -  RELEASE  -
|  1> !B3LYP D3BJ RIJCOSX def2-SVPD def2/J TightSCF xyzfile
|  2>
|  3> *xyzfile 0 1 D4.xyz
|  4>
|  5> %MaxCore 64000
|  6>
|  7> %pal nprocs 4
|  8> end
|  9>
| 10> %scf
| 11>   MaxIter 150
| 12> end
| 13>
| 14>
| 15>                          ****END OF INPUT****

CARTESIAN COORDINATES (ANGSTROEM)
---------------------------------
  C     -0.461293    2.234686   -4.989619
  C      0.848883    2.667967   -4.302351
  C      2.093434    1.861037   -4.656845
  H      2.444814    2.041567   -5.674990
  H      2.901748    2.137864   -3.980338
  S      1.879644    0.078594   -4.462965
  C     -0.423841    2.398772   -6.474317
  N     -0.959467    3.492647   -7.007401
  C      0.145585    1.486891   -7.203987
  H      0.565371    0.696807   -6.723858
  H      0.220682    1.581768   -8.207520
  H     -1.406243    4.181507   -6.403261
  H     -0.934215    3.681601   -7.999468
  O      3.207574   -0.466111   -4.420259
  F      1.075064   -0.056160   -3.268758
  O      1.131661   -0.319960   -5.679031
  H      0.668432    2.559427   -3.232850
  H      1.034074    3.729426   -4.497081
  H     -1.288884    2.826737   -4.594997
  H     -0.651696    1.186343   -4.756552

 Total Charge           Charge          ....    0
 Multiplicity           Mult            ....    1
 Number of Electrons    NEL             ....   88
 Basis Dimension        Dim             ....  296

ORBITAL ENERGIES
----------------

  NO   OCC          E(Eh)            E(eV)
   0   2.0000     -89.141296     -2425.6580
   1   2.0000     -24.816347      -675.2871
   2   2.0000     -19.157117      -521.2917
   3   2.0000     -19.142307      -520.8887
   4   2.0000     -14.329721      -389.9315
   5   2.0000     -10.240145      -278.6485
   6   2.0000     -10.215914      -277.9891
   7   2.0000     -10.196224      -277.4534
   8   2.0000     -10.195324      -277.4289
   9   2.0000     -10.095787      -274.7203
  10   2.0000      -8.195285      -223.0050
  11   2.0000      -6.168492      -167.8532
  12   2.0000      -6.162099      -167.6792
  13   2.0000      -6.160252      -167.6290
  14   2.0000      -1.376676       -37.4613
  15   2.0000      -1.114755       -30.3340
  16   2.0000      -1.013371       -27.5752
  17   2.0000      -0.915471       -24.9112
  18   2.0000      -0.830826       -22.6079
  19   2.0000      -0.764842       -20.8124
  20   2.0000      -0.723798       -19.6955
  21   2.0000      -0.702140       -19.1062
  22   2.0000      -0.640167       -17.4198
  23   2.0000      -0.601061       -16.3557
  24   2.0000      -0.593008       -16.1366
  25   2.0000      -0.567019       -15.4294
  26   2.0000      -0.555871       -15.1260
  27   2.0000      -0.517427       -14.0799
  28   2.0000      -0.498144       -13.5552
  29   2.0000      -0.483550       -13.1581
  30   2.0000      -0.480312       -13.0700
  31   2.0000      -0.464700       -12.6451
  32   2.0000      -0.447604       -12.1799
  33   2.0000      -0.414493       -11.2789
  34   2.0000      -0.404585       -11.0093
  35   2.0000      -0.396280       -10.7833
  36   2.0000      -0.380571       -10.3559
  37   2.0000      -0.376435       -10.2433
  38   2.0000      -0.346789        -9.4366
  39   2.0000      -0.335292        -9.1238
  40   2.0000      -0.329146        -8.9565
  41   2.0000      -0.322972        -8.7885
  42   2.0000      -0.293251        -7.9798
  43   2.0000      -0.188083        -5.1180
  44   0.0000      -0.007987        -0.2173
  45   0.0000       0.014153         0.3851
  46   0.0000       0.025866         0.7038
  47   0.0000       0.028402         0.7729
  48   0.0000       0.041438         1.1276

MULLIKEN ATOMIC CHARGES
-----------------------
   0 C :    0.583395
   1 C :    0.357537
   2 C :    0.258677
   3 H :    0.129774
   4 H :   -0.276101
   5 S :    1.510189
   6 C :    0.069134
   7 N :    0.141077
   8 C :    0.981432
   9 H :   -0.170797
  10 H :   -0.789647
  11 H :   -0.158876
  12 H :   -0.247106
  13 O :   -0.661667
  14 F :   -0.439540
  15 O :   -0.779999
  16 H :    0.039981
  17 H :   -0.302591
  18 H :   -0.284606
  19 H :    0.039735
Sum of atomic charges:   -0.0000000

LOEWDIN ATOMIC CHARGES
----------------------
   0 C :    0.028674
   1 C :   -0.016928
   2 C :   -0.021449
   3 H :    0.032350
   4 H :    0.016429
   5 S :    1.163149
   6 C :   -0.234221
   7 N :    0.169054
   8 C :    0.210076
   9 H :   -0.186288
  10 H :   -0.072159
  11 H :   -0.007667
  12 H :    0.000584
  13 O :   -0.448535
  14 F :   -0.251350
  15 O :   -0.458540
  16 H :    0.017277
  17 H :    0.031253
  18 H :    0.017679
  19 H :    0.010613

  Mayer bond orders larger than 0.100000
B(  0-C ,  1-C ) :   1.1401 B(  0-C ,  6-C ) :   1.0943 B(  0-C ,  7-N ) :   0.1251
B(  0-C ,  8-C ) :   0.2126 B(  0-C , 16-H ) :   0.1358 B(  0-C , 18-H ) :   0.6441
B(  0-C , 19-H ) :   0.7933 B(  1-C ,  2-C ) :   1.3039 B(  1-C ,  3-H ) :   0.1364
B(  1-C ,  4-H ) :   0.2098 B(  1-C , 16-H ) :   0.7359 B(  1-C , 17-H ) :   0.8009
B(  1-C , 18-H ) :   0.1871 B(  1-C , 19-H ) :   0.1538 B(  2-C ,  3-H ) :   0.8529
B(  2-C ,  4-H ) :   0.8026 B(  2-C ,  5-S ) :   0.9617 B(  2-C ,  9-H ) :   0.1042
B(  2-C , 15-O ) :   0.1314 B(  2-C , 16-H ) :   0.1403 B(  2-C , 17-H ) :   0.1125
B(  4-H ,  5-S ) :   0.1065 B(  4-H ,  9-H ) :  -0.1296 B(  5-S , 13-O ) :   1.5507
B(  5-S , 14-F ) :   0.6421 B(  5-S , 15-O ) :   1.4333 B(  6-C ,  7-N ) :   1.0090
B(  6-C ,  8-C ) :   1.7937 B(  6-C ,  9-H ) :   0.3204 B(  6-C , 10-H ) :   0.2755
B(  6-C , 12-H ) :  -0.1346 B(  6-C , 18-H ) :   0.1917 B(  7-N ,  8-C ) :   0.3374
B(  7-N , 11-H ) :   1.1712 B(  7-N , 12-H ) :   1.3474 B(  8-C ,  9-H ) :   0.5554
B(  8-C , 10-H ) :   0.5336 B(  9-H , 10-H ) :  -0.2855 B( 11-H , 12-H ) :  -0.1622

Dispersion correction           -0.038519391
FINAL SINGLE POINT ENERGY      -898.896842611661

DIPOLE MOMENT
-------------
                                X             Y             Z
Electronic contribution:      5.54292     -11.65328       7.29579
Nuclear contribution   :     -6.09390      13.51614      -6.45360
                        -----------------------------------------
Total Dipole Moment    :     -0.55098       1.86286       0.84218
                        -----------------------------------------
Magnitude (a.u.)       :      2.11733
Magnitude (Debye)      :      5.38183

Rotational constants in cm-1:     0.081469     0.024519     0.022336
Rotational constants in MHz :  2442.393231   735.066768   669.628729

                             ****ORCA TERMINATED NORMALLY****
TOTAL RUN TIME: 0 days 0 hours 1 minutes 20 seconds 513 msec
