                         Program Version 5.0.0 -  RELEASE  -
|  1> !B3LYP D3BJ RIJCOSX def2-SVPD def2/J TightSCF xyzfile
|  2>
|  3> *xyzfile 0 1 D6.xyz
|  4>
|  5> %MaxCore 64000
|  6>
|  7> %pal nprocs 4
|  8> end
|  9>
| 10> %scf
| 11>   MaxIter 150
| 12> end
| 13>
| 14>
| 15>                          ****END OF INPUT****

CARTESIAN COORDINATES (ANGSTROEM)
---------------------------------
  C     -0.461293    2.234686   -4.989619
  C      0.848883    2.667967   -4.302351
  C      2.093434    1.861037   -4.656845
  H      2.444814    2.041567   -5.674990
  H      2.901748    2.137864   -3.980338
  S      1.879644    0.078594   -4.462965
  C     -0.423841    2.398772   -6.474317
  N     -0.959467    3.492647   -7.007401
  C      0.145585    1.486891   -7.203987
  H      0.565371    0.696807   -6.723858
  H      0.220682    1.581768   -8.207520
  H     -1.406243    4.181507   -6.403261
  H     -0.934215    3.681601   -7.999468
  O      3.207574   -0.466111   -4.420259
  O      1.075064   -0.056160   -3.268758
  F      1.131661   -0.319960   -5.679031
  H      0.668432    2.559427   -3.232850
  H      1.034074    3.729426   -4.497081
  H     -1.288884    2.826737   -4.594997
  H     -0.651696    1.186343   -4.756552

 Total Charge           Charge          ....    0
 Multiplicity           Mult            ....    1
 Number of Electrons    NEL             ....   88
 Basis Dimension        Dim             ....  296

ORBITAL ENERGIES
----------------

  NO   OCC          E(Eh)            E(eV)
   0   2.0000     -89.137444     -2425.5532
   1   2.0000     -24.797210      -674.7664
   2   2.0000     -19.155399      -521.2449
   3   2.0000     -19.152342      -521.1617
   4   2.0000     -14.342062      -390.2674
   5   2.0000     -10.237719      -278.5825
   6   2.0000     -10.211849      -277.8785
   7   2.0000     -10.211610      -277.8720
   8   2.0000     -10.198912      -277.5265
   9   2.0000     -10.118192      -275.3300
  10   2.0000      -8.191397      -222.8992
  11   2.0000      -6.164386      -167.7415
  12   2.0000      -6.158252      -167.5746
  13   2.0000      -6.156675      -167.5316
  14   2.0000      -1.350176       -36.7402
  15   2.0000      -1.120517       -30.4908
  16   2.0000      -1.025360       -27.9015
  17   2.0000      -0.927639       -25.2423
  18   2.0000      -0.828447       -22.5432
  19   2.0000      -0.768967       -20.9247
  20   2.0000      -0.721235       -19.6258
  21   2.0000      -0.713505       -19.4155
  22   2.0000      -0.639095       -17.3907
  23   2.0000      -0.601906       -16.3787
  24   2.0000      -0.572510       -15.5788
  25   2.0000      -0.559787       -15.2326
  26   2.0000      -0.551726       -15.0132
  27   2.0000      -0.533456       -14.5161
  28   2.0000      -0.501389       -13.6435
  29   2.0000      -0.490186       -13.3387
  30   2.0000      -0.473416       -12.8823
  31   2.0000      -0.461290       -12.5524
  32   2.0000      -0.452875       -12.3234
  33   2.0000      -0.414397       -11.2763
  34   2.0000      -0.406871       -11.0715
  35   2.0000      -0.397603       -10.8193
  36   2.0000      -0.383600       -10.4383
  37   2.0000      -0.376178       -10.2363
  38   2.0000      -0.349165        -9.5012
  39   2.0000      -0.344553        -9.3758
  40   2.0000      -0.339679        -9.2431
  41   2.0000      -0.329312        -8.9610
  42   2.0000      -0.323602        -8.8057
  43   2.0000      -0.204146        -5.5551
  44   0.0000      -0.000715        -0.0194
  45   0.0000       0.013046         0.3550
  46   0.0000       0.021487         0.5847
  47   0.0000       0.028625         0.7789
  48   0.0000       0.041948         1.1415

MULLIKEN ATOMIC CHARGES
-----------------------
   0 C :    0.525981
   1 C :    0.368052
   2 C :    0.285202
   3 H :    0.149652
   4 H :   -0.283265
   5 S :    1.475192
   6 C :    0.151054
   7 N :    0.149422
   8 C :    1.083411
   9 H :   -0.263804
  10 H :   -0.785981
  11 H :   -0.151110
  12 H :   -0.248469
  13 O :   -0.681259
  14 O :   -0.714617
  15 F :   -0.588360
  16 H :    0.072491
  17 H :   -0.289540
  18 H :   -0.271208
  19 H :    0.017155
Sum of atomic charges:    0.0000000

LOEWDIN ATOMIC CHARGES
----------------------
   0 C :    0.032705
   1 C :   -0.010258
   2 C :   -0.027074
   3 H :    0.018547
   4 H :    0.026289
   5 S :    1.136173
   6 C :   -0.232194
   7 N :    0.177266
   8 C :    0.203492
   9 H :   -0.152621
  10 H :   -0.072293
  11 H :   -0.001882
  12 H :    0.003377
  13 O :   -0.450034
  14 O :   -0.454607
  15 F :   -0.284989
  16 H :    0.023856
  17 H :    0.030570
  18 H :    0.020802
  19 H :    0.012875

  Mayer bond orders larger than 0.100000
B(  0-C ,  1-C ) :   1.1562 B(  0-C ,  6-C ) :   1.0835 B(  0-C ,  7-N ) :   0.1242
B(  0-C ,  8-C ) :   0.1769 B(  0-C , 16-H ) :   0.1367 B(  0-C , 18-H ) :   0.6648
B(  0-C , 19-H ) :   0.8191 B(  1-C ,  2-C ) :   1.3192 B(  1-C ,  3-H ) :   0.1421
B(  1-C ,  4-H ) :   0.2047 B(  1-C , 16-H ) :   0.7378 B(  1-C , 17-H ) :   0.7917
B(  1-C , 18-H ) :   0.1781 B(  1-C , 19-H ) :   0.1628 B(  2-C ,  3-H ) :   0.8520
B(  2-C ,  4-H ) :   0.7754 B(  2-C ,  5-S ) :   0.9727 B(  2-C , 15-F ) :   0.1344
B(  2-C , 16-H ) :   0.1521 B(  2-C , 17-H ) :   0.1073 B(  4-H ,  5-S ) :   0.1094
B(  4-H ,  9-H ) :  -0.1351 B(  5-S , 13-O ) :   1.5367 B(  5-S , 14-O ) :   1.5065
B(  5-S , 15-F ) :   0.6696 B(  6-C ,  7-N ) :   1.0295 B(  6-C ,  8-C ) :   1.7795
B(  6-C ,  9-H ) :   0.3247 B(  6-C , 10-H ) :   0.2863 B(  6-C , 12-H ) :  -0.1357
B(  6-C , 18-H ) :   0.1934 B(  7-N ,  8-C ) :   0.3225 B(  7-N , 11-H ) :   1.1609
B(  7-N , 12-H ) :   1.3483 B(  8-C ,  9-H ) :   0.3707 B(  8-C , 10-H ) :   0.5560
B(  9-H , 10-H ) :  -0.3184 B(  9-H , 15-F ) :   0.1146 B( 11-H , 12-H ) :  -0.1622
B( 13-O , 14-O ) :   0.1046

Dispersion correction           -0.038311049
FINAL SINGLE POINT ENERGY      -898.913394985789

DIPOLE MOMENT
-------------
                                X             Y             Z
Electronic contribution:      5.53304     -11.93216       3.15981
Nuclear contribution   :     -6.15577      13.80449      -3.81895
                        -----------------------------------------
Total Dipole Moment    :     -0.62273       1.87233      -0.65914
                        -----------------------------------------
Magnitude (a.u.)       :      2.08036
Magnitude (Debye)      :      5.28785

Rotational constants in cm-1:     0.081431     0.024887     0.022470
Rotational constants in MHz :  2441.231544   746.086417   673.646914

                             ****ORCA TERMINATED NORMALLY****
TOTAL RUN TIME: 0 days 0 hours 1 minutes 4 seconds 655 msec
