                         Program Version 5.0.0 -  RELEASE  -
|  1> !CAM-B3LYP RIJCOSX def2-TZVP def2/J TightSCF
|  2> *xyz -1 1
|  3> C         -0.05517        1.61942       -3.78858
|  4> C          1.22302        2.46987       -3.75691
|  5> H          1.11470        3.25807       -4.53300
|  6> H          1.23773        3.01124       -2.79216
|  7> O          2.35381        1.71203       -3.93448
|  8> H         -0.10198        1.08015       -4.71156
|  9> H         -0.91014        2.25726       -3.70441
| 10> H         -0.04403        0.92826       -2.97183
| 11> *
| 12>
| 13> %MaxCore 64000
| 14>
| 15> %pal nprocs 4
| 16> end
| 17>
| 18> %scf
| 19>   MaxIter 150
| 20> end
| 21>
| 22>
| 23>                          ****END OF INPUT****

CARTESIAN COORDINATES (ANGSTROEM)
---------------------------------
  C     -0.055170    1.619420   -3.788580
  C      1.223020    2.469870   -3.756910
  H      1.114700    3.258070   -4.533000
  H      1.237730    3.011240   -2.792160
  O      2.353810    1.712030   -3.934480
  H     -0.101980    1.080150   -4.711560
  H     -0.910140    2.257260   -3.704410
  H     -0.044030    0.928260   -2.971830

 Total Charge           Charge          ....   -1
 Multiplicity           Mult            ....    1
 Number of Electrons    NEL             ....   26
 Basis Dimension        Dim             ....  123

ORBITAL ENERGIES
----------------

  NO   OCC          E(Eh)            E(eV)
   0   2.0000     -18.838308      -512.6164
   1   2.0000     -10.046455      -273.3779
   2   2.0000     -10.025945      -272.8198
   3   2.0000      -0.742979       -20.2175
   4   2.0000      -0.598747       -16.2927
   5   2.0000      -0.440352       -11.9826
   6   2.0000      -0.314121        -8.5477
   7   2.0000      -0.289663        -7.8821
   8   2.0000      -0.231735        -6.3058
   9   2.0000      -0.215147        -5.8545
  10   2.0000      -0.161979        -4.4077
  11   2.0000      -0.016284        -0.4431
  12   2.0000      -0.014721        -0.4006
  13   0.0000       0.253330         6.8935
  14   0.0000       0.290413         7.9025
  15   0.0000       0.315478         8.5846
  16   0.0000       0.319815         8.7026
  17   0.0000       0.353453         9.6179

MULLIKEN ATOMIC CHARGES
-----------------------
   0 C :   -0.162770
   1 C :    0.057564
   2 H :   -0.069942
   3 H :   -0.067887
   4 O :   -0.783470
   5 H :    0.027222
   6 H :   -0.027643
   7 H :    0.026925
Sum of atomic charges:   -1.0000000

LOEWDIN ATOMIC CHARGES
----------------------
   0 C :   -0.363015
   1 C :   -0.549041
   2 H :    0.052781
   3 H :    0.054248
   4 O :   -0.442970
   5 H :    0.087584
   6 H :    0.073289
   7 H :    0.087123

  Mayer bond orders larger than 0.100000
B(  0-C ,  1-C ) :   0.8807 B(  0-C ,  4-O ) :  -0.2306 B(  0-C ,  5-H ) :   0.9711
B(  0-C ,  6-H ) :   0.9329 B(  0-C ,  7-H ) :   0.9740 B(  1-C ,  2-H ) :   0.9289
B(  1-C ,  3-H ) :   0.9291 B(  1-C ,  4-O ) :   1.6133

FINAL SINGLE POINT ENERGY      -154.406532745711

DIPOLE MOMENT
-------------
                                X             Y             Z
Electronic contribution:      2.86964      -0.60738      -0.26585
Nuclear contribution   :     -4.28298       0.81046       0.39340
                        -----------------------------------------
Total Dipole Moment    :     -1.41334       0.20308       0.12756
                        -----------------------------------------
Magnitude (a.u.)       :      1.43354
Magnitude (Debye)      :      3.64378

Rotational constants in cm-1:     1.266793     0.328147     0.288309
Rotational constants in MHz : 37977.512300  9837.594308  8643.275638

                             ****ORCA TERMINATED NORMALLY****
TOTAL RUN TIME: 0 days 0 hours 0 minutes 13 seconds 412 msec
