                         Program Version 5.0.0 -  RELEASE  -
|  1> !CAM-B3LYP RIJCOSX def2-TZVP def2/J TightSCF
|  2> *xyz 1 1
|  3> C          1.63556       -1.67040       -5.29211
|  4> C          0.33848       -1.50091       -4.50540
|  5> N          2.48451       -0.50741       -5.14039
|  6> H          1.39834       -1.82924       -6.35259
|  7> H          2.15586       -2.56540       -4.93209
|  8> C          3.45115       -0.14953       -5.95259
|  9> N          3.92267        1.08956       -5.85071
| 10> N          3.96616       -1.00618       -6.86788
| 11> H          3.52139       -1.90647       -6.99527
| 12> H          4.44482       -0.62347       -7.67035
| 13> H          2.25200        0.24080       -4.49879
| 14> H          3.46428        1.64078       -5.13639
| 15> H          4.83447        1.31375       -6.22465
| 16> H         -0.17658       -0.62881       -4.85045
| 17> H          0.56384       -1.39374       -3.46490
| 18> H         -0.28102       -2.36136       -4.64938
| 19> *
| 20>
| 21> %MaxCore 64000
| 22>
| 23> %pal nprocs 4
| 24> end
| 25>
| 26> %scf
| 27>   MaxIter 150
| 28> end
| 29>
| 30>
| 31>                          ****END OF INPUT****

CARTESIAN COORDINATES (ANGSTROEM)
---------------------------------
  C      1.635560   -1.670400   -5.292110
  C      0.338480   -1.500910   -4.505400
  N      2.484510   -0.507410   -5.140390
  H      1.398340   -1.829240   -6.352590
  H      2.155860   -2.565400   -4.932090
  C      3.451150   -0.149530   -5.952590
  N      3.922670    1.089560   -5.850710
  N      3.966160   -1.006180   -6.867880
  H      3.521390   -1.906470   -6.995270
  H      4.444820   -0.623470   -7.670350
  H      2.252000    0.240800   -4.498790
  H      3.464280    1.640780   -5.136390
  H      4.834470    1.313750   -6.224650
  H     -0.176580   -0.628810   -4.850450
  H      0.563840   -1.393740   -3.464900
  H     -0.281020   -2.361360   -4.649380

 Total Charge           Charge          ....    1
 Multiplicity           Mult            ....    1
 Number of Electrons    NEL             ....   48
 Basis Dimension        Dim             ....  246

ORBITAL ENERGIES
----------------

  NO   OCC          E(Eh)            E(eV)
   0   2.0000     -14.616611      -397.7382
   1   2.0000     -14.612069      -397.6146
   2   2.0000     -14.610092      -397.5608
   3   2.0000     -10.581015      -287.9241
   4   2.0000     -10.453591      -284.4567
   5   2.0000     -10.381421      -282.4928
   6   2.0000      -1.304609       -35.5002
   7   2.0000      -1.189568       -32.3698
   8   2.0000      -1.175597       -31.9896
   9   2.0000      -1.017944       -27.6997
  10   2.0000      -0.908605       -24.7244
  11   2.0000      -0.891229       -24.2516
  12   2.0000      -0.849909       -23.1272
  13   2.0000      -0.818860       -22.2823
  14   2.0000      -0.759591       -20.6695
  15   2.0000      -0.754530       -20.5318
  16   2.0000      -0.734838       -19.9959
  17   2.0000      -0.711386       -19.3578
  18   2.0000      -0.673490       -18.3266
  19   2.0000      -0.614636       -16.7251
  20   2.0000      -0.597575       -16.2608
  21   2.0000      -0.588051       -16.0017
  22   2.0000      -0.543943       -14.8014
  23   2.0000      -0.517473       -14.0812
  24   0.0000      -0.118994        -3.2380
  25   0.0000      -0.116526        -3.1708
  26   0.0000      -0.083944        -2.2842
  27   0.0000      -0.067330        -1.8321
  28   0.0000      -0.045223        -1.2306

MULLIKEN ATOMIC CHARGES
-----------------------
   0 C :   -0.147846
   1 C :   -0.402330
   2 N :   -0.216570
   3 H :    0.146199
   4 H :    0.171521
   5 C :    0.419951
   6 N :   -0.382252
   7 N :   -0.413762
   8 H :    0.288392
   9 H :    0.282320
  10 H :    0.238244
  11 H :    0.264490
  12 H :    0.290205
  13 H :    0.145866
  14 H :    0.152095
  15 H :    0.163476
Sum of atomic charges:    1.0000000

LOEWDIN ATOMIC CHARGES
----------------------
   0 C :   -0.288428
   1 C :   -0.278350
   2 N :    0.173111
   3 H :    0.141593
   4 H :    0.145234
   5 C :   -0.396757
   6 N :    0.060993
   7 N :    0.049781
   8 H :    0.194622
   9 H :    0.196150
  10 H :    0.210995
  11 H :    0.197575
  12 H :    0.200600
  13 H :    0.126141
  14 H :    0.128039
  15 H :    0.138700

  Mayer bond orders larger than 0.100000
B(  0-C ,  1-C ) :   0.9677 B(  0-C ,  2-N ) :   0.8422 B(  0-C ,  3-H ) :   0.9671
B(  0-C ,  4-H ) :   0.9493 B(  1-C , 13-H ) :   0.9731 B(  1-C , 14-H ) :   0.9713
B(  1-C , 15-H ) :   0.9659 B(  2-N ,  5-C ) :   1.4023 B(  2-N , 10-H ) :   0.9078
B(  5-C ,  6-N ) :   1.3232 B(  5-C ,  7-N ) :   1.3068 B(  6-N , 11-H ) :   0.9045
B(  6-N , 12-H ) :   0.8938 B(  7-N ,  8-H ) :   0.8987 B(  7-N ,  9-H ) :   0.8983

FINAL SINGLE POINT ENERGY      -284.360542414769

DIPOLE MOMENT
-------------
                                X             Y             Z
Electronic contribution:      4.71661       2.49402      -1.70963
Nuclear contribution   :     -3.96322      -1.85512       1.24891
                        -----------------------------------------
Total Dipole Moment    :      0.75340       0.63890      -0.46072
                        -----------------------------------------
Magnitude (a.u.)       :      1.08998
Magnitude (Debye)      :      2.77052

Rotational constants in cm-1:     0.261404     0.067000     0.054949
Rotational constants in MHz :  7836.702504  2008.609425  1647.329138

                             ****ORCA TERMINATED NORMALLY****
TOTAL RUN TIME: 0 days 0 hours 0 minutes 51 seconds 478 msec
