                         Program Version 5.0.0 -  RELEASE  -
|  1> !CAM-B3LYP RIJCOSX def2-TZVP def2/J TightSCF xyzfile
|  2>
|  3> *xyzfile 0 1 B.xyz
|  4>
|  5> %MaxCore 64000
|  6>
|  7> %pal nprocs 18
|  8> end
|  9>
| 10> %scf
| 11>   MaxIter 150
| 12> end
| 13>
| 14>
| 15>                          ****END OF INPUT****

CARTESIAN COORDINATES (ANGSTROEM)
---------------------------------
  C      1.635557   -1.670396   -5.292109
  C      0.338484   -1.500907   -4.505398
  N      2.484511   -0.507410   -5.140392
  C     -0.684873   -0.528026   -5.099889
  C     -0.290406    0.951335   -5.153423
  H      0.607991    1.070692   -5.764412
  C     -0.055168    1.619420   -3.788577
  H     -1.080912    1.483775   -5.689436
  H      0.045006    0.862302   -3.003015
  H     -0.922936    2.230329   -3.517028
  C      1.223022    2.469865   -3.756911
  H      1.114701    3.258074   -4.532999
  H      1.237732    3.011242   -2.792157
  O      2.353815    1.712032   -3.934477
  H      1.398337   -1.829239   -6.352591
  H      2.155864   -2.565398   -4.932091
  C      3.451149   -0.149530   -5.952589
  N      3.922667    1.089559   -5.850711
  N      3.966162   -1.006183   -6.867880
  H      3.521391   -1.906467   -6.995270
  H      4.444824   -0.623472   -7.670348
  H      2.251995    0.240804   -4.498792
  H      3.464277    1.640782   -5.136392
  H      4.834470    1.313745   -6.224653
  H     -0.937999   -0.869056   -6.110838
  H     -1.604638   -0.622496   -4.513132
  H      0.594887   -1.211578   -3.482312
  H     -0.126530   -2.487656   -4.434176

 Total Charge           Charge          ....    0
 Multiplicity           Mult            ....    1
 Number of Electrons    NEL             ....   88
 Basis Dimension        Dim             ....  443

ORBITAL ENERGIES
----------------

  NO   OCC          E(Eh)            E(eV)
   0   2.0000     -19.058611      -518.6112
   1   2.0000     -14.446507      -393.1094
   2   2.0000     -14.403785      -391.9469
   3   2.0000     -14.401473      -391.8840
   4   2.0000     -10.391991      -282.7804
   5   2.0000     -10.295255      -280.1481
   6   2.0000     -10.245693      -278.7995
   7   2.0000     -10.232473      -278.4398
   8   2.0000     -10.218626      -278.0629
   9   2.0000     -10.213601      -277.9262
  10   2.0000     -10.195050      -277.4214
  11   2.0000      -1.115740       -30.3608
  12   2.0000      -1.009403       -27.4673
  13   2.0000      -0.988835       -26.9076
  14   2.0000      -0.959998       -26.1229
  15   2.0000      -0.882526       -24.0148
  16   2.0000      -0.827281       -22.5115
  17   2.0000      -0.769790       -20.9471
  18   2.0000      -0.729264       -19.8443
  19   2.0000      -0.702854       -19.1256
  20   2.0000      -0.671504       -18.2726
  21   2.0000      -0.652796       -17.7635
  22   2.0000      -0.635119       -17.2825
  23   2.0000      -0.601366       -16.3640
  24   2.0000      -0.578522       -15.7424
  25   2.0000      -0.567234       -15.4352
  26   2.0000      -0.559319       -15.2198
  27   2.0000      -0.546590       -14.8735
  28   2.0000      -0.509602       -13.8670
  29   2.0000      -0.494854       -13.4657
  30   2.0000      -0.483771       -13.1641
  31   2.0000      -0.478847       -13.0301
  32   2.0000      -0.451151       -12.2764
  33   2.0000      -0.431377       -11.7384
  34   2.0000      -0.423891       -11.5347
  35   2.0000      -0.401846       -10.9348
  36   2.0000      -0.383863       -10.4454
  37   2.0000      -0.375231       -10.2106
  38   2.0000      -0.367348        -9.9960
  39   2.0000      -0.359061        -9.7705
  40   2.0000      -0.352557        -9.5936
  41   2.0000      -0.324227        -8.8227
  42   2.0000      -0.238472        -6.4891
  43   2.0000      -0.231627        -6.3029
  44   0.0000       0.033263         0.9051
  45   0.0000       0.059917         1.6304
  46   0.0000       0.066622         1.8129
  47   0.0000       0.084868         2.3094
  48   0.0000       0.103789         2.8242

MULLIKEN ATOMIC CHARGES
-----------------------
   0 C :   -0.137489
   1 C :   -0.247944
   2 N :   -0.210594
   3 C :   -0.193724
   4 C :   -0.227339
   5 H :    0.108180
   6 C :   -0.146398
   7 H :    0.092214
   8 H :    0.066958
   9 H :    0.072592
  10 C :    0.038741
  11 H :    0.022347
  12 H :    0.041100
  13 O :   -0.743008
  14 H :    0.100076
  15 H :    0.125168
  16 C :    0.381608
  17 N :   -0.410418
  18 N :   -0.460084
  19 H :    0.256565
  20 H :    0.247461
  21 H :    0.265386
  22 H :    0.287298
  23 H :    0.223974
  24 H :    0.090777
  25 H :    0.104975
  26 H :    0.140030
  27 H :    0.111547
Sum of atomic charges:   -0.0000000

LOEWDIN ATOMIC CHARGES
----------------------
   0 C :   -0.284211
   1 C :   -0.265344
   2 N :    0.173586
   3 C :   -0.271983
   4 C :   -0.273843
   5 H :    0.136103
   6 C :   -0.283619
   7 H :    0.131103
   8 H :    0.127046
   9 H :    0.125193
  10 C :   -0.467445
  11 H :    0.092990
  12 H :    0.099783
  13 O :   -0.310617
  14 H :    0.128106
  15 H :    0.130601
  16 C :   -0.419311
  17 N :    0.037146
  18 N :   -0.000322
  19 H :    0.177630
  20 H :    0.176431
  21 H :    0.162263
  22 H :    0.155817
  23 H :    0.169027
  24 H :    0.131319
  25 H :    0.138766
  26 H :    0.143371
  27 H :    0.140416

  Mayer bond orders larger than 0.100000
B(  0-C ,  1-C ) :   0.9725 B(  0-C ,  2-N ) :   0.9011 B(  0-C , 14-H ) :   0.9632
B(  0-C , 15-H ) :   0.9566 B(  1-C ,  3-C ) :   0.9596 B(  1-C , 26-H ) :   0.9805
B(  1-C , 27-H ) :   0.9783 B(  2-N , 16-C ) :   1.4615 B(  2-N , 21-H ) :   0.7317
B(  3-C ,  4-C ) :   0.9482 B(  3-C , 24-H ) :   0.9795 B(  3-C , 25-H ) :   0.9767
B(  4-C ,  5-H ) :   0.9806 B(  4-C ,  6-C ) :   0.9308 B(  4-C ,  7-H ) :   0.9784
B(  6-C ,  8-H ) :   0.9760 B(  6-C ,  9-H ) :   0.9593 B(  6-C , 10-C ) :   0.9411
B( 10-C , 11-H ) :   0.9706 B( 10-C , 12-H ) :   0.9586 B( 10-C , 13-O ) :   1.1802
B( 13-O , 21-H ) :   0.2797 B( 13-O , 22-H ) :   0.2342 B( 16-C , 17-N ) :   1.3934
B( 16-C , 18-N ) :   1.2105 B( 17-N , 22-H ) :   0.7499 B( 17-N , 23-H ) :   0.9200
B( 18-N , 19-H ) :   0.9154 B( 18-N , 20-H ) :   0.9149

FINAL SINGLE POINT ENERGY      -516.384350357376

DIPOLE MOMENT
-------------
                                X             Y             Z
Electronic contribution:      8.39620      -0.93942      -2.27985
Nuclear contribution   :     -7.46499      -1.05836       0.01518
                        -----------------------------------------
Total Dipole Moment    :      0.93120      -1.99779      -2.26467
                        -----------------------------------------
Magnitude (a.u.)       :      3.16023
Magnitude (Debye)      :      8.03265

Rotational constants in cm-1:     0.044680     0.028958     0.019773
Rotational constants in MHz :  1339.486245   868.136755   592.791310

                             ****ORCA TERMINATED NORMALLY****
TOTAL RUN TIME: 0 days 0 hours 1 minutes 15 seconds 317 msec
