                         Program Version 5.0.0 -  RELEASE  -
|  1> !CAM-B3LYP RIJCOSX def2-TZVP def2/J TightSCF
|  2> *xyz 0 1
|  3> C         -0.05517        1.61942       -3.78858
|  4> C          1.22302        2.46987       -3.75691
|  5> H          1.11470        3.25807       -4.53300
|  6> H          1.23773        3.01124       -2.79216
|  7> F          2.35381        1.71203       -3.93448
|  8> H         -0.10198        1.08015       -4.71156
|  9> H         -0.91014        2.25726       -3.70441
| 10> H         -0.04403        0.92826       -2.97183
| 11> *
| 12>
| 13> %MaxCore 64000
| 14>
| 15> %pal nprocs 4
| 16> end
| 17>
| 18> %scf
| 19>   MaxIter 150
| 20> end
| 21>
| 22>
| 23>                          ****END OF INPUT****

CARTESIAN COORDINATES (ANGSTROEM)
---------------------------------
  C     -0.055170    1.619420   -3.788580
  C      1.223020    2.469870   -3.756910
  H      1.114700    3.258070   -4.533000
  H      1.237730    3.011240   -2.792160
  F      2.353810    1.712030   -3.934480
  H     -0.101980    1.080150   -4.711560
  H     -0.910140    2.257260   -3.704410
  H     -0.044030    0.928260   -2.971830

 Total Charge           Charge          ....    0
 Multiplicity           Mult            ....    1
 Number of Electrons    NEL             ....   26
 Basis Dimension        Dim             ....  123

ORBITAL ENERGIES
----------------

  NO   OCC          E(Eh)            E(eV)
   0   2.0000     -24.740018      -673.2101
   1   2.0000     -10.322789      -280.8974
   2   2.0000     -10.237691      -278.5817
   3   2.0000      -1.277754       -34.7695
   4   2.0000      -0.847770       -23.0690
   5   2.0000      -0.709960       -19.3190
   6   2.0000      -0.579396       -15.7662
   7   2.0000      -0.569644       -15.5008
   8   2.0000      -0.529417       -14.4062
   9   2.0000      -0.474895       -12.9226
  10   2.0000      -0.469004       -12.7622
  11   2.0000      -0.403562       -10.9815
  12   2.0000      -0.398677       -10.8485
  13   0.0000       0.078286         2.1303
  14   0.0000       0.117027         3.1845
  15   0.0000       0.136634         3.7180
  16   0.0000       0.140363         3.8195
  17   0.0000       0.152837         4.1589

MULLIKEN ATOMIC CHARGES
-----------------------
   0 C :   -0.328087
   1 C :    0.044510
   2 H :    0.091050
   3 H :    0.090890
   4 F :   -0.244433
   5 H :    0.119113
   6 H :    0.108908
   7 H :    0.118049
Sum of atomic charges:   -0.0000000

LOEWDIN ATOMIC CHARGES
----------------------
   0 C :   -0.310056
   1 C :   -0.364860
   2 H :    0.117093
   3 H :    0.116325
   4 F :    0.087185
   5 H :    0.117197
   6 H :    0.120762
   7 H :    0.116354

  Mayer bond orders larger than 0.100000
B(  0-C ,  1-C ) :   0.9686 B(  0-C ,  5-H ) :   0.9723 B(  0-C ,  6-H ) :   0.9607
B(  0-C ,  7-H ) :   0.9735 B(  1-C ,  2-H ) :   0.9731 B(  1-C ,  3-H ) :   0.9733
B(  1-C ,  4-F ) :   0.9894

FINAL SINGLE POINT ENERGY      -179.062557842200

DIPOLE MOMENT
-------------
                                X             Y             Z
Electronic contribution:      5.02267      -0.73323      -0.43145
Nuclear contribution   :     -5.66833       1.07099       0.52006
                        -----------------------------------------
Total Dipole Moment    :     -0.64566       0.33776       0.08862
                        -----------------------------------------
Magnitude (a.u.)       :      0.73404
Magnitude (Debye)      :      1.86577

Rotational constants in cm-1:     1.245689     0.305293     0.269541
Rotational constants in MHz : 37344.801915  9152.442838  8080.640229

                             ****ORCA TERMINATED NORMALLY****
TOTAL RUN TIME: 0 days 0 hours 0 minutes 13 seconds 496 msec
