                         Program Version 5.0.0 -  RELEASE  -
|  1> !CAM-B3LYP RIJCOSX def2-TZVP def2/J TightSCF
|  2> *xyz 0 1
|  3> C          1.63556       -1.67040       -5.29211
|  4> C          0.33848       -1.50091       -4.50540
|  5> C          2.48451       -0.50741       -5.14039
|  6> H          1.39834       -1.82924       -6.35259
|  7> H          2.15586       -2.56540       -4.93209
|  8> C          3.45115       -0.14953       -5.95259
|  9> N          3.92267        1.08956       -5.85071
| 10> N          3.96616       -1.00618       -6.86788
| 11> H          3.52139       -1.90647       -6.99527
| 12> H          4.44482       -0.62347       -7.67035
| 13> H          2.25200        0.24080       -4.49879
| 14> H          3.46428        1.64078       -5.13639
| 15> H          4.83447        1.31375       -6.22465
| 16> H         -0.17658       -0.62881       -4.85045
| 17> H          0.56384       -1.39374       -3.46490
| 18> H         -0.28102       -2.36136       -4.64938
| 19> *
| 20>
| 21> %MaxCore 64000
| 22>
| 23> %pal nprocs 4
| 24> end
| 25>
| 26> %scf
| 27>   MaxIter 150
| 28> end
| 29>
| 30>
| 31>                          ****END OF INPUT****

CARTESIAN COORDINATES (ANGSTROEM)
---------------------------------
  C      1.635560   -1.670400   -5.292110
  C      0.338480   -1.500910   -4.505400
  C      2.484510   -0.507410   -5.140390
  H      1.398340   -1.829240   -6.352590
  H      2.155860   -2.565400   -4.932090
  C      3.451150   -0.149530   -5.952590
  N      3.922670    1.089560   -5.850710
  N      3.966160   -1.006180   -6.867880
  H      3.521390   -1.906470   -6.995270
  H      4.444820   -0.623470   -7.670350
  H      2.252000    0.240800   -4.498790
  H      3.464280    1.640780   -5.136390
  H      4.834470    1.313750   -6.224650
  H     -0.176580   -0.628810   -4.850450
  H      0.563840   -1.393740   -3.464900
  H     -0.281020   -2.361360   -4.649380

 Total Charge           Charge          ....    0
 Multiplicity           Mult            ....    1
 Number of Electrons    NEL             ....   48
 Basis Dimension        Dim             ....  246

ORBITAL ENERGIES
----------------

  NO   OCC          E(Eh)            E(eV)
   0   2.0000     -14.386851      -391.4861
   1   2.0000     -14.381708      -391.3462
   2   2.0000     -10.282558      -279.8026
   3   2.0000     -10.218455      -278.0583
   4   2.0000     -10.209006      -277.8012
   5   2.0000     -10.162223      -276.5281
   6   2.0000      -1.039921       -28.2977
   7   2.0000      -0.950289       -25.8587
   8   2.0000      -0.857959       -23.3462
   9   2.0000      -0.776977       -21.1426
  10   2.0000      -0.687304       -18.7025
  11   2.0000      -0.652810       -17.7639
  12   2.0000      -0.603930       -16.4338
  13   2.0000      -0.583670       -15.8825
  14   2.0000      -0.533368       -14.5137
  15   2.0000      -0.510727       -13.8976
  16   2.0000      -0.496251       -13.5037
  17   2.0000      -0.463358       -12.6086
  18   2.0000      -0.445527       -12.1234
  19   2.0000      -0.406081       -11.0500
  20   2.0000      -0.395297       -10.7566
  21   2.0000      -0.393941       -10.7197
  22   2.0000      -0.328493        -8.9388
  23   2.0000      -0.219226        -5.9655
  24   0.0000       0.060999         1.6599
  25   0.0000       0.089183         2.4268
  26   0.0000       0.100185         2.7262
  27   0.0000       0.116677         3.1750
  28   0.0000       0.120855         3.2886

MULLIKEN ATOMIC CHARGES
-----------------------
   0 C :   -0.203311
   1 C :   -0.366279
   2 C :   -0.265687
   3 H :    0.072462
   4 H :    0.093712
   5 C :    0.326490
   6 N :   -0.460557
   7 N :   -0.484820
   8 H :    0.240137
   9 H :    0.214081
  10 H :    0.060819
  11 H :    0.230349
  12 H :    0.216482
  13 H :    0.108270
  14 H :    0.110809
  15 H :    0.107043
Sum of atomic charges:   -0.0000000

LOEWDIN ATOMIC CHARGES
----------------------
   0 C :   -0.305429
   1 C :   -0.298957
   2 C :   -0.287806
   3 H :    0.127690
   4 H :    0.129709
   5 C :   -0.451437
   6 N :   -0.022613
   7 N :   -0.029171
   8 H :    0.173175
   9 H :    0.158904
  10 H :    0.123732
  11 H :    0.180227
  12 H :    0.160779
  13 H :    0.114454
  14 H :    0.115584
  15 H :    0.111158

  Mayer bond orders larger than 0.100000
B(  0-C ,  1-C ) :   0.9605 B(  0-C ,  2-C ) :   0.9515 B(  0-C ,  3-H ) :   0.9758
B(  0-C ,  4-H ) :   0.9780 B(  1-C , 13-H ) :   0.9820 B(  1-C , 14-H ) :   0.9849
B(  1-C , 15-H ) :   0.9883 B(  2-C ,  5-C ) :   1.6458 B(  2-C , 10-H ) :   1.0053
B(  5-C ,  6-N ) :   1.1575 B(  5-C ,  7-N ) :   1.1376 B(  6-N , 11-H ) :   0.9249
B(  6-N , 12-H ) :   0.9254 B(  7-N ,  8-H ) :   0.9268 B(  7-N ,  9-H ) :   0.9272

FINAL SINGLE POINT ENERGY      -267.875417709255

DIPOLE MOMENT
-------------
                                X             Y             Z
Electronic contribution:      4.56408       2.18200      -1.94281
Nuclear contribution   :     -3.99655      -1.83277       1.34879
                        -----------------------------------------
Total Dipole Moment    :      0.56754       0.34923      -0.59402
                        -----------------------------------------
Magnitude (a.u.)       :      0.89270
Magnitude (Debye)      :      2.26907

Rotational constants in cm-1:     0.262971     0.067064     0.055026
Rotational constants in MHz :  7883.664566  2010.513309  1649.636654

                             ****ORCA TERMINATED NORMALLY****
TOTAL RUN TIME: 0 days 0 hours 0 minutes 50 seconds 835 msec
