                         Program Version 5.0.0 -  RELEASE  -
|  1> !CAM-B3LYP RIJCOSX def2-TZVP def2/J TightSCF
|  2> *xyz 0 1
|  3> C          1.63556       -1.67040       -5.29211
|  4> C          0.33848       -1.50091       -4.50540
|  5> N          2.48451       -0.50741       -5.14039
|  6> H          1.39834       -1.82924       -6.35259
|  7> H          2.15586       -2.56540       -4.93209
|  8> C          3.45115       -0.14953       -5.95259
|  9> C          3.92267        1.08956       -5.85071
| 10> N          3.96616       -1.00618       -6.86788
| 11> H          3.52139       -1.90647       -6.99527
| 12> H          4.44482       -0.62347       -7.67035
| 13> H          2.25200        0.24080       -4.49879
| 14> H          3.46428        1.64078       -5.13639
| 15> H          4.83447        1.31375       -6.22465
| 16> H         -0.17658       -0.62881       -4.85045
| 17> H          0.56384       -1.39374       -3.46490
| 18> H         -0.28102       -2.36136       -4.64938
| 19> *
| 20>
| 21> %MaxCore 64000
| 22>
| 23> %pal nprocs 4
| 24> end
| 25>
| 26> %scf
| 27>   MaxIter 150
| 28> end
| 29>
| 30>
| 31>                          ****END OF INPUT****

CARTESIAN COORDINATES (ANGSTROEM)
---------------------------------
  C      1.635560   -1.670400   -5.292110
  C      0.338480   -1.500910   -4.505400
  N      2.484510   -0.507410   -5.140390
  H      1.398340   -1.829240   -6.352590
  H      2.155860   -2.565400   -4.932090
  C      3.451150   -0.149530   -5.952590
  C      3.922670    1.089560   -5.850710
  N      3.966160   -1.006180   -6.867880
  H      3.521390   -1.906470   -6.995270
  H      4.444820   -0.623470   -7.670350
  H      2.252000    0.240800   -4.498790
  H      3.464280    1.640780   -5.136390
  H      4.834470    1.313750   -6.224650
  H     -0.176580   -0.628810   -4.850450
  H      0.563840   -1.393740   -3.464900
  H     -0.281020   -2.361360   -4.649380

 Total Charge           Charge          ....    0
 Multiplicity           Mult            ....    1
 Number of Electrons    NEL             ....   48
 Basis Dimension        Dim             ....  246

ORBITAL ENERGIES
----------------

  NO   OCC          E(Eh)            E(eV)
   0   2.0000     -14.387864      -391.5137
   1   2.0000     -14.385882      -391.4597
   2   2.0000     -10.287999      -279.9507
   3   2.0000     -10.286261      -279.9034
   4   2.0000     -10.242604      -278.7154
   5   2.0000     -10.149182      -276.1733
   6   2.0000      -1.053456       -28.6660
   7   2.0000      -0.964644       -26.2493
   8   2.0000      -0.860826       -23.4243
   9   2.0000      -0.782889       -21.3035
  10   2.0000      -0.706560       -19.2265
  11   2.0000      -0.670529       -18.2460
  12   2.0000      -0.606087       -16.4925
  13   2.0000      -0.567362       -15.4387
  14   2.0000      -0.553028       -15.0487
  15   2.0000      -0.531558       -14.4644
  16   2.0000      -0.488393       -13.2899
  17   2.0000      -0.465604       -12.6697
  18   2.0000      -0.447219       -12.1694
  19   2.0000      -0.442456       -12.0398
  20   2.0000      -0.441599       -12.0165
  21   2.0000      -0.416013       -11.3203
  22   2.0000      -0.322201        -8.7675
  23   2.0000      -0.218362        -5.9419
  24   0.0000       0.061636         1.6772
  25   0.0000       0.082870         2.2550
  26   0.0000       0.094195         2.5632
  27   0.0000       0.116408         3.1676
  28   0.0000       0.125067         3.4032

MULLIKEN ATOMIC CHARGES
-----------------------
   0 C :   -0.090864
   1 C :   -0.389166
   2 N :   -0.272391
   3 H :    0.098670
   4 H :    0.111527
   5 C :    0.370824
   6 C :   -0.541327
   7 N :   -0.484881
   8 H :    0.222893
   9 H :    0.241940
  10 H :    0.212253
  11 H :    0.051888
  12 H :    0.096930
  13 H :    0.125499
  14 H :    0.124898
  15 H :    0.121307
Sum of atomic charges:    0.0000000

LOEWDIN ATOMIC CHARGES
----------------------
   0 C :   -0.313151
   1 C :   -0.301137
   2 N :    0.116730
   3 H :    0.124944
   4 H :    0.123982
   5 C :   -0.453733
   6 C :   -0.353831
   7 N :   -0.025558
   8 H :    0.159847
   9 H :    0.174445
  10 H :    0.198949
  11 H :    0.095652
  12 H :    0.095816
  13 H :    0.118318
  14 H :    0.117883
  15 H :    0.120842

  Mayer bond orders larger than 0.100000
B(  0-C ,  1-C ) :   0.9658 B(  0-C ,  2-N ) :   0.9264 B(  0-C ,  3-H ) :   0.9664
B(  0-C ,  4-H ) :   0.9564 B(  1-C , 13-H ) :   0.9778 B(  1-C , 14-H ) :   0.9797
B(  1-C , 15-H ) :   0.9794 B(  2-N ,  5-C ) :   1.2093 B(  2-N , 10-H ) :   0.9274
B(  5-C ,  6-C ) :   1.5963 B(  5-C ,  7-N ) :   1.1104 B(  6-C , 11-H ) :   1.0156
B(  6-C , 12-H ) :   1.0021 B(  7-N ,  8-H ) :   0.9331 B(  7-N ,  9-H ) :   0.9254

FINAL SINGLE POINT ENERGY      -267.865469924784

DIPOLE MOMENT
-------------
                                X             Y             Z
Electronic contribution:      2.95473       0.52588      -1.29819
Nuclear contribution   :     -3.69145      -1.49398       1.19810
                        -----------------------------------------
Total Dipole Moment    :     -0.73672      -0.96810      -0.10009
                        -----------------------------------------
Magnitude (a.u.)       :      1.22065
Magnitude (Debye)      :      3.10265

Rotational constants in cm-1:     0.270790     0.068966     0.056679
Rotational constants in MHz :  8118.084803  2067.559423  1699.196934

                             ****ORCA TERMINATED NORMALLY****
TOTAL RUN TIME: 0 days 0 hours 0 minutes 52 seconds 166 msec
