                         Program Version 5.0.0 -  RELEASE  -
|  1> !CAM-B3LYP RIJCOSX def2-TZVP def2/J TightSCF
|  2> *xyz 0 1
|  3> C          1.63556       -1.67040       -5.29211
|  4> C          0.33848       -1.50091       -4.50540
|  5> N          2.48451       -0.50741       -5.14039
|  6> H          1.39834       -1.82924       -6.35259
|  7> H          2.15586       -2.56540       -4.93209
|  8> C          3.45115       -0.14953       -5.95259
|  9> N          3.92267        1.08956       -5.85071
| 10> C          3.96616       -1.00618       -6.86788
| 11> H          3.52139       -1.90647       -6.99527
| 12> H          4.44482       -0.62347       -7.67035
| 13> H          2.25200        0.24080       -4.49879
| 14> H          3.46428        1.64078       -5.13639
| 15> H          4.83447        1.31375       -6.22465
| 16> H         -0.17658       -0.62881       -4.85045
| 17> H          0.56384       -1.39374       -3.46490
| 18> H         -0.28102       -2.36136       -4.64938
| 19> *
| 20>
| 21> %MaxCore 64000
| 22>
| 23> %pal nprocs 4
| 24> end
| 25>
| 26> %scf
| 27>   MaxIter 150
| 28> end
| 29>
| 30>
| 31>                          ****END OF INPUT****

CARTESIAN COORDINATES (ANGSTROEM)
---------------------------------
  C      1.635560   -1.670400   -5.292110
  C      0.338480   -1.500910   -4.505400
  N      2.484510   -0.507410   -5.140390
  H      1.398340   -1.829240   -6.352590
  H      2.155860   -2.565400   -4.932090
  C      3.451150   -0.149530   -5.952590
  N      3.922670    1.089560   -5.850710
  C      3.966160   -1.006180   -6.867880
  H      3.521390   -1.906470   -6.995270
  H      4.444820   -0.623470   -7.670350
  H      2.252000    0.240800   -4.498790
  H      3.464280    1.640780   -5.136390
  H      4.834470    1.313750   -6.224650
  H     -0.176580   -0.628810   -4.850450
  H      0.563840   -1.393740   -3.464900
  H     -0.281020   -2.361360   -4.649380

 Total Charge           Charge          ....    0
 Multiplicity           Mult            ....    1
 Number of Electrons    NEL             ....   48
 Basis Dimension        Dim             ....  246

ORBITAL ENERGIES
----------------

  NO   OCC          E(Eh)            E(eV)
   0   2.0000     -14.393961      -391.6796
   1   2.0000     -14.388164      -391.5218
   2   2.0000     -10.289437      -279.9898
   3   2.0000     -10.278955      -279.7046
   4   2.0000     -10.238650      -278.6078
   5   2.0000     -10.150186      -276.2006
   6   2.0000      -1.061896       -28.8956
   7   2.0000      -0.969853       -26.3910
   8   2.0000      -0.846548       -23.0357
   9   2.0000      -0.782956       -21.3053
  10   2.0000      -0.723166       -19.6784
  11   2.0000      -0.642013       -17.4701
  12   2.0000      -0.607449       -16.5295
  13   2.0000      -0.595680       -16.2093
  14   2.0000      -0.546929       -14.8827
  15   2.0000      -0.535717       -14.5776
  16   2.0000      -0.470625       -12.8063
  17   2.0000      -0.463308       -12.6073
  18   2.0000      -0.460021       -12.5178
  19   2.0000      -0.437247       -11.8981
  20   2.0000      -0.427905       -11.6439
  21   2.0000      -0.416620       -11.3368
  22   2.0000      -0.315814        -8.5937
  23   2.0000      -0.221995        -6.0408
  24   0.0000       0.056224         1.5299
  25   0.0000       0.079067         2.1515
  26   0.0000       0.100062         2.7228
  27   0.0000       0.120288         3.2732
  28   0.0000       0.129824         3.5327

MULLIKEN ATOMIC CHARGES
-----------------------
   0 C :   -0.067953
   1 C :   -0.380273
   2 N :   -0.282053
   3 H :    0.117159
   4 H :    0.114302
   5 C :    0.346180
   6 N :   -0.452766
   7 C :   -0.546396
   8 H :    0.082214
   9 H :    0.087472
  10 H :    0.174284
  11 H :    0.198022
  12 H :    0.248196
  13 H :    0.119068
  14 H :    0.119188
  15 H :    0.123355
Sum of atomic charges:   -0.0000000

LOEWDIN ATOMIC CHARGES
----------------------
   0 C :   -0.294996
   1 C :   -0.304120
   2 N :    0.117954
   3 H :    0.134182
   4 H :    0.129075
   5 C :   -0.465680
   6 N :   -0.015015
   7 C :   -0.362847
   8 H :    0.095007
   9 H :    0.093676
  10 H :    0.179307
  11 H :    0.161276
  12 H :    0.179298
  13 H :    0.115669
  14 H :    0.115521
  15 H :    0.121693

  Mayer bond orders larger than 0.100000
B(  0-C ,  1-C ) :   0.9481 B(  0-C ,  2-N ) :   0.9156 B(  0-C ,  3-H ) :   0.9725
B(  0-C ,  4-H ) :   0.9651 B(  1-C , 13-H ) :   0.9783 B(  1-C , 14-H ) :   0.9793
B(  1-C , 15-H ) :   0.9813 B(  2-N ,  5-C ) :   1.1797 B(  2-N , 10-H ) :   0.9365
B(  5-C ,  6-N ) :   1.1303 B(  5-C ,  7-C ) :   1.5982 B(  6-N , 11-H ) :   0.9341
B(  6-N , 12-H ) :   0.9211 B(  7-C ,  8-H ) :   1.0139 B(  7-C ,  9-H ) :   1.0017

FINAL SINGLE POINT ENERGY      -267.865543877199

DIPOLE MOMENT
-------------
                                X             Y             Z
Electronic contribution:      3.01311       2.67488      -0.16841
Nuclear contribution   :     -3.68222      -1.93858       0.98231
                        -----------------------------------------
Total Dipole Moment    :     -0.66912       0.73629       0.81390
                        -----------------------------------------
Magnitude (a.u.)       :      1.28541
Magnitude (Debye)      :      3.26725

Rotational constants in cm-1:     0.275407     0.068040     0.056255
Rotational constants in MHz :  8256.498401  2039.796466  1686.484500

                             ****ORCA TERMINATED NORMALLY****
TOTAL RUN TIME: 0 days 0 hours 0 minutes 49 seconds 65 msec
