                         Program Version 5.0.0 -  RELEASE  -
|  1> !CAM-B3LYP RIJCOSX def2-TZVP def2/J TightSCF xyzfile
|  2>
|  3> *xyzfile 0 1 D1.xyz
|  4>
|  5> %MaxCore 64000
|  6>
|  7> %pal nprocs 18
|  8> end
|  9>
| 10> %scf
| 11>   MaxIter 150
| 12> end
| 13>
| 14>
| 15>                          ****END OF INPUT****

CARTESIAN COORDINATES (ANGSTROEM)
---------------------------------
  C      1.635557   -1.670396   -5.292109
  C      0.338484   -1.500907   -4.505398
  C      2.484511   -0.507410   -5.140392
  C     -0.684873   -0.528026   -5.099889
  C     -0.290406    0.951335   -5.153423
  H      0.607991    1.070692   -5.764412
  C     -0.055168    1.619420   -3.788577
  H     -1.080912    1.483775   -5.689436
  H      0.045006    0.862302   -3.003015
  H     -0.922936    2.230329   -3.517028
  C      1.223022    2.469865   -3.756911
  H      1.114701    3.258074   -4.532999
  H      1.237732    3.011242   -2.792157
  F      2.353815    1.712032   -3.934477
  H      1.398337   -1.829239   -6.352591
  H      2.155864   -2.565398   -4.932091
  C      3.451149   -0.149530   -5.952589
  N      3.922667    1.089559   -5.850711
  N      3.966162   -1.006183   -6.867880
  H      3.521391   -1.906467   -6.995270
  H      4.444824   -0.623472   -7.670348
  H      2.251995    0.240804   -4.498792
  H      3.464277    1.640782   -5.136392
  H      4.834470    1.313745   -6.224653
  H     -0.937999   -0.869056   -6.110838
  H     -1.604638   -0.622496   -4.513132
  H      0.594887   -1.211578   -3.482312
  H     -0.126530   -2.487656   -4.434176

 Total Charge           Charge          ....    0
 Multiplicity           Mult            ....    1
 Number of Electrons    NEL             ....   88
 Basis Dimension        Dim             ....  443

ORBITAL ENERGIES
----------------

  NO   OCC          E(Eh)            E(eV)
   0   2.0000     -24.768624      -673.9885
   1   2.0000     -14.371877      -391.0787
   2   2.0000     -14.355724      -390.6391
   3   2.0000     -10.332081      -281.1502
   4   2.0000     -10.263340      -279.2797
   5   2.0000     -10.248822      -278.8846
   6   2.0000     -10.230905      -278.3971
   7   2.0000     -10.227984      -278.3176
   8   2.0000     -10.217938      -278.0442
   9   2.0000     -10.207179      -277.7515
  10   2.0000     -10.133696      -275.7519
  11   2.0000      -1.316085       -35.8125
  12   2.0000      -1.021695       -27.8017
  13   2.0000      -0.933158       -25.3925
  14   2.0000      -0.892143       -24.2764
  15   2.0000      -0.857528       -23.3345
  16   2.0000      -0.806881       -21.9564
  17   2.0000      -0.770705       -20.9720
  18   2.0000      -0.717709       -19.5298
  19   2.0000      -0.684126       -18.6160
  20   2.0000      -0.651001       -17.7146
  21   2.0000      -0.629578       -17.1317
  22   2.0000      -0.609090       -16.5742
  23   2.0000      -0.592593       -16.1253
  24   2.0000      -0.578777       -15.7493
  25   2.0000      -0.572960       -15.5910
  26   2.0000      -0.555537       -15.1169
  27   2.0000      -0.526695       -14.3321
  28   2.0000      -0.508937       -13.8489
  29   2.0000      -0.505670       -13.7600
  30   2.0000      -0.484488       -13.1836
  31   2.0000      -0.469398       -12.7730
  32   2.0000      -0.458508       -12.4766
  33   2.0000      -0.444715       -12.1013
  34   2.0000      -0.426848       -11.6151
  35   2.0000      -0.423913       -11.5352
  36   2.0000      -0.414801       -11.2873
  37   2.0000      -0.401146       -10.9157
  38   2.0000      -0.382483       -10.4079
  39   2.0000      -0.371129       -10.0989
  40   2.0000      -0.364978        -9.9315
  41   2.0000      -0.353462        -9.6182
  42   2.0000      -0.311137        -8.4665
  43   2.0000      -0.200162        -5.4467
  44   0.0000       0.070295         1.9128
  45   0.0000       0.077470         2.1081
  46   0.0000       0.088496         2.4081
  47   0.0000       0.101908         2.7730
  48   0.0000       0.108978         2.9654

MULLIKEN ATOMIC CHARGES
-----------------------
   0 C :   -0.183646
   1 C :   -0.229464
   2 C :   -0.353322
   3 C :   -0.198280
   4 C :   -0.232678
   5 H :    0.153027
   6 C :   -0.213001
   7 H :    0.098202
   8 H :    0.117005
   9 H :    0.118140
  10 C :    0.000422
  11 H :    0.110385
  12 H :    0.111770
  13 F :   -0.235552
  14 H :    0.062502
  15 H :    0.091393
  16 C :    0.289222
  17 N :   -0.476640
  18 N :   -0.486385
  19 H :    0.234386
  20 H :    0.207785
  21 H :    0.167968
  22 H :    0.246132
  23 H :    0.204814
  24 H :    0.099448
  25 H :    0.096480
  26 H :    0.102167
  27 H :    0.097720
Sum of atomic charges:   -0.0000000

LOEWDIN ATOMIC CHARGES
----------------------
   0 C :   -0.284261
   1 C :   -0.262971
   2 C :   -0.289251
   3 C :   -0.266441
   4 C :   -0.269729
   5 H :    0.146605
   6 C :   -0.269094
   7 H :    0.131644
   8 H :    0.140932
   9 H :    0.141359
  10 C :   -0.339421
  11 H :    0.126536
  12 H :    0.124813
  13 F :    0.141048
  14 H :    0.128634
  15 H :    0.131650
  16 C :   -0.460690
  17 N :   -0.032983
  18 N :   -0.034745
  19 H :    0.170432
  20 H :    0.155067
  21 H :    0.118564
  22 H :    0.161252
  23 H :    0.154795
  24 H :    0.136435
  25 H :    0.134333
  26 H :    0.132816
  27 H :    0.132671

  Mayer bond orders larger than 0.100000
B(  0-C ,  1-C ) :   0.9672 B(  0-C ,  2-C ) :   0.9182 B(  0-C , 14-H ) :   0.9685
B(  0-C , 15-H ) :   0.9790 B(  1-C ,  3-C ) :   0.9646 B(  1-C , 26-H ) :   0.9908
B(  1-C , 27-H ) :   0.9906 B(  2-C , 16-C ) :   1.6355 B(  2-C , 21-H ) :   1.0065
B(  3-C ,  4-C ) :   0.9428 B(  3-C , 24-H ) :   0.9753 B(  3-C , 25-H ) :   0.9812
B(  4-C ,  5-H ) :   0.9881 B(  4-C ,  6-C ) :   0.9041 B(  4-C ,  7-H ) :   0.9774
B(  6-C ,  8-H ) :   0.9733 B(  6-C ,  9-H ) :   0.9598 B(  6-C , 10-C ) :   0.9682
B( 10-C , 11-H ) :   0.9785 B( 10-C , 12-H ) :   0.9739 B( 10-C , 13-F ) :   0.9133
B( 16-C , 17-N ) :   1.1945 B( 16-C , 18-N ) :   1.1417 B( 17-N , 22-H ) :   0.8888
B( 17-N , 23-H ) :   0.9315 B( 18-N , 19-H ) :   0.9287 B( 18-N , 20-H ) :   0.9281

FINAL SINGLE POINT ENERGY      -524.311922224139

DIPOLE MOMENT
-------------
                                X             Y             Z
Electronic contribution:      7.87329       3.86303       1.10023
Nuclear contribution   :     -8.11591      -2.99033      -1.35383
                        -----------------------------------------
Total Dipole Moment    :     -0.24262       0.87270      -0.25360
                        -----------------------------------------
Magnitude (a.u.)       :      0.94063
Magnitude (Debye)      :      2.39090

Rotational constants in cm-1:     0.043530     0.028984     0.019589
Rotational constants in MHz :  1305.007140   868.923804   587.262638

                             ****ORCA TERMINATED NORMALLY****
TOTAL RUN TIME: 0 days 0 hours 0 minutes 51 seconds 874 msec
