                         Program Version 5.0.0 -  RELEASE  -
|  1> !CAM-B3LYP RIJCOSX def2-TZVP def2/J TightSCF xyzfile
|  2>
|  3> *xyzfile 0 1 D2.xyz
|  4>
|  5> %MaxCore 64000
|  6>
|  7> %pal nprocs 18
|  8> end
|  9>
| 10> %scf
| 11>   MaxIter 150
| 12> end
| 13>
| 14>
| 15>                          ****END OF INPUT****

CARTESIAN COORDINATES (ANGSTROEM)
---------------------------------
  C      1.635557   -1.670396   -5.292109
  C      0.338484   -1.500907   -4.505398
  N      2.484511   -0.507410   -5.140392
  C     -0.684873   -0.528026   -5.099889
  C     -0.290406    0.951335   -5.153423
  H      0.607991    1.070692   -5.764412
  C     -0.055168    1.619420   -3.788577
  H     -1.080912    1.483775   -5.689436
  H      0.045006    0.862302   -3.003015
  H     -0.922936    2.230329   -3.517028
  C      1.223022    2.469865   -3.756911
  H      1.114701    3.258074   -4.532999
  H      1.237732    3.011242   -2.792157
  F      2.353815    1.712032   -3.934477
  H      1.398337   -1.829239   -6.352591
  H      2.155864   -2.565398   -4.932091
  C      3.451149   -0.149530   -5.952589
  C      3.922667    1.089559   -5.850711
  N      3.966162   -1.006183   -6.867880
  H      3.521391   -1.906467   -6.995270
  H      4.444824   -0.623472   -7.670348
  H      2.251995    0.240804   -4.498792
  H      3.464277    1.640782   -5.136392
  H      4.834470    1.313745   -6.224653
  H     -0.937999   -0.869056   -6.110838
  H     -1.604638   -0.622496   -4.513132
  H      0.594887   -1.211578   -3.482312
  H     -0.126530   -2.487656   -4.434176

 Total Charge           Charge          ....    0
 Multiplicity           Mult            ....    1
 Number of Electrons    NEL             ....   88
 Basis Dimension        Dim             ....  443

ORBITAL ENERGIES
----------------

  NO   OCC          E(Eh)            E(eV)
   0   2.0000     -24.770378      -674.0363
   1   2.0000     -14.370722      -391.0472
   2   2.0000     -14.359954      -390.7542
   3   2.0000     -10.334054      -281.2039
   4   2.0000     -10.272212      -279.5211
   5   2.0000     -10.269118      -279.4369
   6   2.0000     -10.257931      -279.1325
   7   2.0000     -10.246504      -278.8216
   8   2.0000     -10.246180      -278.8127
   9   2.0000     -10.244138      -278.7572
  10   2.0000     -10.123089      -275.4633
  11   2.0000      -1.317257       -35.8444
  12   2.0000      -1.035404       -28.1748
  13   2.0000      -0.950079       -25.8530
  14   2.0000      -0.902656       -24.5625
  15   2.0000      -0.859521       -23.3888
  16   2.0000      -0.818581       -22.2747
  17   2.0000      -0.764819       -20.8118
  18   2.0000      -0.730086       -19.8666
  19   2.0000      -0.699870       -19.0444
  20   2.0000      -0.659455       -17.9447
  21   2.0000      -0.643645       -17.5145
  22   2.0000      -0.616976       -16.7888
  23   2.0000      -0.590432       -16.0665
  24   2.0000      -0.581952       -15.8357
  25   2.0000      -0.575482       -15.6597
  26   2.0000      -0.555824       -15.1247
  27   2.0000      -0.544230       -14.8092
  28   2.0000      -0.520220       -14.1559
  29   2.0000      -0.509909       -13.8753
  30   2.0000      -0.492269       -13.3953
  31   2.0000      -0.479274       -13.0417
  32   2.0000      -0.467757       -12.7283
  33   2.0000      -0.448529       -12.2051
  34   2.0000      -0.436430       -11.8759
  35   2.0000      -0.429953       -11.6996
  36   2.0000      -0.418598       -11.3906
  37   2.0000      -0.413823       -11.2607
  38   2.0000      -0.397527       -10.8173
  39   2.0000      -0.387930       -10.5561
  40   2.0000      -0.387168       -10.5354
  41   2.0000      -0.382822       -10.4171
  42   2.0000      -0.303363        -8.2549
  43   2.0000      -0.199819        -5.4374
  44   0.0000       0.064267         1.7488
  45   0.0000       0.075190         2.0460
  46   0.0000       0.086666         2.3583
  47   0.0000       0.090745         2.4693
  48   0.0000       0.107358         2.9214

MULLIKEN ATOMIC CHARGES
-----------------------
   0 C :   -0.102617
   1 C :   -0.258406
   2 N :   -0.277425
   3 C :   -0.189245
   4 C :   -0.276602
   5 H :    0.169509
   6 C :   -0.223724
   7 H :    0.107558
   8 H :    0.115554
   9 H :    0.121265
  10 C :    0.013178
  11 H :    0.117237
  12 H :    0.114095
  13 F :   -0.229806
  14 H :    0.090437
  15 H :    0.110476
  16 C :    0.351474
  17 C :   -0.602140
  18 N :   -0.493408
  19 H :    0.217155
  20 H :    0.236974
  21 H :    0.239769
  22 H :    0.115865
  23 H :    0.088479
  24 H :    0.107369
  25 H :    0.105269
  26 H :    0.117851
  27 H :    0.113858
Sum of atomic charges:   -0.0000000

LOEWDIN ATOMIC CHARGES
----------------------
   0 C :   -0.293792
   1 C :   -0.270129
   2 N :    0.116559
   3 C :   -0.268147
   4 C :   -0.271516
   5 H :    0.147672
   6 C :   -0.272136
   7 H :    0.135576
   8 H :    0.138817
   9 H :    0.142979
  10 C :   -0.336776
  11 H :    0.130164
  12 H :    0.125937
  13 F :    0.147243
  14 H :    0.125819
  15 H :    0.125091
  16 C :   -0.461192
  17 C :   -0.369685
  18 N :   -0.030772
  19 H :    0.156860
  20 H :    0.171319
  21 H :    0.173798
  22 H :    0.093750
  23 H :    0.091328
  24 H :    0.138298
  25 H :    0.137473
  26 H :    0.134639
  27 H :    0.140821

  Mayer bond orders larger than 0.100000
B(  0-C ,  1-C ) :   0.9683 B(  0-C ,  2-N ) :   0.9351 B(  0-C , 14-H ) :   0.9612
B(  0-C , 15-H ) :   0.9618 B(  1-C ,  3-C ) :   0.9561 B(  1-C , 26-H ) :   0.9857
B(  1-C , 27-H ) :   0.9834 B(  2-N , 16-C ) :   1.2239 B(  2-N , 21-H ) :   0.8944
B(  3-C ,  4-C ) :   0.9425 B(  3-C , 24-H ) :   0.9769 B(  3-C , 25-H ) :   0.9793
B(  4-C ,  5-H ) :   0.9801 B(  4-C ,  6-C ) :   0.8976 B(  4-C ,  7-H ) :   0.9764
B(  6-C ,  8-H ) :   0.9770 B(  6-C ,  9-H ) :   0.9596 B(  6-C , 10-C ) :   0.9678
B( 10-C , 11-H ) :   0.9801 B( 10-C , 12-H ) :   0.9723 B( 10-C , 13-F ) :   0.9077
B( 16-C , 17-C ) :   1.6008 B( 16-C , 18-N ) :   1.0941 B( 17-C , 22-H ) :   1.0082
B( 17-C , 23-H ) :   0.9992 B( 18-N , 19-H ) :   0.9356 B( 18-N , 20-H ) :   0.9265

FINAL SINGLE POINT ENERGY      -524.304810240910

DIPOLE MOMENT
-------------
                                X             Y             Z
Electronic contribution:      6.33662       2.42178       1.69026
Nuclear contribution   :     -7.85451      -2.70006      -1.48294
                        -----------------------------------------
Total Dipole Moment    :     -1.51789      -0.27828       0.20731
                        -----------------------------------------
Magnitude (a.u.)       :      1.55705
Magnitude (Debye)      :      3.95770

Rotational constants in cm-1:     0.044065     0.029250     0.019826
Rotational constants in MHz :  1321.026981   876.903192   594.367265

                             ****ORCA TERMINATED NORMALLY****
TOTAL RUN TIME: 0 days 0 hours 1 minutes 13 seconds 144 msec
