                         Program Version 5.0.0 -  RELEASE  -
|  1> !LC-PBE RIJCOSX def2-TZVP def2/J TightSCF
|  2> *xyz -1 1
|  3> C         -7.33044       -2.67899       -3.20681
|  4> S         -6.01966       -2.92697       -4.41913
|  5> O         -5.64583       -1.58838       -4.91931
|  6> O         -4.88196       -3.50370       -3.66724
|  7> O         -6.54927       -3.80515       -5.42507
|  8> C         -7.46900       -1.24615       -2.71383
|  9> H         -7.11825       -3.37982       -2.39805
| 10> H         -8.24184       -3.00474       -3.70651
| 11> H         -7.67580       -0.60214       -3.54292
| 12> H         -6.55749       -0.94096       -2.24382
| 13> H         -8.27114       -1.18777       -2.00810
| 14> *
| 15> %MaxCore 64000
| 16>
| 17> %pal nprocs 4
| 18> end
| 19>
| 20> %scf
| 21>   MaxIter 150
| 22> end
| 23>
| 24>
| 25>                          ****END OF INPUT****

CARTESIAN COORDINATES (ANGSTROEM)
---------------------------------
  C     -7.330440   -2.678990   -3.206810
  S     -6.019660   -2.926970   -4.419130
  O     -5.645830   -1.588380   -4.919310
  O     -4.881960   -3.503700   -3.667240
  O     -6.549270   -3.805150   -5.425070
  C     -7.469000   -1.246150   -2.713830
  H     -7.118250   -3.379820   -2.398050
  H     -8.241840   -3.004740   -3.706510
  H     -7.675800   -0.602140   -3.542920
  H     -6.557490   -0.940960   -2.243820
  H     -8.271140   -1.187770   -2.008100

 Total Charge           Charge          ....   -1
 Multiplicity           Mult            ....    1
 Number of Electrons    NEL             ....   58
 Basis Dimension        Dim             ....  222

ORBITAL ENERGIES
----------------

  NO   OCC          E(Eh)            E(eV)
   0   2.0000     -88.266858     -2401.8633
   1   2.0000     -18.754244      -510.3289
   2   2.0000     -18.742604      -510.0122
   3   2.0000     -18.738556      -509.9020
   4   2.0000      -9.979353      -271.5520
   5   2.0000      -9.969349      -271.2798
   6   2.0000      -7.877292      -214.3520
   7   2.0000      -5.894158      -160.3882
   8   2.0000      -5.892730      -160.3493
   9   2.0000      -5.892420      -160.3409
  10   2.0000      -1.091091       -29.6901
  11   2.0000      -0.946205       -25.7475
  12   2.0000      -0.923406       -25.1272
  13   2.0000      -0.812858       -22.1190
  14   2.0000      -0.673034       -18.3142
  15   2.0000      -0.531949       -14.4751
  16   2.0000      -0.466944       -12.7062
  17   2.0000      -0.461032       -12.5453
  18   2.0000      -0.417713       -11.3665
  19   2.0000      -0.398789       -10.8516
  20   2.0000      -0.394442       -10.7333
  21   2.0000      -0.362287        -9.8583
  22   2.0000      -0.351395        -9.5620
  23   2.0000      -0.285091        -7.7577
  24   2.0000      -0.284335        -7.7372
  25   2.0000      -0.243982        -6.6391
  26   2.0000      -0.234869        -6.3911
  27   2.0000      -0.228801        -6.2260
  28   2.0000      -0.189921        -5.1680
  29   0.0000       0.253712         6.9038
  30   0.0000       0.301169         8.1952
  31   0.0000       0.312317         8.4986
  32   0.0000       0.319008         8.6806
  33   0.0000       0.344739         9.3808

MULLIKEN ATOMIC CHARGES
-----------------------
   0 C :   -0.309702
   1 S :    0.737800
   2 O :   -0.565582
   3 O :   -0.573498
   4 O :   -0.523843
   5 C :   -0.427514
   6 H :    0.134517
   7 H :    0.129370
   8 H :    0.152315
   9 H :    0.146472
  10 H :    0.099664
Sum of atomic charges:   -1.0000000

LOEWDIN ATOMIC CHARGES
----------------------
   0 C :   -0.438572
   1 S :    0.405420
   2 O :   -0.412665
   3 O :   -0.429840
   4 O :   -0.370120
   5 C :   -0.365251
   6 H :    0.129118
   7 H :    0.126881
   8 H :    0.123940
   9 H :    0.124340
  10 H :    0.106748

  Mayer bond orders larger than 0.100000
B(  0-C ,  1-S ) :   0.8935 B(  0-C ,  5-C ) :   0.9459 B(  0-C ,  6-H ) :   0.9641
B(  0-C ,  7-H ) :   0.9607 B(  1-S ,  2-O ) :   1.7649 B(  1-S ,  3-O ) :   1.7805
B(  1-S ,  4-O ) :   1.8441 B(  5-C ,  8-H ) :   0.9708 B(  5-C ,  9-H ) :   0.9739
B(  5-C , 10-H ) :   0.9676

FINAL SINGLE POINT ENERGY      -702.097191327780

DIPOLE MOMENT
-------------
                                X             Y             Z
Electronic contribution:      4.63174      -3.51508      -5.06254
Nuclear contribution   :     -6.18165       4.01759       6.33106
                        -----------------------------------------
Total Dipole Moment    :     -1.54991       0.50252       1.26852
                        -----------------------------------------
Magnitude (a.u.)       :      2.06492
Magnitude (Debye)      :      5.24862

Rotational constants in cm-1:     0.161711     0.082788     0.081165
Rotational constants in MHz :  4847.971521  2481.906910  2433.276832

                             ****ORCA TERMINATED NORMALLY****
TOTAL RUN TIME: 0 days 0 hours 0 minutes 32 seconds 279 msec
