                         Program Version 5.0.0 -  RELEASE  -
|  1> !LC-PBE RIJCOSX def2-TZVP def2/J TightSCF
|  2> *xyz 1 1
|  3> C         -2.16038       -1.36949       -3.46710
|  4> N         -3.03011       -1.91086       -4.54107
|  5> C         -2.04772        0.14658       -3.51177
|  6> H         -3.47744       -2.79151       -4.25710
|  7> H         -2.53801       -2.01786       -5.43808
|  8> H         -3.89159       -1.37604       -4.71437
|  9> H         -1.18444       -1.84400       -3.56639
| 10> H         -2.59819       -1.70838       -2.52848
| 11> H         -1.61525        0.44478       -4.44395
| 12> H         -1.42718        0.48198       -2.70720
| 13> H         -3.02145        0.57958       -3.41560
| 14> *
| 15> %MaxCore 64000
| 16>
| 17> %pal nprocs 4
| 18> end
| 19>
| 20> %scf
| 21>   MaxIter 150
| 22> end
| 23>
| 24>
| 25>                          ****END OF INPUT****

CARTESIAN COORDINATES (ANGSTROEM)
---------------------------------
  C     -2.160380   -1.369490   -3.467100
  N     -3.030110   -1.910860   -4.541070
  C     -2.047720    0.146580   -3.511770
  H     -3.477440   -2.791510   -4.257100
  H     -2.538010   -2.017860   -5.438080
  H     -3.891590   -1.376040   -4.714370
  H     -1.184440   -1.844000   -3.566390
  H     -2.598190   -1.708380   -2.528480
  H     -1.615250    0.444780   -4.443950
  H     -1.427180    0.481980   -2.707200
  H     -3.021450    0.579580   -3.415600

 Total Charge           Charge          ....    1
 Multiplicity           Mult            ....    1
 Number of Electrons    NEL             ....   26
 Basis Dimension        Dim             ....  141

ORBITAL ENERGIES
----------------

  NO   OCC          E(Eh)            E(eV)
   0   2.0000     -14.550356      -395.9353
   1   2.0000     -10.369635      -282.1721
   2   2.0000     -10.285327      -279.8780
   3   2.0000      -1.392182       -37.8832
   4   2.0000      -1.141865       -31.0717
   5   2.0000      -1.009652       -27.4740
   6   2.0000      -0.958493       -26.0819
   7   2.0000      -0.917476       -24.9658
   8   2.0000      -0.843274       -22.9467
   9   2.0000      -0.784635       -21.3510
  10   2.0000      -0.716342       -19.4926
  11   2.0000      -0.700008       -19.0482
  12   2.0000      -0.679203       -18.4821
  13   0.0000      -0.106401        -2.8953
  14   0.0000      -0.045720        -1.2441
  15   0.0000      -0.042268        -1.1502
  16   0.0000      -0.022873        -0.6224
  17   0.0000       0.015867         0.4317

MULLIKEN ATOMIC CHARGES
-----------------------
   0 C :   -0.270425
   1 N :   -0.317210
   2 C :   -0.456217
   3 H :    0.347697
   4 H :    0.353686
   5 H :    0.339744
   6 H :    0.221544
   7 H :    0.211814
   8 H :    0.180825
   9 H :    0.208710
  10 H :    0.179831
Sum of atomic charges:    1.0000000

LOEWDIN ATOMIC CHARGES
----------------------
   0 C :   -0.297833
   1 N :    0.158808
   2 C :   -0.298957
   3 H :    0.230578
   4 H :    0.230211
   5 H :    0.227755
   6 H :    0.161269
   7 H :    0.159320
   8 H :    0.138113
   9 H :    0.153975
  10 H :    0.136761

  Mayer bond orders larger than 0.100000
B(  0-C ,  1-N ) :   0.8592 B(  0-C ,  2-C ) :   0.9850 B(  0-C ,  6-H ) :   0.9517
B(  0-C ,  7-H ) :   0.9512 B(  1-N ,  3-H ) :   0.8728 B(  1-N ,  4-H ) :   0.8644
B(  1-N ,  5-H ) :   0.8696 B(  2-C ,  8-H ) :   0.9528 B(  2-C ,  9-H ) :   0.9537
B(  2-C , 10-H ) :   0.9551

FINAL SINGLE POINT ENERGY      -135.126997648342

DIPOLE MOMENT
-------------
                                X             Y             Z
Electronic contribution:     -0.67153      -1.51875      -0.79161
Nuclear contribution   :     -0.15215       0.37393      -0.04773
                        -----------------------------------------
Total Dipole Moment    :     -0.82367      -1.14482      -0.83934
                        -----------------------------------------
Magnitude (a.u.)       :      1.64120
Magnitude (Debye)      :      4.17160

Rotational constants in cm-1:     1.020762     0.277172     0.247319
Rotational constants in MHz : 30601.664035  8309.399682  7414.438136

                             ****ORCA TERMINATED NORMALLY****
TOTAL RUN TIME: 0 days 0 hours 0 minutes 15 seconds 612 msec
