                         Program Version 5.0.0 -  RELEASE  -
|  1> !LC-PBE RIJCOSX def2-TZVP def2/J TightSCF
|  2> *xyz 0 1
|  3> C         -7.33044       -2.67899       -3.20681
|  4> S         -6.01966       -2.92697       -4.41913
|  5> F         -5.64583       -1.58838       -4.91931
|  6> O         -4.88196       -3.50370       -3.66724
|  7> O         -6.54927       -3.80515       -5.42507
|  8> C         -7.46900       -1.24615       -2.71383
|  9> H         -7.11825       -3.37982       -2.39805
| 10> H         -8.24184       -3.00474       -3.70651
| 11> H         -7.67580       -0.60214       -3.54292
| 12> H         -6.55749       -0.94096       -2.24382
| 13> H         -8.27114       -1.18777       -2.00810
| 14> *
| 15> %MaxCore 64000
| 16>
| 17> %pal nprocs 4
| 18> end
| 19>
| 20> %scf
| 21>   MaxIter 150
| 22> end
| 23>
| 24>
| 25>                          ****END OF INPUT****

CARTESIAN COORDINATES (ANGSTROEM)
---------------------------------
  C     -7.330440   -2.678990   -3.206810
  S     -6.019660   -2.926970   -4.419130
  F     -5.645830   -1.588380   -4.919310
  O     -4.881960   -3.503700   -3.667240
  O     -6.549270   -3.805150   -5.425070
  C     -7.469000   -1.246150   -2.713830
  H     -7.118250   -3.379820   -2.398050
  H     -8.241840   -3.004740   -3.706510
  H     -7.675800   -0.602140   -3.542920
  H     -6.557490   -0.940960   -2.243820
  H     -8.271140   -1.187770   -2.008100

 Total Charge           Charge          ....    0
 Multiplicity           Mult            ....    1
 Number of Electrons    NEL             ....   58
 Basis Dimension        Dim             ....  222

ORBITAL ENERGIES
----------------

  NO   OCC          E(Eh)            E(eV)
   0   2.0000     -88.533133     -2409.1090
   1   2.0000     -24.599348      -669.3823
   2   2.0000     -18.994853      -516.8762
   3   2.0000     -18.979266      -516.4521
   4   2.0000     -10.183847      -277.1166
   5   2.0000     -10.142479      -275.9909
   6   2.0000      -8.144192      -221.6147
   7   2.0000      -6.164803      -167.7528
   8   2.0000      -6.157499      -167.5541
   9   2.0000      -6.157006      -167.5406
  10   2.0000      -1.519415       -41.3454
  11   2.0000      -1.279604       -34.8198
  12   2.0000      -1.172966       -31.9180
  13   2.0000      -1.010893       -27.5078
  14   2.0000      -0.888486       -24.1769
  15   2.0000      -0.840508       -22.8714
  16   2.0000      -0.745733       -20.2924
  17   2.0000      -0.724996       -19.7282
  18   2.0000      -0.693355       -18.8672
  19   2.0000      -0.649000       -17.6602
  20   2.0000      -0.620638       -16.8884
  21   2.0000      -0.595206       -16.1964
  22   2.0000      -0.586002       -15.9459
  23   2.0000      -0.554419       -15.0865
  24   2.0000      -0.533960       -14.5298
  25   2.0000      -0.528057       -14.3692
  26   2.0000      -0.471288       -12.8244
  27   2.0000      -0.458095       -12.4654
  28   2.0000      -0.447154       -12.1677
  29   0.0000       0.091764         2.4970
  30   0.0000       0.135598         3.6898
  31   0.0000       0.150770         4.1027
  32   0.0000       0.154746         4.2108
  33   0.0000       0.163743         4.4557

MULLIKEN ATOMIC CHARGES
-----------------------
   0 C :   -0.302455
   1 S :    0.777411
   2 F :   -0.098376
   3 O :   -0.431595
   4 O :   -0.381880
   5 C :   -0.464771
   6 H :    0.201886
   7 H :    0.191957
   8 H :    0.165758
   9 H :    0.176817
  10 H :    0.165249
Sum of atomic charges:    0.0000000

LOEWDIN ATOMIC CHARGES
----------------------
   0 C :   -0.397021
   1 S :    0.531649
   2 F :    0.073236
   3 O :   -0.314265
   4 O :   -0.256791
   5 C :   -0.339591
   6 H :    0.157137
   7 H :    0.150493
   8 H :    0.128429
   9 H :    0.132684
  10 H :    0.134040

  Mayer bond orders larger than 0.100000
B(  0-C ,  1-S ) :   0.9166 B(  0-C ,  5-C ) :   0.9519 B(  0-C ,  6-H ) :   0.9360
B(  0-C ,  7-H ) :   0.9387 B(  1-S ,  2-F ) :   1.1461 B(  1-S ,  3-O ) :   1.9120
B(  1-S ,  4-O ) :   1.9716 B(  5-C ,  8-H ) :   0.9626 B(  5-C ,  9-H ) :   0.9613
B(  5-C , 10-H ) :   0.9608

FINAL SINGLE POINT ENERGY      -726.599239185327

DIPOLE MOMENT
-------------
                                X             Y             Z
Electronic contribution:      5.60380      -1.67516      -6.35900
Nuclear contribution   :     -6.81251       2.87933       7.15058
                        -----------------------------------------
Total Dipole Moment    :     -1.20871       1.20417       0.79158
                        -----------------------------------------
Magnitude (a.u.)       :      1.88085
Magnitude (Debye)      :      4.78074

Rotational constants in cm-1:     0.152543     0.082494     0.078987
Rotational constants in MHz :  4573.135887  2473.116216  2367.980829

                             ****ORCA TERMINATED NORMALLY****
TOTAL RUN TIME: 0 days 0 hours 0 minutes 27 seconds 655 msec
