                         Program Version 5.0.0 -  RELEASE  -
|  1> !LC-PBE RIJCOSX def2-TZVP def2/J TightSCF
|  2> *xyz 0 1
|  3> C         -2.16038       -1.36949       -3.46710
|  4> C         -3.03011       -1.91086       -4.54107
|  5> C         -2.04772        0.14658       -3.51177
|  6> H         -3.47744       -2.79151       -4.25710
|  7> H         -2.53801       -2.01786       -5.43808
|  8> H         -3.89159       -1.37604       -4.71437
|  9> H         -1.18444       -1.84400       -3.56639
| 10> H         -2.59819       -1.70838       -2.52848
| 11> H         -1.61525        0.44478       -4.44395
| 12> H         -1.42718        0.48198       -2.70720
| 13> H         -3.02145        0.57958       -3.41560
| 14> *
| 15> %MaxCore 64000
| 16>
| 17> %pal nprocs 4
| 18> end
| 19>
| 20> %scf
| 21>   MaxIter 150
| 22> end
| 23>
| 24>
| 25>                          ****END OF INPUT****

CARTESIAN COORDINATES (ANGSTROEM)
---------------------------------
  C     -2.160380   -1.369490   -3.467100
  C     -3.030110   -1.910860   -4.541070
  C     -2.047720    0.146580   -3.511770
  H     -3.477440   -2.791510   -4.257100
  H     -2.538010   -2.017860   -5.438080
  H     -3.891590   -1.376040   -4.714370
  H     -1.184440   -1.844000   -3.566390
  H     -2.598190   -1.708380   -2.528480
  H     -1.615250    0.444780   -4.443950
  H     -1.427180    0.481980   -2.707200
  H     -3.021450    0.579580   -3.415600

 Total Charge           Charge          ....    0
 Multiplicity           Mult            ....    1
 Number of Electrons    NEL             ....   26
 Basis Dimension        Dim             ....  141

ORBITAL ENERGIES
----------------

  NO   OCC          E(Eh)            E(eV)
   0   2.0000     -10.100744      -274.8552
   1   2.0000     -10.089250      -274.5424
   2   2.0000     -10.070684      -274.0373
   3   2.0000      -0.970924       -26.4202
   4   2.0000      -0.861657       -23.4469
   5   2.0000      -0.748292       -20.3621
   6   2.0000      -0.617515       -16.8034
   7   2.0000      -0.584253       -15.8983
   8   2.0000      -0.540368       -14.7042
   9   2.0000      -0.529721       -14.4145
  10   2.0000      -0.468976       -12.7615
  11   2.0000      -0.456121       -12.4117
  12   2.0000      -0.453448       -12.3390
  13   0.0000       0.123941         3.3726
  14   0.0000       0.167550         4.5593
  15   0.0000       0.172979         4.7070
  16   0.0000       0.178142         4.8475
  17   0.0000       0.202355         5.5064

MULLIKEN ATOMIC CHARGES
-----------------------
   0 C :   -0.221418
   1 C :   -0.442628
   2 C :   -0.428466
   3 H :    0.145024
   4 H :    0.143852
   5 H :    0.139728
   6 H :    0.122126
   7 H :    0.121787
   8 H :    0.137732
   9 H :    0.141895
  10 H :    0.140368
Sum of atomic charges:   -0.0000000

LOEWDIN ATOMIC CHARGES
----------------------
   0 C :   -0.339541
   1 C :   -0.331451
   2 C :   -0.327375
   3 H :    0.118161
   4 H :    0.115002
   5 H :    0.117221
   6 H :    0.140246
   7 H :    0.140393
   8 H :    0.123266
   9 H :    0.121540
  10 H :    0.122537

  Mayer bond orders larger than 0.100000
B(  0-C ,  1-C ) :   0.9419 B(  0-C ,  2-C ) :   0.9630 B(  0-C ,  6-H ) :   0.9763
B(  0-C ,  7-H ) :   0.9823 B(  1-C ,  3-H ) :   0.9831 B(  1-C ,  4-H ) :   0.9747
B(  1-C ,  5-H ) :   0.9783 B(  2-C ,  8-H ) :   0.9727 B(  2-C ,  9-H ) :   0.9812
B(  2-C , 10-H ) :   0.9761

FINAL SINGLE POINT ENERGY      -118.733513182269

DIPOLE MOMENT
-------------
                                X             Y             Z
Electronic contribution:      0.31187      -0.13556       0.27717
Nuclear contribution   :     -0.34625       0.09603      -0.26933
                        -----------------------------------------
Total Dipole Moment    :     -0.03438      -0.03953       0.00784
                        -----------------------------------------
Magnitude (a.u.)       :      0.05297
Magnitude (Debye)      :      0.13464

Rotational constants in cm-1:     1.028617     0.291238     0.258956
Rotational constants in MHz : 30837.159054  8731.095379  7763.318586

                             ****ORCA TERMINATED NORMALLY****
TOTAL RUN TIME: 0 days 0 hours 0 minutes 13 seconds 672 msec
