                         Program Version 5.0.0 -  RELEASE  -
|  1> !LC-PBE RIJCOSX def2-TZVP def2/J TightSCF
|  2> *xyz 0 1
|  3> C         -7.33044       -2.67899       -3.20681
|  4> S         -6.01966       -2.92697       -4.41913
|  5> O         -5.64583       -1.58838       -4.91931
|  6> F         -4.88196       -3.50370       -3.66724
|  7> O         -6.54927       -3.80515       -5.42507
|  8> C         -7.46900       -1.24615       -2.71383
|  9> H         -7.11825       -3.37982       -2.39805
| 10> H         -8.24184       -3.00474       -3.70651
| 11> H         -7.67580       -0.60214       -3.54292
| 12> H         -6.55749       -0.94096       -2.24382
| 13> H         -8.27114       -1.18777       -2.00810
| 14> *
| 15> %MaxCore 64000
| 16>
| 17> %pal nprocs 4
| 18> end
| 19>
| 20> %scf
| 21>   MaxIter 150
| 22> end
| 23>
| 24>
| 25>                          ****END OF INPUT****

CARTESIAN COORDINATES (ANGSTROEM)
---------------------------------
  C     -7.330440   -2.678990   -3.206810
  S     -6.019660   -2.926970   -4.419130
  O     -5.645830   -1.588380   -4.919310
  F     -4.881960   -3.503700   -3.667240
  O     -6.549270   -3.805150   -5.425070
  C     -7.469000   -1.246150   -2.713830
  H     -7.118250   -3.379820   -2.398050
  H     -8.241840   -3.004740   -3.706510
  H     -7.675800   -0.602140   -3.542920
  H     -6.557490   -0.940960   -2.243820
  H     -8.271140   -1.187770   -2.008100

 Total Charge           Charge          ....    0
 Multiplicity           Mult            ....    1
 Number of Electrons    NEL             ....   58
 Basis Dimension        Dim             ....  222

ORBITAL ENERGIES
----------------

  NO   OCC          E(Eh)            E(eV)
   0   2.0000     -88.533377     -2409.1157
   1   2.0000     -24.596569      -669.3067
   2   2.0000     -18.994997      -516.8801
   3   2.0000     -18.982855      -516.5498
   4   2.0000     -10.184228      -277.1269
   5   2.0000     -10.133091      -275.7354
   6   2.0000      -8.144422      -221.6210
   7   2.0000      -6.164950      -167.7568
   8   2.0000      -6.157909      -167.5652
   9   2.0000      -6.157144      -167.5444
  10   2.0000      -1.516050       -41.2538
  11   2.0000      -1.280723       -34.8502
  12   2.0000      -1.176466       -32.0133
  13   2.0000      -1.006090       -27.3771
  14   2.0000      -0.890388       -24.2287
  15   2.0000      -0.832880       -22.6638
  16   2.0000      -0.735362       -20.0102
  17   2.0000      -0.721235       -19.6258
  18   2.0000      -0.703114       -19.1327
  19   2.0000      -0.642916       -17.4946
  20   2.0000      -0.629935       -17.1414
  21   2.0000      -0.598991       -16.2994
  22   2.0000      -0.569884       -15.5073
  23   2.0000      -0.541036       -14.7223
  24   2.0000      -0.539805       -14.6888
  25   2.0000      -0.520791       -14.1714
  26   2.0000      -0.471228       -12.8228
  27   2.0000      -0.464131       -12.6296
  28   2.0000      -0.450367       -12.2551
  29   0.0000       0.103464         2.8154
  30   0.0000       0.122078         3.3219
  31   0.0000       0.141151         3.8409
  32   0.0000       0.162883         4.4323
  33   0.0000       0.169988         4.6256

MULLIKEN ATOMIC CHARGES
-----------------------
   0 C :   -0.312969
   1 S :    0.778525
   2 O :   -0.426674
   3 F :   -0.100873
   4 O :   -0.383509
   5 C :   -0.440702
   6 H :    0.176778
   7 H :    0.199923
   8 H :    0.185439
   9 H :    0.164374
  10 H :    0.159688
Sum of atomic charges:    0.0000000

LOEWDIN ATOMIC CHARGES
----------------------
   0 C :   -0.403757
   1 S :    0.532702
   2 O :   -0.300269
   3 F :    0.062366
   4 O :   -0.257548
   5 C :   -0.332741
   6 H :    0.144389
   7 H :    0.155987
   8 H :    0.136156
   9 H :    0.131464
  10 H :    0.131251

  Mayer bond orders larger than 0.100000
B(  0-C ,  1-S ) :   0.9093 B(  0-C ,  5-C ) :   0.9550 B(  0-C ,  6-H ) :   0.9444
B(  0-C ,  7-H ) :   0.9354 B(  1-S ,  2-O ) :   1.9042 B(  1-S ,  3-F ) :   1.1468
B(  1-S ,  4-O ) :   1.9718 B(  5-C ,  8-H ) :   0.9590 B(  5-C ,  9-H ) :   0.9655
B(  5-C , 10-H ) :   0.9567

FINAL SINGLE POINT ENERGY      -726.602401103565

DIPOLE MOMENT
-------------
                                X             Y             Z
Electronic contribution:      6.96819      -5.00004      -4.21565
Nuclear contribution   :     -7.60849       4.87515       5.84588
                        -----------------------------------------
Total Dipole Moment    :     -0.64029      -0.12489       1.63023
                        -----------------------------------------
Magnitude (a.u.)       :      1.75591
Magnitude (Debye)      :      4.46317

Rotational constants in cm-1:     0.153704     0.080342     0.079431
Rotational constants in MHz :  4607.928650  2408.599360  2381.267225

                             ****ORCA TERMINATED NORMALLY****
TOTAL RUN TIME: 0 days 0 hours 0 minutes 30 seconds 151 msec
