                         Program Version 5.0.0 -  RELEASE  -
|  1> !LC-PBE RIJCOSX def2-TZVP def2/J TightSCF
|  2> *xyz 0 1
|  3> C         -7.33044       -2.67899       -3.20681
|  4> S         -6.01966       -2.92697       -4.41913
|  5> O         -5.64583       -1.58838       -4.91931
|  6> O         -4.88196       -3.50370       -3.66724
|  7> F         -6.54927       -3.80515       -5.42507
|  8> C         -7.46900       -1.24615       -2.71383
|  9> H         -7.11825       -3.37982       -2.39805
| 10> H         -8.24184       -3.00474       -3.70651
| 11> H         -7.67580       -0.60214       -3.54292
| 12> H         -6.55749       -0.94096       -2.24382
| 13> H         -8.27114       -1.18777       -2.00810
| 14> *
| 15> %MaxCore 64000
| 16>
| 17> %pal nprocs 4
| 18> end
| 19>
| 20> %scf
| 21>   MaxIter 150
| 22> end
| 23>
| 24>
| 25>                          ****END OF INPUT****

CARTESIAN COORDINATES (ANGSTROEM)
---------------------------------
  C     -7.330440   -2.678990   -3.206810
  S     -6.019660   -2.926970   -4.419130
  O     -5.645830   -1.588380   -4.919310
  O     -4.881960   -3.503700   -3.667240
  F     -6.549270   -3.805150   -5.425070
  C     -7.469000   -1.246150   -2.713830
  H     -7.118250   -3.379820   -2.398050
  H     -8.241840   -3.004740   -3.706510
  H     -7.675800   -0.602140   -3.542920
  H     -6.557490   -0.940960   -2.243820
  H     -8.271140   -1.187770   -2.008100

 Total Charge           Charge          ....    0
 Multiplicity           Mult            ....    1
 Number of Electrons    NEL             ....   58
 Basis Dimension        Dim             ....  222

ORBITAL ENERGIES
----------------

  NO   OCC          E(Eh)            E(eV)
   0   2.0000     -88.535656     -2409.1777
   1   2.0000     -24.619674      -669.9354
   2   2.0000     -18.983124      -516.5571
   3   2.0000     -18.979944      -516.4705
   4   2.0000     -10.184967      -277.1470
   5   2.0000     -10.133041      -275.7341
   6   2.0000      -8.146720      -221.6835
   7   2.0000      -6.167097      -167.8152
   8   2.0000      -6.160046      -167.6234
   9   2.0000      -6.159589      -167.6109
  10   2.0000      -1.552734       -42.2520
  11   2.0000      -1.265581       -34.4382
  12   2.0000      -1.159218       -31.5439
  13   2.0000      -1.006085       -27.3770
  14   2.0000      -0.903772       -24.5929
  15   2.0000      -0.841640       -22.9022
  16   2.0000      -0.750598       -20.4248
  17   2.0000      -0.748032       -20.3550
  18   2.0000      -0.707984       -19.2652
  19   2.0000      -0.644395       -17.5349
  20   2.0000      -0.629160       -17.1203
  21   2.0000      -0.586051       -15.9473
  22   2.0000      -0.566602       -15.4180
  23   2.0000      -0.544008       -14.8032
  24   2.0000      -0.526046       -14.3144
  25   2.0000      -0.520624       -14.1669
  26   2.0000      -0.463236       -12.6053
  27   2.0000      -0.455930       -12.4065
  28   2.0000      -0.436117       -11.8674
  29   0.0000       0.104922         2.8551
  30   0.0000       0.121781         3.3138
  31   0.0000       0.138869         3.7788
  32   0.0000       0.159949         4.3524
  33   0.0000       0.168844         4.5945

MULLIKEN ATOMIC CHARGES
-----------------------
   0 C :   -0.308546
   1 S :    0.778432
   2 O :   -0.419784
   3 O :   -0.423931
   4 F :   -0.067255
   5 C :   -0.442571
   6 H :    0.198660
   7 H :    0.167948
   8 H :    0.175658
   9 H :    0.180988
  10 H :    0.160401
Sum of atomic charges:   -0.0000000

LOEWDIN ATOMIC CHARGES
----------------------
   0 C :   -0.406225
   1 S :    0.525858
   2 O :   -0.297055
   3 O :   -0.310175
   4 F :    0.117297
   5 C :   -0.327244
   6 H :    0.153080
   7 H :    0.141578
   8 H :    0.134183
   9 H :    0.136774
  10 H :    0.131929

  Mayer bond orders larger than 0.100000
B(  0-C ,  1-S ) :   0.9140 B(  0-C ,  5-C ) :   0.9599 B(  0-C ,  6-H ) :   0.9360
B(  0-C ,  7-H ) :   0.9402 B(  1-S ,  2-O ) :   1.9055 B(  1-S ,  3-O ) :   1.9134
B(  1-S ,  4-F ) :   1.1940 B(  5-C ,  8-H ) :   0.9601 B(  5-C ,  9-H ) :   0.9620
B(  5-C , 10-H ) :   0.9563

FINAL SINGLE POINT ENERGY      -726.583353185275

DIPOLE MOMENT
-------------
                                X             Y             Z
Electronic contribution:      4.07819      -5.50426      -7.26597
Nuclear contribution   :     -5.87110       5.18927       7.67759
                        -----------------------------------------
Total Dipole Moment    :     -1.79291      -0.31499       0.41162
                        -----------------------------------------
Magnitude (a.u.)       :      1.86633
Magnitude (Debye)      :      4.74383

Rotational constants in cm-1:     0.155988     0.080452     0.078187
Rotational constants in MHz :  4676.405251  2411.902056  2343.983816

                             ****ORCA TERMINATED NORMALLY****
TOTAL RUN TIME: 0 days 0 hours 0 minutes 27 seconds 637 msec
