                         Program Version 5.0.0 -  RELEASE  -
|  1> !LC-PBE RIJCOSX def2-TZVP def2/J TightSCF xyzfile
|  2>
|  3> *xyzfile 0 1 D1.xyz
|  4>
|  5> %MaxCore 64000
|  6>
|  7> %pal nprocs 18
|  8> end
|  9>
| 10> %scf
| 11>   MaxIter 150
| 12> end
| 13>
| 14>
| 15>                          ****END OF INPUT****

CARTESIAN COORDINATES (ANGSTROEM)
---------------------------------
  C     -2.160376   -1.369486   -3.467104
  C     -3.030108   -1.910857   -4.541074
  C     -2.047717    0.146583   -3.511774
  C     -7.330440   -2.678991   -3.206811
  S     -6.019659   -2.926965   -4.419128
  H     -3.477443   -2.791513   -4.257096
  H     -2.538013   -2.017860   -5.438075
  H     -3.891589   -1.376039   -4.714365
  F     -5.645830   -1.588384   -4.919307
  O     -4.881961   -3.503697   -3.667235
  H     -1.184438   -1.843997   -3.566393
  H     -2.598195   -1.708376   -2.528477
  O     -6.549267   -3.805150   -5.425071
  C     -3.328755    0.875037   -3.103669
  H     -1.740034    0.452343   -4.517126
  H     -1.232611    0.434938   -2.842208
  C     -3.628487    0.771601   -1.609363
  H     -4.175106    0.490791   -3.682203
  H     -3.237812    1.928663   -3.381480
  C     -4.975718    1.361432   -1.190644
  H     -2.830700    1.276234   -1.054766
  H     -3.594312   -0.275838   -1.294603
  C     -6.184720    0.784347   -1.926464
  H     -4.956292    2.445725   -1.342200
  H     -5.097256    1.205252   -0.114136
  C     -6.286921   -0.735882   -1.893531
  H     -6.163994    1.100199   -2.974250
  H     -7.094530    1.223459   -1.504509
  C     -7.468999   -1.246153   -2.713833
  H     -6.360641   -1.090347   -0.859176
  H     -5.369848   -1.171853   -2.295982
  H     -7.601914   -0.601349   -3.585329
  H     -8.389791   -1.173436   -2.126922
  H     -7.118254   -3.379818   -2.398055
  H     -8.241838   -3.004745   -3.706513

 Total Charge           Charge          ....    0
 Multiplicity           Mult            ....    1
 Number of Electrons    NEL             ....  122
 Basis Dimension        Dim             ....  566

ORBITAL ENERGIES
----------------

  NO   OCC          E(Eh)            E(eV)
   0   2.0000     -88.538911     -2409.2663
   1   2.0000     -24.604713      -669.5283
   2   2.0000     -19.000298      -517.0244
   3   2.0000     -18.985212      -516.6139
   4   2.0000     -10.183388      -277.1041
   5   2.0000     -10.150746      -276.2158
   6   2.0000     -10.128207      -275.6025
   7   2.0000     -10.120304      -275.3875
   8   2.0000     -10.113220      -275.1947
   9   2.0000     -10.105984      -274.9978
  10   2.0000     -10.103497      -274.9301
  11   2.0000     -10.095800      -274.7207
  12   2.0000     -10.085590      -274.4429
  13   2.0000     -10.035996      -273.0933
  14   2.0000      -8.150227      -221.7789
  15   2.0000      -6.170816      -167.9164
  16   2.0000      -6.163370      -167.7138
  17   2.0000      -6.163130      -167.7073
  18   2.0000      -1.528188       -41.5841
  19   2.0000      -1.286947       -35.0196
  20   2.0000      -1.183720       -32.2107
  21   2.0000      -1.031990       -28.0819
  22   2.0000      -0.999767       -27.2050
  23   2.0000      -0.968298       -26.3487
  24   2.0000      -0.936408       -25.4810
  25   2.0000      -0.890528       -24.2325
  26   2.0000      -0.874291       -23.7907
  27   2.0000      -0.838429       -22.8148
  28   2.0000      -0.802603       -21.8399
  29   2.0000      -0.785700       -21.3800
  30   2.0000      -0.752204       -20.4685
  31   2.0000      -0.741842       -20.1865
  32   2.0000      -0.725616       -19.7450
  33   2.0000      -0.704400       -19.1677
  34   2.0000      -0.701639       -19.0926
  35   2.0000      -0.648577       -17.6487
  36   2.0000      -0.640116       -17.4184
  37   2.0000      -0.627147       -17.0655
  38   2.0000      -0.617557       -16.8046
  39   2.0000      -0.610558       -16.6141
  40   2.0000      -0.595001       -16.1908
  41   2.0000      -0.581268       -15.8171
  42   2.0000      -0.574629       -15.6365
  43   2.0000      -0.569423       -15.4948
  44   2.0000      -0.553580       -15.0637
  45   2.0000      -0.536773       -14.6063
  46   2.0000      -0.528999       -14.3948
  47   2.0000      -0.528277       -14.3751
  48   2.0000      -0.509671       -13.8688
  49   2.0000      -0.500438       -13.6176
  50   2.0000      -0.489261       -13.3135
  51   2.0000      -0.485800       -13.2193
  52   2.0000      -0.471513       -12.8305
  53   2.0000      -0.466304       -12.6888
  54   2.0000      -0.459009       -12.4903
  55   2.0000      -0.453303       -12.3350
  56   2.0000      -0.447984       -12.1903
  57   2.0000      -0.439843       -11.9687
  58   2.0000      -0.429172       -11.6784
  59   2.0000      -0.425621       -11.5817
  60   2.0000      -0.403820       -10.9885
  61   0.0000       0.088288         2.4024
  62   0.0000       0.116980         3.1832
  63   0.0000       0.124549         3.3892
  64   0.0000       0.129883         3.5343
  65   0.0000       0.136790         3.7223

MULLIKEN ATOMIC CHARGES
-----------------------
   0 C :   -0.283019
   1 C :   -0.534037
   2 C :   -0.238621
   3 C :   -0.312607
   4 S :    0.805852
   5 H :    0.220688
   6 H :    0.152399
   7 H :    0.116263
   8 F :   -0.095834
   9 O :   -0.431883
  10 H :    0.140306
  11 H :    0.146790
  12 O :   -0.383184
  13 C :   -0.323151
  14 H :    0.145804
  15 H :    0.137635
  16 C :   -0.357087
  17 H :    0.139531
  18 H :    0.151542
  19 C :   -0.243603
  20 H :    0.157325
  21 H :    0.169653
  22 C :   -0.359044
  23 H :    0.151902
  24 H :    0.151648
  25 C :   -0.330473
  26 H :    0.175128
  27 H :    0.158247
  28 C :   -0.356777
  29 H :    0.161706
  30 H :    0.177934
  31 H :    0.191355
  32 H :    0.172041
  33 H :    0.208918
  34 H :    0.216652
Sum of atomic charges:    0.0000000

LOEWDIN ATOMIC CHARGES
----------------------
   0 C :   -0.316814
   1 C :   -0.360505
   2 C :   -0.285590
   3 C :   -0.366736
   4 S :    0.551846
   5 H :    0.107940
   6 H :    0.111019
   7 H :    0.097586
   8 F :    0.089486
   9 O :   -0.277767
  10 H :    0.143206
  11 H :    0.141247
  12 O :   -0.249243
  13 C :   -0.283784
  14 H :    0.144531
  15 H :    0.142999
  16 C :   -0.288289
  17 H :    0.137813
  18 H :    0.144164
  19 C :   -0.286030
  20 H :    0.146276
  21 H :    0.143289
  22 C :   -0.291205
  23 H :    0.146241
  24 H :    0.145303
  25 C :   -0.286992
  26 H :    0.144736
  27 H :    0.146195
  28 C :   -0.308048
  29 H :    0.148913
  30 H :    0.146807
  31 H :    0.151051
  32 H :    0.154971
  33 H :    0.161079
  34 H :    0.154305

  Mayer bond orders larger than 0.100000
B(  0-C ,  1-C ) :   0.8813 B(  0-C ,  2-C ) :   0.9234 B(  0-C , 10-H ) :   0.9855
B(  0-C , 11-H ) :   1.0104 B(  1-C ,  5-H ) :   0.9578 B(  1-C ,  6-H ) :   0.9686
B(  1-C ,  7-H ) :   0.9954 B(  2-C , 13-C ) :   0.9608 B(  2-C , 14-H ) :   0.9802
B(  2-C , 15-H ) :   0.9849 B(  3-C ,  4-S ) :   0.9178 B(  3-C , 28-C ) :   0.9458
B(  3-C , 33-H ) :   0.9370 B(  3-C , 34-H ) :   0.9523 B(  4-S ,  8-F ) :   1.1153
B(  4-S ,  9-O ) :   1.8145 B(  4-S , 12-O ) :   2.0115 B( 13-C , 16-C ) :   0.8981
B( 13-C , 17-H ) :   0.9895 B( 13-C , 18-H ) :   0.9772 B( 16-C , 19-C ) :   0.9336
B( 16-C , 20-H ) :   0.9742 B( 16-C , 21-H ) :   0.9886 B( 19-C , 22-C ) :   0.9445
B( 19-C , 23-H ) :   0.9888 B( 19-C , 24-H ) :   0.9890 B( 22-C , 25-C ) :   0.8871
B( 22-C , 26-H ) :   0.9860 B( 22-C , 27-H ) :   0.9780 B( 25-C , 28-C ) :   0.8787
B( 25-C , 29-H ) :   0.9609 B( 25-C , 30-H ) :   0.9892 B( 28-C , 31-H ) :   0.9853
B( 28-C , 32-H ) :   0.9597

FINAL SINGLE POINT ENERGY     -1040.049627567347

DIPOLE MOMENT
-------------
                                X             Y             Z
Electronic contribution:    -10.90980     -16.15192     -13.15174
Nuclear contribution   :      9.63012      17.20461      14.03552
                        -----------------------------------------
Total Dipole Moment    :     -1.27968       1.05269       0.88378
                        -----------------------------------------
Magnitude (a.u.)       :      1.87798
Magnitude (Debye)      :      4.77345

Rotational constants in cm-1:     0.025899     0.015189     0.010690
Rotational constants in MHz :   776.424978   455.369614   320.488876

                             ****ORCA TERMINATED NORMALLY****
TOTAL RUN TIME: 0 days 0 hours 1 minutes 8 seconds 349 msec
