                         Program Version 5.0.0 -  RELEASE  -
|  1> !LC-PBE RIJCOSX def2-TZVP def2/J TightSCF xyzfile
|  2>
|  3> *xyzfile 0 1 D2.xyz
|  4>
|  5> %MaxCore 64000
|  6>
|  7> %pal nprocs 18
|  8> end
|  9>
| 10> %scf
| 11>   MaxIter 150
| 12> end
| 13>
| 14>
| 15>                          ****END OF INPUT****

CARTESIAN COORDINATES (ANGSTROEM)
---------------------------------
  C     -2.160376   -1.369486   -3.467104
  C     -3.030108   -1.910857   -4.541074
  C     -2.047717    0.146583   -3.511774
  C     -7.330440   -2.678991   -3.206811
  S     -6.019659   -2.926965   -4.419128
  H     -3.477443   -2.791513   -4.257096
  H     -2.538013   -2.017860   -5.438075
  H     -3.891589   -1.376039   -4.714365
  O     -5.645830   -1.588384   -4.919307
  F     -4.881961   -3.503697   -3.667235
  H     -1.184438   -1.843997   -3.566393
  H     -2.598195   -1.708376   -2.528477
  O     -6.549267   -3.805150   -5.425071
  C     -3.328755    0.875037   -3.103669
  H     -1.740034    0.452343   -4.517126
  H     -1.232611    0.434938   -2.842208
  C     -3.628487    0.771601   -1.609363
  H     -4.175106    0.490791   -3.682203
  H     -3.237812    1.928663   -3.381480
  C     -4.975718    1.361432   -1.190644
  H     -2.830700    1.276234   -1.054766
  H     -3.594312   -0.275838   -1.294603
  C     -6.184720    0.784347   -1.926464
  H     -4.956292    2.445725   -1.342200
  H     -5.097256    1.205252   -0.114136
  C     -6.286921   -0.735882   -1.893531
  H     -6.163994    1.100199   -2.974250
  H     -7.094530    1.223459   -1.504509
  C     -7.468999   -1.246153   -2.713833
  H     -6.360641   -1.090347   -0.859176
  H     -5.369848   -1.171853   -2.295982
  H     -7.601914   -0.601349   -3.585329
  H     -8.389791   -1.173436   -2.126922
  H     -7.118254   -3.379818   -2.398055
  H     -8.241838   -3.004745   -3.706513

 Total Charge           Charge          ....    0
 Multiplicity           Mult            ....    1
 Number of Electrons    NEL             ....  122
 Basis Dimension        Dim             ....  566

ORBITAL ENERGIES
----------------

  NO   OCC          E(Eh)            E(eV)
   0   2.0000     -88.539266     -2409.2759
   1   2.0000     -24.602402      -669.4654
   2   2.0000     -19.000554      -517.0314
   3   2.0000     -18.988911      -516.7145
   4   2.0000     -10.184188      -277.1258
   5   2.0000     -10.143216      -276.0109
   6   2.0000     -10.124739      -275.5081
   7   2.0000     -10.114328      -275.2249
   8   2.0000     -10.109345      -275.0893
   9   2.0000     -10.103161      -274.9210
  10   2.0000     -10.097394      -274.7641
  11   2.0000     -10.094629      -274.6888
  12   2.0000     -10.088470      -274.5212
  13   2.0000     -10.039349      -273.1846
  14   2.0000      -8.150549      -221.7877
  15   2.0000      -6.171067      -167.9233
  16   2.0000      -6.163888      -167.7279
  17   2.0000      -6.163334      -167.7128
  18   2.0000      -1.526496       -41.5381
  19   2.0000      -1.287953       -35.0470
  20   2.0000      -1.186110       -32.2757
  21   2.0000      -1.026537       -27.9335
  22   2.0000      -0.996878       -27.1264
  23   2.0000      -0.967113       -26.3165
  24   2.0000      -0.936594       -25.4860
  25   2.0000      -0.890272       -24.2255
  26   2.0000      -0.874549       -23.7977
  27   2.0000      -0.834310       -22.7027
  28   2.0000      -0.798814       -21.7368
  29   2.0000      -0.784285       -21.3415
  30   2.0000      -0.741174       -20.1684
  31   2.0000      -0.735176       -20.0052
  32   2.0000      -0.730156       -19.8685
  33   2.0000      -0.711635       -19.3646
  34   2.0000      -0.699186       -19.0258
  35   2.0000      -0.655059       -17.8251
  36   2.0000      -0.634042       -17.2532
  37   2.0000      -0.625740       -17.0273
  38   2.0000      -0.618517       -16.8307
  39   2.0000      -0.609207       -16.5774
  40   2.0000      -0.588934       -16.0257
  41   2.0000      -0.576056       -15.6753
  42   2.0000      -0.572940       -15.5905
  43   2.0000      -0.568426       -15.4677
  44   2.0000      -0.547396       -14.8954
  45   2.0000      -0.540581       -14.7099
  46   2.0000      -0.526738       -14.3333
  47   2.0000      -0.518727       -14.1153
  48   2.0000      -0.508445       -13.8355
  49   2.0000      -0.497642       -13.5415
  50   2.0000      -0.490218       -13.3395
  51   2.0000      -0.476706       -12.9718
  52   2.0000      -0.468401       -12.7458
  53   2.0000      -0.465751       -12.6737
  54   2.0000      -0.458655       -12.4806
  55   2.0000      -0.456088       -12.4108
  56   2.0000      -0.446057       -12.1378
  57   2.0000      -0.439258       -11.9528
  58   2.0000      -0.426151       -11.5962
  59   2.0000      -0.422914       -11.5081
  60   2.0000      -0.412688       -11.2298
  61   0.0000       0.101465         2.7610
  62   0.0000       0.114258         3.1091
  63   0.0000       0.123779         3.3682
  64   0.0000       0.127053         3.4573
  65   0.0000       0.139169         3.7870

MULLIKEN ATOMIC CHARGES
-----------------------
   0 C :   -0.271855
   1 C :   -0.534626
   2 C :   -0.241871
   3 C :   -0.346230
   4 S :    0.808951
   5 H :    0.133440
   6 H :    0.157000
   7 H :    0.201197
   8 O :   -0.432716
   9 F :   -0.096042
  10 H :    0.139240
  11 H :    0.127829
  12 O :   -0.384400
  13 C :   -0.338542
  14 H :    0.147636
  15 H :    0.136435
  16 C :   -0.356895
  17 H :    0.180898
  18 H :    0.149009
  19 C :   -0.242271
  20 H :    0.155519
  21 H :    0.160410
  22 C :   -0.372134
  23 H :    0.151131
  24 H :    0.148558
  25 C :   -0.307801
  26 H :    0.188178
  27 H :    0.155093
  28 C :   -0.302774
  29 H :    0.156842
  30 H :    0.145275
  31 H :    0.200016
  32 H :    0.168132
  33 H :    0.194385
  34 H :    0.222984
Sum of atomic charges:    0.0000000

LOEWDIN ATOMIC CHARGES
----------------------
   0 C :   -0.320873
   1 C :   -0.358195
   2 C :   -0.284030
   3 C :   -0.373993
   4 S :    0.550967
   5 H :    0.098387
   6 H :    0.113336
   7 H :    0.110332
   8 O :   -0.269948
   9 F :    0.080886
  10 H :    0.141535
  11 H :    0.136634
  12 O :   -0.249709
  13 C :   -0.282625
  14 H :    0.145768
  15 H :    0.142377
  16 C :   -0.289450
  17 H :    0.146977
  18 H :    0.144038
  19 C :   -0.286495
  20 H :    0.145252
  21 H :    0.140195
  22 C :   -0.288511
  23 H :    0.146241
  24 H :    0.144020
  25 C :   -0.287170
  26 H :    0.149732
  27 H :    0.145662
  28 C :   -0.300327
  29 H :    0.145122
  30 H :    0.142519
  31 H :    0.159160
  32 H :    0.153552
  33 H :    0.149181
  34 H :    0.159453

  Mayer bond orders larger than 0.100000
B(  0-C ,  1-C ) :   0.8794 B(  0-C ,  2-C ) :   0.9373 B(  0-C , 10-H ) :   0.9865
B(  0-C , 11-H ) :   1.0066 B(  1-C ,  5-H ) :   0.9869 B(  1-C ,  6-H ) :   0.9735
B(  1-C ,  7-H ) :   0.9758 B(  2-C , 13-C ) :   0.9589 B(  2-C , 14-H ) :   0.9790
B(  2-C , 15-H ) :   0.9861 B(  3-C ,  4-S ) :   0.9124 B(  3-C , 28-C ) :   0.9321
B(  3-C , 33-H ) :   0.9440 B(  3-C , 34-H ) :   0.9472 B(  4-S ,  8-O ) :   1.8165
B(  4-S ,  9-F ) :   1.1119 B(  4-S , 12-O ) :   2.0109 B( 13-C , 16-C ) :   0.8953
B( 13-C , 17-H ) :   0.9816 B( 13-C , 18-H ) :   0.9769 B( 16-C , 19-C ) :   0.9353
B( 16-C , 20-H ) :   0.9746 B( 16-C , 21-H ) :   0.9915 B( 19-C , 22-C ) :   0.9413
B( 19-C , 23-H ) :   0.9881 B( 19-C , 24-H ) :   0.9901 B( 22-C , 25-C ) :   0.9063
B( 22-C , 26-H ) :   0.9833 B( 22-C , 27-H ) :   0.9783 B( 25-C , 28-C ) :   0.9132
B( 25-C , 29-H ) :   0.9615 B( 25-C , 30-H ) :   0.9843 B( 28-C , 31-H ) :   0.9708
B( 28-C , 32-H ) :   0.9558

FINAL SINGLE POINT ENERGY     -1040.053026021623

DIPOLE MOMENT
-------------
                                X             Y             Z
Electronic contribution:     -9.55476     -19.52277     -11.03948
Nuclear contribution   :      8.71934      19.48829      12.54264
                        -----------------------------------------
Total Dipole Moment    :     -0.83542      -0.03448       1.50316
                        -----------------------------------------
Magnitude (a.u.)       :      1.72006
Magnitude (Debye)      :      4.37205

Rotational constants in cm-1:     0.025810     0.015137     0.010647
Rotational constants in MHz :   773.773140   453.802427   319.195213

                             ****ORCA TERMINATED NORMALLY****
TOTAL RUN TIME: 0 days 0 hours 1 minutes 6 seconds 937 msec
