                         Program Version 5.0.0 -  RELEASE  -
|  1> !LC-PBE RIJCOSX def2-TZVP def2/J TightSCF xyzfile
|  2>
|  3> *xyzfile 0 1 D3.xyz
|  4>
|  5> %MaxCore 64000
|  6>
|  7> %pal nprocs 18
|  8> end
|  9>
| 10> %scf
| 11>   MaxIter 150
| 12> end
| 13>
| 14>
| 15>                          ****END OF INPUT****

CARTESIAN COORDINATES (ANGSTROEM)
---------------------------------
  C     -2.160376   -1.369486   -3.467104
  C     -3.030108   -1.910857   -4.541074
  C     -2.047717    0.146583   -3.511774
  C     -7.330440   -2.678991   -3.206811
  S     -6.019659   -2.926965   -4.419128
  H     -3.477443   -2.791513   -4.257096
  H     -2.538013   -2.017860   -5.438075
  H     -3.891589   -1.376039   -4.714365
  O     -5.645830   -1.588384   -4.919307
  O     -4.881961   -3.503697   -3.667235
  H     -1.184438   -1.843997   -3.566393
  H     -2.598195   -1.708376   -2.528477
  F     -6.549267   -3.805150   -5.425071
  C     -3.328755    0.875037   -3.103669
  H     -1.740034    0.452343   -4.517126
  H     -1.232611    0.434938   -2.842208
  C     -3.628487    0.771601   -1.609363
  H     -4.175106    0.490791   -3.682203
  H     -3.237812    1.928663   -3.381480
  C     -4.975718    1.361432   -1.190644
  H     -2.830700    1.276234   -1.054766
  H     -3.594312   -0.275838   -1.294603
  C     -6.184720    0.784347   -1.926464
  H     -4.956292    2.445725   -1.342200
  H     -5.097256    1.205252   -0.114136
  C     -6.286921   -0.735882   -1.893531
  H     -6.163994    1.100199   -2.974250
  H     -7.094530    1.223459   -1.504509
  C     -7.468999   -1.246153   -2.713833
  H     -6.360641   -1.090347   -0.859176
  H     -5.369848   -1.171853   -2.295982
  H     -7.601914   -0.601349   -3.585329
  H     -8.389791   -1.173436   -2.126922
  H     -7.118254   -3.379818   -2.398055
  H     -8.241838   -3.004745   -3.706513

 Total Charge           Charge          ....    0
 Multiplicity           Mult            ....    1
 Number of Electrons    NEL             ....  122
 Basis Dimension        Dim             ....  566

ORBITAL ENERGIES
----------------

  NO   OCC          E(Eh)            E(eV)
   0   2.0000     -88.545794     -2409.4536
   1   2.0000     -24.627645      -670.1523
   2   2.0000     -18.993455      -516.8382
   3   2.0000     -18.990232      -516.7505
   4   2.0000     -10.186551      -277.1901
   5   2.0000     -10.143889      -276.0293
   6   2.0000     -10.116559      -275.2856
   7   2.0000     -10.108701      -275.0718
   8   2.0000     -10.102903      -274.9140
   9   2.0000     -10.094467      -274.6844
  10   2.0000     -10.088283      -274.5161
  11   2.0000     -10.082457      -274.3576
  12   2.0000     -10.070923      -274.0437
  13   2.0000     -10.012868      -272.4640
  14   2.0000      -8.157028      -221.9640
  15   2.0000      -6.177446      -168.0968
  16   2.0000      -6.170211      -167.9000
  17   2.0000      -6.169974      -167.8935
  18   2.0000      -1.560715       -42.4692
  19   2.0000      -1.281032       -34.8586
  20   2.0000      -1.174626       -31.9632
  21   2.0000      -1.025035       -27.8926
  22   2.0000      -0.989891       -26.9363
  23   2.0000      -0.957395       -26.0521
  24   2.0000      -0.932306       -25.3693
  25   2.0000      -0.892143       -24.2764
  26   2.0000      -0.869497       -23.6602
  27   2.0000      -0.830348       -22.5949
  28   2.0000      -0.793615       -21.5954
  29   2.0000      -0.773146       -21.0384
  30   2.0000      -0.759023       -20.6541
  31   2.0000      -0.749500       -20.3949
  32   2.0000      -0.723088       -19.6762
  33   2.0000      -0.714659       -19.4469
  34   2.0000      -0.688140       -18.7252
  35   2.0000      -0.650880       -17.7113
  36   2.0000      -0.637158       -17.3380
  37   2.0000      -0.622113       -16.9286
  38   2.0000      -0.615923       -16.7601
  39   2.0000      -0.607058       -16.5189
  40   2.0000      -0.591440       -16.0939
  41   2.0000      -0.572918       -15.5899
  42   2.0000      -0.561276       -15.2731
  43   2.0000      -0.558080       -15.1861
  44   2.0000      -0.546759       -14.8781
  45   2.0000      -0.525310       -14.2944
  46   2.0000      -0.521380       -14.1875
  47   2.0000      -0.512456       -13.9446
  48   2.0000      -0.497390       -13.5347
  49   2.0000      -0.488942       -13.3048
  50   2.0000      -0.479368       -13.0443
  51   2.0000      -0.468868       -12.7586
  52   2.0000      -0.467857       -12.7310
  53   2.0000      -0.460598       -12.5335
  54   2.0000      -0.452423       -12.3110
  55   2.0000      -0.441482       -12.0133
  56   2.0000      -0.433659       -11.8005
  57   2.0000      -0.427977       -11.6458
  58   2.0000      -0.412213       -11.2169
  59   2.0000      -0.404190       -10.9986
  60   2.0000      -0.390532       -10.6269
  61   0.0000       0.100908         2.7459
  62   0.0000       0.109908         2.9907
  63   0.0000       0.127106         3.4587
  64   0.0000       0.134126         3.6498
  65   0.0000       0.136477         3.7137

MULLIKEN ATOMIC CHARGES
-----------------------
   0 C :   -0.283967
   1 C :   -0.522191
   2 C :   -0.233167
   3 C :   -0.333494
   4 S :    0.822898
   5 H :    0.184157
   6 H :    0.137931
   7 H :    0.173344
   8 O :   -0.430099
   9 O :   -0.427396
  10 H :    0.130781
  11 H :    0.138861
  12 F :   -0.065674
  13 C :   -0.332877
  14 H :    0.141055
  15 H :    0.131019
  16 C :   -0.358521
  17 H :    0.173741
  18 H :    0.143996
  19 C :   -0.239311
  20 H :    0.152284
  21 H :    0.165691
  22 C :   -0.369446
  23 H :    0.148233
  24 H :    0.146665
  25 C :   -0.314195
  26 H :    0.184578
  27 H :    0.150743
  28 C :   -0.320395
  29 H :    0.153941
  30 H :    0.181866
  31 H :    0.194200
  32 H :    0.169571
  33 H :    0.208182
  34 H :    0.196996
Sum of atomic charges:    0.0000000

LOEWDIN ATOMIC CHARGES
----------------------
   0 C :   -0.321014
   1 C :   -0.361144
   2 C :   -0.286340
   3 C :   -0.376947
   4 S :    0.551380
   5 H :    0.104151
   6 H :    0.106566
   7 H :    0.106977
   8 O :   -0.268815
   9 O :   -0.275935
  10 H :    0.139516
  11 H :    0.138891
  12 F :    0.122846
  13 C :   -0.283179
  14 H :    0.143737
  15 H :    0.140463
  16 C :   -0.289071
  17 H :    0.145848
  18 H :    0.142188
  19 C :   -0.286981
  20 H :    0.144446
  21 H :    0.142364
  22 C :   -0.290063
  23 H :    0.145263
  24 H :    0.143533
  25 C :   -0.283959
  26 H :    0.148467
  27 H :    0.143851
  28 C :   -0.298411
  29 H :    0.145328
  30 H :    0.151197
  31 H :    0.157468
  32 H :    0.154054
  33 H :    0.157577
  34 H :    0.145748

  Mayer bond orders larger than 0.100000
B(  0-C ,  1-C ) :   0.8819 B(  0-C ,  2-C ) :   0.9291 B(  0-C , 10-H ) :   0.9867
B(  0-C , 11-H ) :   1.0116 B(  1-C ,  5-H ) :   0.9672 B(  1-C ,  6-H ) :   0.9759
B(  1-C ,  7-H ) :   0.9810 B(  2-C , 13-C ) :   0.9623 B(  2-C , 14-H ) :   0.9795
B(  2-C , 15-H ) :   0.9869 B(  3-C ,  4-S ) :   0.9173 B(  3-C , 28-C ) :   0.9414
B(  3-C , 33-H ) :   0.9353 B(  3-C , 34-H ) :   0.9519 B(  4-S ,  8-O ) :   1.8374
B(  4-S ,  9-O ) :   1.8383 B(  4-S , 12-F ) :   1.2032 B( 13-C , 16-C ) :   0.9007
B( 13-C , 17-H ) :   0.9811 B( 13-C , 18-H ) :   0.9779 B( 16-C , 19-C ) :   0.9350
B( 16-C , 20-H ) :   0.9758 B( 16-C , 21-H ) :   0.9887 B( 19-C , 22-C ) :   0.9452
B( 19-C , 23-H ) :   0.9888 B( 19-C , 24-H ) :   0.9900 B( 22-C , 25-C ) :   0.9005
B( 22-C , 26-H ) :   0.9835 B( 22-C , 27-H ) :   0.9788 B( 25-C , 28-C ) :   0.9122
B( 25-C , 29-H ) :   0.9638 B( 25-C , 30-H ) :   0.9778 B( 28-C , 31-H ) :   0.9737
B( 28-C , 32-H ) :   0.9579

FINAL SINGLE POINT ENERGY     -1040.034433704076

DIPOLE MOMENT
-------------
                                X             Y             Z
Electronic contribution:    -12.73826     -20.30681     -14.29980
Nuclear contribution   :     10.70731      19.84772      14.63855
                        -----------------------------------------
Total Dipole Moment    :     -2.03094      -0.45909       0.33875
                        -----------------------------------------
Magnitude (a.u.)       :      2.10956
Magnitude (Debye)      :      5.36208

Rotational constants in cm-1:     0.026014     0.014812     0.010477
Rotational constants in MHz :   779.874765   444.063394   314.081855

                             ****ORCA TERMINATED NORMALLY****
TOTAL RUN TIME: 0 days 0 hours 1 minutes 11 seconds 811 msec
