                         Program Version 5.0.0 -  RELEASE  -
|  1> !wB97X-D3 RIJCOSX def2-SVPD def2/J TightSCF CPCM(Water)
|  2> *xyz -1 1
|  3> C          2.49556        1.81615       -2.13636
|  4> C          1.87218        0.42790       -2.07750
|  5> H          2.61427       -0.36583       -2.19889
|  6> H          1.38995        0.27309       -1.11236
|  7> S          0.57902        0.14047       -3.29794
|  8> O          0.22886       -1.24687       -3.12787
|  9> O         -0.43927        1.11897       -3.01455
| 10> O          1.24788        0.40347       -4.59565
| 11> H          2.96535        1.95613       -3.08747
| 12> H          3.22581        1.91242       -1.36024
| 13> H          1.73350        2.55528       -2.00274
| 14> *
| 15>
| 16> %MaxCore 64000
| 17>
| 18> %pal nprocs 18
| 19> end
| 20>
| 21> %scf
| 22>   MaxIter 150
| 23> end
| 24>
| 25>
| 26>                          ****END OF INPUT****

CARTESIAN COORDINATES (ANGSTROEM)
---------------------------------
  C      2.495560    1.816150   -2.136360
  C      1.872180    0.427900   -2.077500
  H      2.614270   -0.365830   -2.198890
  H      1.389950    0.273090   -1.112360
  S      0.579020    0.140470   -3.297940
  O      0.228860   -1.246870   -3.127870
  O     -0.439270    1.118970   -3.014550
  O      1.247880    0.403470   -4.595650
  H      2.965350    1.956130   -3.087470
  H      3.225810    1.912420   -1.360240
  H      1.733500    2.555280   -2.002740

 Total Charge           Charge          ....   -1
 Multiplicity           Mult            ....    1
 Number of Electrons    NEL             ....   58
 Basis Dimension        Dim             ....  176

ORBITAL ENERGIES
----------------

  NO   OCC          E(Eh)            E(eV)
   0   2.0000     -89.151576     -2425.9377
   1   2.0000     -19.209519      -522.7176
   2   2.0000     -19.208772      -522.6973
   3   2.0000     -19.196731      -522.3696
   4   2.0000     -10.295765      -280.1620
   5   2.0000     -10.273311      -279.5510
   6   2.0000      -8.226163      -223.8453
   7   2.0000      -6.185989      -168.3293
   8   2.0000      -6.185942      -168.3280
   9   2.0000      -6.184289      -168.2831
  10   2.0000      -1.232069       -33.5263
  11   2.0000      -1.092999       -29.7420
  12   2.0000      -1.067326       -29.0434
  13   2.0000      -0.884407       -24.0659
  14   2.0000      -0.757634       -20.6163
  15   2.0000      -0.652485       -17.7550
  16   2.0000      -0.590548       -16.0696
  17   2.0000      -0.568945       -15.4818
  18   2.0000      -0.555671       -15.1206
  19   2.0000      -0.539159       -14.6713
  20   2.0000      -0.501726       -13.6527
  21   2.0000      -0.469201       -12.7676
  22   2.0000      -0.447449       -12.1757
  23   2.0000      -0.438434       -11.9304
  24   2.0000      -0.436321       -11.8729
  25   2.0000      -0.395677       -10.7669
  26   2.0000      -0.383392       -10.4326
  27   2.0000      -0.367678       -10.0050
  28   2.0000      -0.347635        -9.4596
  29   0.0000       0.080764         2.1977
  30   0.0000       0.101542         2.7631
  31   0.0000       0.102454         2.7879
  32   0.0000       0.103057         2.8043
  33   0.0000       0.143912         3.9161

MULLIKEN ATOMIC CHARGES
-----------------------
   0 C :    0.678537
   1 C :   -0.384691
   2 H :   -0.020634
   3 H :    0.015246
   4 S :    1.313071
   5 O :   -0.815257
   6 O :   -0.815492
   7 O :   -0.866054
   8 H :   -0.042806
   9 H :   -0.031032
  10 H :   -0.030887
Sum of atomic charges:   -1.0000000

LOEWDIN ATOMIC CHARGES
----------------------
   0 C :    0.114689
   1 C :   -0.126154
   2 H :    0.019914
   3 H :    0.016085
   4 S :    0.847061
   5 O :   -0.602046
   6 O :   -0.598745
   7 O :   -0.630764
   8 H :   -0.017147
   9 H :   -0.008798
  10 H :   -0.014095

  Mayer bond orders larger than 0.100000
B(  0-C ,  1-C ) :   1.2737 B(  0-C ,  8-H ) :   0.8427 B(  0-C ,  9-H ) :   0.7808
B(  0-C , 10-H ) :   0.8251 B(  1-C ,  2-H ) :   1.0150 B(  1-C ,  3-H ) :   0.9790
B(  1-C ,  4-S ) :   0.9496 B(  1-C ,  8-H ) :   0.1738 B(  1-C ,  9-H ) :   0.1881
B(  1-C , 10-H ) :   0.1813 B(  4-S ,  5-O ) :   1.3520 B(  4-S ,  6-O ) :   1.3097
B(  4-S ,  7-O ) :   1.2581

Dispersion correction           -0.002932987
FINAL SINGLE POINT ENERGY      -702.796572534417

DIPOLE MOMENT
-------------
                                X             Y             Z
Electronic contribution:     -5.09719      -3.38039      -3.45404
Nuclear contribution   :      6.89220       4.11756       5.35566
                        -----------------------------------------
Total Dipole Moment    :      1.79501       0.73717       1.90162
                        -----------------------------------------
Magnitude (a.u.)       :      2.71691
Magnitude (Debye)      :      6.90584

Rotational constants in cm-1:     0.162183     0.084017     0.082390
Rotational constants in MHz :  4862.117324  2518.774315  2469.980309

                             ****ORCA TERMINATED NORMALLY****
TOTAL RUN TIME: 0 days 0 hours 0 minutes 10 seconds 244 msec
