                         Program Version 5.0.0 -  RELEASE  -
|  1> !wB97X-D3 RIJCOSX def2-SVPD def2/J TightSCF CPCM(Water)
|  2> *xyz 1 1
|  3> C          3.38093        2.08304       -3.35013
|  4> N          4.53592        1.18245       -3.42852
|  5> C          2.49556        1.81615       -2.13636
|  6> C          4.67196        0.12227       -4.22060
|  7> N          5.86602       -0.50785       -4.22428
|  8> N          3.69888       -0.31284       -4.98699
|  9> H          2.73141       -0.05009       -4.84900
| 10> H          3.89005       -1.05517       -5.64373
| 11> H          5.25193        1.30346       -2.72101
| 12> H          6.69516       -0.06232       -3.85160
| 13> H          5.97538       -1.39688       -4.69141
| 14> H          2.80646        1.98651       -4.26848
| 15> H          3.77871        3.09828       -3.30738
| 16> H          2.11090        0.81901       -2.18783
| 17> H          1.68276        2.51198       -2.12786
| 18> H          3.07216        1.93031       -1.24227
| 19> *
| 20>
| 21> %MaxCore 64000
| 22>
| 23> %pal nprocs 18
| 24> end
| 25>
| 26> %scf
| 27>   MaxIter 150
| 28> end
| 29>
| 30>
| 31>                          ****END OF INPUT****

CARTESIAN COORDINATES (ANGSTROEM)
---------------------------------
  C      3.380930    2.083040   -3.350130
  N      4.535920    1.182450   -3.428520
  C      2.495560    1.816150   -2.136360
  C      4.671960    0.122270   -4.220600
  N      5.866020   -0.507850   -4.224280
  N      3.698880   -0.312840   -4.986990
  H      2.731410   -0.050090   -4.849000
  H      3.890050   -1.055170   -5.643730
  H      5.251930    1.303460   -2.721010
  H      6.695160   -0.062320   -3.851600
  H      5.975380   -1.396880   -4.691410
  H      2.806460    1.986510   -4.268480
  H      3.778710    3.098280   -3.307380
  H      2.110900    0.819010   -2.187830
  H      1.682760    2.511980   -2.127860
  H      3.072160    1.930310   -1.242270

 Total Charge           Charge          ....    1
 Multiplicity           Mult            ....    1
 Number of Electrons    NEL             ....   48
 Basis Dimension        Dim             ....  200

ORBITAL ENERGIES
----------------

  NO   OCC          E(Eh)            E(eV)
   0   2.0000     -14.488749      -394.2589
   1   2.0000     -14.487012      -394.2116
   2   2.0000     -14.479589      -394.0096
   3   2.0000     -10.456660      -284.5402
   4   2.0000     -10.339281      -281.3461
   5   2.0000     -10.279923      -279.7309
   6   2.0000      -1.151225       -31.3264
   7   2.0000      -1.040567       -28.3153
   8   2.0000      -1.021311       -27.7913
   9   2.0000      -0.882914       -24.0253
  10   2.0000      -0.780334       -21.2340
  11   2.0000      -0.745166       -20.2770
  12   2.0000      -0.716535       -19.4979
  13   2.0000      -0.675106       -18.3706
  14   2.0000      -0.619951       -16.8697
  15   2.0000      -0.617299       -16.7976
  16   2.0000      -0.581091       -15.8123
  17   2.0000      -0.565742       -15.3946
  18   2.0000      -0.546759       -14.8781
  19   2.0000      -0.501890       -13.6571
  20   2.0000      -0.478751       -13.0275
  21   2.0000      -0.458086       -12.4651
  22   2.0000      -0.398966       -10.8564
  23   2.0000      -0.372985       -10.1494
  24   0.0000       0.080707         2.1961
  25   0.0000       0.089137         2.4255
  26   0.0000       0.116565         3.1719
  27   0.0000       0.127607         3.4724
  28   0.0000       0.130532         3.5520

MULLIKEN ATOMIC CHARGES
-----------------------
   0 C :    0.270494
   1 N :   -0.533999
   2 C :    0.497689
   3 C :    1.376897
   4 N :   -0.169448
   5 N :   -0.114582
   6 H :   -0.012166
   7 H :   -0.000878
   8 H :   -0.171274
   9 H :   -0.005036
  10 H :    0.041303
  11 H :   -0.051499
  12 H :   -0.142040
  13 H :   -0.037885
  14 H :    0.063765
  15 H :   -0.011341
Sum of atomic charges:    1.0000000

LOEWDIN ATOMIC CHARGES
----------------------
   0 C :    0.046585
   1 N :    0.037703
   2 C :    0.140572
   3 C :   -0.030143
   4 N :    0.255541
   5 N :    0.276731
   6 H :    0.040034
   7 H :    0.050670
   8 H :    0.070202
   9 H :    0.042104
  10 H :    0.039830
  11 H :    0.024414
  12 H :    0.035932
  13 H :   -0.012595
  14 H :   -0.006767
  15 H :   -0.010814

  Mayer bond orders larger than 0.100000
B(  0-C ,  1-N ) :   0.8348 B(  0-C ,  2-C ) :   1.2581 B(  0-C ,  8-H ) :  -0.1965
B(  0-C , 11-H ) :   0.8971 B(  0-C , 12-H ) :   0.9522 B(  0-C , 13-H ) :   0.1870
B(  0-C , 14-H ) :   0.1569 B(  0-C , 15-H ) :   0.1896 B(  1-N ,  3-C ) :   0.9720
B(  1-N ,  4-N ) :   0.2415 B(  1-N ,  5-N ) :   0.2345 B(  1-N ,  8-H ) :   1.3710
B(  1-N , 11-H ) :   0.1388 B(  1-N , 12-H ) :   0.1448 B(  2-C , 13-H ) :   0.8533
B(  2-C , 14-H ) :   0.8111 B(  2-C , 15-H ) :   0.8354 B(  3-C ,  4-N ) :   0.8370
B(  3-C ,  5-N ) :   0.9507 B(  3-C ,  6-H ) :  -0.1534 B(  3-C ,  7-H ) :  -0.1228
B(  3-C ,  8-H ) :  -0.2240 B(  3-C ,  9-H ) :  -0.1464 B(  4-N ,  5-N ) :   0.1626
B(  4-N ,  9-H ) :   1.1860 B(  4-N , 10-H ) :   1.1495 B(  5-N ,  6-H ) :   1.1567
B(  5-N ,  7-H ) :   1.2102 B(  6-H ,  7-H ) :  -0.1856 B(  9-H , 10-H ) :  -0.1619

Dispersion correction           -0.003697503
FINAL SINGLE POINT ENERGY      -284.236534415168

DIPOLE MOMENT
-------------
                                X             Y             Z
Electronic contribution:      3.75389      -2.88620      -2.99890
Nuclear contribution   :     -2.93277       1.85779       2.25966
                        -----------------------------------------
Total Dipole Moment    :      0.82112      -1.02840      -0.73924
                        -----------------------------------------
Magnitude (a.u.)       :      1.50941
Magnitude (Debye)      :      3.83663

Rotational constants in cm-1:     0.245511     0.068839     0.059711
Rotational constants in MHz :  7360.233487  2063.743353  1790.088408

                             ****ORCA TERMINATED NORMALLY****
TOTAL RUN TIME: 0 days 0 hours 0 minutes 13 seconds 499 msec
