                         Program Version 5.0.0 -  RELEASE  -
|  1> !wB97X-D3 RIJCOSX def2-SVPD def2/J TightSCF CPCM(Water)
|  2> *xyz 0 1
|  3> C          2.49556        1.81615       -2.13636
|  4> C          1.87218        0.42790       -2.07750
|  5> H          2.61427       -0.36583       -2.19889
|  6> H          1.38995        0.27309       -1.11236
|  7> S          0.57902        0.14047       -3.29794
|  8> F          0.22886       -1.24687       -3.12787
|  9> O         -0.43927        1.11897       -3.01455
| 10> O          1.24788        0.40347       -4.59565
| 11> H          2.96535        1.95613       -3.08747
| 12> H          3.22581        1.91242       -1.36024
| 13> H          1.73350        2.55528       -2.00274
| 14> *
| 15>
| 16> %MaxCore 64000
| 17>
| 18> %pal nprocs 18
| 19> end
| 20>
| 21> %scf
| 22>   MaxIter 150
| 23> end
| 24>
| 25>
| 26>                          ****END OF INPUT****

CARTESIAN COORDINATES (ANGSTROEM)
---------------------------------
  C      2.495560    1.816150   -2.136360
  C      1.872180    0.427900   -2.077500
  H      2.614270   -0.365830   -2.198890
  H      1.389950    0.273090   -1.112360
  S      0.579020    0.140470   -3.297940
  F      0.228860   -1.246870   -3.127870
  O     -0.439270    1.118970   -3.014550
  O      1.247880    0.403470   -4.595650
  H      2.965350    1.956130   -3.087470
  H      3.225810    1.912420   -1.360240
  H      1.733500    2.555280   -2.002740

 Total Charge           Charge          ....    0
 Multiplicity           Mult            ....    1
 Number of Electrons    NEL             ....   58
 Basis Dimension        Dim             ....  176

ORBITAL ENERGIES
----------------

  NO   OCC          E(Eh)            E(eV)
   0   2.0000     -89.239905     -2428.3413
   1   2.0000     -24.919583      -678.0963
   2   2.0000     -19.269940      -524.3617
   3   2.0000     -19.257037      -524.0106
   4   2.0000     -10.337153      -281.2882
   5   2.0000     -10.292559      -280.0748
   6   2.0000      -8.314523      -226.2497
   7   2.0000      -6.278131      -170.8366
   8   2.0000      -6.272226      -170.6760
   9   2.0000      -6.270022      -170.6160
  10   2.0000      -1.492780       -40.6206
  11   2.0000      -1.235363       -33.6159
  12   2.0000      -1.128983       -30.7212
  13   2.0000      -0.923488       -25.1294
  14   2.0000      -0.843967       -22.9655
  15   2.0000      -0.774918       -21.0866
  16   2.0000      -0.695230       -18.9182
  17   2.0000      -0.687031       -18.6951
  18   2.0000      -0.666076       -18.1248
  19   2.0000      -0.590158       -16.0590
  20   2.0000      -0.584582       -15.9073
  21   2.0000      -0.554690       -15.0939
  22   2.0000      -0.523818       -14.2538
  23   2.0000      -0.496698       -13.5158
  24   2.0000      -0.489628       -13.3235
  25   2.0000      -0.469354       -12.7718
  26   2.0000      -0.441404       -12.0112
  27   2.0000      -0.422965       -11.5095
  28   2.0000      -0.415082       -11.2950
  29   0.0000       0.068190         1.8555
  30   0.0000       0.097499         2.6531
  31   0.0000       0.098887         2.6909
  32   0.0000       0.099815         2.7161
  33   0.0000       0.123118         3.3502

MULLIKEN ATOMIC CHARGES
-----------------------
   0 C :    0.624328
   1 C :   -0.485676
   2 H :    0.064643
   3 H :    0.098094
   4 S :    1.568762
   5 F :   -0.407266
   6 O :   -0.698458
   7 O :   -0.750240
   8 H :   -0.013354
   9 H :    0.002191
  10 H :   -0.003025
Sum of atomic charges:    0.0000000

LOEWDIN ATOMIC CHARGES
----------------------
   0 C :    0.142604
   1 C :   -0.085424
   2 H :    0.037079
   3 H :    0.032584
   4 S :    1.133676
   5 F :   -0.238419
   6 O :   -0.494664
   7 O :   -0.525428
   8 H :   -0.005620
   9 H :    0.006430
  10 H :   -0.002819

  Mayer bond orders larger than 0.100000
B(  0-C ,  1-C ) :   1.3140 B(  0-C ,  8-H ) :   0.8491 B(  0-C ,  9-H ) :   0.7966
B(  0-C , 10-H ) :   0.8311 B(  1-C ,  2-H ) :   0.9999 B(  1-C ,  3-H ) :   0.9641
B(  1-C ,  4-S ) :   0.9844 B(  1-C ,  8-H ) :   0.1682 B(  1-C ,  9-H ) :   0.1790
B(  1-C , 10-H ) :   0.1739 B(  4-S ,  5-F ) :   0.6998 B(  4-S ,  6-O ) :   1.4919
B(  4-S ,  7-O ) :   1.4433

Dispersion correction           -0.002931511
FINAL SINGLE POINT ENERGY      -727.189684396296

DIPOLE MOMENT
-------------
                                X             Y             Z
Electronic contribution:     -6.57530      -6.66028      -3.62563
Nuclear contribution   :      7.60530       5.82028       5.38743
                        -----------------------------------------
Total Dipole Moment    :      1.02999      -0.84000       1.76180
                        -----------------------------------------
Magnitude (a.u.)       :      2.20691
Magnitude (Debye)      :      5.60951

Rotational constants in cm-1:     0.157861     0.081452     0.078859
Rotational constants in MHz :  4732.562506  2441.865430  2364.129821

                             ****ORCA TERMINATED NORMALLY****
TOTAL RUN TIME: 0 days 0 hours 0 minutes 11 seconds 707 msec
