                         Program Version 5.0.0 -  RELEASE  -
|  1> !wB97X-D3 RIJCOSX def2-SVPD def2/J TightSCF CPCM(Water)
|  2> *xyz 0 1
|  3> C          3.38093        2.08304       -3.35013
|  4> C          4.53592        1.18245       -3.42852
|  5> C          2.49556        1.81615       -2.13636
|  6> C          4.67196        0.12227       -4.22060
|  7> N          5.86602       -0.50785       -4.22428
|  8> N          3.69888       -0.31284       -4.98699
|  9> H          2.73141       -0.05009       -4.84900
| 10> H          3.89005       -1.05517       -5.64373
| 11> H          5.25193        1.30346       -2.72101
| 12> H          6.69516       -0.06232       -3.85160
| 13> H          5.97538       -1.39688       -4.69141
| 14> H          2.80646        1.98651       -4.26848
| 15> H          3.77871        3.09828       -3.30738
| 16> H          2.11090        0.81901       -2.18783
| 17> H          1.68276        2.51198       -2.12786
| 18> H          3.07216        1.93031       -1.24227
| 19> *
| 20>
| 21> %MaxCore 64000
| 22>
| 23> %pal nprocs 18
| 24> end
| 25>
| 26> %scf
| 27>   MaxIter 150
| 28> end
| 29>
| 30>
| 31>                          ****END OF INPUT****

CARTESIAN COORDINATES (ANGSTROEM)
---------------------------------
  C      3.380930    2.083040   -3.350130
  C      4.535920    1.182450   -3.428520
  C      2.495560    1.816150   -2.136360
  C      4.671960    0.122270   -4.220600
  N      5.866020   -0.507850   -4.224280
  N      3.698880   -0.312840   -4.986990
  H      2.731410   -0.050090   -4.849000
  H      3.890050   -1.055170   -5.643730
  H      5.251930    1.303460   -2.721010
  H      6.695160   -0.062320   -3.851600
  H      5.975380   -1.396880   -4.691410
  H      2.806460    1.986510   -4.268480
  H      3.778710    3.098280   -3.307380
  H      2.110900    0.819010   -2.187830
  H      1.682760    2.511980   -2.127860
  H      3.072160    1.930310   -1.242270

 Total Charge           Charge          ....    0
 Multiplicity           Mult            ....    1
 Number of Electrons    NEL             ....   48
 Basis Dimension        Dim             ....  200

ORBITAL ENERGIES
----------------

  NO   OCC          E(Eh)            E(eV)
   0   2.0000     -14.432764      -392.7355
   1   2.0000     -14.426903      -392.5760
   2   2.0000     -10.337502      -281.2977
   3   2.0000     -10.267323      -279.3881
   4   2.0000     -10.259195      -279.1669
   5   2.0000     -10.213065      -277.9116
   6   2.0000      -1.067274       -29.0420
   7   2.0000      -0.969810       -26.3899
   8   2.0000      -0.885329       -24.0910
   9   2.0000      -0.803607       -21.8673
  10   2.0000      -0.721928       -19.6447
  11   2.0000      -0.679908       -18.5012
  12   2.0000      -0.641696       -17.4614
  13   2.0000      -0.606058       -16.4917
  14   2.0000      -0.572261       -15.5720
  15   2.0000      -0.543043       -14.7769
  16   2.0000      -0.518497       -14.1090
  17   2.0000      -0.496729       -13.5167
  18   2.0000      -0.478434       -13.0189
  19   2.0000      -0.451375       -12.2825
  20   2.0000      -0.425144       -11.5688
  21   2.0000      -0.417685       -11.3658
  22   2.0000      -0.356473        -9.7001
  23   2.0000      -0.248654        -6.7662
  24   0.0000       0.095927         2.6103
  25   0.0000       0.117128         3.1872
  26   0.0000       0.131844         3.5876
  27   0.0000       0.132229         3.5981
  28   0.0000       0.158748         4.3197

MULLIKEN ATOMIC CHARGES
-----------------------
   0 C :   -0.174172
   1 C :   -0.334887
   2 C :    0.550480
   3 C :    0.862730
   4 N :   -0.089264
   5 N :   -0.036328
   6 H :   -0.033249
   7 H :   -0.146008
   8 H :   -0.303838
   9 H :   -0.024269
  10 H :   -0.062334
  11 H :   -0.082409
  12 H :   -0.042679
  13 H :   -0.075755
  14 H :    0.018746
  15 H :   -0.026763
Sum of atomic charges:   -0.0000000

LOEWDIN ATOMIC CHARGES
----------------------
   0 C :   -0.106764
   1 C :   -0.061808
   2 C :    0.106649
   3 C :   -0.239008
   4 N :    0.174570
   5 N :    0.196181
   6 H :    0.013474
   7 H :    0.012262
   8 H :   -0.054692
   9 H :    0.011069
  10 H :    0.001078
  11 H :    0.002451
  12 H :    0.009634
  13 H :   -0.021017
  14 H :   -0.024385
  15 H :   -0.019694

  Mayer bond orders larger than 0.100000
B(  0-C ,  1-C ) :   1.1907 B(  0-C ,  2-C ) :   1.2155 B(  0-C ,  8-H ) :   0.2273
B(  0-C , 11-H ) :   0.8925 B(  0-C , 12-H ) :   0.8722 B(  0-C , 13-H ) :   0.1839
B(  0-C , 14-H ) :   0.1593 B(  0-C , 15-H ) :   0.1937 B(  1-C ,  3-C ) :   1.6711
B(  1-C ,  4-N ) :   0.4262 B(  1-C ,  5-N ) :   0.2552 B(  1-C ,  8-H ) :   0.8662
B(  1-C , 11-H ) :   0.2459 B(  1-C , 12-H ) :   0.1415 B(  2-C , 13-H ) :   0.8677
B(  2-C , 14-H ) :   0.8204 B(  2-C , 15-H ) :   0.8186 B(  3-C ,  4-N ) :   0.7693
B(  3-C ,  5-N ) :   1.0165 B(  3-C ,  7-H ) :  -0.1579 B(  3-C ,  8-H ) :   0.1348
B(  3-C ,  9-H ) :  -0.1191 B(  4-N ,  9-H ) :   1.1885 B(  4-N , 10-H ) :   1.1400
B(  5-N ,  6-H ) :   1.1268 B(  5-N ,  7-H ) :   1.3043 B(  6-H ,  7-H ) :  -0.1812
B(  9-H , 10-H ) :  -0.1545

Dispersion correction           -0.003690831
FINAL SINGLE POINT ENERGY      -267.682246458831

DIPOLE MOMENT
-------------
                                X             Y             Z
Electronic contribution:      2.93967      -3.08743      -3.09092
Nuclear contribution   :     -2.84307       1.95814       2.32378
                        -----------------------------------------
Total Dipole Moment    :      0.09659      -1.12929      -0.76714
                        -----------------------------------------
Magnitude (a.u.)       :      1.36862
Magnitude (Debye)      :      3.47877

Rotational constants in cm-1:     0.248902     0.068887     0.059904
Rotational constants in MHz :  7461.898926  2065.183281  1795.882140

                             ****ORCA TERMINATED NORMALLY****
TOTAL RUN TIME: 0 days 0 hours 0 minutes 14 seconds 461 msec
