                         Program Version 5.0.0 -  RELEASE  -
|  1> !wB97X-D3 RIJCOSX def2-SVPD def2/J TightSCF CPCM(Water)
|  2> *xyz 0 1
|  3> C          2.49556        1.81615       -2.13636
|  4> C          1.87218        0.42790       -2.07750
|  5> H          2.61427       -0.36583       -2.19889
|  6> H          1.38995        0.27309       -1.11236
|  7> S          0.57902        0.14047       -3.29794
|  8> O          0.22886       -1.24687       -3.12787
|  9> F         -0.43927        1.11897       -3.01455
| 10> O          1.24788        0.40347       -4.59565
| 11> H          2.96535        1.95613       -3.08747
| 12> H          3.22581        1.91242       -1.36024
| 13> H          1.73350        2.55528       -2.00274
| 14> *
| 15>
| 16> %MaxCore 64000
| 17>
| 18> %pal nprocs 18
| 19> end
| 20>
| 21> %scf
| 22>   MaxIter 150
| 23> end
| 24>
| 25>
| 26>                          ****END OF INPUT****

CARTESIAN COORDINATES (ANGSTROEM)
---------------------------------
  C      2.495560    1.816150   -2.136360
  C      1.872180    0.427900   -2.077500
  H      2.614270   -0.365830   -2.198890
  H      1.389950    0.273090   -1.112360
  S      0.579020    0.140470   -3.297940
  O      0.228860   -1.246870   -3.127870
  F     -0.439270    1.118970   -3.014550
  O      1.247880    0.403470   -4.595650
  H      2.965350    1.956130   -3.087470
  H      3.225810    1.912420   -1.360240
  H      1.733500    2.555280   -2.002740

 Total Charge           Charge          ....    0
 Multiplicity           Mult            ....    1
 Number of Electrons    NEL             ....   58
 Basis Dimension        Dim             ....  176

ORBITAL ENERGIES
----------------

  NO   OCC          E(Eh)            E(eV)
   0   2.0000     -89.240104     -2428.3467
   1   2.0000     -24.919435      -678.0923
   2   2.0000     -19.270612      -524.3800
   3   2.0000     -19.257550      -524.0246
   4   2.0000     -10.337370      -281.2941
   5   2.0000     -10.290352      -280.0147
   6   2.0000      -8.314696      -226.2544
   7   2.0000      -6.278390      -170.8437
   8   2.0000      -6.272343      -170.6791
   9   2.0000      -6.270179      -170.6202
  10   2.0000      -1.493119       -40.6298
  11   2.0000      -1.234960       -33.6050
  12   2.0000      -1.130141       -30.7527
  13   2.0000      -0.924770       -25.1643
  14   2.0000      -0.839245       -22.8370
  15   2.0000      -0.777120       -21.1465
  16   2.0000      -0.699551       -19.0357
  17   2.0000      -0.692766       -18.8511
  18   2.0000      -0.658686       -17.9238
  19   2.0000      -0.588980       -16.0270
  20   2.0000      -0.574553       -15.6344
  21   2.0000      -0.562536       -15.3074
  22   2.0000      -0.527086       -14.3427
  23   2.0000      -0.504555       -13.7296
  24   2.0000      -0.485922       -13.2226
  25   2.0000      -0.465210       -12.6590
  26   2.0000      -0.440823       -11.9954
  27   2.0000      -0.422031       -11.4841
  28   2.0000      -0.417821       -11.3695
  29   0.0000       0.067356         1.8328
  30   0.0000       0.097416         2.6508
  31   0.0000       0.097857         2.6628
  32   0.0000       0.100268         2.7284
  33   0.0000       0.127601         3.4722

MULLIKEN ATOMIC CHARGES
-----------------------
   0 C :    0.633665
   1 C :   -0.473866
   2 H :    0.056344
   3 H :    0.086707
   4 S :    1.543465
   5 O :   -0.693530
   6 F :   -0.392743
   7 O :   -0.752822
   8 H :   -0.011377
   9 H :    0.000620
  10 H :    0.003537
Sum of atomic charges:   -0.0000000

LOEWDIN ATOMIC CHARGES
----------------------
   0 C :    0.132721
   1 C :   -0.078604
   2 H :    0.045089
   3 H :    0.032936
   4 S :    1.130536
   5 O :   -0.496170
   6 F :   -0.236573
   7 O :   -0.523585
   8 H :   -0.007990
   9 H :    0.003430
  10 H :   -0.001790

  Mayer bond orders larger than 0.100000
B(  0-C ,  1-C ) :   1.2884 B(  0-C ,  8-H ) :   0.8542 B(  0-C ,  9-H ) :   0.7860
B(  0-C , 10-H ) :   0.8254 B(  1-C ,  2-H ) :   1.0132 B(  1-C ,  3-H ) :   0.9745
B(  1-C ,  4-S ) :   1.0079 B(  1-C ,  8-H ) :   0.1710 B(  1-C ,  9-H ) :   0.1811
B(  1-C , 10-H ) :   0.1750 B(  4-S ,  5-O ) :   1.5311 B(  4-S ,  6-F ) :   0.6850
B(  4-S ,  7-O ) :   1.4574

Dispersion correction           -0.002903666
FINAL SINGLE POINT ENERGY      -727.189982149282

DIPOLE MOMENT
-------------
                                X             Y             Z
Electronic contribution:     -7.85742      -2.14250      -3.40413
Nuclear contribution   :      8.30151       3.35500       5.26935
                        -----------------------------------------
Total Dipole Moment    :      0.44409       1.21250       1.86522
                        -----------------------------------------
Magnitude (a.u.)       :      2.26857
Magnitude (Debye)      :      5.76625

Rotational constants in cm-1:     0.152913     0.083043     0.080351
Rotational constants in MHz :  4584.227971  2489.580280  2408.872860

                             ****ORCA TERMINATED NORMALLY****
TOTAL RUN TIME: 0 days 0 hours 0 minutes 11 seconds 967 msec
