                         Program Version 5.0.0 -  RELEASE  -
|  1> !wB97X-D3 RIJCOSX def2-SVPD def2/J TightSCF CPCM(Water)
|  2> *xyz 0 1
|  3> C          3.38093        2.08304       -3.35013
|  4> N          4.53592        1.18245       -3.42852
|  5> C          2.49556        1.81615       -2.13636
|  6> C          4.67196        0.12227       -4.22060
|  7> C          5.86602       -0.50785       -4.22428
|  8> N          3.69888       -0.31284       -4.98699
|  9> H          2.73141       -0.05009       -4.84900
| 10> H          3.89005       -1.05517       -5.64373
| 11> H          5.25193        1.30346       -2.72101
| 12> H          6.69516       -0.06232       -3.85160
| 13> H          5.97538       -1.39688       -4.69141
| 14> H          2.80646        1.98651       -4.26848
| 15> H          3.77871        3.09828       -3.30738
| 16> H          2.11090        0.81901       -2.18783
| 17> H          1.68276        2.51198       -2.12786
| 18> H          3.07216        1.93031       -1.24227
| 19> *
| 20>
| 21> %MaxCore 64000
| 22>
| 23> %pal nprocs 18
| 24> end
| 25>
| 26> %scf
| 27>   MaxIter 150
| 28> end
| 29>
| 30>
| 31>                          ****END OF INPUT****

CARTESIAN COORDINATES (ANGSTROEM)
---------------------------------
  C      3.380930    2.083040   -3.350130
  N      4.535920    1.182450   -3.428520
  C      2.495560    1.816150   -2.136360
  C      4.671960    0.122270   -4.220600
  C      5.866020   -0.507850   -4.224280
  N      3.698880   -0.312840   -4.986990
  H      2.731410   -0.050090   -4.849000
  H      3.890050   -1.055170   -5.643730
  H      5.251930    1.303460   -2.721010
  H      6.695160   -0.062320   -3.851600
  H      5.975380   -1.396880   -4.691410
  H      2.806460    1.986510   -4.268480
  H      3.778710    3.098280   -3.307380
  H      2.110900    0.819010   -2.187830
  H      1.682760    2.511980   -2.127860
  H      3.072160    1.930310   -1.242270

 Total Charge           Charge          ....    0
 Multiplicity           Mult            ....    1
 Number of Electrons    NEL             ....   48
 Basis Dimension        Dim             ....  200

ORBITAL ENERGIES
----------------

  NO   OCC          E(Eh)            E(eV)
   0   2.0000     -14.436829      -392.8461
   1   2.0000     -14.435960      -392.8224
   2   2.0000     -10.348333      -281.5925
   3   2.0000     -10.318639      -280.7844
   4   2.0000     -10.269501      -279.4473
   5   2.0000     -10.205963      -277.7184
   6   2.0000      -1.079119       -29.3643
   7   2.0000      -0.992592       -27.0098
   8   2.0000      -0.874015       -23.7832
   9   2.0000      -0.806621       -21.9493
  10   2.0000      -0.727985       -19.8095
  11   2.0000      -0.704377       -19.1671
  12   2.0000      -0.645201       -17.5568
  13   2.0000      -0.597867       -16.2688
  14   2.0000      -0.574033       -15.6202
  15   2.0000      -0.539693       -14.6858
  16   2.0000      -0.522447       -14.2165
  17   2.0000      -0.500473       -13.6186
  18   2.0000      -0.489776       -13.3275
  19   2.0000      -0.458363       -12.4727
  20   2.0000      -0.454780       -12.3752
  21   2.0000      -0.443912       -12.0795
  22   2.0000      -0.346297        -9.4232
  23   2.0000      -0.256062        -6.9678
  24   0.0000       0.092656         2.5213
  25   0.0000       0.117062         3.1854
  26   0.0000       0.127207         3.4615
  27   0.0000       0.135032         3.6744
  28   0.0000       0.148461         4.0398

MULLIKEN ATOMIC CHARGES
-----------------------
   0 C :    0.276373
   1 N :   -0.415386
   2 C :    0.541314
   3 C :    0.573832
   4 C :    0.445264
   5 N :    0.031205
   6 H :   -0.109920
   7 H :   -0.029315
   8 H :   -0.220619
   9 H :   -0.381885
  10 H :   -0.369387
  11 H :   -0.092845
  12 H :   -0.196080
  13 H :   -0.065592
  14 H :    0.047676
  15 H :   -0.034636
Sum of atomic charges:   -0.0000000

LOEWDIN ATOMIC CHARGES
----------------------
   0 C :    0.022586
   1 N :   -0.018494
   2 C :    0.126784
   3 C :   -0.252596
   4 C :    0.100019
   5 N :    0.200016
   6 H :    0.007764
   7 H :    0.023261
   8 H :    0.045532
   9 H :   -0.119292
  10 H :   -0.122684
  11 H :    0.013691
  12 H :    0.021705
  13 H :   -0.017834
  14 H :   -0.014282
  15 H :   -0.016176

  Mayer bond orders larger than 0.100000
B(  0-C ,  1-N ) :   0.8734 B(  0-C ,  2-C ) :   1.2513 B(  0-C ,  8-H ) :  -0.1982
B(  0-C , 11-H ) :   0.8998 B(  0-C , 12-H ) :   0.9438 B(  0-C , 13-H ) :   0.1967
B(  0-C , 14-H ) :   0.1669 B(  0-C , 15-H ) :   0.2009 B(  1-N ,  3-C ) :   1.0381
B(  1-N ,  4-C ) :   0.2210 B(  1-N ,  5-N ) :   0.1762 B(  1-N ,  8-H ) :   1.3054
B(  1-N , 11-H ) :   0.1560 B(  1-N , 12-H ) :   0.1426 B(  2-C , 13-H ) :   0.8546
B(  2-C , 14-H ) :   0.8008 B(  2-C , 15-H ) :   0.8261 B(  3-C ,  4-C ) :   1.5483
B(  3-C ,  5-N ) :   1.0781 B(  3-C ,  8-H ) :  -0.2062 B(  3-C , 10-H ) :   0.2021
B(  4-C ,  5-N ) :   0.1713 B(  4-C ,  9-H ) :   0.8806 B(  4-C , 10-H ) :   0.7710
B(  5-N ,  6-H ) :   1.1707 B(  5-N ,  7-H ) :   1.1730 B(  6-H ,  7-H ) :  -0.1785

Dispersion correction           -0.003724561
FINAL SINGLE POINT ENERGY      -267.671820597448

DIPOLE MOMENT
-------------
                                X             Y             Z
Electronic contribution:      1.04175      -0.89330      -2.02540
Nuclear contribution   :     -2.56090       1.59955       2.15496
                        -----------------------------------------
Total Dipole Moment    :     -1.51915       0.70625       0.12956
                        -----------------------------------------
Magnitude (a.u.)       :      1.68030
Magnitude (Debye)      :      4.27097

Rotational constants in cm-1:     0.249834     0.071381     0.061833
Rotational constants in MHz :  7489.842787  2139.945635  1853.706310

                             ****ORCA TERMINATED NORMALLY****
TOTAL RUN TIME: 0 days 0 hours 0 minutes 14 seconds 193 msec
