                         Program Version 5.0.0 -  RELEASE  -
|  1> !wB97X-D3 RIJCOSX def2-SVPD def2/J TightSCF CPCM(Water)
|  2> *xyz 0 1
|  3> C          2.49556        1.81615       -2.13636
|  4> C          1.87218        0.42790       -2.07750
|  5> H          2.61427       -0.36583       -2.19889
|  6> H          1.38995        0.27309       -1.11236
|  7> S          0.57902        0.14047       -3.29794
|  8> O          0.22886       -1.24687       -3.12787
|  9> O         -0.43927        1.11897       -3.01455
| 10> F          1.24788        0.40347       -4.59565
| 11> H          2.96535        1.95613       -3.08747
| 12> H          3.22581        1.91242       -1.36024
| 13> H          1.73350        2.55528       -2.00274
| 14> *
| 15>
| 16> %MaxCore 64000
| 17>
| 18> %pal nprocs 18
| 19> end
| 20>
| 21> %scf
| 22>   MaxIter 150
| 23> end
| 24>
| 25>
| 26>                          ****END OF INPUT****

CARTESIAN COORDINATES (ANGSTROEM)
---------------------------------
  C      2.495560    1.816150   -2.136360
  C      1.872180    0.427900   -2.077500
  H      2.614270   -0.365830   -2.198890
  H      1.389950    0.273090   -1.112360
  S      0.579020    0.140470   -3.297940
  O      0.228860   -1.246870   -3.127870
  O     -0.439270    1.118970   -3.014550
  F      1.247880    0.403470   -4.595650
  H      2.965350    1.956130   -3.087470
  H      3.225810    1.912420   -1.360240
  H      1.733500    2.555280   -2.002740

 Total Charge           Charge          ....    0
 Multiplicity           Mult            ....    1
 Number of Electrons    NEL             ....   58
 Basis Dimension        Dim             ....  176

ORBITAL ENERGIES
----------------

  NO   OCC          E(Eh)            E(eV)
   0   2.0000     -89.237180     -2428.2671
   1   2.0000     -24.899510      -677.5501
   2   2.0000     -19.269980      -524.3628
   3   2.0000     -19.269756      -524.3567
   4   2.0000     -10.336361      -281.2667
   5   2.0000     -10.290466      -280.0178
   6   2.0000      -8.311766      -226.1746
   7   2.0000      -6.275295      -170.7595
   8   2.0000      -6.269579      -170.6039
   9   2.0000      -6.267419      -170.5451
  10   2.0000      -1.458628       -39.6913
  11   2.0000      -1.244362       -33.8608
  12   2.0000      -1.150242       -31.2997
  13   2.0000      -0.923572       -25.1317
  14   2.0000      -0.826094       -22.4792
  15   2.0000      -0.771524       -20.9942
  16   2.0000      -0.682586       -18.5741
  17   2.0000      -0.671521       -18.2730
  18   2.0000      -0.658083       -17.9074
  19   2.0000      -0.590660       -16.0727
  20   2.0000      -0.573139       -15.5959
  21   2.0000      -0.564374       -15.3574
  22   2.0000      -0.529236       -14.4012
  23   2.0000      -0.509372       -13.8607
  24   2.0000      -0.488650       -13.2968
  25   2.0000      -0.465404       -12.6643
  26   2.0000      -0.449080       -12.2201
  27   2.0000      -0.431396       -11.7389
  28   2.0000      -0.426995       -11.6191
  29   0.0000       0.068262         1.8575
  30   0.0000       0.097575         2.6551
  31   0.0000       0.098110         2.6697
  32   0.0000       0.100235         2.7275
  33   0.0000       0.129272         3.5177

MULLIKEN ATOMIC CHARGES
-----------------------
   0 C :    0.627757
   1 C :   -0.471650
   2 H :    0.047091
   3 H :    0.092777
   4 S :    1.540946
   5 O :   -0.704436
   6 O :   -0.712597
   7 F :   -0.416323
   8 H :   -0.005129
   9 H :   -0.000600
  10 H :    0.002163
Sum of atomic charges:    0.0000000

LOEWDIN ATOMIC CHARGES
----------------------
   0 C :    0.132756
   1 C :   -0.078730
   2 H :    0.036866
   3 H :    0.040939
   4 S :    1.124874
   5 O :   -0.495976
   6 O :   -0.493024
   7 F :   -0.261692
   8 H :   -0.004002
   9 H :    0.003374
  10 H :   -0.005385

  Mayer bond orders larger than 0.100000
B(  0-C ,  1-C ) :   1.2880 B(  0-C ,  8-H ) :   0.8435 B(  0-C ,  9-H ) :   0.7866
B(  0-C , 10-H ) :   0.8373 B(  1-C ,  2-H ) :   1.0175 B(  1-C ,  3-H ) :   0.9745
B(  1-C ,  4-S ) :   1.0079 B(  1-C ,  8-H ) :   0.1667 B(  1-C ,  9-H ) :   0.1825
B(  1-C , 10-H ) :   0.1770 B(  4-S ,  5-O ) :   1.5272 B(  4-S ,  6-O ) :   1.5013
B(  4-S ,  7-F ) :   0.6403

Dispersion correction           -0.002901460
FINAL SINGLE POINT ENERGY      -727.206642180067

DIPOLE MOMENT
-------------
                                X             Y             Z
Electronic contribution:     -4.61129      -3.50575      -6.47190
Nuclear contribution   :      6.54345       4.10057       6.91691
                        -----------------------------------------
Total Dipole Moment    :      1.93215       0.59483       0.44501
                        -----------------------------------------
Magnitude (a.u.)       :      2.07004
Magnitude (Debye)      :      5.26163

Rotational constants in cm-1:     0.152835     0.082826     0.080611
Rotational constants in MHz :  4581.878371  2483.049050  2416.647141

                             ****ORCA TERMINATED NORMALLY****
TOTAL RUN TIME: 0 days 0 hours 0 minutes 10 seconds 972 msec
