                         Program Version 5.0.0 -  RELEASE  -
|  1> !wB97X-D3 RIJCOSX def2-SVPD def2/J TightSCF CPCM(Water)
|  2> *xyz 0 1
|  3> C          3.38093        2.08304       -3.35013
|  4> N          4.53592        1.18245       -3.42852
|  5> C          2.49556        1.81615       -2.13636
|  6> C          4.67196        0.12227       -4.22060
|  7> N          5.86602       -0.50785       -4.22428
|  8> C          3.69888       -0.31284       -4.98699
|  9> H          2.73141       -0.05009       -4.84900
| 10> H          3.89005       -1.05517       -5.64373
| 11> H          5.25193        1.30346       -2.72101
| 12> H          6.69516       -0.06232       -3.85160
| 13> H          5.97538       -1.39688       -4.69141
| 14> H          2.80646        1.98651       -4.26848
| 15> H          3.77871        3.09828       -3.30738
| 16> H          2.11090        0.81901       -2.18783
| 17> H          1.68276        2.51198       -2.12786
| 18> H          3.07216        1.93031       -1.24227
| 19> *
| 20>
| 21> %MaxCore 64000
| 22>
| 23> %pal nprocs 18
| 24> end
| 25>
| 26> %scf
| 27>   MaxIter 150
| 28> end
| 29>
| 30>
| 31>                          ****END OF INPUT****

CARTESIAN COORDINATES (ANGSTROEM)
---------------------------------
  C      3.380930    2.083040   -3.350130
  N      4.535920    1.182450   -3.428520
  C      2.495560    1.816150   -2.136360
  C      4.671960    0.122270   -4.220600
  N      5.866020   -0.507850   -4.224280
  C      3.698880   -0.312840   -4.986990
  H      2.731410   -0.050090   -4.849000
  H      3.890050   -1.055170   -5.643730
  H      5.251930    1.303460   -2.721010
  H      6.695160   -0.062320   -3.851600
  H      5.975380   -1.396880   -4.691410
  H      2.806460    1.986510   -4.268480
  H      3.778710    3.098280   -3.307380
  H      2.110900    0.819010   -2.187830
  H      1.682760    2.511980   -2.127860
  H      3.072160    1.930310   -1.242270

 Total Charge           Charge          ....    0
 Multiplicity           Mult            ....    1
 Number of Electrons    NEL             ....   48
 Basis Dimension        Dim             ....  200

ORBITAL ENERGIES
----------------

  NO   OCC          E(Eh)            E(eV)
   0   2.0000     -14.435208      -392.8020
   1   2.0000     -14.430319      -392.6689
   2   2.0000     -10.343985      -281.4741
   3   2.0000     -10.317054      -280.7413
   4   2.0000     -10.269232      -279.4400
   5   2.0000     -10.208830      -277.7964
   6   2.0000      -1.072368       -29.1806
   7   2.0000      -0.984056       -26.7775
   8   2.0000      -0.861665       -23.4471
   9   2.0000      -0.825011       -22.4497
  10   2.0000      -0.741752       -20.1841
  11   2.0000      -0.667090       -18.1524
  12   2.0000      -0.646327       -17.5874
  13   2.0000      -0.613941       -16.7062
  14   2.0000      -0.553487       -15.0612
  15   2.0000      -0.546661       -14.8754
  16   2.0000      -0.521887       -14.2013
  17   2.0000      -0.502337       -13.6693
  18   2.0000      -0.481618       -13.1055
  19   2.0000      -0.467273       -12.7151
  20   2.0000      -0.451396       -12.2831
  21   2.0000      -0.440701       -11.9921
  22   2.0000      -0.339208        -9.2303
  23   2.0000      -0.266617        -7.2550
  24   0.0000       0.096225         2.6184
  25   0.0000       0.118507         3.2248
  26   0.0000       0.125098         3.4041
  27   0.0000       0.129867         3.5339
  28   0.0000       0.153617         4.1801

MULLIKEN ATOMIC CHARGES
-----------------------
   0 C :    0.271089
   1 N :   -0.473363
   2 C :    0.524912
   3 C :    0.803028
   4 N :   -0.041891
   5 C :    0.154919
   6 H :   -0.202968
   7 H :   -0.402089
   8 H :   -0.280567
   9 H :   -0.115912
  10 H :    0.022751
  11 H :   -0.019776
  12 H :   -0.187200
  13 H :   -0.069588
  14 H :    0.040258
  15 H :   -0.023603
Sum of atomic charges:    0.0000000

LOEWDIN ATOMIC CHARGES
----------------------
   0 C :    0.025589
   1 N :   -0.024913
   2 C :    0.128601
   3 C :   -0.251627
   4 N :    0.181653
   5 C :    0.116187
   6 H :   -0.110308
   7 H :   -0.106365
   8 H :    0.039823
   9 H :    0.006184
  10 H :    0.011571
  11 H :    0.010906
  12 H :    0.022375
  13 H :   -0.018690
  14 H :   -0.014091
  15 H :   -0.016894

  Mayer bond orders larger than 0.100000
B(  0-C ,  1-N ) :   0.8325 B(  0-C ,  2-C ) :   1.2465 B(  0-C ,  8-H ) :  -0.1862
B(  0-C , 11-H ) :   0.8826 B(  0-C , 12-H ) :   0.9530 B(  0-C , 13-H ) :   0.1861
B(  0-C , 14-H ) :   0.1692 B(  0-C , 15-H ) :   0.1844 B(  1-N ,  3-C ) :   0.9114
B(  1-N ,  4-N ) :   0.1625 B(  1-N ,  5-C ) :   0.3567 B(  1-N ,  8-H ) :   1.4080
B(  1-N , 11-H ) :   0.1226 B(  1-N , 12-H ) :   0.1449 B(  2-C , 13-H ) :   0.8644
B(  2-C , 14-H ) :   0.8078 B(  2-C , 15-H ) :   0.8380 B(  3-C ,  4-N ) :   0.9479
B(  3-C ,  5-C ) :   1.6192 B(  3-C ,  6-H ) :   0.1338 B(  3-C ,  7-H ) :   0.1629
B(  3-C ,  8-H ) :  -0.2653 B(  3-C ,  9-H ) :  -0.1050 B(  4-N ,  5-C ) :   0.2598
B(  4-N ,  9-H ) :   1.2080 B(  4-N , 10-H ) :   1.1171 B(  5-C ,  6-H ) :   0.7208
B(  5-C ,  7-H ) :   0.9195 B(  9-H , 10-H ) :  -0.1625

Dispersion correction           -0.003700597
FINAL SINGLE POINT ENERGY      -267.675127490667

DIPOLE MOMENT
-------------
                                X             Y             Z
Electronic contribution:      3.95427      -1.17107      -1.06044
Nuclear contribution   :     -3.02065       1.64092       1.99316
                        -----------------------------------------
Total Dipole Moment    :      0.93362       0.46985       0.93272
                        -----------------------------------------
Magnitude (a.u.)       :      1.40084
Magnitude (Debye)      :      3.56066

Rotational constants in cm-1:     0.259304     0.069422     0.060943
Rotational constants in MHz :  7773.747720  2081.225169  1827.013389

                             ****ORCA TERMINATED NORMALLY****
TOTAL RUN TIME: 0 days 0 hours 0 minutes 13 seconds 379 msec
