                         Program Version 5.0.0 -  RELEASE  -
|  1> !wB97X-D3 RIJCOSX def2-SVPD def2/J TightSCF CPCM(Water) xyzfile
|  2>
|  3> *xyzfile 0 1 D4.xyz
|  4>
|  5> %MaxCore 64000
|  6>
|  7> %pal nprocs 18
|  8> end
|  9>
| 10> %scf
| 11>   MaxIter 150
| 12> end
| 13>
| 14>
| 15>                          ****END OF INPUT****

CARTESIAN COORDINATES (ANGSTROEM)
---------------------------------
  C      3.380928    2.083045   -3.350127
  C      4.535924    1.182447   -3.428518
  C      2.495557    1.816150   -2.136364
  C      1.872181    0.427903   -2.077497
  H      2.614270   -0.365825   -2.198894
  H      1.389953    0.273087   -1.112360
  S      0.579024    0.140472   -3.297943
  C      4.671956    0.122273   -4.220598
  N      5.866023   -0.507849   -4.224284
  N      3.698881   -0.312844   -4.986988
  H      2.731405   -0.050091   -4.849000
  H      3.890046   -1.055172   -5.643730
  H      5.251933    1.303459   -2.721014
  H      6.695165   -0.062322   -3.851596
  H      5.975383   -1.396884   -4.691414
  O      0.228860   -1.246868   -3.127871
  F     -0.439269    1.118966   -3.014550
  O      1.247881    0.403474   -4.595647
  H      1.697003    2.561969   -2.141109
  H      3.080787    1.987436   -1.225838
  H      2.806463    1.986511   -4.268484
  H      3.778714    3.098282   -3.307383

 Total Charge           Charge          ....    0
 Multiplicity           Mult            ....    1
 Number of Electrons    NEL             ....   96
 Basis Dimension        Dim             ....  324

ORBITAL ENERGIES
----------------

  NO   OCC          E(Eh)            E(eV)
   0   2.0000     -89.248509     -2428.5754
   1   2.0000     -24.924403      -678.2275
   2   2.0000     -19.275388      -524.5100
   3   2.0000     -19.267510      -524.2956
   4   2.0000     -14.425563      -392.5395
   5   2.0000     -14.414486      -392.2381
   6   2.0000     -10.335945      -281.2554
   7   2.0000     -10.335347      -281.2391
   8   2.0000     -10.294439      -280.1259
   9   2.0000     -10.269180      -279.4386
  10   2.0000     -10.212286      -277.8904
  11   2.0000      -8.322208      -226.4588
  12   2.0000      -6.285869      -171.0472
  13   2.0000      -6.280161      -170.8919
  14   2.0000      -6.277590      -170.8219
  15   2.0000      -1.497357       -40.7452
  16   2.0000      -1.243214       -33.8296
  17   2.0000      -1.143255       -31.1096
  18   2.0000      -1.061954       -28.8972
  19   2.0000      -0.964978       -26.2584
  20   2.0000      -0.936019       -25.4704
  21   2.0000      -0.873552       -23.7706
  22   2.0000      -0.833413       -22.6783
  23   2.0000      -0.790214       -21.5028
  24   2.0000      -0.732939       -19.9443
  25   2.0000      -0.707892       -19.2627
  26   2.0000      -0.695388       -18.9225
  27   2.0000      -0.686202       -18.6725
  28   2.0000      -0.655442       -17.8355
  29   2.0000      -0.636505       -17.3202
  30   2.0000      -0.615983       -16.7617
  31   2.0000      -0.586775       -15.9670
  32   2.0000      -0.585043       -15.9198
  33   2.0000      -0.574152       -15.6235
  34   2.0000      -0.555105       -15.1052
  35   2.0000      -0.543925       -14.8009
  36   2.0000      -0.508323       -13.8322
  37   2.0000      -0.502702       -13.6792
  38   2.0000      -0.500061       -13.6073
  39   2.0000      -0.479392       -13.0449
  40   2.0000      -0.457163       -12.4400
  41   2.0000      -0.445902       -12.1336
  42   2.0000      -0.441992       -12.0272
  43   2.0000      -0.430248       -11.7077
  44   2.0000      -0.424221       -11.5436
  45   2.0000      -0.403348       -10.9756
  46   2.0000      -0.350414        -9.5352
  47   2.0000      -0.248877        -6.7723
  48   0.0000       0.067947         1.8489
  49   0.0000       0.094093         2.5604
  50   0.0000       0.096642         2.6298
  51   0.0000       0.099541         2.7086
  52   0.0000       0.116948         3.1823

MULLIKEN ATOMIC CHARGES
-----------------------
   0 C :    0.327970
   1 C :   -0.158571
   2 C :    0.143307
   3 C :   -0.042444
   4 H :    0.143255
   5 H :    0.011257
   6 S :    1.684568
   7 C :    0.822189
   8 N :   -0.106967
   9 N :    0.416301
  10 H :   -0.373107
  11 H :   -0.175585
  12 H :   -0.352910
  13 H :   -0.047236
  14 H :   -0.056500
  15 O :   -0.701864
  16 F :   -0.474221
  17 O :   -0.885337
  18 H :    0.032202
  19 H :    0.007207
  20 H :   -0.091716
  21 H :   -0.121797
Sum of atomic charges:    0.0000000

LOEWDIN ATOMIC CHARGES
----------------------
   0 C :   -0.050918
   1 C :   -0.047434
   2 C :   -0.026402
   3 C :   -0.020861
   4 H :    0.034932
   5 H :    0.034153
   6 S :    1.184422
   7 C :   -0.226590
   8 N :    0.176691
   9 N :    0.225045
  10 H :   -0.143121
  11 H :    0.015898
  12 H :   -0.053663
  13 H :    0.009850
  14 H :    0.000789
  15 O :   -0.478674
  16 F :   -0.225588
  17 O :   -0.483060
  18 H :    0.027569
  19 H :    0.041100
  20 H :   -0.011857
  21 H :    0.017718

  Mayer bond orders larger than 0.100000
B(  0-C ,  1-C ) :   1.1328 B(  0-C ,  2-C ) :   1.1592 B(  0-C , 12-H ) :   0.2175
B(  0-C , 18-H ) :   0.1670 B(  0-C , 19-H ) :   0.1601 B(  0-C , 20-H ) :   0.8195
B(  0-C , 21-H ) :   0.7904 B(  1-C ,  7-C ) :   1.6453 B(  1-C ,  8-N ) :   0.3805
B(  1-C ,  9-N ) :   0.2016 B(  1-C , 10-H ) :  -0.1166 B(  1-C , 12-H ) :   0.8123
B(  1-C , 20-H ) :   0.2605 B(  1-C , 21-H ) :   0.1258 B(  2-C ,  3-C ) :   1.2639
B(  2-C ,  4-H ) :   0.1274 B(  2-C ,  5-H ) :   0.1474 B(  2-C , 18-H ) :   0.7944
B(  2-C , 19-H ) :   0.7982 B(  2-C , 20-H ) :   0.1506 B(  3-C ,  4-H ) :   0.9561
B(  3-C ,  5-H ) :   0.8304 B(  3-C ,  6-S ) :   0.9871 B(  3-C , 17-O ) :   0.1168
B(  3-C , 18-H ) :   0.1410 B(  3-C , 19-H ) :   0.1131 B(  6-S , 15-O ) :   1.5031
B(  6-S , 16-F ) :   0.6079 B(  6-S , 17-O ) :   1.3389 B(  7-C ,  8-N ) :   0.7906
B(  7-C ,  9-N ) :   1.0570 B(  7-C , 11-H ) :  -0.1985 B(  7-C , 12-H ) :   0.1406
B(  7-C , 13-H ) :  -0.1501 B(  7-C , 20-H ) :  -0.1183 B(  8-N , 12-H ) :   0.1078
B(  8-N , 13-H ) :   1.2205 B(  8-N , 14-H ) :   1.1398 B(  9-N , 10-H ) :   1.1004
B(  9-N , 11-H ) :   1.2573 B( 10-H , 11-H ) :  -0.2072 B( 10-H , 17-O ) :   0.1623
B( 13-H , 14-H ) :  -0.1568

Dispersion correction           -0.009839859
FINAL SINGLE POINT ENERGY      -954.398635796891

DIPOLE MOMENT
-------------
                                X             Y             Z
Electronic contribution:    -16.42375      -2.63645      -0.57131
Nuclear contribution   :     16.65743       2.74852       1.69529
                        -----------------------------------------
Total Dipole Moment    :      0.23368       0.11207       1.12398
                        -----------------------------------------
Magnitude (a.u.)       :      1.15347
Magnitude (Debye)      :      2.93188

Rotational constants in cm-1:     0.059907     0.020458     0.017675
Rotational constants in MHz :  1795.978106   613.328205   529.885290

                             ****ORCA TERMINATED NORMALLY****
TOTAL RUN TIME: 0 days 0 hours 0 minutes 36 seconds 857 msec
