                         Program Version 5.0.0 -  RELEASE  -
|  1> !B3LYP D3BJ RIJCOSX def2-SVPD def2/J TightSCF
|  2> *xyz -1 1
|  3> C          0.69721        3.22791       -0.52513
|  4> O          1.48929        2.37470        0.19919
|  5> H          0.26505        2.70007       -1.34946
|  6> H          1.28994        4.03943       -0.89255
|  7> H         -0.08148        3.61005        0.10138
|  8> *
|  9>
| 10> %MaxCore 64000
| 11> %pal nprocs 8
| 12> end
| 13>
| 14> %scf
| 15>   MaxIter 150
| 16> end
| 17>
| 18>
| 19>                          ****END OF INPUT****

CARTESIAN COORDINATES (ANGSTROEM)
---------------------------------
  C      0.697210    3.227910   -0.525130
  O      1.489290    2.374700    0.199190
  H      0.265050    2.700070   -1.349460
  H      1.289940    4.039430   -0.892550
  H     -0.081480    3.610050    0.101380

 Total Charge           Charge          ....   -1
 Multiplicity           Mult            ....    1
 Number of Electrons    NEL             ....   18
 Basis Dimension        Dim             ....   67

ORBITAL ENERGIES
----------------

  NO   OCC          E(Eh)            E(eV)
   0   2.0000     -18.786117      -511.1962
   1   2.0000      -9.970042      -271.2986
   2   2.0000      -0.647456       -17.6182
   3   2.0000      -0.390169       -10.6170
   4   2.0000      -0.195788        -5.3276
   5   2.0000      -0.195784        -5.3275
   6   2.0000      -0.098275        -2.6742
   7   2.0000       0.050855         1.3838
   8   2.0000       0.050866         1.3841
   9   0.0000       0.196797         5.3551
  10   0.0000       0.267954         7.2914
  11   0.0000       0.267957         7.2915
  12   0.0000       0.276452         7.5226
  13   0.0000       0.312823         8.5123

MULLIKEN ATOMIC CHARGES
-----------------------
   0 C :    1.031174
   1 O :   -1.024954
   2 H :   -0.335702
   3 H :   -0.335335
   4 H :   -0.335182
Sum of atomic charges:   -1.0000000

LOEWDIN ATOMIC CHARGES
----------------------
   0 C :   -0.107675
   1 O :   -0.643033
   2 H :   -0.083118
   3 H :   -0.083084
   4 H :   -0.083090

  Mayer bond orders larger than 0.100000
B(  0-C ,  1-O ) :   1.1525 B(  0-C ,  2-H ) :   0.8684 B(  0-C ,  3-H ) :   0.8682
B(  0-C ,  4-H ) :   0.8679

Dispersion correction           -0.002430710
FINAL SINGLE POINT ENERGY      -114.957935760617

DIPOLE MOMENT
-------------
                                X             Y             Z
Electronic contribution:      1.07348      -1.15616       0.98161
Nuclear contribution   :     -1.66672       1.79535      -1.52413
                        -----------------------------------------
Total Dipole Moment    :     -0.59324       0.63918      -0.54252
                        -----------------------------------------
Magnitude (a.u.)       :      1.02704
Magnitude (Debye)      :      2.61054

Rotational constants in cm-1:     5.477728     0.937442     0.937441
Rotational constants in MHz : 164218.159175 28103.818547 28103.787504

                             ****ORCA TERMINATED NORMALLY****
TOTAL RUN TIME: 0 days 0 hours 0 minutes 2 seconds 747 msec
