                         Program Version 5.0.0 -  RELEASE  -
|  1> !B3LYP D3BJ RIJCOSX def2-SVPD def2/J TightSCF
|  2> *xyz 1 1
|  3> C          3.95643        0.50147       -0.37910
|  4> N          3.80389        1.96157       -0.15675
|  5> H          4.20643        2.24441        0.74536
|  6> H          2.80827        2.21132       -0.09610
|  7> H          4.28076        2.50155       -0.89104
|  8> H          3.52890        0.23799       -1.32393
|  9> H          3.45469       -0.03240        0.40073
| 10> H          4.99562        0.24661       -0.37434
| 11> *
| 12>
| 13> %MaxCore 64000
| 14> %pal nprocs 8
| 15> end
| 16>
| 17> %scf
| 18>   MaxIter 150
| 19> end
| 20>
| 21>
| 22>                          ****END OF INPUT****

CARTESIAN COORDINATES (ANGSTROEM)
---------------------------------
  C      3.956430    0.501470   -0.379100
  N      3.803890    1.961570   -0.156750
  H      4.206430    2.244410    0.745360
  H      2.808270    2.211320   -0.096100
  H      4.280760    2.501550   -0.891040
  H      3.528900    0.237990   -1.323930
  H      3.454690   -0.032400    0.400730
  H      4.995620    0.246610   -0.374340

 Total Charge           Charge          ....    1
 Multiplicity           Mult            ....    1
 Number of Electrons    NEL             ....   18
 Basis Dimension        Dim             ....   88

ORBITAL ENERGIES
----------------

  NO   OCC          E(Eh)            E(eV)
   0   2.0000     -14.680384      -399.4736
   1   2.0000     -10.443118      -284.1717
   2   2.0000      -1.218919       -33.1685
   3   2.0000      -0.934804       -25.4373
   4   2.0000      -0.816899       -22.2290
   5   2.0000      -0.805429       -21.9168
   6   2.0000      -0.717303       -19.5188
   7   2.0000      -0.629194       -17.1213
   8   2.0000      -0.627544       -17.0763
   9   0.0000      -0.208034        -5.6609
  10   0.0000      -0.139273        -3.7898
  11   0.0000      -0.137525        -3.7423
  12   0.0000      -0.133561        -3.6344
  13   0.0000      -0.088497        -2.4081

MULLIKEN ATOMIC CHARGES
-----------------------
   0 C :    1.153291
   1 N :   -0.752413
   2 H :    0.334461
   3 H :    0.343315
   4 H :    0.341297
   5 H :   -0.139882
   6 H :   -0.138512
   7 H :   -0.141557
Sum of atomic charges:    1.0000000

LOEWDIN ATOMIC CHARGES
----------------------
   0 C :    0.287997
   1 N :    0.315618
   2 H :    0.106808
   3 H :    0.108735
   4 H :    0.110716
   5 H :    0.023434
   6 H :    0.023525
   7 H :    0.023167

  Mayer bond orders larger than 0.100000
B(  0-C ,  1-N ) :   0.8067 B(  0-C ,  5-H ) :   0.8582 B(  0-C ,  6-H ) :   0.8566
B(  0-C ,  7-H ) :   0.8602 B(  1-N ,  2-H ) :   0.8116 B(  1-N ,  3-H ) :   0.7954
B(  1-N ,  4-H ) :   0.7953 B(  1-N ,  5-H ) :   0.1052 B(  1-N ,  6-H ) :   0.1045
B(  1-N ,  7-H ) :   0.1025

Dispersion correction           -0.005458676
FINAL SINGLE POINT ENERGY       -96.090652427675

DIPOLE MOMENT
-------------
                                X             Y             Z
Electronic contribution:     -0.11037       1.07418       0.14032
Nuclear contribution   :      0.02154      -0.23654       0.01355
                        -----------------------------------------
Total Dipole Moment    :     -0.08882       0.83765       0.15387
                        -----------------------------------------
Magnitude (a.u.)       :      0.85628
Magnitude (Debye)      :      2.17649

Rotational constants in cm-1:     2.873586     0.687737     0.684128
Rotational constants in MHz : 86147.950763 20617.847271 20509.632222

                             ****ORCA TERMINATED NORMALLY****
TOTAL RUN TIME: 0 days 0 hours 0 minutes 3 seconds 595 msec
