                         Program Version 5.0.0 -  RELEASE  -
|  1> !B3LYP D3BJ RIJCOSX def2-SVPD def2/J TightSCF
|  2> *xyz 0 1
|  3> C          0.69721        3.22791       -0.52513
|  4> F          1.48929        2.37470        0.19919
|  5> H          0.26505        2.70007       -1.34946
|  6> H          1.28994        4.03943       -0.89255
|  7> H         -0.08148        3.61005        0.10138
|  8> *
|  9>
| 10> %MaxCore 64000
| 11> %pal nprocs 8
| 12> end
| 13>
| 14> %scf
| 15>   MaxIter 150
| 16> end
| 17>
| 18>
| 19>                          ****END OF INPUT****

CARTESIAN COORDINATES (ANGSTROEM)
---------------------------------
  C      0.697210    3.227910   -0.525130
  F      1.489290    2.374700    0.199190
  H      0.265050    2.700070   -1.349460
  H      1.289940    4.039430   -0.892550
  H     -0.081480    3.610050    0.101380

 Total Charge           Charge          ....    0
 Multiplicity           Mult            ....    1
 Number of Electrons    NEL             ....   18
 Basis Dimension        Dim             ....   67

ORBITAL ENERGIES
----------------

  NO   OCC          E(Eh)            E(eV)
   0   2.0000     -24.682101      -671.6341
   1   2.0000     -10.256263      -279.0871
   2   2.0000      -1.181994       -32.1637
   3   2.0000      -0.702113       -19.1055
   4   2.0000      -0.500201       -13.6112
   5   2.0000      -0.492175       -13.3928
   6   2.0000      -0.492170       -13.3926
   7   2.0000      -0.353790        -9.6271
   8   2.0000      -0.353777        -9.6267
   9   0.0000       0.023689         0.6446
  10   0.0000       0.058102         1.5810
  11   0.0000       0.098802         2.6885
  12   0.0000       0.098804         2.6886
  13   0.0000       0.144124         3.9218

MULLIKEN ATOMIC CHARGES
-----------------------
   0 C :    1.087800
   1 F :   -0.481263
   2 H :   -0.202557
   3 H :   -0.202144
   4 H :   -0.201837
Sum of atomic charges:   -0.0000000

LOEWDIN ATOMIC CHARGES
----------------------
   0 C :    0.274931
   1 F :   -0.249699
   2 H :   -0.008432
   3 H :   -0.008406
   4 H :   -0.008394

  Mayer bond orders larger than 0.100000
B(  0-C ,  1-F ) :   0.8429 B(  0-C ,  2-H ) :   0.9052 B(  0-C ,  3-H ) :   0.9050
B(  0-C ,  4-H ) :   0.9047

Dispersion correction           -0.002119978
FINAL SINGLE POINT ENERGY      -139.581802788803

DIPOLE MOMENT
-------------
                                X             Y             Z
Electronic contribution:      1.69108      -1.82156       1.54627
Nuclear contribution   :     -2.11402       2.27717      -1.93317
                        -----------------------------------------
Total Dipole Moment    :     -0.42294       0.45561      -0.38690
                        -----------------------------------------
Magnitude (a.u.)       :      0.73222
Magnitude (Debye)      :      1.86116

Rotational constants in cm-1:     5.477728     0.872600     0.872599
Rotational constants in MHz : 164218.159175 26159.886777 26159.859881

                             ****ORCA TERMINATED NORMALLY****
TOTAL RUN TIME: 0 days 0 hours 0 minutes 2 seconds 817 msec
