                         Program Version 5.0.0 -  RELEASE  -
|  1> !B3LYP D3BJ RIJCOSX def2-SVPD def2/J TightSCF
|  2> *xyz 0 1
|  3> C          3.95643        0.50147       -0.37910
|  4> C          3.80389        1.96157       -0.15675
|  5> H          4.20643        2.24441        0.74536
|  6> H          2.80827        2.21132       -0.09610
|  7> H          4.28076        2.50155       -0.89104
|  8> H          3.52890        0.23799       -1.32393
|  9> H          3.45469       -0.03240        0.40073
| 10> H          4.99562        0.24661       -0.37434
| 11> *
| 12>
| 13> %MaxCore 64000
| 14> %pal nprocs 8
| 15> end
| 16>
| 17> %scf
| 18>   MaxIter 150
| 19> end
| 20>
| 21>
| 22>                          ****END OF INPUT****

CARTESIAN COORDINATES (ANGSTROEM)
---------------------------------
  C      3.956430    0.501470   -0.379100
  C      3.803890    1.961570   -0.156750
  H      4.206430    2.244410    0.745360
  H      2.808270    2.211320   -0.096100
  H      4.280760    2.501550   -0.891040
  H      3.528900    0.237990   -1.323930
  H      3.454690   -0.032400    0.400730
  H      4.995620    0.246610   -0.374340

 Total Charge           Charge          ....    0
 Multiplicity           Mult            ....    1
 Number of Electrons    NEL             ....   18
 Basis Dimension        Dim             ....   88

ORBITAL ENERGIES
----------------

  NO   OCC          E(Eh)            E(eV)
   0   2.0000     -10.161016      -276.4953
   1   2.0000     -10.148174      -276.1459
   2   2.0000      -0.762503       -20.7487
   3   2.0000      -0.615689       -16.7538
   4   2.0000      -0.451482       -12.2854
   5   2.0000      -0.444842       -12.1048
   6   2.0000      -0.369399       -10.0519
   7   2.0000      -0.349429        -9.5085
   8   2.0000      -0.343051        -9.3349
   9   0.0000       0.026758         0.7281
  10   0.0000       0.058461         1.5908
  11   0.0000       0.099750         2.7143
  12   0.0000       0.101481         2.7614
  13   0.0000       0.121542         3.3073

MULLIKEN ATOMIC CHARGES
-----------------------
   0 C :    0.458590
   1 C :    0.768642
   2 H :   -0.264729
   3 H :   -0.260595
   4 H :   -0.265023
   5 H :   -0.148636
   6 H :   -0.141712
   7 H :   -0.146537
Sum of atomic charges:    0.0000000

LOEWDIN ATOMIC CHARGES
----------------------
   0 C :    0.084073
   1 C :    0.085231
   2 H :   -0.038690
   3 H :   -0.036457
   4 H :   -0.034631
   5 H :   -0.019963
   6 H :   -0.019447
   7 H :   -0.020116

  Mayer bond orders larger than 0.100000
B(  0-C ,  1-C ) :   1.4361 B(  0-C ,  2-H ) :   0.1881 B(  0-C ,  3-H ) :   0.1957
B(  0-C ,  4-H ) :   0.1917 B(  0-C ,  5-H ) :   0.8182 B(  0-C ,  6-H ) :   0.8200
B(  0-C ,  7-H ) :   0.8235 B(  1-C ,  2-H ) :   0.7003 B(  1-C ,  3-H ) :   0.7096
B(  1-C ,  4-H ) :   0.7205 B(  1-C ,  5-H ) :   0.1732 B(  1-C ,  6-H ) :   0.1764
B(  1-C ,  7-H ) :   0.1730 B(  2-H ,  3-H ) :   0.1167

Dispersion correction           -0.005503637
FINAL SINGLE POINT ENERGY       -79.702600902237

DIPOLE MOMENT
-------------
                                X             Y             Z
Electronic contribution:      0.00219       0.01002      -0.03711
Nuclear contribution   :     -0.00471       0.01526       0.05114
                        -----------------------------------------
Total Dipole Moment    :     -0.00252       0.02528       0.01402
                        -----------------------------------------
Magnitude (a.u.)       :      0.02902
Magnitude (Debye)      :      0.07376

Rotational constants in cm-1:     2.873610     0.717865     0.713933
Rotational constants in MHz : 86148.646881 21521.066032 21403.176468

                             ****ORCA TERMINATED NORMALLY****
TOTAL RUN TIME: 0 days 0 hours 0 minutes 3 seconds 752 msec
