                         Program Version 5.0.0 -  RELEASE  -
|  1> !B3LYP D3BJ RIJCOSX def2-SVPD def2/J TightSCF xyzfile
|  2>
|  3> *xyzfile 0 1 D.xyz
|  4>
|  5> %MaxCore 64000
|  6>
|  7> %pal nprocs 4
|  8> end
|  9>
| 10> %scf
| 11>   MaxIter 150
| 12> end
| 13>
| 14>
| 15>                          ****END OF INPUT****

CARTESIAN COORDINATES (ANGSTROEM)
---------------------------------
  C      3.956426    0.501466   -0.379100
  H      3.168398    0.029201    0.207383
  C      3.803893    1.961572   -0.156747
  C      3.842322    0.148490   -1.854058
  H      4.923231    0.177982    0.009371
  H      4.620021    0.694502   -2.402150
  H      4.096015   -0.910930   -1.955103
  C      2.475619    0.412708   -2.485377
  H      2.174689    1.445076   -2.287971
  C      1.383931   -0.532740   -1.995203
  H      2.575613    0.318574   -3.571460
  H      1.264698   -0.412309   -0.915491
  H      1.705223   -1.566885   -2.164984
  C      0.031398   -0.317260   -2.677791
  C     -0.587292    1.060853   -2.436460
  H     -0.662815   -1.089530   -2.329985
  H      0.149465   -0.478040   -3.755648
  H      0.104376    1.828590   -2.793130
  C     -0.951213    1.334978   -0.972500
  H     -1.478832    1.161355   -3.062484
  H     -0.317007    0.741648   -0.311389
  H     -1.980916    1.012842   -0.788958
  C     -0.774550    2.788332   -0.543943
  H     -1.352609    3.459372   -1.192585
  H     -1.171014    2.902331    0.469968
  C      0.697208    3.227911   -0.525126
  F      1.489294    2.374703    0.199189
  H      0.715998    4.264030   -0.130774
  H      1.036148    3.330920   -1.583669
  H      4.206425    2.244406    0.745359
  H      2.808269    2.211323   -0.096097
  H      4.280757    2.501552   -0.891037

 Total Charge           Charge          ....    0
 Multiplicity           Mult            ....    1
 Number of Electrons    NEL             ....   90
 Basis Dimension        Dim             ....  391

ORBITAL ENERGIES
----------------

  NO   OCC          E(Eh)            E(eV)
   0   2.0000     -24.706733      -672.3044
   1   2.0000     -10.272955      -279.5413
   2   2.0000     -10.194398      -277.4037
   3   2.0000     -10.180395      -277.0226
   4   2.0000     -10.176910      -276.9278
   5   2.0000     -10.173511      -276.8353
   6   2.0000     -10.167760      -276.6788
   7   2.0000     -10.165745      -276.6240
   8   2.0000     -10.159494      -276.4539
   9   2.0000     -10.149179      -276.1732
  10   2.0000     -10.097292      -274.7613
  11   2.0000      -1.217877       -33.1401
  12   2.0000      -0.813379       -22.1332
  13   2.0000      -0.793838       -21.6014
  14   2.0000      -0.760988       -20.7075
  15   2.0000      -0.730942       -19.8900
  16   2.0000      -0.683605       -18.6018
  17   2.0000      -0.659252       -17.9392
  18   2.0000      -0.617704       -16.8086
  19   2.0000      -0.596892       -16.2423
  20   2.0000      -0.560084       -15.2407
  21   2.0000      -0.551472       -15.0063
  22   2.0000      -0.526323       -14.3220
  23   2.0000      -0.515993       -14.0409
  24   2.0000      -0.496556       -13.5120
  25   2.0000      -0.468752       -12.7554
  26   2.0000      -0.458073       -12.4648
  27   2.0000      -0.448559       -12.2059
  28   2.0000      -0.429564       -11.6890
  29   2.0000      -0.426789       -11.6135
  30   2.0000      -0.410434       -11.1685
  31   2.0000      -0.394096       -10.7239
  32   2.0000      -0.386654       -10.5214
  33   2.0000      -0.375365       -10.2142
  34   2.0000      -0.366733        -9.9793
  35   2.0000      -0.356993        -9.7143
  36   2.0000      -0.349390        -9.5074
  37   2.0000      -0.343937        -9.3590
  38   2.0000      -0.325925        -8.8689
  39   2.0000      -0.321071        -8.7368
  40   2.0000      -0.315012        -8.5719
  41   2.0000      -0.313927        -8.5424
  42   2.0000      -0.299040        -8.1373
  43   2.0000      -0.297862        -8.1052
  44   2.0000      -0.274714        -7.4753
  45   0.0000       0.017510         0.4765
  46   0.0000       0.026517         0.7216
  47   0.0000       0.033267         0.9052
  48   0.0000       0.039190         1.0664
  49   0.0000       0.052171         1.4196

MULLIKEN ATOMIC CHARGES
-----------------------
   0 C :    0.110327
   1 H :   -0.042449
   2 C :    3.217249
   3 C :    0.491520
   4 H :   -0.452674
   5 H :   -0.095838
   6 H :   -0.156938
   7 C :    0.572774
   8 H :   -0.681071
   9 C :    0.143338
  10 H :   -0.127198
  11 H :   -0.168640
  12 H :   -0.249208
  13 C :    0.749976
  14 C :    0.346786
  15 H :   -0.313248
  16 H :   -0.042652
  17 H :   -0.220557
  18 C :    0.288721
  19 H :   -0.324792
  20 H :   -0.138891
  21 H :   -0.223147
  22 C :    0.382330
  23 H :   -0.196150
  24 H :   -0.071968
  25 C :    0.831328
  26 F :   -0.538294
  27 H :   -0.337434
  28 H :    0.044494
  29 H :    0.008097
  30 H :   -2.607493
  31 H :   -0.198296
Sum of atomic charges:   -0.0000000

LOEWDIN ATOMIC CHARGES
----------------------
   0 C :   -0.047297
   1 H :    0.010987
   2 C :    0.143617
   3 C :   -0.029514
   4 H :    0.015243
   5 H :    0.019856
   6 H :    0.012900
   7 C :   -0.016622
   8 H :   -0.011294
   9 C :   -0.023090
  10 H :    0.023250
  11 H :   -0.003131
  12 H :    0.024240
  13 C :   -0.024744
  14 C :   -0.015951
  15 H :    0.019469
  16 H :    0.019415
  17 H :   -0.007909
  18 C :   -0.014970
  19 H :    0.018504
  20 H :   -0.000677
  21 H :    0.022711
  22 C :   -0.006574
  23 H :    0.032261
  24 H :    0.023769
  25 C :    0.159415
  26 F :   -0.176369
  27 H :    0.037635
  28 H :    0.028236
  29 H :   -0.028069
  30 H :   -0.177063
  31 H :   -0.028234

  Mayer bond orders larger than 0.100000
B(  0-C ,  1-H ) :   0.7620 B(  0-C ,  2-C ) :   0.5030 B(  0-C ,  3-C ) :   1.1417
B(  0-C ,  4-H ) :   0.8912 B(  0-C ,  5-H ) :   0.1327 B(  0-C ,  6-H ) :   0.1884
B(  0-C , 29-H ) :   0.1829 B(  0-C , 30-H ) :   0.9513 B(  0-C , 31-H ) :   0.3978
B(  1-H ,  2-C ) :   0.3508 B(  1-H ,  3-C ) :   0.1886 B(  1-H ,  4-H ) :  -0.2254
B(  1-H , 30-H ) :  -0.1931 B(  1-H , 31-H ) :  -0.1202 B(  2-C ,  4-H ) :  -0.2240
B(  2-C , 26-F ) :  -0.3239 B(  2-C , 29-H ) :   0.6292 B(  2-C , 30-H ) :  -5.2289
B(  2-C , 31-H ) :  -0.3195 B(  3-C ,  5-H ) :   0.6320 B(  3-C ,  6-H ) :   0.8026
B(  3-C ,  7-C ) :   1.1830 B(  3-C ,  8-H ) :   0.1405 B(  4-H , 29-H ) :  -0.1715
B(  4-H , 30-H ) :   0.2006 B(  4-H , 31-H ) :   0.2979 B(  5-H ,  6-H ) :  -0.1689
B(  5-H ,  7-C ) :   0.3056 B(  5-H , 31-H ) :   0.1534 B(  6-H , 31-H ) :  -0.1851
B(  7-C ,  8-H ) :   0.6161 B(  7-C ,  9-C ) :   1.1695 B(  7-C , 10-H ) :   0.5832
B(  7-C , 11-H ) :   0.1266 B(  7-C , 12-H ) :   0.1627 B(  8-H ,  9-C ) :   0.2228
B(  8-H , 10-H ) :   0.1258 B(  8-H , 30-H ) :   0.1118 B(  9-C , 10-H ) :   0.1917
B(  9-C , 11-H ) :   0.8230 B(  9-C , 12-H ) :   0.8152 B(  9-C , 13-C ) :   1.1602
B(  9-C , 14-C ) :   0.1247 B(  9-C , 15-H ) :   0.3313 B(  9-C , 16-H ) :   0.1543
B( 11-H , 13-C ) :   0.1031 B( 11-H , 20-H ) :   0.1400 B( 13-C , 14-C ) :   1.1773
B( 13-C , 15-H ) :   0.6328 B( 13-C , 16-H ) :   0.6173 B( 13-C , 17-H ) :   0.1331
B( 13-C , 19-H ) :   0.1130 B( 14-C , 15-H ) :   0.1072 B( 14-C , 16-H ) :   0.2549
B( 14-C , 17-H ) :   0.7962 B( 14-C , 18-C ) :   1.1826 B( 14-C , 19-H ) :   0.7256
B( 14-C , 20-H ) :   0.1212 B( 14-C , 21-H ) :   0.2416 B( 15-H , 16-H ) :  -0.1674
B( 17-H , 18-C ) :   0.1378 B( 18-C , 19-H ) :   0.2018 B( 18-C , 20-H ) :   0.7840
B( 18-C , 21-H ) :   0.7605 B( 18-C , 22-C ) :   1.2076 B( 18-C , 23-H ) :   0.1058
B( 18-C , 24-H ) :   0.2440 B( 18-C , 25-C ) :   0.1183 B( 20-H , 22-C ) :   0.1448
B( 21-H , 22-C ) :   0.1031 B( 22-C , 23-H ) :   0.7667 B( 22-C , 24-H ) :   0.6327
B( 22-C , 25-C ) :   1.2629 B( 22-C , 26-F ) :   0.1014 B( 22-C , 27-H ) :   0.1338
B( 22-C , 28-H ) :   0.1059 B( 23-H , 24-H ) :  -0.1012 B( 23-H , 25-C ) :   0.1822
B( 24-H , 25-C ) :   0.1338 B( 25-C , 26-F ) :   0.5772 B( 25-C , 27-H ) :   0.8695
B( 25-C , 28-H ) :   0.7584 B( 25-C , 30-H ) :   0.2274 B( 26-F , 27-H ) :  -0.1154
B( 26-F , 30-H ) :   0.4832 B( 29-H , 30-H ) :   0.1935 B( 29-H , 31-H ) :  -0.2690
B( 30-H , 31-H ) :   0.9730

Dispersion correction           -0.052447077
FINAL SINGLE POINT ENERGY      -492.894243463385

DIPOLE MOMENT
-------------
                                X             Y             Z
Electronic contribution:     -1.97157       3.29294       4.27194
Nuclear contribution   :      1.09293      -2.80761      -4.51228
                        -----------------------------------------
Total Dipole Moment    :     -0.87864       0.48533      -0.24034
                        -----------------------------------------
Magnitude (a.u.)       :      1.03214
Magnitude (Debye)      :      2.62349

Rotational constants in cm-1:     0.040502     0.027818     0.018259
Rotational constants in MHz :  1214.218058   833.972871   547.398614

                             ****ORCA TERMINATED NORMALLY****
TOTAL RUN TIME: 0 days 0 hours 1 minutes 50 seconds 696 msec
