                         Program Version 5.0.0 -  RELEASE  -
|  1> !wB97X-D3 RIJCOSX def2-TZVPD def2/J TightSCF
|  2> *xyz -1 1
|  3> C         -0.77894        0.17197        1.80496
|  4> C         -0.60249       -0.63071        0.49224
|  5> H          0.31389       -1.24035        0.60350
|  6> H         -0.36383        0.11332       -0.30117
|  7> O         -1.71206       -1.37684        0.20253
|  8> H         -1.65864        0.77733        1.73736
|  9> H          0.07466        0.79896        1.95712
| 10> H         -0.87474       -0.50584        2.62734
| 11> *
| 12> %MaxCore 64000
| 13>
| 14> %pal nprocs 4
| 15> end
| 16>
| 17> %scf
| 18>   MaxIter 150
| 19> end
| 20>
| 21>
| 22>                          ****END OF INPUT****

CARTESIAN COORDINATES (ANGSTROEM)
---------------------------------
  C     -0.778940    0.171970    1.804960
  C     -0.602490   -0.630710    0.492240
  H      0.313890   -1.240350    0.603500
  H     -0.363830    0.113320   -0.301170
  O     -1.712060   -1.376840    0.202530
  H     -1.658640    0.777330    1.737360
  H      0.074660    0.798960    1.957120
  H     -0.874740   -0.505840    2.627340

 Total Charge           Charge          ....   -1
 Multiplicity           Mult            ....    1
 Number of Electrons    NEL             ....   26
 Basis Dimension        Dim             ....  159

ORBITAL ENERGIES
----------------

  NO   OCC          E(Eh)            E(eV)
   0   2.0000     -18.893879      -514.1286
   1   2.0000     -10.088433      -274.5202
   2   2.0000     -10.063043      -273.8293
   3   2.0000      -0.793427       -21.5902
   4   2.0000      -0.638061       -17.3625
   5   2.0000      -0.481874       -13.1125
   6   2.0000      -0.350172        -9.5287
   7   2.0000      -0.325417        -8.8550
   8   2.0000      -0.267069        -7.2673
   9   2.0000      -0.252691        -6.8761
  10   2.0000      -0.207013        -5.6331
  11   2.0000      -0.059425        -1.6170
  12   2.0000      -0.058903        -1.6028
  13   0.0000       0.212962         5.7950
  14   0.0000       0.233140         6.3440
  15   0.0000       0.262403         7.1403
  16   0.0000       0.263832         7.1792
  17   0.0000       0.287761         7.8304

MULLIKEN ATOMIC CHARGES
-----------------------
   0 C :   -0.896890
   1 C :   -0.228667
   2 H :    0.133610
   3 H :    0.125731
   4 O :   -0.918498
   5 H :    0.233759
   6 H :    0.316349
   7 H :    0.234606
Sum of atomic charges:   -1.0000000

LOEWDIN ATOMIC CHARGES
----------------------
   0 C :   -0.168795
   1 C :   -0.615218
   2 H :    0.055113
   3 H :    0.056497
   4 O :   -0.430835
   5 H :    0.038986
   6 H :    0.026594
   7 H :    0.037659

  Mayer bond orders larger than 0.100000
B(  0-C ,  1-C ) :   0.7826 B(  0-C ,  4-O ) :   0.2238 B(  0-C ,  5-H ) :   0.9958
B(  0-C ,  6-H ) :   0.9407 B(  0-C ,  7-H ) :   0.9897 B(  1-C ,  2-H ) :   1.0672
B(  1-C ,  3-H ) :   1.0690 B(  1-C ,  4-O ) :   1.0561

Dispersion correction           -0.000861350
FINAL SINGLE POINT ENERGY      -154.439955992920

DIPOLE MOMENT
-------------
                                X             Y             Z
Electronic contribution:     -1.56241      -1.79816      -1.47335
Nuclear contribution   :      2.47835       2.80827       2.30058
                        -----------------------------------------
Total Dipole Moment    :      0.91593       1.01011       0.82724
                        -----------------------------------------
Magnitude (a.u.)       :      1.59486
Magnitude (Debye)      :      4.05381

Rotational constants in cm-1:     1.255775     0.327783     0.287473
Rotational constants in MHz : 37647.186859  9826.677683  8618.224821

                             ****ORCA TERMINATED NORMALLY****
TOTAL RUN TIME: 0 days 0 hours 0 minutes 20 seconds 98 msec
