                         Program Version 5.0.0 -  RELEASE  -
|  1> !wB97X-D3 RIJCOSX def2-TZVPD def2/J TightSCF
|  2> *xyz 1 1
|  3> C         -2.12050        0.88520        1.78951
|  4> C         -0.77894        0.17197        1.80496
|  5> H         -2.32419        1.47265        2.68608
|  6> H         -2.18770        1.54127        0.91948
|  7> N         -3.17690       -0.15948        1.61070
|  8> H         -4.06474        0.23127        1.28675
|  9> H         -3.34407       -0.67151        2.48493
| 10> H         -2.71686       -0.78189        0.93588
| 11> H         -0.65708       -0.37837        0.89547
| 12> H         -0.74207       -0.50050        2.63642
| 13> H          0.00707        0.89251        1.89389
| 14> *
| 15> %MaxCore 64000
| 16>
| 17> %pal nprocs 4
| 18> end
| 19>
| 20> %scf
| 21>   MaxIter 150
| 22> end
| 23>
| 24>
| 25>                          ****END OF INPUT****

CARTESIAN COORDINATES (ANGSTROEM)
---------------------------------
  C     -2.120500    0.885200    1.789510
  C     -0.778940    0.171970    1.804960
  H     -2.324190    1.472650    2.686080
  H     -2.187700    1.541270    0.919480
  N     -3.176900   -0.159480    1.610700
  H     -4.064740    0.231270    1.286750
  H     -3.344070   -0.671510    2.484930
  H     -2.716860   -0.781890    0.935880
  H     -0.657080   -0.378370    0.895470
  H     -0.742070   -0.500500    2.636420
  H      0.007070    0.892510    1.893890

 Total Charge           Charge          ....    1
 Multiplicity           Mult            ....    1
 Number of Electrons    NEL             ....   26
 Basis Dimension        Dim             ....  183

ORBITAL ENERGIES
----------------

  NO   OCC          E(Eh)            E(eV)
   0   2.0000     -14.755316      -401.5126
   1   2.0000     -10.530763      -286.5566
   2   2.0000     -10.452898      -284.4378
   3   2.0000      -1.333419       -36.2842
   4   2.0000      -1.083181       -29.4749
   5   2.0000      -0.955886       -26.0110
   6   2.0000      -0.906516       -24.6676
   7   2.0000      -0.895797       -24.3759
   8   2.0000      -0.790402       -21.5079
   9   2.0000      -0.743886       -20.2422
  10   2.0000      -0.680676       -18.5221
  11   2.0000      -0.673322       -18.3220
  12   2.0000      -0.651590       -17.7307
  13   0.0000      -0.119817        -3.2604
  14   0.0000      -0.065124        -1.7721
  15   0.0000      -0.062475        -1.7000
  16   0.0000      -0.059590        -1.6215
  17   0.0000      -0.027605        -0.7512

MULLIKEN ATOMIC CHARGES
-----------------------
   0 C :   -0.325026
   1 C :   -1.230095
   2 H :    0.334751
   3 H :    0.324185
   4 N :   -0.302296
   5 H :    0.357654
   6 H :    0.358719
   7 H :    0.346113
   8 H :    0.440661
   9 H :    0.376759
  10 H :    0.318574
Sum of atomic charges:    1.0000000

LOEWDIN ATOMIC CHARGES
----------------------
   0 C :   -0.193417
   1 C :   -0.062124
   2 H :    0.137518
   3 H :    0.136276
   4 N :    0.181657
   5 H :    0.180764
   6 H :    0.183292
   7 H :    0.168775
   8 H :    0.084691
   9 H :    0.087259
  10 H :    0.095308

  Mayer bond orders larger than 0.100000
B(  0-C ,  1-C ) :   0.6373 B(  0-C ,  2-H ) :   0.9118 B(  0-C ,  3-H ) :   0.9160
B(  0-C ,  4-N ) :   0.9438 B(  1-C ,  8-H ) :   0.8438 B(  1-C ,  9-H ) :   0.9196
B(  1-C , 10-H ) :   0.9806 B(  4-N ,  5-H ) :   0.8583 B(  4-N ,  6-H ) :   0.8610
B(  4-N ,  7-H ) :   0.8460

Dispersion correction           -0.001457138
FINAL SINGLE POINT ENERGY      -135.548061702578

DIPOLE MOMENT
-------------
                                X             Y             Z
Electronic contribution:     -1.82479      -0.15640      -0.05779
Nuclear contribution   :      0.50278      -0.30871      -0.06979
                        -----------------------------------------
Total Dipole Moment    :     -1.32201      -0.46511      -0.12758
                        -----------------------------------------
Magnitude (a.u.)       :      1.40724
Magnitude (Debye)      :      3.57691

Rotational constants in cm-1:     0.963746     0.295157     0.256910
Rotational constants in MHz : 28892.375247  8848.576767  7701.963879

                             ****ORCA TERMINATED NORMALLY****
TOTAL RUN TIME: 0 days 0 hours 0 minutes 23 seconds 705 msec
