                         Program Version 5.0.0 -  RELEASE  -
|  1> !wB97X-D3 RIJCOSX def2-TZVPD def2/J TightSCF
|  2> *xyz 0 1
|  3> C         -0.77894        0.17197        1.80496
|  4> C         -0.60249       -0.63071        0.49224
|  5> H          0.31389       -1.24035        0.60350
|  6> H         -0.36383        0.11332       -0.30117
|  7> F         -1.71206       -1.37684        0.20253
|  8> H         -1.65864        0.77733        1.73736
|  9> H          0.07466        0.79896        1.95712
| 10> H         -0.87474       -0.50584        2.62734
| 11> *
| 12> %MaxCore 64000
| 13>
| 14> %pal nprocs 4
| 15> end
| 16>
| 17> %scf
| 18>   MaxIter 150
| 19> end
| 20>
| 21>
| 22>                          ****END OF INPUT****

CARTESIAN COORDINATES (ANGSTROEM)
---------------------------------
  C     -0.778940    0.171970    1.804960
  C     -0.602490   -0.630710    0.492240
  H      0.313890   -1.240350    0.603500
  H     -0.363830    0.113320   -0.301170
  F     -1.712060   -1.376840    0.202530
  H     -1.658640    0.777330    1.737360
  H      0.074660    0.798960    1.957120
  H     -0.874740   -0.505840    2.627340

 Total Charge           Charge          ....    0
 Multiplicity           Mult            ....    1
 Number of Electrons    NEL             ....   26
 Basis Dimension        Dim             ....  159

ORBITAL ENERGIES
----------------

  NO   OCC          E(Eh)            E(eV)
   0   2.0000     -24.772370      -674.0905
   1   2.0000     -10.354940      -281.7722
   2   2.0000     -10.268192      -279.4117
   3   2.0000      -1.315176       -35.7878
   4   2.0000      -0.878662       -23.9096
   5   2.0000      -0.743350       -20.2276
   6   2.0000      -0.610816       -16.6211
   7   2.0000      -0.599378       -16.3099
   8   2.0000      -0.559605       -15.2276
   9   2.0000      -0.504222       -13.7206
  10   2.0000      -0.497768       -13.5449
  11   2.0000      -0.430138       -11.7047
  12   2.0000      -0.427474       -11.6322
  13   0.0000       0.073122         1.9897
  14   0.0000       0.095710         2.6044
  15   0.0000       0.117926         3.2089
  16   0.0000       0.121248         3.2993
  17   0.0000       0.149598         4.0708

MULLIKEN ATOMIC CHARGES
-----------------------
   0 C :   -0.979185
   1 C :   -0.064491
   2 H :    0.220580
   3 H :    0.213877
   4 F :   -0.299956
   5 H :    0.291119
   6 H :    0.334041
   7 H :    0.284015
Sum of atomic charges:   -0.0000000

LOEWDIN ATOMIC CHARGES
----------------------
   0 C :   -0.085531
   1 C :   -0.281283
   2 H :    0.110026
   3 H :    0.112461
   4 F :   -0.049007
   5 H :    0.064479
   6 H :    0.065548
   7 H :    0.063305

  Mayer bond orders larger than 0.100000
B(  0-C ,  1-C ) :   0.8120 B(  0-C ,  5-H ) :   0.9525 B(  0-C ,  6-H ) :   0.9205
B(  0-C ,  7-H ) :   0.9548 B(  1-C ,  2-H ) :   0.9790 B(  1-C ,  3-H ) :   0.9838
B(  1-C ,  4-F ) :   0.7727

Dispersion correction           -0.000877435
FINAL SINGLE POINT ENERGY      -179.086671542007

DIPOLE MOMENT
-------------
                                X             Y             Z
Electronic contribution:     -2.73299      -3.29138      -2.82656
Nuclear contribution   :      3.27800       3.70743       3.04146
                        -----------------------------------------
Total Dipole Moment    :      0.54502       0.41606       0.21490
                        -----------------------------------------
Magnitude (a.u.)       :      0.71856
Magnitude (Debye)      :      1.82644

Rotational constants in cm-1:     1.234437     0.305084     0.268865
Rotational constants in MHz : 37007.496448  9146.194083  8060.380630

                             ****ORCA TERMINATED NORMALLY****
TOTAL RUN TIME: 0 days 0 hours 0 minutes 16 seconds 938 msec
