                         Program Version 5.0.0 -  RELEASE  -
|  1> !wB97X-D3 RIJCOSX def2-TZVPD def2/J TightSCF
|  2> *xyz 0 1
|  3> C         -2.12050        0.88520        1.78951
|  4> C         -0.77894        0.17197        1.80496
|  5> H         -2.32419        1.47265        2.68608
|  6> H         -2.18770        1.54127        0.91948
|  7> C         -3.17690       -0.15948        1.61070
|  8> H         -4.06474        0.23127        1.28675
|  9> H         -3.34407       -0.67151        2.48493
| 10> H         -2.71686       -0.78189        0.93588
| 11> H         -0.65708       -0.37837        0.89547
| 12> H         -0.74207       -0.50050        2.63642
| 13> H          0.00707        0.89251        1.89389
| 14> *
| 15> %MaxCore 64000
| 16>
| 17> %pal nprocs 4
| 18> end
| 19>
| 20> %scf
| 21>   MaxIter 150
| 22> end
| 23>
| 24>
| 25>                          ****END OF INPUT****

CARTESIAN COORDINATES (ANGSTROEM)
---------------------------------
  C     -2.120500    0.885200    1.789510
  C     -0.778940    0.171970    1.804960
  H     -2.324190    1.472650    2.686080
  H     -2.187700    1.541270    0.919480
  C     -3.176900   -0.159480    1.610700
  H     -4.064740    0.231270    1.286750
  H     -3.344070   -0.671510    2.484930
  H     -2.716860   -0.781890    0.935880
  H     -0.657080   -0.378370    0.895470
  H     -0.742070   -0.500500    2.636420
  H      0.007070    0.892510    1.893890

 Total Charge           Charge          ....    0
 Multiplicity           Mult            ....    1
 Number of Electrons    NEL             ....   26
 Basis Dimension        Dim             ....  183

ORBITAL ENERGIES
----------------

  NO   OCC          E(Eh)            E(eV)
   0   2.0000     -10.260162      -279.1932
   1   2.0000     -10.250902      -278.9412
   2   2.0000     -10.230279      -278.3800
   3   2.0000      -0.912814       -24.8389
   4   2.0000      -0.799638       -21.7593
   5   2.0000      -0.695526       -18.9262
   6   2.0000      -0.573948       -15.6179
   7   2.0000      -0.554170       -15.0797
   8   2.0000      -0.497058       -13.5256
   9   2.0000      -0.481333       -13.0977
  10   2.0000      -0.433679       -11.8010
  11   2.0000      -0.424651       -11.5554
  12   2.0000      -0.420906       -11.4534
  13   0.0000       0.078067         2.1243
  14   0.0000       0.096300         2.6205
  15   0.0000       0.098471         2.6795
  16   0.0000       0.128611         3.4997
  17   0.0000       0.148973         4.0538

MULLIKEN ATOMIC CHARGES
-----------------------
   0 C :    0.030427
   1 C :   -1.203580
   2 H :    0.259403
   3 H :    0.238344
   4 C :   -1.307006
   5 H :    0.352261
   6 H :    0.362090
   7 H :    0.315217
   8 H :    0.334986
   9 H :    0.313476
  10 H :    0.304383
Sum of atomic charges:   -0.0000000

LOEWDIN ATOMIC CHARGES
----------------------
   0 C :   -0.315039
   1 C :   -0.125083
   2 H :    0.103685
   3 H :    0.103615
   4 C :   -0.125021
   5 H :    0.051516
   6 H :    0.057329
   7 H :    0.048114
   8 H :    0.067250
   9 H :    0.071194
  10 H :    0.062439

  Mayer bond orders larger than 0.100000
B(  0-C ,  1-C ) :   0.5920 B(  0-C ,  2-H ) :   0.9363 B(  0-C ,  3-H ) :   0.9735
B(  0-C ,  4-C ) :   0.5871 B(  1-C ,  4-C ) :   0.2289 B(  1-C ,  8-H ) :   0.9614
B(  1-C ,  9-H ) :   0.9680 B(  1-C , 10-H ) :   0.9703 B(  4-C ,  5-H ) :   0.9105
B(  4-C ,  6-H ) :   0.9379 B(  4-C ,  7-H ) :   0.9640

Dispersion correction           -0.001406904
FINAL SINGLE POINT ENERGY      -119.134461344720

DIPOLE MOMENT
-------------
                                X             Y             Z
Electronic contribution:     -0.14401       0.47145       0.11312
Nuclear contribution   :      0.13334      -0.45108      -0.10852
                        -----------------------------------------
Total Dipole Moment    :     -0.01067       0.02036       0.00461
                        -----------------------------------------
Magnitude (a.u.)       :      0.02345
Magnitude (Debye)      :      0.05960

Rotational constants in cm-1:     0.972269     0.310387     0.269029
Rotational constants in MHz : 29147.878530  9305.178981  8065.286472

                             ****ORCA TERMINATED NORMALLY****
TOTAL RUN TIME: 0 days 0 hours 0 minutes 22 seconds 551 msec
