                         Program Version 5.0.0 -  RELEASE  -
|  1> !LC-PBE RIJCOSX def2-SVPD def2/J TightSCF
|  2> *xyz -1 1
|  3> C         -2.79070       -0.78527        5.70281
|  4> C         -2.45380        0.05510        6.94145
|  5> C         -2.07842        1.48042        6.56410
|  6> H         -1.62558       -0.38216        7.49891
|  7> H         -3.32527        0.08775        7.59917
|  8> O         -0.90125        1.85816        6.82810
|  9> O         -2.93658        2.17731        5.96415
| 10> H         -1.94052       -0.82114        5.05412
| 11> H         -3.61590       -0.34261        5.18514
| 12> H         -3.05063       -1.77815        6.00536
| 13> *
| 14> %MaxCore 64000
| 15>
| 16> %pal nprocs 4
| 17> end
| 18>
| 19> %scf
| 20>   MaxIter 150
| 21> end
| 22>
| 23>
| 24>                          ****END OF INPUT****

CARTESIAN COORDINATES (ANGSTROEM)
---------------------------------
  C     -2.790700   -0.785270    5.702810
  C     -2.453800    0.055100    6.941450
  C     -2.078420    1.480420    6.564100
  H     -1.625580   -0.382160    7.498910
  H     -3.325270    0.087750    7.599170
  O     -0.901250    1.858160    6.828100
  O     -2.936580    2.177310    5.964150
  H     -1.940520   -0.821140    5.054120
  H     -3.615900   -0.342610    5.185140
  H     -3.050630   -1.778150    6.005360

 Total Charge           Charge          ....   -1
 Multiplicity           Mult            ....    1
 Number of Electrons    NEL             ....   40
 Basis Dimension        Dim             ....  146

ORBITAL ENERGIES
----------------

  NO   OCC          E(Eh)            E(eV)
   0   2.0000     -18.727948      -509.6134
   1   2.0000     -18.726455      -509.5728
   2   2.0000     -10.018869      -272.6273
   3   2.0000      -9.967474      -271.2287
   4   2.0000      -9.956152      -270.9207
   5   2.0000      -0.979039       -26.6410
   6   2.0000      -0.874558       -23.7979
   7   2.0000      -0.779771       -21.2186
   8   2.0000      -0.636576       -17.3221
   9   2.0000      -0.472177       -12.8486
  10   2.0000      -0.440518       -11.9871
  11   2.0000      -0.402883       -10.9630
  12   2.0000      -0.377289       -10.2666
  13   2.0000      -0.355331        -9.6691
  14   2.0000      -0.349244        -9.5034
  15   2.0000      -0.314336        -8.5535
  16   2.0000      -0.302077        -8.2199
  17   2.0000      -0.178293        -4.8516
  18   2.0000      -0.175627        -4.7791
  19   2.0000      -0.162992        -4.4352
  20   0.0000       0.220870         6.0102
  21   0.0000       0.253752         6.9050
  22   0.0000       0.264196         7.1891
  23   0.0000       0.290968         7.9176
  24   0.0000       0.313808         8.5391

MULLIKEN ATOMIC CHARGES
-----------------------
   0 C :    0.313022
   1 C :   -0.399521
   2 C :    0.303892
   3 H :    0.032895
   4 H :    0.063273
   5 O :   -0.652254
   6 O :   -0.660199
   7 H :   -0.011150
   8 H :    0.021495
   9 H :   -0.011451
Sum of atomic charges:   -1.0000000

LOEWDIN ATOMIC CHARGES
----------------------
   0 C :    0.073748
   1 C :   -0.066452
   2 C :   -0.329507
   3 H :    0.013695
   4 H :    0.022531
   5 O :   -0.334621
   6 O :   -0.324390
   7 H :   -0.009425
   8 H :   -0.015319
   9 H :   -0.030260

  Mayer bond orders larger than 0.100000
B(  0-C ,  1-C ) :   1.2763 B(  0-C ,  7-H ) :   0.8972 B(  0-C ,  8-H ) :   0.8725
B(  0-C ,  9-H ) :   0.8804 B(  1-C ,  2-C ) :   1.0225 B(  1-C ,  3-H ) :   0.9767
B(  1-C ,  4-H ) :   0.9138 B(  1-C ,  7-H ) :   0.1350 B(  1-C ,  8-H ) :   0.1503
B(  1-C ,  9-H ) :   0.1179 B(  2-C ,  3-H ) :   0.1556 B(  2-C ,  5-O ) :   1.5463
B(  2-C ,  6-O ) :   1.5846

FINAL SINGLE POINT ENERGY      -266.874411225462

DIPOLE MOMENT
-------------
                                X             Y             Z
Electronic contribution:      1.59518       5.42897       0.69471
Nuclear contribution   :     -2.24498      -7.51881      -0.57245
                        -----------------------------------------
Total Dipole Moment    :     -0.64980      -2.08984       0.12226
                        -----------------------------------------
Magnitude (a.u.)       :      2.19195
Magnitude (Debye)      :      5.57148

Rotational constants in cm-1:     0.305589     0.135336     0.107479
Rotational constants in MHz :  9161.317320  4057.276612  3222.126231

                             ****ORCA TERMINATED NORMALLY****
TOTAL RUN TIME: 0 days 0 hours 0 minutes 19 seconds 191 msec
