                         Program Version 5.0.0 -  RELEASE  -
|  1> !LC-PBE RIJCOSX def2-SVPD def2/J TightSCF
|  2> *xyz 1 1
|  3> C         -0.69912        3.48945        3.75516
|  4> H         -0.96672        4.34901        3.14049
|  5> N         -1.08067        3.79296        5.15686
|  6> C          0.77696        3.13839        3.61741
|  7> H         -1.33146        2.65651        3.44632
|  8> H         -0.87449        4.76274        5.42734
|  9> H         -0.68079        3.13476        5.83900
| 10> H         -2.05755        3.53169        5.34620
| 11> H          0.99957        2.92898        2.59199
| 12> H          0.99576        2.27685        4.21303
| 13> H          1.37223        3.96279        3.95046
| 14> *
| 15> %MaxCore 64000
| 16>
| 17> %pal nprocs 4
| 18> end
| 19>
| 20> %scf
| 21>   MaxIter 150
| 22> end
| 23>
| 24>
| 25>                          ****END OF INPUT****

CARTESIAN COORDINATES (ANGSTROEM)
---------------------------------
  C     -0.699120    3.489450    3.755160
  H     -0.966720    4.349010    3.140490
  N     -1.080670    3.792960    5.156860
  C      0.776960    3.138390    3.617410
  H     -1.331460    2.656510    3.446320
  H     -0.874490    4.762740    5.427340
  H     -0.680790    3.134760    5.839000
  H     -2.057550    3.531690    5.346200
  H      0.999570    2.928980    2.591990
  H      0.995760    2.276850    4.213030
  H      1.372230    3.962790    3.950460

 Total Charge           Charge          ....    1
 Multiplicity           Mult            ....    1
 Number of Electrons    NEL             ....   26
 Basis Dimension        Dim             ....  124

ORBITAL ENERGIES
----------------

  NO   OCC          E(Eh)            E(eV)
   0   2.0000     -14.566422      -396.3725
   1   2.0000     -10.382629      -282.5257
   2   2.0000     -10.300171      -280.2819
   3   2.0000      -1.384919       -37.6856
   4   2.0000      -1.135688       -30.9036
   5   2.0000      -1.005016       -27.3479
   6   2.0000      -0.965727       -26.2788
   7   2.0000      -0.915764       -24.9192
   8   2.0000      -0.842989       -22.9389
   9   2.0000      -0.785670       -21.3792
  10   2.0000      -0.716948       -19.5091
  11   2.0000      -0.700960       -19.0741
  12   2.0000      -0.680170       -18.5084
  13   0.0000      -0.111219        -3.0264
  14   0.0000      -0.052182        -1.4199
  15   0.0000      -0.048873        -1.3299
  16   0.0000      -0.043197        -1.1755
  17   0.0000      -0.014153        -0.3851

MULLIKEN ATOMIC CHARGES
-----------------------
   0 C :    0.023316
   1 H :    0.016162
   2 N :   -0.861902
   3 C :    0.334166
   4 H :    0.050788
   5 H :    0.433551
   6 H :    0.408854
   7 H :    0.393734
   8 H :    0.084453
   9 H :    0.035872
  10 H :    0.081007
Sum of atomic charges:    1.0000000

LOEWDIN ATOMIC CHARGES
----------------------
   0 C :    0.030116
   1 H :    0.064430
   2 N :    0.306795
   3 C :    0.137943
   4 H :    0.062447
   5 H :    0.122932
   6 H :    0.113656
   7 H :    0.115125
   8 H :    0.024754
   9 H :    0.009790
  10 H :    0.012012

  Mayer bond orders larger than 0.100000
B(  0-C ,  1-H ) :   0.9646 B(  0-C ,  2-N ) :   0.7687 B(  0-C ,  3-C ) :   1.3059
B(  0-C ,  4-H ) :   0.9503 B(  0-C ,  8-H ) :   0.1379 B(  0-C ,  9-H ) :   0.1270
B(  0-C , 10-H ) :   0.1138 B(  2-N ,  5-H ) :   0.7095 B(  2-N ,  6-H ) :   0.7514
B(  2-N ,  7-H ) :   0.7611 B(  3-C ,  8-H ) :   0.8649 B(  3-C ,  9-H ) :   0.8799
B(  3-C , 10-H ) :   0.8539

FINAL SINGLE POINT ENERGY      -134.988117187636

DIPOLE MOMENT
-------------
                                X             Y             Z
Electronic contribution:     -1.34997       0.57531       1.12513
Nuclear contribution   :      0.33986      -0.24565       0.10678
                        -----------------------------------------
Total Dipole Moment    :     -1.01011       0.32966       1.23191
                        -----------------------------------------
Magnitude (a.u.)       :      1.62684
Magnitude (Debye)      :      4.13510

Rotational constants in cm-1:     1.016237     0.277523     0.247812
Rotational constants in MHz : 30466.024354  8319.937961  7429.230177

                             ****ORCA TERMINATED NORMALLY****
TOTAL RUN TIME: 0 days 0 hours 0 minutes 15 seconds 94 msec
