                         Program Version 5.0.0 -  RELEASE  -
|  1> !LC-PBE RIJCOSX def2-SVPD def2/J TightSCF
|  2> *xyz 0 1
|  3> C         -2.79070       -0.78527        5.70281
|  4> C         -2.45380        0.05510        6.94145
|  5> C         -2.07842        1.48042        6.56410
|  6> H         -1.62558       -0.38216        7.49891
|  7> H         -3.32527        0.08775        7.59917
|  8> F         -0.90125        1.85816        6.82810
|  9> O         -2.93658        2.17731        5.96415
| 10> H         -1.94052       -0.82114        5.05412
| 11> H         -3.61590       -0.34261        5.18514
| 12> H         -3.05063       -1.77815        6.00536
| 13> *
| 14> %MaxCore 64000
| 15>
| 16> %pal nprocs 4
| 17> end
| 18>
| 19> %scf
| 20>   MaxIter 150
| 21> end
| 22>
| 23>
| 24>                          ****END OF INPUT****

CARTESIAN COORDINATES (ANGSTROEM)
---------------------------------
  C     -2.790700   -0.785270    5.702810
  C     -2.453800    0.055100    6.941450
  C     -2.078420    1.480420    6.564100
  H     -1.625580   -0.382160    7.498910
  H     -3.325270    0.087750    7.599170
  F     -0.901250    1.858160    6.828100
  O     -2.936580    2.177310    5.964150
  H     -1.940520   -0.821140    5.054120
  H     -3.615900   -0.342610    5.185140
  H     -3.050630   -1.778150    6.005360

 Total Charge           Charge          ....    0
 Multiplicity           Mult            ....    1
 Number of Electrons    NEL             ....   40
 Basis Dimension        Dim             ....  146

ORBITAL ENERGIES
----------------

  NO   OCC          E(Eh)            E(eV)
   0   2.0000     -24.580107      -668.8587
   1   2.0000     -19.005341      -517.1616
   2   2.0000     -10.320448      -280.8337
   3   2.0000     -10.164743      -276.5967
   4   2.0000     -10.135843      -275.8103
   5   2.0000      -1.462906       -39.8077
   6   2.0000      -1.193475       -32.4761
   7   2.0000      -0.978359       -26.6225
   8   2.0000      -0.852214       -23.1899
   9   2.0000      -0.797320       -21.6962
  10   2.0000      -0.708748       -19.2860
  11   2.0000      -0.691088       -18.8054
  12   2.0000      -0.660933       -17.9849
  13   2.0000      -0.613497       -16.6941
  14   2.0000      -0.580979       -15.8092
  15   2.0000      -0.542713       -14.7680
  16   2.0000      -0.519016       -14.1231
  17   2.0000      -0.510493       -13.8912
  18   2.0000      -0.486006       -13.2249
  19   2.0000      -0.435804       -11.8588
  20   0.0000       0.059853         1.6287
  21   0.0000       0.083736         2.2786
  22   0.0000       0.112174         3.0524
  23   0.0000       0.121863         3.3161
  24   0.0000       0.146902         3.9974

MULLIKEN ATOMIC CHARGES
-----------------------
   0 C :    0.318942
   1 C :   -0.486693
   2 C :    0.619158
   3 H :    0.081367
   4 H :    0.138692
   5 F :   -0.326021
   6 O :   -0.440612
   7 H :    0.013258
   8 H :    0.044729
   9 H :    0.037181
Sum of atomic charges:    0.0000000

LOEWDIN ATOMIC CHARGES
----------------------
   0 C :    0.112625
   1 C :   -0.021029
   2 C :   -0.025093
   3 H :    0.035672
   4 H :    0.052888
   5 F :   -0.029007
   6 O :   -0.131006
   7 H :    0.003006
   8 H :    0.002813
   9 H :   -0.000868

  Mayer bond orders larger than 0.100000
B(  0-C ,  1-C ) :   1.3019 B(  0-C ,  7-H ) :   0.8922 B(  0-C ,  8-H ) :   0.8726
B(  0-C ,  9-H ) :   0.8852 B(  1-C ,  2-C ) :   1.0939 B(  1-C ,  3-H ) :   0.9679
B(  1-C ,  4-H ) :   0.9007 B(  1-C ,  7-H ) :   0.1233 B(  1-C ,  8-H ) :   0.1332
B(  1-C ,  9-H ) :   0.1091 B(  2-C ,  5-F ) :   0.8180 B(  2-C ,  6-O ) :   1.9065

FINAL SINGLE POINT ENERGY      -291.381496107413

DIPOLE MOMENT
-------------
                                X             Y             Z
Electronic contribution:      3.97518       7.36787       1.51667
Nuclear contribution   :     -3.69486      -8.49563      -1.04945
                        -----------------------------------------
Total Dipole Moment    :      0.28033      -1.12776       0.46721
                        -----------------------------------------
Magnitude (a.u.)       :      1.25248
Magnitude (Debye)      :      3.18356

Rotational constants in cm-1:     0.293725     0.129218     0.102393
Rotational constants in MHz :  8805.653529  3873.869810  3069.666716

                             ****ORCA TERMINATED NORMALLY****
TOTAL RUN TIME: 0 days 0 hours 0 minutes 17 seconds 316 msec
