                         Program Version 5.0.0 -  RELEASE  -
|  1> !LC-PBE RIJCOSX def2-SVPD def2/J TightSCF
|  2> *xyz 0 1
|  3> C         -0.69912        3.48945        3.75516
|  4> H         -0.96672        4.34901        3.14049
|  5> C         -1.08067        3.79296        5.15686
|  6> C          0.77696        3.13839        3.61741
|  7> H         -1.33146        2.65651        3.44632
|  8> H         -0.87449        4.76274        5.42734
|  9> H         -0.68079        3.13476        5.83900
| 10> H         -2.05755        3.53169        5.34620
| 11> H          0.99957        2.92898        2.59199
| 12> H          0.99576        2.27685        4.21303
| 13> H          1.37223        3.96279        3.95046
| 14> *
| 15> %MaxCore 64000
| 16>
| 17> %pal nprocs 4
| 18> end
| 19>
| 20> %scf
| 21>   MaxIter 150
| 22> end
| 23>
| 24>
| 25>                          ****END OF INPUT****

CARTESIAN COORDINATES (ANGSTROEM)
---------------------------------
  C     -0.699120    3.489450    3.755160
  H     -0.966720    4.349010    3.140490
  C     -1.080670    3.792960    5.156860
  C      0.776960    3.138390    3.617410
  H     -1.331460    2.656510    3.446320
  H     -0.874490    4.762740    5.427340
  H     -0.680790    3.134760    5.839000
  H     -2.057550    3.531690    5.346200
  H      0.999570    2.928980    2.591990
  H      0.995760    2.276850    4.213030
  H      1.372230    3.962790    3.950460

 Total Charge           Charge          ....    0
 Multiplicity           Mult            ....    1
 Number of Electrons    NEL             ....   26
 Basis Dimension        Dim             ....  124

ORBITAL ENERGIES
----------------

  NO   OCC          E(Eh)            E(eV)
   0   2.0000     -10.114520      -275.2301
   1   2.0000     -10.103897      -274.9410
   2   2.0000     -10.086801      -274.4758
   3   2.0000      -0.964970       -26.2582
   4   2.0000      -0.855365       -23.2757
   5   2.0000      -0.742774       -20.2119
   6   2.0000      -0.619824       -16.8663
   7   2.0000      -0.583971       -15.8907
   8   2.0000      -0.538520       -14.6539
   9   2.0000      -0.532556       -14.4916
  10   2.0000      -0.469924       -12.7873
  11   2.0000      -0.455140       -12.3850
  12   2.0000      -0.453996       -12.3539
  13   0.0000       0.095967         2.6114
  14   0.0000       0.121600         3.3089
  15   0.0000       0.129547         3.5251
  16   0.0000       0.161935         4.4065
  17   0.0000       0.182034         4.9534

MULLIKEN ATOMIC CHARGES
-----------------------
   0 C :   -0.659315
   1 H :   -0.038659
   2 C :    0.645254
   3 C :    0.386992
   4 H :    0.031027
   5 H :   -0.130573
   6 H :   -0.157858
   7 H :   -0.106798
   8 H :   -0.000383
   9 H :    0.025830
  10 H :    0.004483
Sum of atomic charges:    0.0000000

LOEWDIN ATOMIC CHARGES
----------------------
   0 C :   -0.139384
   1 H :    0.032333
   2 C :    0.077057
   3 C :    0.083385
   4 H :    0.031489
   5 H :   -0.014824
   6 H :   -0.023646
   7 H :   -0.025165
   8 H :   -0.011007
   9 H :   -0.005862
  10 H :   -0.004378

  Mayer bond orders larger than 0.100000
B(  0-C ,  1-H ) :   1.0009 B(  0-C ,  2-C ) :   1.3015 B(  0-C ,  3-C ) :   1.2444
B(  0-C ,  4-H ) :   0.9508 B(  0-C ,  5-H ) :   0.1838 B(  0-C ,  6-H ) :   0.1585
B(  0-C ,  7-H ) :   0.1613 B(  0-C ,  8-H ) :   0.1472 B(  0-C ,  9-H ) :   0.1191
B(  0-C , 10-H ) :   0.1453 B(  2-C ,  5-H ) :   0.8047 B(  2-C ,  6-H ) :   0.7567
B(  2-C ,  7-H ) :   0.7327 B(  3-C ,  8-H ) :   0.8680 B(  3-C ,  9-H ) :   0.8773
B(  3-C , 10-H ) :   0.8735 B(  6-H ,  7-H ) :   0.2288

FINAL SINGLE POINT ENERGY      -118.609830777000

DIPOLE MOMENT
-------------
                                X             Y             Z
Electronic contribution:     -0.14722       0.11590      -0.39238
Nuclear contribution   :      0.10024      -0.14218       0.41628
                        -----------------------------------------
Total Dipole Moment    :     -0.04698      -0.02628       0.02390
                        -----------------------------------------
Magnitude (a.u.)       :      0.05890
Magnitude (Debye)      :      0.14971

Rotational constants in cm-1:     1.024179     0.291605     0.259489
Rotational constants in MHz : 30704.103454  8742.106283  7779.285909

                             ****ORCA TERMINATED NORMALLY****
TOTAL RUN TIME: 0 days 0 hours 0 minutes 13 seconds 16 msec
