                         Program Version 5.0.0 -  RELEASE  -
|  1> !LC-PBE RIJCOSX def2-SVPD def2/J TightSCF
|  2> *xyz 0 1
|  3> C         -2.79070       -0.78527        5.70281
|  4> C         -2.45380        0.05510        6.94145
|  5> C         -2.07842        1.48042        6.56410
|  6> H         -1.62558       -0.38216        7.49891
|  7> H         -3.32527        0.08775        7.59917
|  8> O         -0.90125        1.85816        6.82810
|  9> F         -2.93658        2.17731        5.96415
| 10> H         -1.94052       -0.82114        5.05412
| 11> H         -3.61590       -0.34261        5.18514
| 12> H         -3.05063       -1.77815        6.00536
| 13> *
| 14> %MaxCore 64000
| 15>
| 16> %pal nprocs 4
| 17> end
| 18>
| 19> %scf
| 20>   MaxIter 150
| 21> end
| 22>
| 23>
| 24>                          ****END OF INPUT****

CARTESIAN COORDINATES (ANGSTROEM)
---------------------------------
  C     -2.790700   -0.785270    5.702810
  C     -2.453800    0.055100    6.941450
  C     -2.078420    1.480420    6.564100
  H     -1.625580   -0.382160    7.498910
  H     -3.325270    0.087750    7.599170
  O     -0.901250    1.858160    6.828100
  F     -2.936580    2.177310    5.964150
  H     -1.940520   -0.821140    5.054120
  H     -3.615900   -0.342610    5.185140
  H     -3.050630   -1.778150    6.005360

 Total Charge           Charge          ....    0
 Multiplicity           Mult            ....    1
 Number of Electrons    NEL             ....   40
 Basis Dimension        Dim             ....  146

ORBITAL ENERGIES
----------------

  NO   OCC          E(Eh)            E(eV)
   0   2.0000     -24.583360      -668.9472
   1   2.0000     -19.003429      -517.1096
   2   2.0000     -10.320243      -280.8281
   3   2.0000     -10.164405      -276.5875
   4   2.0000     -10.140220      -275.9294
   5   2.0000      -1.468116       -39.9495
   6   2.0000      -1.188746       -32.3474
   7   2.0000      -0.981839       -26.7172
   8   2.0000      -0.849395       -23.1132
   9   2.0000      -0.804532       -21.8924
  10   2.0000      -0.712995       -19.4016
  11   2.0000      -0.698475       -19.0065
  12   2.0000      -0.653753       -17.7895
  13   2.0000      -0.613867       -16.7042
  14   2.0000      -0.580974       -15.8091
  15   2.0000      -0.546250       -14.8642
  16   2.0000      -0.523890       -14.2558
  17   2.0000      -0.512077       -13.9343
  18   2.0000      -0.488726       -13.2989
  19   2.0000      -0.429177       -11.6785
  20   0.0000       0.062291         1.6950
  21   0.0000       0.082709         2.2506
  22   0.0000       0.112312         3.0562
  23   0.0000       0.120807         3.2873
  24   0.0000       0.147638         4.0174

MULLIKEN ATOMIC CHARGES
-----------------------
   0 C :    0.306239
   1 C :   -0.463490
   2 C :    0.639683
   3 H :    0.074295
   4 H :    0.124161
   5 O :   -0.433264
   6 F :   -0.337920
   7 H :    0.018568
   8 H :    0.032056
   9 H :    0.039673
Sum of atomic charges:   -0.0000000

LOEWDIN ATOMIC CHARGES
----------------------
   0 C :    0.107920
   1 C :   -0.017777
   2 C :   -0.028613
   3 H :    0.046269
   4 H :    0.047652
   5 O :   -0.137623
   6 F :   -0.020547
   7 H :    0.005028
   8 H :   -0.002002
   9 H :   -0.000307

  Mayer bond orders larger than 0.100000
B(  0-C ,  1-C ) :   1.2744 B(  0-C ,  7-H ) :   0.9049 B(  0-C ,  8-H ) :   0.8647
B(  0-C ,  9-H ) :   0.8910 B(  1-C ,  2-C ) :   1.0659 B(  1-C ,  3-H ) :   0.9977
B(  1-C ,  4-H ) :   0.8996 B(  1-C ,  7-H ) :   0.1199 B(  1-C ,  8-H ) :   0.1254
B(  1-C ,  9-H ) :   0.1100 B(  2-C ,  3-H ) :   0.1054 B(  2-C ,  5-O ) :   1.8934
B(  2-C ,  6-F ) :   0.8071

FINAL SINGLE POINT ENERGY      -291.379009271495

DIPOLE MOMENT
-------------
                                X             Y             Z
Electronic contribution:      0.53807       7.88385       0.06012
Nuclear contribution   :     -1.47571      -8.84360      -0.10748
                        -----------------------------------------
Total Dipole Moment    :     -0.93764      -0.95975      -0.04736
                        -----------------------------------------
Magnitude (a.u.)       :      1.34259
Magnitude (Debye)      :      3.41259

Rotational constants in cm-1:     0.283081     0.133379     0.103386
Rotational constants in MHz :  8486.545774  3998.599544  3099.448040

                             ****ORCA TERMINATED NORMALLY****
TOTAL RUN TIME: 0 days 0 hours 0 minutes 16 seconds 986 msec
