                         Program Version 5.0.0 -  RELEASE  -
|  1> !LC-PBE RIJCOSX def2-SVPD def2/J TightSCF xyzfile
|  2>
|  3> *xyzfile 0 1 D1.xyz
|  4>
|  5> %MaxCore 64000
|  6>
|  7> %pal nprocs 4
|  8> end
|  9>
| 10> %scf
| 11>   MaxIter 150
| 12> end
| 13>
| 14>
| 15>                          ****END OF INPUT****

CARTESIAN COORDINATES (ANGSTROEM)
---------------------------------
  C     -0.699123    3.489451    3.755163
  H     -0.966716    4.349013    3.140491
  C     -1.080669    3.792957    5.156857
  C      0.776956    3.138391    3.617408
  H     -1.331455    2.656510    3.446323
  H      1.371398    3.888342    4.149744
  H      1.046926    3.232057    2.561331
  C      1.118917    1.731170    4.115155
  H      2.200573    1.654226    4.254882
  C      0.659466    0.635182    3.153306
  H      0.677024    1.576674    5.103150
  H      1.312288    0.638870    2.274207
  H     -0.339563    0.868049    2.772876
  C      0.639957   -0.771175    3.755619
  C     -0.341821   -0.965537    4.915046
  H      1.648266   -1.028665    4.097015
  H      0.398568   -1.482386    2.958453
  H     -0.279892   -2.005646    5.252547
  C     -1.789164   -0.639231    4.557496
  H     -0.032380   -0.352918    5.765118
  H     -2.107151   -1.270102    3.719619
  H     -1.856352    0.391636    4.197604
  C     -2.790700   -0.785275    5.702812
  H     -2.867308   -1.835651    6.001675
  H     -3.774554   -0.486577    5.334807
  C     -2.453797    0.055101    6.941445
  C     -2.078419    1.480421    6.564098
  H     -1.625584   -0.382163    7.498914
  H     -3.325274    0.087746    7.599175
  H     -0.874488    4.762737    5.427344
  H     -0.680793    3.134762    5.839000
  H     -2.057550    3.531691    5.346197
  F     -0.901252    1.858156    6.828104
  O     -2.936582    2.177309    5.964151

 Total Charge           Charge          ....    0
 Multiplicity           Mult            ....    1
 Number of Electrons    NEL             ....  104
 Basis Dimension        Dim             ....  434

ORBITAL ENERGIES
----------------

  NO   OCC          E(Eh)            E(eV)
   0   2.0000     -24.591192      -669.1603
   1   2.0000     -19.012101      -517.3456
   2   2.0000     -10.331067      -281.1226
   3   2.0000     -10.165459      -276.6162
   4   2.0000     -10.147053      -276.1154
   5   2.0000     -10.131905      -275.7032
   6   2.0000     -10.128762      -275.6176
   7   2.0000     -10.122883      -275.4576
   8   2.0000     -10.115688      -275.2619
   9   2.0000     -10.112788      -275.1829
  10   2.0000     -10.105015      -274.9714
  11   2.0000     -10.095564      -274.7143
  12   2.0000     -10.041076      -273.2316
  13   2.0000      -1.478927       -40.2437
  14   2.0000      -1.206916       -32.8419
  15   2.0000      -1.010704       -27.5026
  16   2.0000      -0.985070       -26.8051
  17   2.0000      -0.951363       -25.8879
  18   2.0000      -0.919975       -25.0338
  19   2.0000      -0.873780       -23.7768
  20   2.0000      -0.847968       -23.0744
  21   2.0000      -0.818577       -22.2746
  22   2.0000      -0.785882       -21.3849
  23   2.0000      -0.768026       -20.8991
  24   2.0000      -0.724176       -19.7058
  25   2.0000      -0.721282       -19.6271
  26   2.0000      -0.710844       -19.3431
  27   2.0000      -0.690629       -18.7930
  28   2.0000      -0.670290       -18.2395
  29   2.0000      -0.630120       -17.1464
  30   2.0000      -0.626333       -17.0434
  31   2.0000      -0.607472       -16.5302
  32   2.0000      -0.605670       -16.4811
  33   2.0000      -0.581152       -15.8140
  34   2.0000      -0.573154       -15.5963
  35   2.0000      -0.556192       -15.1348
  36   2.0000      -0.548512       -14.9258
  37   2.0000      -0.538093       -14.6422
  38   2.0000      -0.528272       -14.3750
  39   2.0000      -0.517189       -14.0734
  40   2.0000      -0.502635       -13.6774
  41   2.0000      -0.496662       -13.5149
  42   2.0000      -0.484281       -13.1779
  43   2.0000      -0.474562       -12.9135
  44   2.0000      -0.470415       -12.8006
  45   2.0000      -0.457231       -12.4419
  46   2.0000      -0.452075       -12.3016
  47   2.0000      -0.438827       -11.9411
  48   2.0000      -0.434780       -11.8310
  49   2.0000      -0.422990       -11.5101
  50   2.0000      -0.421526       -11.4703
  51   2.0000      -0.395466       -10.7612
  52   0.0000       0.048889         1.3303
  53   0.0000       0.083834         2.2812
  54   0.0000       0.098869         2.6904
  55   0.0000       0.101725         2.7681
  56   0.0000       0.107771         2.9326

MULLIKEN ATOMIC CHARGES
-----------------------
   0 C :   -0.094326
   1 H :   -0.192863
   2 C :    1.625433
   3 C :    0.348290
   4 H :   -0.185278
   5 H :   -0.000554
   6 H :   -0.027408
   7 C :    0.499668
   8 H :    0.078714
   9 C :   -0.106612
  10 H :   -0.691134
  11 H :   -0.132080
  12 H :   -0.068575
  13 C :    0.504726
  14 C :   -0.118886
  15 H :   -0.043477
  16 H :    0.112611
  17 H :   -0.184084
  18 C :    0.194563
  19 H :    0.008572
  20 H :    0.022776
  21 H :   -0.514773
  22 C :    0.283287
  23 H :   -0.068129
  24 H :    0.157184
  25 C :    0.102065
  26 C :    0.409282
  27 H :    0.213025
  28 H :   -0.038334
  29 H :   -0.199121
  30 H :   -0.724166
  31 H :   -0.238907
  32 F :   -0.455067
  33 O :   -0.476421
Sum of atomic charges:    0.0000000

LOEWDIN ATOMIC CHARGES
----------------------
   0 C :   -0.059976
   1 H :    0.034020
   2 C :    0.103361
   3 C :   -0.050399
   4 H :    0.014866
   5 H :    0.036514
   6 H :    0.029422
   7 C :   -0.037047
   8 H :    0.036909
   9 C :   -0.054234
  10 H :   -0.005627
  11 H :    0.036967
  12 H :    0.011322
  13 C :   -0.050865
  14 C :   -0.050447
  15 H :    0.035654
  16 H :    0.034640
  17 H :    0.038707
  18 C :   -0.045128
  19 H :    0.005681
  20 H :    0.046417
  21 H :    0.010600
  22 C :   -0.030030
  23 H :    0.040161
  24 H :    0.042920
  25 C :    0.034317
  26 C :    0.029311
  27 H :    0.037347
  28 H :    0.054947
  29 H :   -0.006250
  30 H :   -0.090384
  31 H :   -0.091831
  32 F :   -0.035958
  33 O :   -0.105908

  Mayer bond orders larger than 0.100000
B(  0-C ,  1-H ) :   0.9672 B(  0-C ,  2-C ) :   0.8748 B(  0-C ,  3-C ) :   1.1849
B(  0-C ,  4-H ) :   0.7894 B(  0-C ,  5-H ) :   0.1454 B(  0-C ,  6-H ) :   0.1322
B(  0-C ,  7-C ) :   0.1414 B(  0-C , 10-H ) :  -0.1295 B(  0-C , 30-H ) :   0.5367
B(  0-C , 31-H ) :   0.3209 B(  1-H , 30-H ) :   0.1077 B(  2-C ,  4-H ) :   0.1760
B(  2-C , 29-H ) :   0.6464 B(  2-C , 30-H ) :  -0.1636 B(  2-C , 31-H ) :   0.4293
B(  3-C ,  4-H ) :   0.1068 B(  3-C ,  5-H ) :   0.7601 B(  3-C ,  6-H ) :   0.7989
B(  3-C ,  7-C ) :   1.2001 B(  3-C , 10-H ) :   0.1747 B(  3-C , 30-H ) :  -0.1314
B(  4-H , 12-H ) :   0.1014 B(  4-H , 21-H ) :   0.1626 B(  5-H ,  6-H ) :  -0.1027
B(  5-H ,  7-C ) :   0.1353 B(  6-H ,  7-C ) :   0.1185 B(  7-C ,  8-H ) :   0.7367
B(  7-C ,  9-C ) :   1.1387 B(  7-C , 10-H ) :   0.5442 B(  7-C , 11-H ) :   0.1864
B(  8-H ,  9-C ) :   0.1853 B(  9-C , 10-H ) :   0.2218 B(  9-C , 11-H ) :   0.9313
B(  9-C , 12-H ) :   0.9336 B(  9-C , 13-C ) :   1.2006 B(  9-C , 15-H ) :   0.1245
B(  9-C , 16-H ) :   0.1945 B( 10-H , 19-H ) :   0.1092 B( 10-H , 30-H ) :   0.1012
B( 13-C , 14-C ) :   1.1545 B( 13-C , 15-H ) :   0.7566 B( 13-C , 16-H ) :   0.7341
B( 14-C , 15-H ) :   0.2425 B( 14-C , 17-H ) :   0.9811 B( 14-C , 18-C ) :   1.1678
B( 14-C , 19-H ) :   0.8987 B( 14-C , 20-H ) :   0.1453 B( 14-C , 21-H ) :   0.2160
B( 17-H , 18-C ) :   0.1495 B( 18-C , 20-H ) :   0.7641 B( 18-C , 21-H ) :   0.7752
B( 18-C , 22-C ) :   1.2623 B( 18-C , 23-H ) :   0.1371 B( 18-C , 24-H ) :   0.2143
B( 21-H , 22-C ) :   0.1093 B( 22-C , 23-H ) :   0.8641 B( 22-C , 24-H ) :   0.7279
B( 22-C , 25-C ) :   1.1683 B( 22-C , 28-H ) :   0.1406 B( 23-H , 24-H ) :  -0.1067
B( 23-H , 25-C ) :   0.1062 B( 25-C , 26-C ) :   1.2622 B( 25-C , 27-H ) :   0.8217
B( 25-C , 28-H ) :   0.7342 B( 26-C , 27-H ) :   0.1231 B( 26-C , 28-H ) :   0.2439
B( 26-C , 32-F ) :   0.7229 B( 26-C , 33-O ) :   1.7814 B( 29-H , 30-H ) :   0.1643
B( 30-H , 31-H ) :   0.3226 B( 30-H , 32-F ) :   0.2415 B( 31-H , 33-O ) :   0.1942

FINAL SINGLE POINT ENERGY      -604.518107833860

DIPOLE MOMENT
-------------
                                X             Y             Z
Electronic contribution:     -5.45786       2.42934      10.85366
Nuclear contribution   :      5.54676      -3.70047     -10.28793
                        -----------------------------------------
Total Dipole Moment    :      0.08889      -1.27113       0.56573
                        -----------------------------------------
Magnitude (a.u.)       :      1.39417
Magnitude (Debye)      :      3.54371

Rotational constants in cm-1:     0.028503     0.023389     0.015214
Rotational constants in MHz :   854.502405   701.197575   456.108322

                             ****ORCA TERMINATED NORMALLY****
TOTAL RUN TIME: 0 days 0 hours 3 minutes 36 seconds 668 msec
