                         Program Version 5.0.0 -  RELEASE  -
|  1> !LC-PBE RIJCOSX def2-SVPD def2/J TightSCF xyzfile
|  2>
|  3> *xyzfile 0 1 D2.xyz
|  4>
|  5> %MaxCore 64000
|  6>
|  7> %pal nprocs 4
|  8> end
|  9>
| 10> %scf
| 11>   MaxIter 150
| 12> end
| 13>
| 14>
| 15>                          ****END OF INPUT****

CARTESIAN COORDINATES (ANGSTROEM)
---------------------------------
  C     -0.699123    3.489451    3.755163
  H     -0.966716    4.349013    3.140491
  C     -1.080669    3.792957    5.156857
  C      0.776956    3.138391    3.617408
  H     -1.331455    2.656510    3.446323
  H      1.371398    3.888342    4.149744
  H      1.046926    3.232057    2.561331
  C      1.118917    1.731170    4.115155
  H      2.200573    1.654226    4.254882
  C      0.659466    0.635182    3.153306
  H      0.677024    1.576674    5.103150
  H      1.312288    0.638870    2.274207
  H     -0.339563    0.868049    2.772876
  C      0.639957   -0.771175    3.755619
  C     -0.341821   -0.965537    4.915046
  H      1.648266   -1.028665    4.097015
  H      0.398568   -1.482386    2.958453
  H     -0.279892   -2.005646    5.252547
  C     -1.789164   -0.639231    4.557496
  H     -0.032380   -0.352918    5.765118
  H     -2.107151   -1.270102    3.719619
  H     -1.856352    0.391636    4.197604
  C     -2.790700   -0.785275    5.702812
  H     -2.867308   -1.835651    6.001675
  H     -3.774554   -0.486577    5.334807
  C     -2.453797    0.055101    6.941445
  C     -2.078419    1.480421    6.564098
  H     -1.625584   -0.382163    7.498914
  H     -3.325274    0.087746    7.599175
  H     -0.874488    4.762737    5.427344
  H     -0.680793    3.134762    5.839000
  H     -2.057550    3.531691    5.346197
  O     -0.901252    1.858156    6.828104
  F     -2.936582    2.177309    5.964151

 Total Charge           Charge          ....    0
 Multiplicity           Mult            ....    1
 Number of Electrons    NEL             ....  104
 Basis Dimension        Dim             ....  434

ORBITAL ENERGIES
----------------

  NO   OCC          E(Eh)            E(eV)
   0   2.0000     -24.594576      -669.2524
   1   2.0000     -19.012225      -517.3489
   2   2.0000     -10.333019      -281.1757
   3   2.0000     -10.166012      -276.6313
   4   2.0000     -10.150817      -276.2178
   5   2.0000     -10.134299      -275.7683
   6   2.0000     -10.122940      -275.4592
   7   2.0000     -10.118610      -275.3414
   8   2.0000     -10.111359      -275.1441
   9   2.0000     -10.103996      -274.9437
  10   2.0000     -10.101341      -274.8715
  11   2.0000     -10.095412      -274.7101
  12   2.0000     -10.039699      -273.1941
  13   2.0000      -1.482550       -40.3422
  14   2.0000      -1.206704       -32.8361
  15   2.0000      -1.011998       -27.5379
  16   2.0000      -0.982075       -26.7236
  17   2.0000      -0.949527       -25.8380
  18   2.0000      -0.918364       -24.9899
  19   2.0000      -0.870324       -23.6827
  20   2.0000      -0.844543       -22.9812
  21   2.0000      -0.821021       -22.3411
  22   2.0000      -0.781377       -21.2624
  23   2.0000      -0.769174       -20.9303
  24   2.0000      -0.726250       -19.7623
  25   2.0000      -0.719086       -19.5673
  26   2.0000      -0.714532       -19.4434
  27   2.0000      -0.688698       -18.7404
  28   2.0000      -0.666361       -18.1326
  29   2.0000      -0.633129       -17.2283
  30   2.0000      -0.626905       -17.0589
  31   2.0000      -0.606054       -16.4916
  32   2.0000      -0.600236       -16.3333
  33   2.0000      -0.575559       -15.6617
  34   2.0000      -0.566067       -15.4035
  35   2.0000      -0.561378       -15.2759
  36   2.0000      -0.547953       -14.9106
  37   2.0000      -0.541819       -14.7437
  38   2.0000      -0.527045       -14.3416
  39   2.0000      -0.512623       -13.9492
  40   2.0000      -0.509104       -13.8534
  41   2.0000      -0.500784       -13.6270
  42   2.0000      -0.483182       -13.1480
  43   2.0000      -0.475321       -12.9342
  44   2.0000      -0.466110       -12.6835
  45   2.0000      -0.455490       -12.3945
  46   2.0000      -0.448296       -12.1987
  47   2.0000      -0.438225       -11.9247
  48   2.0000      -0.430680       -11.7194
  49   2.0000      -0.419663       -11.4196
  50   2.0000      -0.417626       -11.3642
  51   2.0000      -0.386051       -10.5050
  52   0.0000       0.049860         1.3568
  53   0.0000       0.081014         2.2045
  54   0.0000       0.099293         2.7019
  55   0.0000       0.102341         2.7848
  56   0.0000       0.107125         2.9150

MULLIKEN ATOMIC CHARGES
-----------------------
   0 C :   -0.122511
   1 H :   -0.182947
   2 C :    1.617749
   3 C :    0.334177
   4 H :   -0.169814
   5 H :    0.003849
   6 H :   -0.033395
   7 C :    0.543766
   8 H :    0.091631
   9 C :   -0.114475
  10 H :   -0.730006
  11 H :   -0.137400
  12 H :   -0.069110
  13 C :    0.515655
  14 C :   -0.121688
  15 H :   -0.041307
  16 H :    0.108151
  17 H :   -0.178396
  18 C :    0.215474
  19 H :    0.025698
  20 H :    0.005313
  21 H :   -0.519616
  22 C :    0.272280
  23 H :   -0.070090
  24 H :    0.120712
  25 C :    0.135762
  26 C :    0.495643
  27 H :    0.194068
  28 H :   -0.018118
  29 H :   -0.193119
  30 H :   -0.666103
  31 H :   -0.341810
  32 O :   -0.547881
  33 F :   -0.422144
Sum of atomic charges:   -0.0000000

LOEWDIN ATOMIC CHARGES
----------------------
   0 C :   -0.063991
   1 H :    0.031211
   2 C :    0.103189
   3 C :   -0.048027
   4 H :    0.011272
   5 H :    0.037599
   6 H :    0.028406
   7 C :   -0.031757
   8 H :    0.037235
   9 C :   -0.055298
  10 H :   -0.005437
  11 H :    0.035784
  12 H :    0.009315
  13 C :   -0.050683
  14 C :   -0.045568
  15 H :    0.036165
  16 H :    0.033069
  17 H :    0.038442
  18 C :   -0.046567
  19 H :    0.009005
  20 H :    0.045494
  21 H :    0.009617
  22 C :   -0.037161
  23 H :    0.040612
  24 H :    0.037713
  25 C :    0.038705
  26 C :    0.034384
  27 H :    0.047576
  28 H :    0.050678
  29 H :   -0.005483
  30 H :   -0.120444
  31 H :   -0.068229
  32 O :   -0.123334
  33 F :   -0.013494

  Mayer bond orders larger than 0.100000
B(  0-C ,  1-H ) :   0.9638 B(  0-C ,  2-C ) :   0.8627 B(  0-C ,  3-C ) :   1.2006
B(  0-C ,  4-H ) :   0.7892 B(  0-C ,  5-H ) :   0.1572 B(  0-C ,  6-H ) :   0.1331
B(  0-C ,  7-C ) :   0.1404 B(  0-C , 10-H ) :  -0.1233 B(  0-C , 30-H ) :   0.5354
B(  0-C , 31-H ) :   0.3330 B(  2-C ,  4-H ) :   0.1631 B(  2-C , 29-H ) :   0.6415
B(  2-C , 31-H ) :   0.3232 B(  3-C ,  4-H ) :   0.1132 B(  3-C ,  5-H ) :   0.7549
B(  3-C ,  6-H ) :   0.7927 B(  3-C ,  7-C ) :   1.2016 B(  3-C , 10-H ) :   0.1849
B(  3-C , 30-H ) :  -0.1400 B(  4-H , 21-H ) :   0.1617 B(  5-H ,  6-H ) :  -0.1031
B(  5-H ,  7-C ) :   0.1347 B(  6-H ,  7-C ) :   0.1322 B(  7-C ,  8-H ) :   0.7230
B(  7-C ,  9-C ) :   1.1267 B(  7-C , 10-H ) :   0.5034 B(  7-C , 11-H ) :   0.1782
B(  8-H ,  9-C ) :   0.1793 B(  9-C , 10-H ) :   0.2320 B(  9-C , 11-H ) :   0.9365
B(  9-C , 12-H ) :   0.9317 B(  9-C , 13-C ) :   1.2010 B(  9-C , 15-H ) :   0.1230
B(  9-C , 16-H ) :   0.1944 B( 10-H , 13-C ) :  -0.1027 B( 10-H , 19-H ) :   0.1158
B( 13-C , 14-C ) :   1.1494 B( 13-C , 15-H ) :   0.7573 B( 13-C , 16-H ) :   0.7343
B( 14-C , 15-H ) :   0.2416 B( 14-C , 17-H ) :   0.9712 B( 14-C , 18-C ) :   1.1742
B( 14-C , 19-H ) :   0.9015 B( 14-C , 20-H ) :   0.1436 B( 14-C , 21-H ) :   0.2309
B( 15-H , 16-H ) :  -0.1011 B( 17-H , 18-C ) :   0.1525 B( 18-C , 20-H ) :   0.7738
B( 18-C , 21-H ) :   0.7437 B( 18-C , 22-C ) :   1.2433 B( 18-C , 23-H ) :   0.1337
B( 18-C , 24-H ) :   0.2159 B( 21-H , 22-C ) :   0.1066 B( 22-C , 23-H ) :   0.8702
B( 22-C , 24-H ) :   0.7344 B( 22-C , 25-C ) :   1.1609 B( 22-C , 28-H ) :   0.1406
B( 23-H , 24-H ) :  -0.1108 B( 23-H , 25-C ) :   0.1065 B( 25-C , 26-C ) :   1.2066
B( 25-C , 27-H ) :   0.8486 B( 25-C , 28-H ) :   0.7287 B( 26-C , 27-H ) :   0.1157
B( 26-C , 28-H ) :   0.2320 B( 26-C , 32-O ) :   1.7591 B( 26-C , 33-F ) :   0.6410
B( 29-H , 30-H ) :   0.1842 B( 30-H , 31-H ) :   0.3606 B( 30-H , 32-O ) :   0.1688
B( 31-H , 33-F ) :   0.1946 B( 32-O , 33-F ) :   0.1203

FINAL SINGLE POINT ENERGY      -604.516534633934

DIPOLE MOMENT
-------------
                                X             Y             Z
Electronic contribution:     -8.98301       2.96580       9.45801
Nuclear contribution   :      8.07181      -4.09641      -9.21610
                        -----------------------------------------
Total Dipole Moment    :     -0.91120      -1.13061       0.24190
                        -----------------------------------------
Magnitude (a.u.)       :      1.47210
Magnitude (Debye)      :      3.74179

Rotational constants in cm-1:     0.028400     0.023377     0.015073
Rotational constants in MHz :   851.414727   700.831775   451.871218

                             ****ORCA TERMINATED NORMALLY****
TOTAL RUN TIME: 0 days 0 hours 3 minutes 37 seconds 96 msec
