                         Program Version 5.0.0 -  RELEASE  -
|  1> !PBE D3BJ RIJCOSX def2-SVPD def2/J TightSCF
|  2> *xyz -1 1
|  3> C          1.87218        0.42790       -2.07750
|  4> S          0.57902        0.14047       -3.29794
|  5> O          0.22886       -1.24687       -3.12787
|  6> O         -0.43927        1.11897       -3.01455
|  7> O          1.24788        0.40347       -4.59565
|  8> H          2.66832       -0.27048       -2.23022
|  9> H          1.46951        0.30034       -1.09440
| 10> H          2.24690        1.42458       -2.18288
| 11> *
| 12>
| 13> %MaxCore 64000
| 14>
| 15> %pal nprocs 8
| 16> end
| 17>
| 18> %scf
| 19>   MaxIter 150
| 20> end
| 21>
| 22>
| 23>                          ****END OF INPUT****

CARTESIAN COORDINATES (ANGSTROEM)
---------------------------------
  C      1.872180    0.427900   -2.077500
  S      0.579020    0.140470   -3.297940
  O      0.228860   -1.246870   -3.127870
  O     -0.439270    1.118970   -3.014550
  O      1.247880    0.403470   -4.595650
  H      2.668320   -0.270480   -2.230220
  H      1.469510    0.300340   -1.094400
  H      2.246900    1.424580   -2.182880

 Total Charge           Charge          ....   -1
 Multiplicity           Mult            ....    1
 Number of Electrons    NEL             ....   50
 Basis Dimension        Dim             ....  140

ORBITAL ENERGIES
----------------

  NO   OCC          E(Eh)            E(eV)
   0   2.0000     -88.054099     -2396.0739
   1   2.0000     -18.545160      -504.6395
   2   2.0000     -18.545098      -504.6378
   3   2.0000     -18.531867      -504.2777
   4   2.0000      -9.741785      -265.0874
   5   2.0000      -7.658314      -208.3933
   6   2.0000      -5.685276      -154.7042
   7   2.0000      -5.685126      -154.7001
   8   2.0000      -5.684738      -154.6896
   9   2.0000      -0.841261       -22.8919
  10   2.0000      -0.708771       -19.2866
  11   2.0000      -0.682806       -18.5801
  12   2.0000      -0.504485       -13.7277
  13   2.0000      -0.325125        -8.8471
  14   2.0000      -0.249074        -6.7777
  15   2.0000      -0.237057        -6.4507
  16   2.0000      -0.236023        -6.4225
  17   2.0000      -0.197911        -5.3854
  18   2.0000      -0.195533        -5.3207
  19   2.0000      -0.104057        -2.8315
  20   2.0000      -0.103707        -2.8220
  21   2.0000      -0.071289        -1.9399
  22   2.0000      -0.068120        -1.8536
  23   2.0000      -0.055419        -1.5080
  24   2.0000      -0.019260        -0.5241
  25   0.0000       0.137393         3.7387
  26   0.0000       0.172721         4.7000
  27   0.0000       0.173347         4.7170
  28   0.0000       0.175111         4.7650
  29   0.0000       0.198827         5.4104

MULLIKEN ATOMIC CHARGES
-----------------------
   0 C :    0.501769
   1 S :    0.932881
   2 O :   -0.708384
   3 O :   -0.705025
   4 O :   -0.754303
   5 H :   -0.085281
   6 H :   -0.091915
   7 H :   -0.089742
Sum of atomic charges:   -1.0000000

LOEWDIN ATOMIC CHARGES
----------------------
   0 C :    0.048266
   1 S :    0.778000
   2 O :   -0.558747
   3 O :   -0.557678
   4 O :   -0.580389
   5 H :   -0.042222
   6 H :   -0.044578
   7 H :   -0.042652

  Mayer bond orders larger than 0.100000
B(  0-C ,  1-S ) :   0.9366 B(  0-C ,  5-H ) :   0.9227 B(  0-C ,  6-H ) :   0.9214
B(  0-C ,  7-H ) :   0.9245 B(  1-S ,  2-O ) :   1.3771 B(  1-S ,  3-O ) :   1.3773
B(  1-S ,  4-O ) :   1.3428 B(  1-S ,  5-H ) :   0.1199 B(  1-S ,  6-H ) :   0.1119
B(  1-S ,  7-H ) :   0.1209

Dispersion correction           -0.006314073
FINAL SINGLE POINT ENERGY      -663.052051458427

DIPOLE MOMENT
-------------
                                X             Y             Z
Electronic contribution:     -3.25282      -0.73258      -2.89869
Nuclear contribution   :      4.08143       0.90272       3.93680
                        -----------------------------------------
Total Dipole Moment    :      0.82861       0.17014       1.03812
                        -----------------------------------------
Magnitude (a.u.)       :      1.33911
Magnitude (Debye)      :      3.40376

Rotational constants in cm-1:     0.171796     0.158241     0.155560
Rotational constants in MHz :  5150.307583  4743.954688  4663.569252

                             ****ORCA TERMINATED NORMALLY****
TOTAL RUN TIME: 0 days 0 hours 0 minutes 3 seconds 349 msec
