                         Program Version 5.0.0 -  RELEASE  -
|  1> !PBE D3BJ RIJCOSX def2-SVPD def2/J TightSCF
|  2> *xyz 1 1
|  3> C          3.38093        2.08304       -3.35013
|  4> N          4.53592        1.18245       -3.42852
|  5> C          4.67196        0.12227       -4.22060
|  6> N          5.86602       -0.50785       -4.22428
|  7> N          3.69888       -0.31284       -4.98699
|  8> H          2.73141       -0.05009       -4.84900
|  9> H          3.89005       -1.05517       -5.64373
| 10> H          5.25193        1.30346       -2.72101
| 11> H          6.69516       -0.06232       -3.85160
| 12> H          5.97538       -1.39688       -4.69141
| 13> H          2.69962        1.85926       -4.14426
| 14> H          3.71221        3.09654       -3.43937
| 15> H          2.88835        1.95032       -2.40957
| 16> *
| 17>
| 18> %MaxCore 64000
| 19>
| 20> %pal nprocs 8
| 21> end
| 22>
| 23> %scf
| 24>   MaxIter 150
| 25> end
| 26>
| 27>
| 28>                          ****END OF INPUT****

CARTESIAN COORDINATES (ANGSTROEM)
---------------------------------
  C      3.380930    2.083040   -3.350130
  N      4.535920    1.182450   -3.428520
  C      4.671960    0.122270   -4.220600
  N      5.866020   -0.507850   -4.224280
  N      3.698880   -0.312840   -4.986990
  H      2.731410   -0.050090   -4.849000
  H      3.890050   -1.055170   -5.643730
  H      5.251930    1.303460   -2.721010
  H      6.695160   -0.062320   -3.851600
  H      5.975380   -1.396880   -4.691410
  H      2.699620    1.859260   -4.144260
  H      3.712210    3.096540   -3.439370
  H      2.888350    1.950320   -2.409570

 Total Charge           Charge          ....    1
 Multiplicity           Mult            ....    1
 Number of Electrons    NEL             ....   40
 Basis Dimension        Dim             ....  164

ORBITAL ENERGIES
----------------

  NO   OCC          E(Eh)            E(eV)
   0   2.0000     -14.230033      -387.2189
   1   2.0000     -14.228717      -387.1831
   2   2.0000     -14.221379      -386.9834
   3   2.0000     -10.223393      -278.1927
   4   2.0000     -10.101114      -274.8653
   5   2.0000      -1.125505       -30.6265
   6   2.0000      -1.023063       -27.8390
   7   2.0000      -1.007925       -27.4270
   8   2.0000      -0.838378       -22.8134
   9   2.0000      -0.772191       -21.0124
  10   2.0000      -0.737303       -20.0630
  11   2.0000      -0.701752       -19.0956
  12   2.0000      -0.651551       -17.7296
  13   2.0000      -0.649160       -17.6645
  14   2.0000      -0.604076       -16.4377
  15   2.0000      -0.590715       -16.0742
  16   2.0000      -0.546639       -14.8748
  17   2.0000      -0.538212       -14.6455
  18   2.0000      -0.441525       -12.0145
  19   2.0000      -0.417297       -11.3552
  20   0.0000      -0.204758        -5.5718
  21   0.0000      -0.177771        -4.8374
  22   0.0000      -0.144797        -3.9401
  23   0.0000      -0.136142        -3.7046
  24   0.0000      -0.119794        -3.2598

MULLIKEN ATOMIC CHARGES
-----------------------
   0 C :    1.236783
   1 N :   -0.611036
   2 C :    1.438954
   3 N :   -0.070511
   4 N :   -0.003815
   5 H :   -0.076848
   6 H :   -0.080213
   7 H :   -0.264612
   8 H :   -0.084498
   9 H :   -0.042394
  10 H :   -0.196965
  11 H :   -0.120936
  12 H :   -0.123907
Sum of atomic charges:    1.0000000

LOEWDIN ATOMIC CHARGES
----------------------
   0 C :    0.269324
   1 N :    0.026889
   2 C :   -0.057276
   3 N :    0.270481
   4 N :    0.286860
   5 H :    0.029599
   6 H :    0.041213
   7 H :    0.057440
   8 H :    0.034550
   9 H :    0.031650
  10 H :   -0.013218
  11 H :    0.011808
  12 H :    0.010679

  Mayer bond orders larger than 0.100000
B(  0-C ,  1-N ) :   0.9375 B(  0-C ,  7-H ) :  -0.1726 B(  0-C , 10-H ) :   0.8355
B(  0-C , 11-H ) :   0.7691 B(  0-C , 12-H ) :   0.7891 B(  1-N ,  2-C ) :   0.9527
B(  1-N ,  3-N ) :   0.2933 B(  1-N ,  4-N ) :   0.2989 B(  1-N ,  7-H ) :   1.3381
B(  1-N , 10-H ) :   0.1925 B(  1-N , 11-H ) :   0.1971 B(  1-N , 12-H ) :   0.1743
B(  2-C ,  3-N ) :   0.7626 B(  2-C ,  4-N ) :   0.9489 B(  2-C ,  5-H ) :  -0.1674
B(  2-C ,  6-H ) :  -0.1489 B(  2-C ,  7-H ) :  -0.2432 B(  2-C ,  8-H ) :  -0.1808
B(  2-C ,  9-H ) :  -0.1082 B(  3-N ,  4-N ) :   0.2214 B(  3-N ,  8-H ) :   1.2095
B(  3-N ,  9-H ) :   1.1727 B(  4-N ,  5-H ) :   1.1754 B(  4-N ,  6-H ) :   1.1968
B(  5-H ,  6-H ) :  -0.1867 B(  8-H ,  9-H ) :  -0.1705

Dispersion correction           -0.009014900
FINAL SINGLE POINT ENERGY      -244.628721198823

DIPOLE MOMENT
-------------
                                X             Y             Z
Electronic contribution:      1.69281      -1.96548      -0.71863
Nuclear contribution   :     -1.49827       1.51766       0.59175
                        -----------------------------------------
Total Dipole Moment    :      0.19454      -0.44782      -0.12687
                        -----------------------------------------
Magnitude (a.u.)       :      0.50446
Magnitude (Debye)      :      1.28224

Rotational constants in cm-1:     0.316446     0.130424     0.094259
Rotational constants in MHz :  9486.821695  3910.013387  2825.801764

                             ****ORCA TERMINATED NORMALLY****
TOTAL RUN TIME: 0 days 0 hours 0 minutes 4 seconds 249 msec
