                         Program Version 5.0.0 -  RELEASE  -
|  1> !PBE D3BJ RIJCOSX def2-SVPD def2/J TightSCF
|  2> *xyz 0 1
|  3> C          1.87218        0.42790       -2.07750
|  4> S          0.57902        0.14047       -3.29794
|  5> F          0.22886       -1.24687       -3.12787
|  6> O         -0.43927        1.11897       -3.01455
|  7> O          1.24788        0.40347       -4.59565
|  8> H          2.66832       -0.27048       -2.23022
|  9> H          1.46951        0.30034       -1.09440
| 10> H          2.24690        1.42458       -2.18288
| 11> *
| 12>
| 13> %MaxCore 64000
| 14>
| 15> %pal nprocs 8
| 16> end
| 17>
| 18> %scf
| 19>   MaxIter 150
| 20> end
| 21>
| 22>
| 23>                          ****END OF INPUT****

CARTESIAN COORDINATES (ANGSTROEM)
---------------------------------
  C      1.872180    0.427900   -2.077500
  S      0.579020    0.140470   -3.297940
  F      0.228860   -1.246870   -3.127870
  O     -0.439270    1.118970   -3.014550
  O      1.247880    0.403470   -4.595650
  H      2.668320   -0.270480   -2.230220
  H      1.469510    0.300340   -1.094400
  H      2.246900    1.424580   -2.182880

 Total Charge           Charge          ....    0
 Multiplicity           Mult            ....    1
 Number of Electrons    NEL             ....   50
 Basis Dimension        Dim             ....  140

ORBITAL ENERGIES
----------------

  NO   OCC          E(Eh)            E(eV)
   0   2.0000     -88.316977     -2403.2271
   1   2.0000     -24.393853      -663.7905
   2   2.0000     -18.782967      -511.1105
   3   2.0000     -18.769332      -510.7395
   4   2.0000      -9.951125      -270.7839
   5   2.0000      -7.921949      -215.5672
   6   2.0000      -5.953212      -161.9951
   7   2.0000      -5.946596      -161.8151
   8   2.0000      -5.945358      -161.7814
   9   2.0000      -1.277896       -34.7733
  10   2.0000      -1.024693       -27.8833
  11   2.0000      -0.922364       -25.0988
  12   2.0000      -0.728075       -19.8119
  13   2.0000      -0.656404       -17.8616
  14   2.0000      -0.546482       -14.8705
  15   2.0000      -0.529040       -14.3959
  16   2.0000      -0.500959       -13.6318
  17   2.0000      -0.429857       -11.6970
  18   2.0000      -0.428905       -11.6711
  19   2.0000      -0.417547       -11.3620
  20   2.0000      -0.393615       -10.7108
  21   2.0000      -0.344733        -9.3807
  22   2.0000      -0.299066        -8.1380
  23   2.0000      -0.284900        -7.7525
  24   2.0000      -0.264760        -7.2045
  25   0.0000      -0.034391        -0.9358
  26   0.0000       0.005773         0.1571
  27   0.0000       0.007143         0.1944
  28   0.0000       0.030136         0.8200
  29   0.0000       0.031583         0.8594

MULLIKEN ATOMIC CHARGES
-----------------------
   0 C :    0.492456
   1 S :    1.116259
   2 F :   -0.331995
   3 O :   -0.567139
   4 O :   -0.610730
   5 H :   -0.027851
   6 H :   -0.030391
   7 H :   -0.040610
Sum of atomic charges:    0.0000000

LOEWDIN ATOMIC CHARGES
----------------------
   0 C :    0.116592
   1 S :    1.052248
   2 F :   -0.240962
   3 O :   -0.437368
   4 O :   -0.457959
   5 H :   -0.015021
   6 H :   -0.016292
   7 H :   -0.001237

  Mayer bond orders larger than 0.100000
B(  0-C ,  1-S ) :   0.9985 B(  0-C ,  5-H ) :   0.9122 B(  0-C ,  6-H ) :   0.9105
B(  0-C ,  7-H ) :   0.9137 B(  1-S ,  2-F ) :   0.7536 B(  1-S ,  3-O ) :   1.5728
B(  1-S ,  4-O ) :   1.5389 B(  1-S ,  7-H ) :   0.1186

Dispersion correction           -0.005929568
FINAL SINGLE POINT ENERGY      -687.522862584511

DIPOLE MOMENT
-------------
                                X             Y             Z
Electronic contribution:     -3.82070      -2.99423      -2.57653
Nuclear contribution   :      4.52607       2.31146       3.82544
                        -----------------------------------------
Total Dipole Moment    :      0.70537      -0.68278       1.24892
                        -----------------------------------------
Magnitude (a.u.)       :      1.58856
Magnitude (Debye)      :      4.03780

Rotational constants in cm-1:     0.162724     0.156586     0.147157
Rotational constants in MHz :  4878.333818  4694.318771  4411.658495

                             ****ORCA TERMINATED NORMALLY****
TOTAL RUN TIME: 0 days 0 hours 0 minutes 3 seconds 464 msec
