                         Program Version 5.0.0 -  RELEASE  -
|  1> !PBE D3BJ RIJCOSX def2-SVPD def2/J TightSCF
|  2> *xyz 0 1
|  3> C          3.38093        2.08304       -3.35013
|  4> C          4.53592        1.18245       -3.42852
|  5> C          4.67196        0.12227       -4.22060
|  6> N          5.86602       -0.50785       -4.22428
|  7> N          3.69888       -0.31284       -4.98699
|  8> H          2.73141       -0.05009       -4.84900
|  9> H          3.89005       -1.05517       -5.64373
| 10> H          5.25193        1.30346       -2.72101
| 11> H          6.69516       -0.06232       -3.85160
| 12> H          5.97538       -1.39688       -4.69141
| 13> H          2.69962        1.85926       -4.14426
| 14> H          3.71221        3.09654       -3.43937
| 15> H          2.88835        1.95032       -2.40957
| 16> *
| 17>
| 18> %MaxCore 64000
| 19>
| 20> %pal nprocs 8
| 21> end
| 22>
| 23> %scf
| 24>   MaxIter 150
| 25> end
| 26>
| 27>
| 28>                          ****END OF INPUT****

CARTESIAN COORDINATES (ANGSTROEM)
---------------------------------
  C      3.380930    2.083040   -3.350130
  C      4.535920    1.182450   -3.428520
  C      4.671960    0.122270   -4.220600
  N      5.866020   -0.507850   -4.224280
  N      3.698880   -0.312840   -4.986990
  H      2.731410   -0.050090   -4.849000
  H      3.890050   -1.055170   -5.643730
  H      5.251930    1.303460   -2.721010
  H      6.695160   -0.062320   -3.851600
  H      5.975380   -1.396880   -4.691410
  H      2.699620    1.859260   -4.144260
  H      3.712210    3.096540   -3.439370
  H      2.888350    1.950320   -2.409570

 Total Charge           Charge          ....    0
 Multiplicity           Mult            ....    1
 Number of Electrons    NEL             ....   40
 Basis Dimension        Dim             ....  164

ORBITAL ENERGIES
----------------

  NO   OCC          E(Eh)            E(eV)
   0   2.0000     -14.002289      -381.0217
   1   2.0000     -13.994941      -380.8217
   2   2.0000      -9.929756      -270.2024
   3   2.0000      -9.860499      -268.3178
   4   2.0000      -9.820082      -267.2180
   5   2.0000      -0.869569       -23.6622
   6   2.0000      -0.783382       -21.3169
   7   2.0000      -0.670567       -18.2471
   8   2.0000      -0.588122       -16.0036
   9   2.0000      -0.528269       -14.3749
  10   2.0000      -0.491193       -13.3660
  11   2.0000      -0.452063       -12.3013
  12   2.0000      -0.431354       -11.7377
  13   2.0000      -0.378373       -10.2961
  14   2.0000      -0.355345        -9.6694
  15   2.0000      -0.326340        -8.8802
  16   2.0000      -0.315652        -8.5893
  17   2.0000      -0.295298        -8.0355
  18   2.0000      -0.220836        -6.0092
  19   2.0000      -0.125548        -3.4163
  20   0.0000      -0.004906        -0.1335
  21   0.0000       0.023476         0.6388
  22   0.0000       0.036315         0.9882
  23   0.0000       0.050283         1.3683
  24   0.0000       0.061186         1.6649

MULLIKEN ATOMIC CHARGES
-----------------------
   0 C :    0.952012
   1 C :   -0.768792
   2 C :    1.058714
   3 N :    0.017708
   4 N :    0.063508
   5 H :   -0.113385
   6 H :   -0.231833
   7 H :   -0.366834
   8 H :   -0.111942
   9 H :   -0.145011
  10 H :   -0.238961
  11 H :   -0.040050
  12 H :   -0.075134
Sum of atomic charges:    0.0000000

LOEWDIN ATOMIC CHARGES
----------------------
   0 C :    0.100446
   1 C :   -0.065564
   2 C :   -0.242838
   3 N :    0.187456
   4 N :    0.201706
   5 H :   -0.004568
   6 H :   -0.011115
   7 H :   -0.052370
   8 H :   -0.001567
   9 H :   -0.022570
  10 H :   -0.043044
  11 H :   -0.023183
  12 H :   -0.022791

  Mayer bond orders larger than 0.100000
B(  0-C ,  1-C ) :   1.1656 B(  0-C ,  7-H ) :   0.1975 B(  0-C , 10-H ) :   0.7805
B(  0-C , 11-H ) :   0.6898 B(  0-C , 12-H ) :   0.7010 B(  1-C ,  2-C ) :   1.4753
B(  1-C ,  3-N ) :   0.5003 B(  1-C ,  4-N ) :   0.3347 B(  1-C ,  7-H ) :   0.9342
B(  1-C , 10-H ) :   0.4040 B(  1-C , 11-H ) :   0.2181 B(  1-C , 12-H ) :   0.1919
B(  2-C ,  3-N ) :   0.7229 B(  2-C ,  4-N ) :   0.9977 B(  2-C ,  6-H ) :  -0.1575
B(  2-C ,  7-H ) :   0.1540 B(  2-C ,  8-H ) :  -0.1383 B(  2-C , 10-H ) :  -0.1273
B(  3-N ,  4-N ) :   0.1532 B(  3-N ,  8-H ) :   1.2148 B(  3-N ,  9-H ) :   1.1517
B(  4-N ,  5-H ) :   1.1652 B(  4-N ,  6-H ) :   1.2833 B(  5-H ,  6-H ) :  -0.1767
B(  8-H ,  9-H ) :  -0.1616 B( 10-H , 11-H ) :   0.1447

Dispersion correction           -0.009402974
FINAL SINGLE POINT ENERGY      -228.167235911074

DIPOLE MOMENT
-------------
                                X             Y             Z
Electronic contribution:      1.57464      -2.45596      -1.21966
Nuclear contribution   :     -1.47697       1.65537       0.71722
                        -----------------------------------------
Total Dipole Moment    :      0.09767      -0.80059      -0.50244
                        -----------------------------------------
Magnitude (a.u.)       :      0.95023
Magnitude (Debye)      :      2.41529

Rotational constants in cm-1:     0.321284     0.131400     0.095192
Rotational constants in MHz :  9631.850868  3939.260061  2853.789421

                             ****ORCA TERMINATED NORMALLY****
TOTAL RUN TIME: 0 days 0 hours 0 minutes 4 seconds 283 msec
