                         Program Version 5.0.0 -  RELEASE  -
|  1> !PBE D3BJ RIJCOSX def2-SVPD def2/J TightSCF
|  2> *xyz 0 1
|  3> C          1.87218        0.42790       -2.07750
|  4> S          0.57902        0.14047       -3.29794
|  5> O          0.22886       -1.24687       -3.12787
|  6> F         -0.43927        1.11897       -3.01455
|  7> O          1.24788        0.40347       -4.59565
|  8> H          2.66832       -0.27048       -2.23022
|  9> H          1.46951        0.30034       -1.09440
| 10> H          2.24690        1.42458       -2.18288
| 11> *
| 12>
| 13> %MaxCore 64000
| 14>
| 15> %pal nprocs 8
| 16> end
| 17>
| 18> %scf
| 19>   MaxIter 150
| 20> end
| 21>
| 22>
| 23>                          ****END OF INPUT****

CARTESIAN COORDINATES (ANGSTROEM)
---------------------------------
  C      1.872180    0.427900   -2.077500
  S      0.579020    0.140470   -3.297940
  O      0.228860   -1.246870   -3.127870
  F     -0.439270    1.118970   -3.014550
  O      1.247880    0.403470   -4.595650
  H      2.668320   -0.270480   -2.230220
  H      1.469510    0.300340   -1.094400
  H      2.246900    1.424580   -2.182880

 Total Charge           Charge          ....    0
 Multiplicity           Mult            ....    1
 Number of Electrons    NEL             ....   50
 Basis Dimension        Dim             ....  140

ORBITAL ENERGIES
----------------

  NO   OCC          E(Eh)            E(eV)
   0   2.0000     -88.317095     -2403.2303
   1   2.0000     -24.393921      -663.7923
   2   2.0000     -18.783046      -511.1127
   3   2.0000     -18.769501      -510.7441
   4   2.0000      -9.950983      -270.7800
   5   2.0000      -7.922044      -215.5698
   6   2.0000      -5.953316      -161.9980
   7   2.0000      -5.946669      -161.8171
   8   2.0000      -5.945472      -161.7845
   9   2.0000      -1.278149       -34.7802
  10   2.0000      -1.024259       -27.8715
  11   2.0000      -0.923173       -25.1208
  12   2.0000      -0.727312       -19.7912
  13   2.0000      -0.656516       -17.8647
  14   2.0000      -0.546657       -14.8753
  15   2.0000      -0.528824       -14.3900
  16   2.0000      -0.501259       -13.6399
  17   2.0000      -0.429336       -11.6828
  18   2.0000      -0.428810       -11.6685
  19   2.0000      -0.418325       -11.3832
  20   2.0000      -0.393701       -10.7131
  21   2.0000      -0.344143        -9.3646
  22   2.0000      -0.298119        -8.1122
  23   2.0000      -0.285017        -7.7557
  24   2.0000      -0.265887        -7.2351
  25   0.0000      -0.034499        -0.9388
  26   0.0000       0.004348         0.1183
  27   0.0000       0.007467         0.2032
  28   0.0000       0.030388         0.8269
  29   0.0000       0.031566         0.8590

MULLIKEN ATOMIC CHARGES
-----------------------
   0 C :    0.492790
   1 S :    1.118345
   2 O :   -0.570344
   3 F :   -0.329755
   4 O :   -0.612229
   5 H :   -0.036739
   6 H :   -0.031365
   7 H :   -0.030703
Sum of atomic charges:    0.0000000

LOEWDIN ATOMIC CHARGES
----------------------
   0 C :    0.116491
   1 S :    1.052518
   2 O :   -0.438481
   3 F :   -0.239803
   4 O :   -0.458001
   5 H :   -0.000991
   6 H :   -0.016712
   7 H :   -0.015021

  Mayer bond orders larger than 0.100000
B(  0-C ,  1-S ) :   0.9995 B(  0-C ,  5-H ) :   0.9118 B(  0-C ,  6-H ) :   0.9099
B(  0-C ,  7-H ) :   0.9147 B(  1-S ,  2-O ) :   1.5735 B(  1-S ,  3-F ) :   0.7519
B(  1-S ,  4-O ) :   1.5383 B(  1-S ,  5-H ) :   0.1175

Dispersion correction           -0.005930568
FINAL SINGLE POINT ENERGY      -687.522867112202

DIPOLE MOMENT
-------------
                                X             Y             Z
Electronic contribution:     -4.91020       0.86004      -2.38943
Nuclear contribution   :      5.19357      -0.05217       3.71223
                        -----------------------------------------
Total Dipole Moment    :      0.28337       0.80787       1.32280
                        -----------------------------------------
Magnitude (a.u.)       :      1.57568
Magnitude (Debye)      :      4.00505

Rotational constants in cm-1:     0.163837     0.155047     0.147593
Rotational constants in MHz :  4911.724022  4648.196128  4424.713532

                             ****ORCA TERMINATED NORMALLY****
TOTAL RUN TIME: 0 days 0 hours 0 minutes 3 seconds 382 msec
