                         Program Version 5.0.0 -  RELEASE  -
|  1> !PBE D3BJ RIJCOSX def2-SVPD def2/J TightSCF
|  2> *xyz 0 1
|  3> C          3.38093        2.08304       -3.35013
|  4> N          4.53592        1.18245       -3.42852
|  5> C          4.67196        0.12227       -4.22060
|  6> C          5.86602       -0.50785       -4.22428
|  7> N          3.69888       -0.31284       -4.98699
|  8> H          2.73141       -0.05009       -4.84900
|  9> H          3.89005       -1.05517       -5.64373
| 10> H          5.25193        1.30346       -2.72101
| 11> H          6.69516       -0.06232       -3.85160
| 12> H          5.97538       -1.39688       -4.69141
| 13> H          2.69962        1.85926       -4.14426
| 14> H          3.71221        3.09654       -3.43937
| 15> H          2.88835        1.95032       -2.40957
| 16> *
| 17>
| 18> %MaxCore 64000
| 19>
| 20> %pal nprocs 8
| 21> end
| 22>
| 23> %scf
| 24>   MaxIter 150
| 25> end
| 26>
| 27>
| 28>                          ****END OF INPUT****

CARTESIAN COORDINATES (ANGSTROEM)
---------------------------------
  C      3.380930    2.083040   -3.350130
  N      4.535920    1.182450   -3.428520
  C      4.671960    0.122270   -4.220600
  C      5.866020   -0.507850   -4.224280
  N      3.698880   -0.312840   -4.986990
  H      2.731410   -0.050090   -4.849000
  H      3.890050   -1.055170   -5.643730
  H      5.251930    1.303460   -2.721010
  H      6.695160   -0.062320   -3.851600
  H      5.975380   -1.396880   -4.691410
  H      2.699620    1.859260   -4.144260
  H      3.712210    3.096540   -3.439370
  H      2.888350    1.950320   -2.409570

 Total Charge           Charge          ....    0
 Multiplicity           Mult            ....    1
 Number of Electrons    NEL             ....   40
 Basis Dimension        Dim             ....  164

ORBITAL ENERGIES
----------------

  NO   OCC          E(Eh)            E(eV)
   0   2.0000     -14.003293      -381.0490
   1   2.0000     -14.003219      -381.0470
   2   2.0000      -9.935474      -270.3580
   3   2.0000      -9.927427      -270.1390
   4   2.0000      -9.805295      -266.8156
   5   2.0000      -0.877858       -23.8877
   6   2.0000      -0.801265       -21.8035
   7   2.0000      -0.666359       -18.1325
   8   2.0000      -0.592729       -16.1290
   9   2.0000      -0.545404       -14.8412
  10   2.0000      -0.491081       -13.3630
  11   2.0000      -0.443978       -12.0812
  12   2.0000      -0.430660       -11.7189
  13   2.0000      -0.401859       -10.9351
  14   2.0000      -0.363223        -9.8838
  15   2.0000      -0.346639        -9.4325
  16   2.0000      -0.335056        -9.1173
  17   2.0000      -0.310276        -8.4430
  18   2.0000      -0.213474        -5.8089
  19   2.0000      -0.126466        -3.4413
  20   0.0000      -0.006795        -0.1849
  21   0.0000       0.024625         0.6701
  22   0.0000       0.028993         0.7890
  23   0.0000       0.043466         1.1828
  24   0.0000       0.068654         1.8682

MULLIKEN ATOMIC CHARGES
-----------------------
   0 C :    1.260951
   1 N :   -0.557378
   2 C :    0.774877
   3 C :    0.409300
   4 N :    0.105402
   5 H :   -0.180736
   6 H :   -0.098905
   7 H :   -0.301370
   8 H :   -0.423753
   9 H :   -0.383055
  10 H :   -0.236495
  11 H :   -0.183159
  12 H :   -0.185679
Sum of atomic charges:    0.0000000

LOEWDIN ATOMIC CHARGES
----------------------
   0 C :    0.214604
   1 N :   -0.029355
   2 C :   -0.254310
   3 C :    0.140850
   4 N :    0.201788
   5 H :   -0.019285
   6 H :    0.008899
   7 H :    0.031224
   8 H :   -0.108685
   9 H :   -0.112287
  10 H :   -0.032462
  11 H :   -0.020063
  12 H :   -0.020919

  Mayer bond orders larger than 0.100000
B(  0-C ,  1-N ) :   0.9151 B(  0-C ,  7-H ) :  -0.1733 B(  0-C , 10-H ) :   0.8362
B(  0-C , 11-H ) :   0.7638 B(  0-C , 12-H ) :   0.7841 B(  1-N ,  2-C ) :   1.0017
B(  1-N ,  3-C ) :   0.2798 B(  1-N ,  4-N ) :   0.2344 B(  1-N ,  7-H ) :   1.3027
B(  1-N , 10-H ) :   0.2136 B(  1-N , 11-H ) :   0.2046 B(  1-N , 12-H ) :   0.1945
B(  2-C ,  3-C ) :   1.3020 B(  2-C ,  4-N ) :   1.0517 B(  2-C ,  5-H ) :  -0.1121
B(  2-C ,  7-H ) :  -0.2204 B(  2-C ,  9-H ) :   0.1805 B(  3-C ,  4-N ) :   0.2427
B(  3-C ,  8-H ) :   0.8935 B(  3-C ,  9-H ) :   0.7871 B(  4-N ,  5-H ) :   1.1915
B(  4-N ,  6-H ) :   1.1693 B(  5-H ,  6-H ) :  -0.1807

Dispersion correction           -0.009341481
FINAL SINGLE POINT ENERGY      -228.152394878049

DIPOLE MOMENT
-------------
                                X             Y             Z
Electronic contribution:      0.18093      -0.81671      -0.46244
Nuclear contribution   :     -1.20756       1.31300       0.55604
                        -----------------------------------------
Total Dipole Moment    :     -1.02663       0.49629       0.09360
                        -----------------------------------------
Magnitude (a.u.)       :      1.14413
Magnitude (Debye)      :      2.90816

Rotational constants in cm-1:     0.323683     0.135884     0.097747
Rotational constants in MHz :  9703.770798  4073.695357  2930.389562

                             ****ORCA TERMINATED NORMALLY****
TOTAL RUN TIME: 0 days 0 hours 0 minutes 4 seconds 422 msec
