                         Program Version 5.0.0 -  RELEASE  -
|  1> !PBE D3BJ RIJCOSX def2-SVPD def2/J TightSCF
|  2> *xyz 0 1
|  3> C          1.87218        0.42790       -2.07750
|  4> S          0.57902        0.14047       -3.29794
|  5> O          0.22886       -1.24687       -3.12787
|  6> O         -0.43927        1.11897       -3.01455
|  7> F          1.24788        0.40347       -4.59565
|  8> H          2.66832       -0.27048       -2.23022
|  9> H          1.46951        0.30034       -1.09440
| 10> H          2.24690        1.42458       -2.18288
| 11> *
| 12>
| 13> %MaxCore 64000
| 14>
| 15> %pal nprocs 8
| 16> end
| 17>
| 18> %scf
| 19>   MaxIter 150
| 20> end
| 21>
| 22>
| 23>                          ****END OF INPUT****

CARTESIAN COORDINATES (ANGSTROEM)
---------------------------------
  C      1.872180    0.427900   -2.077500
  S      0.579020    0.140470   -3.297940
  O      0.228860   -1.246870   -3.127870
  O     -0.439270    1.118970   -3.014550
  F      1.247880    0.403470   -4.595650
  H      2.668320   -0.270480   -2.230220
  H      1.469510    0.300340   -1.094400
  H      2.246900    1.424580   -2.182880

 Total Charge           Charge          ....    0
 Multiplicity           Mult            ....    1
 Number of Electrons    NEL             ....   50
 Basis Dimension        Dim             ....  140

ORBITAL ENERGIES
----------------

  NO   OCC          E(Eh)            E(eV)
   0   2.0000     -88.314523     -2403.1603
   1   2.0000     -24.373170      -663.2277
   2   2.0000     -18.782655      -511.1020
   3   2.0000     -18.782586      -511.1002
   4   2.0000      -9.949993      -270.7531
   5   2.0000      -7.919545      -215.5018
   6   2.0000      -5.950507      -161.9215
   7   2.0000      -5.944421      -161.7559
   8   2.0000      -5.943206      -161.7229
   9   2.0000      -1.242943       -33.8222
  10   2.0000      -1.033813       -28.1315
  11   2.0000      -0.943784       -25.6817
  12   2.0000      -0.724911       -19.7258
  13   2.0000      -0.639713       -17.4075
  14   2.0000      -0.532338       -14.4857
  15   2.0000      -0.504900       -13.7390
  16   2.0000      -0.496530       -13.5113
  17   2.0000      -0.430374       -11.7111
  18   2.0000      -0.428214       -11.6523
  19   2.0000      -0.415798       -11.3144
  20   2.0000      -0.398759       -10.8508
  21   2.0000      -0.350170        -9.5286
  22   2.0000      -0.302060        -8.2195
  23   2.0000      -0.298617        -8.1258
  24   2.0000      -0.280864        -7.6427
  25   0.0000      -0.031929        -0.8688
  26   0.0000       0.003739         0.1018
  27   0.0000       0.008907         0.2424
  28   0.0000       0.032095         0.8733
  29   0.0000       0.033175         0.9027

MULLIKEN ATOMIC CHARGES
-----------------------
   0 C :    0.490630
   1 S :    1.127898
   2 O :   -0.582602
   3 O :   -0.580656
   4 F :   -0.354146
   5 H :   -0.026900
   6 H :   -0.041132
   7 H :   -0.033092
Sum of atomic charges:   -0.0000000

LOEWDIN ATOMIC CHARGES
----------------------
   0 C :    0.117039
   1 S :    1.050379
   2 O :   -0.438880
   3 O :   -0.437920
   4 F :   -0.257923
   5 H :   -0.014662
   6 H :   -0.002494
   7 H :   -0.015540

  Mayer bond orders larger than 0.100000
B(  0-C ,  1-S ) :   0.9979 B(  0-C ,  5-H ) :   0.9139 B(  0-C ,  6-H ) :   0.9091
B(  0-C ,  7-H ) :   0.9149 B(  1-S ,  2-O ) :   1.5704 B(  1-S ,  3-O ) :   1.5695
B(  1-S ,  4-F ) :   0.7010 B(  1-S ,  6-H ) :   0.1113 B(  2-O ,  3-O ) :   0.1127

Dispersion correction           -0.005930470
FINAL SINGLE POINT ENERGY      -687.540714747784

DIPOLE MOMENT
-------------
                                X             Y             Z
Electronic contribution:     -2.14491      -0.30204      -4.98870
Nuclear contribution   :      3.50800       0.66266       5.29185
                        -----------------------------------------
Total Dipole Moment    :      1.36309       0.36062       0.30315
                        -----------------------------------------
Magnitude (a.u.)       :      1.44220
Magnitude (Debye)      :      3.66579

Rotational constants in cm-1:     0.163942     0.153101     0.149133
Rotational constants in MHz :  4914.860621  4589.839477  4470.901507

                             ****ORCA TERMINATED NORMALLY****
TOTAL RUN TIME: 0 days 0 hours 0 minutes 3 seconds 605 msec
