                         Program Version 5.0.0 -  RELEASE  -
|  1> !PBE D3BJ RIJCOSX def2-SVPD def2/J TightSCF
|  2> *xyz 0 1
|  3> C          3.38093        2.08304       -3.35013
|  4> N          4.53592        1.18245       -3.42852
|  5> C          4.67196        0.12227       -4.22060
|  6> N          5.86602       -0.50785       -4.22428
|  7> C          3.69888       -0.31284       -4.98699
|  8> H          2.73141       -0.05009       -4.84900
|  9> H          3.89005       -1.05517       -5.64373
| 10> H          5.25193        1.30346       -2.72101
| 11> H          6.69516       -0.06232       -3.85160
| 12> H          5.97538       -1.39688       -4.69141
| 13> H          2.69962        1.85926       -4.14426
| 14> H          3.71221        3.09654       -3.43937
| 15> H          2.88835        1.95032       -2.40957
| 16> *
| 17>
| 18> %MaxCore 64000
| 19>
| 20> %pal nprocs 8
| 21> end
| 22>
| 23> %scf
| 24>   MaxIter 150
| 25> end
| 26>
| 27>
| 28>                          ****END OF INPUT****

CARTESIAN COORDINATES (ANGSTROEM)
---------------------------------
  C      3.380930    2.083040   -3.350130
  N      4.535920    1.182450   -3.428520
  C      4.671960    0.122270   -4.220600
  N      5.866020   -0.507850   -4.224280
  C      3.698880   -0.312840   -4.986990
  H      2.731410   -0.050090   -4.849000
  H      3.890050   -1.055170   -5.643730
  H      5.251930    1.303460   -2.721010
  H      6.695160   -0.062320   -3.851600
  H      5.975380   -1.396880   -4.691410
  H      2.699620    1.859260   -4.144260
  H      3.712210    3.096540   -3.439370
  H      2.888350    1.950320   -2.409570

 Total Charge           Charge          ....    0
 Multiplicity           Mult            ....    1
 Number of Electrons    NEL             ....   40
 Basis Dimension        Dim             ....  164

ORBITAL ENERGIES
----------------

  NO   OCC          E(Eh)            E(eV)
   0   2.0000     -14.004062      -381.0699
   1   2.0000     -13.997367      -380.8877
   2   2.0000      -9.933604      -270.3071
   3   2.0000      -9.919359      -269.9195
   4   2.0000      -9.809400      -266.9273
   5   2.0000      -0.872058       -23.7299
   6   2.0000      -0.792530       -21.5658
   7   2.0000      -0.649035       -17.6611
   8   2.0000      -0.624975       -17.0064
   9   2.0000      -0.510077       -13.8799
  10   2.0000      -0.493983       -13.4419
  11   2.0000      -0.463494       -12.6123
  12   2.0000      -0.406702       -11.0669
  13   2.0000      -0.393099       -10.6968
  14   2.0000      -0.371148       -10.0995
  15   2.0000      -0.340634        -9.2691
  16   2.0000      -0.336061        -9.1447
  17   2.0000      -0.309526        -8.4226
  18   2.0000      -0.206318        -5.6142
  19   2.0000      -0.138317        -3.7638
  20   0.0000      -0.002166        -0.0589
  21   0.0000       0.021462         0.5840
  22   0.0000       0.035589         0.9684
  23   0.0000       0.045994         1.2516
  24   0.0000       0.062958         1.7132

MULLIKEN ATOMIC CHARGES
-----------------------
   0 C :    1.228459
   1 N :   -0.517680
   2 C :    0.951492
   3 N :    0.038183
   4 C :    0.099959
   5 H :   -0.229580
   6 H :   -0.398590
   7 H :   -0.382971
   8 H :   -0.210318
   9 H :   -0.048712
  10 H :   -0.174450
  11 H :   -0.164849
  12 H :   -0.190943
Sum of atomic charges:   -0.0000000

LOEWDIN ATOMIC CHARGES
----------------------
   0 C :    0.224080
   1 N :   -0.039457
   2 C :   -0.254554
   3 N :    0.191519
   4 C :    0.149801
   5 H :   -0.104746
   6 H :   -0.098403
   7 H :    0.014542
   8 H :   -0.018418
   9 H :   -0.002128
  10 H :   -0.026794
  11 H :   -0.018320
  12 H :   -0.017123

  Mayer bond orders larger than 0.100000
B(  0-C ,  1-N ) :   0.9145 B(  0-C ,  7-H ) :  -0.1578 B(  0-C , 10-H ) :   0.8590
B(  0-C , 11-H ) :   0.7493 B(  0-C , 12-H ) :   0.7664 B(  1-N ,  2-C ) :   0.9182
B(  1-N ,  3-N ) :   0.2061 B(  1-N ,  4-C ) :   0.3744 B(  1-N ,  7-H ) :   1.3628
B(  1-N , 10-H ) :   0.1686 B(  1-N , 11-H ) :   0.2093 B(  1-N , 12-H ) :   0.2116
B(  2-C ,  3-N ) :   0.8831 B(  2-C ,  4-C ) :   1.3943 B(  2-C ,  5-H ) :   0.1124
B(  2-C ,  6-H ) :   0.1469 B(  2-C ,  7-H ) :  -0.2435 B(  2-C ,  8-H ) :  -0.1325
B(  3-N ,  4-C ) :   0.2949 B(  3-N ,  8-H ) :   1.2416 B(  3-N ,  9-H ) :   1.1472
B(  4-C ,  5-H ) :   0.7562 B(  4-C ,  6-H ) :   0.9445 B(  8-H ,  9-H ) :  -0.1674

Dispersion correction           -0.009379958
FINAL SINGLE POINT ENERGY      -228.156411668534

DIPOLE MOMENT
-------------
                                X             Y             Z
Electronic contribution:      2.31196      -1.01917       0.23224
Nuclear contribution   :     -1.64651       1.35250       0.40156
                        -----------------------------------------
Total Dipole Moment    :      0.66545       0.33333       0.63380
                        -----------------------------------------
Magnitude (a.u.)       :      0.97757
Magnitude (Debye)      :      2.48477

Rotational constants in cm-1:     0.339624     0.131069     0.096565
Rotational constants in MHz : 10181.679558  3929.342810  2894.941560

                             ****ORCA TERMINATED NORMALLY****
TOTAL RUN TIME: 0 days 0 hours 0 minutes 4 seconds 649 msec
