                         Program Version 5.0.0 -  RELEASE  -
|  1> !PBE D3BJ RIJCOSX def2-SVPD def2/J TightSCF xyzfile
|  2>
|  3> *xyzfile 0 1 D1.xyz
|  4>
|  5> %MaxCore 64000
|  6>
|  7> %pal nprocs 4
|  8> end
|  9>
| 10> %scf
| 11>   MaxIter 150
| 12> end
| 13>
| 14>
| 15>                          ****END OF INPUT****

CARTESIAN COORDINATES (ANGSTROEM)
---------------------------------
  C      3.380928    2.083045   -3.350127
  C      4.535924    1.182447   -3.428518
  C      2.495557    1.816150   -2.136364
  C      1.872181    0.427903   -2.077497
  H      2.614270   -0.365825   -2.198894
  H      1.389953    0.273087   -1.112360
  S      0.579024    0.140472   -3.297943
  C      4.671956    0.122273   -4.220598
  N      5.866023   -0.507849   -4.224284
  N      3.698881   -0.312844   -4.986988
  H      2.731405   -0.050091   -4.849000
  H      3.890046   -1.055172   -5.643730
  H      5.251933    1.303459   -2.721014
  H      6.695165   -0.062322   -3.851596
  H      5.975383   -1.396884   -4.691414
  F      0.228860   -1.246868   -3.127871
  O     -0.439269    1.118966   -3.014550
  O      1.247881    0.403474   -4.595647
  H      1.697003    2.561969   -2.141109
  H      3.080787    1.987436   -1.225838
  H      2.806463    1.986511   -4.268484
  H      3.778714    3.098282   -3.307383

 Total Charge           Charge          ....    0
 Multiplicity           Mult            ....    1
 Number of Electrons    NEL             ....   96
 Basis Dimension        Dim             ....  324

ORBITAL ENERGIES
----------------

  NO   OCC          E(Eh)            E(eV)
   0   2.0000     -88.319753     -2403.3027
   1   2.0000     -24.396998      -663.8761
   2   2.0000     -18.786837      -511.2158
   3   2.0000     -18.782740      -511.1043
   4   2.0000     -13.995355      -380.8330
   5   2.0000     -13.978755      -380.3813
   6   2.0000      -9.947914      -270.6965
   7   2.0000      -9.930461      -270.2216
   8   2.0000      -9.907005      -269.5833
   9   2.0000      -9.874444      -268.6973
  10   2.0000      -9.820275      -267.2233
  11   2.0000      -7.924462      -215.6356
  12   2.0000      -5.955750      -162.0642
  13   2.0000      -5.949611      -161.8972
  14   2.0000      -5.947275      -161.8336
  15   2.0000      -1.280327       -34.8395
  16   2.0000      -1.032298       -28.0903
  17   2.0000      -0.936625       -25.4869
  18   2.0000      -0.863314       -23.4920
  19   2.0000      -0.776830       -21.1386
  20   2.0000      -0.748305       -20.3624
  21   2.0000      -0.692548       -18.8452
  22   2.0000      -0.657687       -17.8966
  23   2.0000      -0.614715       -16.7272
  24   2.0000      -0.566144       -15.4056
  25   2.0000      -0.538851       -14.6629
  26   2.0000      -0.529563       -14.4101
  27   2.0000      -0.518484       -14.1087
  28   2.0000      -0.497946       -13.5498
  29   2.0000      -0.484250       -13.1771
  30   2.0000      -0.463841       -12.6218
  31   2.0000      -0.441858       -12.0236
  32   2.0000      -0.435147       -11.8410
  33   2.0000      -0.420611       -11.4454
  34   2.0000      -0.405305       -11.0289
  35   2.0000      -0.392064       -10.6686
  36   2.0000      -0.364850        -9.9281
  37   2.0000      -0.356749        -9.7076
  38   2.0000      -0.347979        -9.4690
  39   2.0000      -0.337192        -9.1755
  40   2.0000      -0.316163        -8.6032
  41   2.0000      -0.308008        -8.3813
  42   2.0000      -0.295433        -8.0391
  43   2.0000      -0.295115        -8.0305
  44   2.0000      -0.274865        -7.4795
  45   2.0000      -0.271089        -7.3767
  46   2.0000      -0.214169        -5.8278
  47   2.0000      -0.129900        -3.5348
  48   0.0000      -0.033567        -0.9134
  49   0.0000      -0.003471        -0.0944
  50   0.0000       0.005304         0.1443
  51   0.0000       0.013450         0.3660
  52   0.0000       0.021793         0.5930

MULLIKEN ATOMIC CHARGES
-----------------------
   0 C :    0.374325
   1 C :   -0.173559
   2 C :    0.176537
   3 C :    0.053856
   4 H :    0.101941
   5 H :   -0.094004
   6 S :    1.462822
   7 C :    0.966998
   8 N :   -0.023308
   9 N :    0.488355
  10 H :   -0.333269
  11 H :   -0.288687
  12 H :   -0.342969
  13 H :   -0.125913
  14 H :   -0.146880
  15 F :   -0.379876
  16 O :   -0.647298
  17 O :   -0.801262
  18 H :    0.009559
  19 H :   -0.016021
  20 H :   -0.095824
  21 H :   -0.165523
Sum of atomic charges:   -0.0000000

LOEWDIN ATOMIC CHARGES
----------------------
   0 C :   -0.038806
   1 C :   -0.025610
   2 C :   -0.021064
   3 C :   -0.049883
   4 H :    0.017724
   5 H :    0.018318
   6 S :    1.119353
   7 C :   -0.227326
   8 N :    0.191362
   9 N :    0.239978
  10 H :   -0.147491
  11 H :   -0.005280
  12 H :   -0.051107
  13 H :   -0.002691
  14 H :   -0.020813
  15 F :   -0.230648
  16 O :   -0.419666
  17 O :   -0.430552
  18 H :    0.026996
  19 H :    0.038879
  20 H :   -0.001637
  21 H :    0.019965

  Mayer bond orders larger than 0.100000
B(  0-C ,  1-C ) :   1.1128 B(  0-C ,  2-C ) :   1.1658 B(  0-C , 12-H ) :   0.2440
B(  0-C , 18-H ) :   0.1815 B(  0-C , 19-H ) :   0.1835 B(  0-C , 20-H ) :   0.8004
B(  0-C , 21-H ) :   0.7458 B(  1-C ,  2-C ) :   0.1268 B(  1-C ,  7-C ) :   1.5009
B(  1-C ,  8-N ) :   0.4471 B(  1-C ,  9-N ) :   0.2390 B(  1-C , 10-H ) :  -0.1164
B(  1-C , 12-H ) :   0.8074 B(  1-C , 20-H ) :   0.2827 B(  1-C , 21-H ) :   0.1293
B(  2-C ,  3-C ) :   1.3446 B(  2-C ,  4-H ) :   0.1599 B(  2-C ,  5-H ) :   0.1835
B(  2-C , 18-H ) :   0.7754 B(  2-C , 19-H ) :   0.7336 B(  2-C , 20-H ) :   0.1650
B(  2-C , 21-H ) :   0.1149 B(  3-C ,  4-H ) :   0.9091 B(  3-C ,  5-H ) :   0.7540
B(  3-C ,  6-S ) :   0.9283 B(  3-C , 17-O ) :   0.1716 B(  3-C , 18-H ) :   0.1664
B(  3-C , 19-H ) :   0.1433 B(  6-S , 15-F ) :   0.6796 B(  6-S , 16-O ) :   1.5406
B(  6-S , 17-O ) :   1.3835 B(  7-C ,  8-N ) :   0.6924 B(  7-C ,  9-N ) :   1.0380
B(  7-C , 10-H ) :  -0.1334 B(  7-C , 11-H ) :  -0.2259 B(  7-C , 12-H ) :   0.1319
B(  7-C , 13-H ) :  -0.1903 B(  7-C , 20-H ) :  -0.1397 B(  8-N ,  9-N ) :   0.1334
B(  8-N , 12-H ) :   0.1180 B(  8-N , 13-H ) :   1.2542 B(  8-N , 14-H ) :   1.1749
B(  9-N , 10-H ) :   1.0976 B(  9-N , 11-H ) :   1.2571 B( 10-H , 11-H ) :  -0.2152
B( 10-H , 17-O ) :   0.1266 B( 13-H , 14-H ) :  -0.1667

Dispersion correction           -0.025309502
FINAL SINGLE POINT ENERGY      -953.753260508667

DIPOLE MOMENT
-------------
                                X             Y             Z
Electronic contribution:    -15.26998      -6.64956      -1.18440
Nuclear contribution   :     15.92508       5.34175       1.81950
                        -----------------------------------------
Total Dipole Moment    :      0.65510      -1.30780       0.63510
                        -----------------------------------------
Magnitude (a.u.)       :      1.59463
Magnitude (Debye)      :      4.05323

Rotational constants in cm-1:     0.058561     0.020662     0.017762
Rotational constants in MHz :  1755.621534   619.433801   532.501507

                             ****ORCA TERMINATED NORMALLY****
TOTAL RUN TIME: 0 days 0 hours 0 minutes 23 seconds 711 msec
