                         Program Version 5.0.0 -  RELEASE  -
|  1> !PBE D3BJ RIJCOSX def2-SVPD def2/J TightSCF xyzfile
|  2>
|  3> *xyzfile 0 1 D3.xyz
|  4>
|  5> %MaxCore 64000
|  6>
|  7> %pal nprocs 4
|  8> end
|  9>
| 10> %scf
| 11>   MaxIter 150
| 12> end
| 13>
| 14>
| 15>                          ****END OF INPUT****

CARTESIAN COORDINATES (ANGSTROEM)
---------------------------------
  C      3.380928    2.083045   -3.350127
  N      4.535924    1.182447   -3.428518
  C      2.495557    1.816150   -2.136364
  C      1.872181    0.427903   -2.077497
  H      2.614270   -0.365825   -2.198894
  H      1.389953    0.273087   -1.112360
  S      0.579024    0.140472   -3.297943
  C      4.671956    0.122273   -4.220598
  N      5.866023   -0.507849   -4.224284
  C      3.698881   -0.312844   -4.986988
  H      2.731405   -0.050091   -4.849000
  H      3.890046   -1.055172   -5.643730
  H      5.251933    1.303459   -2.721014
  H      6.695165   -0.062322   -3.851596
  H      5.975383   -1.396884   -4.691414
  F      0.228860   -1.246868   -3.127871
  O     -0.439269    1.118966   -3.014550
  O      1.247881    0.403474   -4.595647
  H      1.697003    2.561969   -2.141109
  H      3.080787    1.987436   -1.225838
  H      2.806463    1.986511   -4.268484
  H      3.778714    3.098282   -3.307383

 Total Charge           Charge          ....    0
 Multiplicity           Mult            ....    1
 Number of Electrons    NEL             ....   96
 Basis Dimension        Dim             ....  324

ORBITAL ENERGIES
----------------

  NO   OCC          E(Eh)            E(eV)
   0   2.0000     -88.311379     -2403.0748
   1   2.0000     -24.389457      -663.6709
   2   2.0000     -18.779371      -511.0127
   3   2.0000     -18.765648      -510.6392
   4   2.0000     -14.005668      -381.1136
   5   2.0000     -13.994394      -380.8068
   6   2.0000      -9.952057      -270.8092
   7   2.0000      -9.932569      -270.2790
   8   2.0000      -9.928137      -270.1584
   9   2.0000      -9.925795      -270.0946
  10   2.0000      -9.789991      -266.3992
  11   2.0000      -7.915880      -215.4020
  12   2.0000      -5.947164      -161.8306
  13   2.0000      -5.940887      -161.6598
  14   2.0000      -5.938912      -161.6060
  15   2.0000      -1.272425       -34.6244
  16   2.0000      -1.022630       -27.8272
  17   2.0000      -0.923759       -25.1368
  18   2.0000      -0.873131       -23.7591
  19   2.0000      -0.796925       -21.6854
  20   2.0000      -0.746818       -20.3220
  21   2.0000      -0.683725       -18.6051
  22   2.0000      -0.647543       -17.6205
  23   2.0000      -0.625859       -17.0305
  24   2.0000      -0.582050       -15.8384
  25   2.0000      -0.528116       -14.3708
  26   2.0000      -0.525189       -14.2911
  27   2.0000      -0.512838       -13.9550
  28   2.0000      -0.501647       -13.6505
  29   2.0000      -0.485148       -13.2015
  30   2.0000      -0.464627       -12.6431
  31   2.0000      -0.444567       -12.0973
  32   2.0000      -0.441591       -12.0163
  33   2.0000      -0.409524       -11.1437
  34   2.0000      -0.406676       -11.0662
  35   2.0000      -0.401086       -10.9141
  36   2.0000      -0.362508        -9.8643
  37   2.0000      -0.351484        -9.5644
  38   2.0000      -0.345769        -9.4089
  39   2.0000      -0.338916        -9.2224
  40   2.0000      -0.334152        -9.0927
  41   2.0000      -0.325884        -8.8678
  42   2.0000      -0.305637        -8.3168
  43   2.0000      -0.292149        -7.9498
  44   2.0000      -0.275923        -7.5083
  45   2.0000      -0.238863        -6.4998
  46   2.0000      -0.208323        -5.6688
  47   2.0000      -0.134083        -3.6486
  48   0.0000      -0.026417        -0.7189
  49   0.0000      -0.013650        -0.3714
  50   0.0000       0.005869         0.1597
  51   0.0000       0.013665         0.3718
  52   0.0000       0.022554         0.6137

MULLIKEN ATOMIC CHARGES
-----------------------
   0 C :    0.982435
   1 N :   -0.558513
   2 C :    0.114625
   3 C :    0.135609
   4 H :    0.109965
   5 H :   -0.145372
   6 S :    1.437469
   7 C :    1.008973
   8 N :    0.040966
   9 C :    0.667102
  10 H :   -0.676432
  11 H :   -0.373509
  12 H :   -0.332333
  13 H :   -0.177972
  14 H :   -0.041031
  15 F :   -0.377625
  16 O :   -0.655038
  17 O :   -0.815340
  18 H :   -0.004478
  19 H :   -0.035901
  20 H :    0.042489
  21 H :   -0.346089
Sum of atomic charges:   -0.0000000

LOEWDIN ATOMIC CHARGES
----------------------
   0 C :    0.079471
   1 N :   -0.003825
   2 C :   -0.010933
   3 C :   -0.048425
   4 H :    0.018110
   5 H :    0.017577
   6 S :    1.113099
   7 C :   -0.244212
   8 N :    0.189753
   9 C :    0.187782
  10 H :   -0.211015
  11 H :   -0.085186
  12 H :    0.016962
  13 H :   -0.021653
  14 H :   -0.003096
  15 F :   -0.228908
  16 O :   -0.429857
  17 O :   -0.438578
  18 H :    0.032139
  19 H :    0.033823
  20 H :    0.011992
  21 H :    0.024982

  Mayer bond orders larger than 0.100000
B(  0-C ,  1-N ) :   0.8808 B(  0-C ,  2-C ) :   1.0980 B(  0-C , 12-H ) :  -0.1875
B(  0-C , 18-H ) :   0.1533 B(  0-C , 19-H ) :   0.1260 B(  0-C , 20-H ) :   0.6883
B(  0-C , 21-H ) :   0.8291 B(  1-N ,  2-C ) :   0.1130 B(  1-N ,  7-C ) :   0.7916
B(  1-N ,  8-N ) :   0.2373 B(  1-N ,  9-C ) :   0.3410 B(  1-N , 12-H ) :   1.4371
B(  1-N , 20-H ) :   0.1839 B(  1-N , 21-H ) :   0.1631 B(  2-C ,  3-C ) :   1.3174
B(  2-C ,  4-H ) :   0.1542 B(  2-C ,  5-H ) :   0.1945 B(  2-C , 18-H ) :   0.8247
B(  2-C , 19-H ) :   0.7810 B(  2-C , 20-H ) :   0.1404 B(  3-C ,  4-H ) :   0.9099
B(  3-C ,  5-H ) :   0.7393 B(  3-C ,  6-S ) :   0.9464 B(  3-C , 17-O ) :   0.1714
B(  3-C , 18-H ) :   0.1481 B(  3-C , 19-H ) :   0.1325 B(  6-S , 15-F ) :   0.6714
B(  6-S , 16-O ) :   1.5191 B(  6-S , 17-O ) :   1.4320 B(  7-C ,  8-N ) :   0.8412
B(  7-C ,  9-C ) :   1.6266 B(  7-C , 10-H ) :  -0.1491 B(  7-C , 11-H ) :   0.3821
B(  7-C , 12-H ) :  -0.3191 B(  7-C , 20-H ) :  -0.1108 B(  8-N ,  9-C ) :   0.4029
B(  8-N , 11-H ) :   0.1139 B(  8-N , 13-H ) :   1.1979 B(  8-N , 14-H ) :   1.1442
B(  9-C , 10-H ) :   0.1102 B(  9-C , 11-H ) :   0.7381 B(  9-C , 20-H ) :   0.1041
B( 10-H , 17-O ) :   0.1490 B( 10-H , 20-H ) :   0.1168 B( 13-H , 14-H ) :  -0.1736
B( 16-O , 17-O ) :   0.1085 B( 20-H , 21-H ) :  -0.1820

Dispersion correction           -0.025293264
FINAL SINGLE POINT ENERGY      -953.719671228766

DIPOLE MOMENT
-------------
                                X             Y             Z
Electronic contribution:    -14.66769      -5.45275      -0.01042
Nuclear contribution   :     15.84345       5.19593       1.66752
                        -----------------------------------------
Total Dipole Moment    :      1.17576      -0.25682       1.65710
                        -----------------------------------------
Magnitude (a.u.)       :      2.04801
Magnitude (Debye)      :      5.20562

Rotational constants in cm-1:     0.059060     0.020573     0.017713
Rotational constants in MHz :  1770.576058   616.749938   531.036486

                             ****ORCA TERMINATED NORMALLY****
TOTAL RUN TIME: 0 days 0 hours 0 minutes 23 seconds 670 msec
