                         Program Version 5.0.0 -  RELEASE  -
|  1> !PBE D3BJ RIJCOSX def2-SVPD def2/J TightSCF xyzfile
|  2>
|  3> *xyzfile 0 1 D4.xyz
|  4>
|  5> %MaxCore 64000
|  6>
|  7> %pal nprocs 4
|  8> end
|  9>
| 10> %scf
| 11>   MaxIter 150
| 12> end
| 13>
| 14>
| 15>                          ****END OF INPUT****

CARTESIAN COORDINATES (ANGSTROEM)
---------------------------------
  C      3.380928    2.083045   -3.350127
  C      4.535924    1.182447   -3.428518
  C      2.495557    1.816150   -2.136364
  C      1.872181    0.427903   -2.077497
  H      2.614270   -0.365825   -2.198894
  H      1.389953    0.273087   -1.112360
  S      0.579024    0.140472   -3.297943
  C      4.671956    0.122273   -4.220598
  N      5.866023   -0.507849   -4.224284
  N      3.698881   -0.312844   -4.986988
  H      2.731405   -0.050091   -4.849000
  H      3.890046   -1.055172   -5.643730
  H      5.251933    1.303459   -2.721014
  H      6.695165   -0.062322   -3.851596
  H      5.975383   -1.396884   -4.691414
  O      0.228860   -1.246868   -3.127871
  F     -0.439269    1.118966   -3.014550
  O      1.247881    0.403474   -4.595647
  H      1.697003    2.561969   -2.141109
  H      3.080787    1.987436   -1.225838
  H      2.806463    1.986511   -4.268484
  H      3.778714    3.098282   -3.307383

 Total Charge           Charge          ....    0
 Multiplicity           Mult            ....    1
 Number of Electrons    NEL             ....   96
 Basis Dimension        Dim             ....  324

ORBITAL ENERGIES
----------------

  NO   OCC          E(Eh)            E(eV)
   0   2.0000     -88.319989     -2403.3091
   1   2.0000     -24.396715      -663.8684
   2   2.0000     -18.787013      -511.2206
   3   2.0000     -18.781961      -511.0831
   4   2.0000     -13.995105      -380.8262
   5   2.0000     -13.978552      -380.3757
   6   2.0000      -9.947241      -270.6782
   7   2.0000      -9.930976      -270.2356
   8   2.0000      -9.908664      -269.6285
   9   2.0000      -9.876171      -268.7443
  10   2.0000      -9.820898      -267.2402
  11   2.0000      -7.924559      -215.6382
  12   2.0000      -5.955897      -162.0682
  13   2.0000      -5.949755      -161.9011
  14   2.0000      -5.947309      -161.8345
  15   2.0000      -1.280037       -34.8316
  16   2.0000      -1.031768       -28.0758
  17   2.0000      -0.936612       -25.4865
  18   2.0000      -0.862966       -23.4825
  19   2.0000      -0.776414       -21.1273
  20   2.0000      -0.750520       -20.4227
  21   2.0000      -0.690038       -18.7769
  22   2.0000      -0.657943       -17.9035
  23   2.0000      -0.616148       -16.7663
  24   2.0000      -0.565118       -15.3777
  25   2.0000      -0.541851       -14.7445
  26   2.0000      -0.530355       -14.4317
  27   2.0000      -0.522008       -14.2045
  28   2.0000      -0.494223       -13.4485
  29   2.0000      -0.481960       -13.1148
  30   2.0000      -0.463108       -12.6018
  31   2.0000      -0.439342       -11.9551
  32   2.0000      -0.432369       -11.7654
  33   2.0000      -0.425358       -11.5746
  34   2.0000      -0.407544       -11.0898
  35   2.0000      -0.393567       -10.7095
  36   2.0000      -0.367062        -9.9883
  37   2.0000      -0.356251        -9.6941
  38   2.0000      -0.352915        -9.6033
  39   2.0000      -0.335012        -9.1162
  40   2.0000      -0.316851        -8.6220
  41   2.0000      -0.306060        -8.3283
  42   2.0000      -0.297583        -8.0976
  43   2.0000      -0.294188        -8.0053
  44   2.0000      -0.282073        -7.6756
  45   2.0000      -0.266707        -7.2575
  46   2.0000      -0.213410        -5.8072
  47   2.0000      -0.130314        -3.5460
  48   0.0000      -0.035266        -0.9596
  49   0.0000       0.001963         0.0534
  50   0.0000       0.004086         0.1112
  51   0.0000       0.010959         0.2982
  52   0.0000       0.021266         0.5787

MULLIKEN ATOMIC CHARGES
-----------------------
   0 C :    0.382309
   1 C :   -0.188722
   2 C :    0.215196
   3 C :    0.078674
   4 H :    0.089022
   5 H :   -0.097263
   6 S :    1.481329
   7 C :    0.974759
   8 N :   -0.024868
   9 N :    0.486792
  10 H :   -0.329848
  11 H :   -0.281016
  12 H :   -0.346844
  13 H :   -0.126525
  14 H :   -0.144740
  15 O :   -0.607873
  16 F :   -0.431785
  17 O :   -0.827951
  18 H :   -0.003983
  19 H :   -0.036517
  20 H :   -0.090249
  21 H :   -0.169897
Sum of atomic charges:    0.0000000

LOEWDIN ATOMIC CHARGES
----------------------
   0 C :   -0.043430
   1 C :   -0.025168
   2 C :   -0.037492
   3 C :   -0.040936
   4 H :    0.031491
   5 H :    0.018628
   6 S :    1.117321
   7 C :   -0.223819
   8 N :    0.192986
   9 N :    0.244332
  10 H :   -0.138690
  11 H :   -0.001844
  12 H :   -0.051249
  13 H :   -0.002375
  14 H :   -0.019082
  15 O :   -0.423696
  16 F :   -0.226809
  17 O :   -0.436747
  18 H :    0.018877
  19 H :    0.035028
  20 H :   -0.005652
  21 H :    0.018325

  Mayer bond orders larger than 0.100000
B(  0-C ,  1-C ) :   1.1219 B(  0-C ,  2-C ) :   1.1696 B(  0-C , 12-H ) :   0.2544
B(  0-C , 18-H ) :   0.1843 B(  0-C , 19-H ) :   0.1812 B(  0-C , 20-H ) :   0.7925
B(  0-C , 21-H ) :   0.7412 B(  1-C ,  2-C ) :   0.1377 B(  1-C ,  7-C ) :   1.4888
B(  1-C ,  8-N ) :   0.4479 B(  1-C ,  9-N ) :   0.2364 B(  1-C , 10-H ) :  -0.1143
B(  1-C , 12-H ) :   0.8097 B(  1-C , 20-H ) :   0.2914 B(  1-C , 21-H ) :   0.1314
B(  2-C ,  3-C ) :   1.2863 B(  2-C ,  4-H ) :   0.1516 B(  2-C ,  5-H ) :   0.1686
B(  2-C , 18-H ) :   0.7582 B(  2-C , 19-H ) :   0.7441 B(  2-C , 20-H ) :   0.1659
B(  2-C , 21-H ) :   0.1186 B(  3-C ,  4-H ) :   0.9366 B(  3-C ,  5-H ) :   0.7657
B(  3-C ,  6-S ) :   0.9574 B(  3-C , 17-O ) :   0.1523 B(  3-C , 18-H ) :   0.1568
B(  3-C , 19-H ) :   0.1373 B(  6-S , 15-O ) :   1.5516 B(  6-S , 16-F ) :   0.6456
B(  6-S , 17-O ) :   1.3771 B(  7-C ,  8-N ) :   0.6898 B(  7-C ,  9-N ) :   1.0464
B(  7-C , 10-H ) :  -0.1277 B(  7-C , 11-H ) :  -0.2256 B(  7-C , 12-H ) :   0.1276
B(  7-C , 13-H ) :  -0.1919 B(  7-C , 20-H ) :  -0.1386 B(  8-N ,  9-N ) :   0.1340
B(  8-N , 12-H ) :   0.1195 B(  8-N , 13-H ) :   1.2552 B(  8-N , 14-H ) :   1.1740
B(  9-N , 10-H ) :   1.0927 B(  9-N , 11-H ) :   1.2506 B( 10-H , 11-H ) :  -0.2144
B( 10-H , 17-O ) :   0.1364 B( 13-H , 14-H ) :  -0.1672

Dispersion correction           -0.025281079
FINAL SINGLE POINT ENERGY      -953.753439691450

DIPOLE MOMENT
-------------
                                X             Y             Z
Electronic contribution:    -16.35254      -2.68925      -1.02294
Nuclear contribution   :     16.65743       2.74852       1.69529
                        -----------------------------------------
Total Dipole Moment    :      0.30489       0.05927       0.67234
                        -----------------------------------------
Magnitude (a.u.)       :      0.74062
Magnitude (Debye)      :      1.88250

Rotational constants in cm-1:     0.059907     0.020458     0.017675
Rotational constants in MHz :  1795.978106   613.328205   529.885290

                             ****ORCA TERMINATED NORMALLY****
TOTAL RUN TIME: 0 days 0 hours 0 minutes 23 seconds 625 msec
