                         Program Version 5.0.0 -  RELEASE  -
|  1> !PBE D3BJ RIJCOSX def2-SVPD def2/J TightSCF xyzfile
|  2>
|  3> *xyzfile 0 1 D5.xyz
|  4>
|  5> %MaxCore 64000
|  6>
|  7> %pal nprocs 4
|  8> end
|  9>
| 10> %scf
| 11>   MaxIter 150
| 12> end
| 13>
| 14>
| 15>                          ****END OF INPUT****

CARTESIAN COORDINATES (ANGSTROEM)
---------------------------------
  C      3.380928    2.083045   -3.350127
  N      4.535924    1.182447   -3.428518
  C      2.495557    1.816150   -2.136364
  C      1.872181    0.427903   -2.077497
  H      2.614270   -0.365825   -2.198894
  H      1.389953    0.273087   -1.112360
  S      0.579024    0.140472   -3.297943
  C      4.671956    0.122273   -4.220598
  C      5.866023   -0.507849   -4.224284
  N      3.698881   -0.312844   -4.986988
  H      2.731405   -0.050091   -4.849000
  H      3.890046   -1.055172   -5.643730
  H      5.251933    1.303459   -2.721014
  H      6.695165   -0.062322   -3.851596
  H      5.975383   -1.396884   -4.691414
  O      0.228860   -1.246868   -3.127871
  F     -0.439269    1.118966   -3.014550
  O      1.247881    0.403474   -4.595647
  H      1.697003    2.561969   -2.141109
  H      3.080787    1.987436   -1.225838
  H      2.806463    1.986511   -4.268484
  H      3.778714    3.098282   -3.307383

 Total Charge           Charge          ....    0
 Multiplicity           Mult            ....    1
 Number of Electrons    NEL             ....   96
 Basis Dimension        Dim             ....  324

ORBITAL ENERGIES
----------------

  NO   OCC          E(Eh)            E(eV)
   0   2.0000     -88.332763     -2403.6567
   1   2.0000     -24.408909      -664.2002
   2   2.0000     -18.798400      -511.5305
   3   2.0000     -18.794068      -511.4126
   4   2.0000     -14.004901      -381.0927
   5   2.0000     -13.974506      -380.2656
   6   2.0000      -9.965991      -271.1884
   7   2.0000      -9.940258      -270.4882
   8   2.0000      -9.935773      -270.3661
   9   2.0000      -9.928203      -270.1602
  10   2.0000      -9.799455      -266.6567
  11   2.0000      -7.937261      -215.9838
  12   2.0000      -5.968547      -162.4124
  13   2.0000      -5.962370      -162.2443
  14   2.0000      -5.960192      -162.1851
  15   2.0000      -1.292376       -35.1674
  16   2.0000      -1.043431       -28.3932
  17   2.0000      -0.948323       -25.8052
  18   2.0000      -0.873158       -23.7598
  19   2.0000      -0.797149       -21.6915
  20   2.0000      -0.761689       -20.7266
  21   2.0000      -0.698654       -19.0113
  22   2.0000      -0.661644       -18.0043
  23   2.0000      -0.620001       -16.8711
  24   2.0000      -0.574037       -15.6203
  25   2.0000      -0.548251       -14.9187
  26   2.0000      -0.547583       -14.9005
  27   2.0000      -0.539196       -14.6723
  28   2.0000      -0.516437       -14.0530
  29   2.0000      -0.487918       -13.2769
  30   2.0000      -0.458731       -12.4827
  31   2.0000      -0.447259       -12.1705
  32   2.0000      -0.440846       -11.9960
  33   2.0000      -0.433136       -11.7862
  34   2.0000      -0.413841       -11.2612
  35   2.0000      -0.406756       -11.0684
  36   2.0000      -0.374630       -10.1942
  37   2.0000      -0.368838       -10.0366
  38   2.0000      -0.360986        -9.8229
  39   2.0000      -0.347496        -9.4558
  40   2.0000      -0.336748        -9.1634
  41   2.0000      -0.323759        -8.8099
  42   2.0000      -0.309961        -8.4345
  43   2.0000      -0.299918        -8.1612
  44   2.0000      -0.296714        -8.0740
  45   2.0000      -0.287321        -7.8184
  46   2.0000      -0.208116        -5.6631
  47   2.0000      -0.121718        -3.3121
  48   0.0000      -0.046329        -1.2607
  49   0.0000      -0.014901        -0.4055
  50   0.0000      -0.003038        -0.0827
  51   0.0000       0.007587         0.2065
  52   0.0000       0.008376         0.2279

MULLIKEN ATOMIC CHARGES
-----------------------
   0 C :    0.979408
   1 N :   -0.376141
   2 C :    0.174130
   3 C :    0.107318
   4 H :    0.141139
   5 H :   -0.150992
   6 S :    1.471935
   7 C :    0.536713
   8 C :    0.409110
   9 N :    0.630459
  10 H :   -0.444253
  11 H :   -0.202474
  12 H :   -0.271486
  13 H :   -0.386753
  14 H :   -0.277183
  15 O :   -0.597145
  16 F :   -0.422467
  17 O :   -0.834548
  18 H :   -0.003316
  19 H :   -0.054995
  20 H :   -0.056309
  21 H :   -0.372148
Sum of atomic charges:   -0.0000000

LOEWDIN ATOMIC CHARGES
----------------------
   0 C :    0.066332
   1 N :    0.007594
   2 C :   -0.027839
   3 C :   -0.038375
   4 H :    0.036822
   5 H :    0.021179
   6 S :    1.118845
   7 C :   -0.252201
   8 C :    0.141432
   9 N :    0.242619
  10 H :   -0.148175
  11 H :    0.015802
  12 H :    0.032752
  13 H :   -0.111999
  14 H :   -0.110031
  15 O :   -0.414986
  16 F :   -0.225627
  17 O :   -0.436711
  18 H :    0.024774
  19 H :    0.034158
  20 H :    0.001056
  21 H :    0.022578

  Mayer bond orders larger than 0.100000
B(  0-C ,  1-N ) :   0.9423 B(  0-C ,  2-C ) :   1.1172 B(  0-C , 12-H ) :  -0.2082
B(  0-C , 18-H ) :   0.1621 B(  0-C , 19-H ) :   0.1447 B(  0-C , 20-H ) :   0.7240
B(  0-C , 21-H ) :   0.7984 B(  1-N ,  7-C ) :   0.9734 B(  1-N ,  8-C ) :   0.2439
B(  1-N ,  9-N ) :   0.1768 B(  1-N , 12-H ) :   1.2632 B(  1-N , 20-H ) :   0.2414
B(  1-N , 21-H ) :   0.1753 B(  2-C ,  3-C ) :   1.2696 B(  2-C ,  4-H ) :   0.1430
B(  2-C ,  5-H ) :   0.1696 B(  2-C , 18-H ) :   0.8012 B(  2-C , 19-H ) :   0.7744
B(  2-C , 20-H ) :   0.1500 B(  2-C , 21-H ) :   0.1004 B(  3-C ,  4-H ) :   0.9014
B(  3-C ,  5-H ) :   0.7835 B(  3-C ,  6-S ) :   0.9625 B(  3-C , 17-O ) :   0.1535
B(  3-C , 18-H ) :   0.1328 B(  3-C , 19-H ) :   0.1208 B(  6-S , 15-O ) :   1.5605
B(  6-S , 16-F ) :   0.6574 B(  6-S , 17-O ) :   1.3800 B(  7-C ,  8-C ) :   1.3386
B(  7-C ,  9-N ) :   1.0975 B(  7-C , 10-H ) :  -0.1094 B(  7-C , 11-H ) :  -0.1125
B(  7-C , 12-H ) :  -0.2157 B(  7-C , 13-H ) :   0.1314 B(  7-C , 14-H ) :   0.2212
B(  8-C ,  9-N ) :   0.1762 B(  8-C , 13-H ) :   0.7544 B(  8-C , 14-H ) :   0.7638
B(  9-N , 10-H ) :   0.9209 B(  9-N , 11-H ) :   1.1685 B(  9-N , 20-H ) :   0.1309
B( 10-H , 11-H ) :  -0.2391 B( 10-H , 17-O ) :   0.1534 B( 13-H , 14-H ) :   0.1721
B( 20-H , 21-H ) :  -0.1520

Dispersion correction           -0.025071891
FINAL SINGLE POINT ENERGY      -953.735219166193

DIPOLE MOMENT
-------------
                                X             Y             Z
Electronic contribution:    -17.81064      -1.25508      -0.24240
Nuclear contribution   :     16.78714       2.58368       1.61768
                        -----------------------------------------
Total Dipole Moment    :     -1.02350       1.32861       1.37529
                        -----------------------------------------
Magnitude (a.u.)       :      2.16891
Magnitude (Debye)      :      5.51293

Rotational constants in cm-1:     0.059928     0.020911     0.017993
Rotational constants in MHz :  1796.610847   626.896941   539.414615

                             ****ORCA TERMINATED NORMALLY****
TOTAL RUN TIME: 0 days 0 hours 0 minutes 24 seconds 192 msec
