                         Program Version 5.0.0 -  RELEASE  -
|  1> !PBE D3BJ RIJCOSX def2-SVPD def2/J TightSCF xyzfile
|  2>
|  3> *xyzfile 0 1 D6.xyz
|  4>
|  5> %MaxCore 64000
|  6>
|  7> %pal nprocs 4
|  8> end
|  9>
| 10> %scf
| 11>   MaxIter 150
| 12> end
| 13>
| 14>
| 15>                          ****END OF INPUT****

CARTESIAN COORDINATES (ANGSTROEM)
---------------------------------
  C      3.380928    2.083045   -3.350127
  N      4.535924    1.182447   -3.428518
  C      2.495557    1.816150   -2.136364
  C      1.872181    0.427903   -2.077497
  H      2.614270   -0.365825   -2.198894
  H      1.389953    0.273087   -1.112360
  S      0.579024    0.140472   -3.297943
  C      4.671956    0.122273   -4.220598
  N      5.866023   -0.507849   -4.224284
  C      3.698881   -0.312844   -4.986988
  H      2.731405   -0.050091   -4.849000
  H      3.890046   -1.055172   -5.643730
  H      5.251933    1.303459   -2.721014
  H      6.695165   -0.062322   -3.851596
  H      5.975383   -1.396884   -4.691414
  O      0.228860   -1.246868   -3.127871
  F     -0.439269    1.118966   -3.014550
  O      1.247881    0.403474   -4.595647
  H      1.697003    2.561969   -2.141109
  H      3.080787    1.987436   -1.225838
  H      2.806463    1.986511   -4.268484
  H      3.778714    3.098282   -3.307383

 Total Charge           Charge          ....    0
 Multiplicity           Mult            ....    1
 Number of Electrons    NEL             ....   96
 Basis Dimension        Dim             ....  324

ORBITAL ENERGIES
----------------

  NO   OCC          E(Eh)            E(eV)
   0   2.0000     -88.310191     -2403.0425
   1   2.0000     -24.389122      -663.6617
   2   2.0000     -18.778627      -510.9924
   3   2.0000     -18.767091      -510.6785
   4   2.0000     -14.006113      -381.1257
   5   2.0000     -13.993184      -380.7739
   6   2.0000      -9.951862      -270.8039
   7   2.0000      -9.934364      -270.3278
   8   2.0000      -9.927856      -270.1507
   9   2.0000      -9.926999      -270.1274
  10   2.0000      -9.789968      -266.3986
  11   2.0000      -7.914769      -215.3718
  12   2.0000      -5.946143      -161.8028
  13   2.0000      -5.939698      -161.6274
  14   2.0000      -5.937799      -161.5757
  15   2.0000      -1.272783       -34.6342
  16   2.0000      -1.021160       -27.7872
  17   2.0000      -0.924046       -25.1446
  18   2.0000      -0.872886       -23.7524
  19   2.0000      -0.796772       -21.6813
  20   2.0000      -0.749207       -20.3870
  21   2.0000      -0.680571       -18.5193
  22   2.0000      -0.649463       -17.6728
  23   2.0000      -0.625765       -17.0279
  24   2.0000      -0.582341       -15.8463
  25   2.0000      -0.536997       -14.6124
  26   2.0000      -0.526326       -14.3221
  27   2.0000      -0.510564       -13.8931
  28   2.0000      -0.500565       -13.6211
  29   2.0000      -0.481229       -13.0949
  30   2.0000      -0.463843       -12.6218
  31   2.0000      -0.445247       -12.1158
  32   2.0000      -0.437743       -11.9116
  33   2.0000      -0.416839       -11.3428
  34   2.0000      -0.403799       -10.9879
  35   2.0000      -0.400422       -10.8960
  36   2.0000      -0.369424       -10.0525
  37   2.0000      -0.353235        -9.6120
  38   2.0000      -0.350047        -9.5253
  39   2.0000      -0.341076        -9.2812
  40   2.0000      -0.332482        -9.0473
  41   2.0000      -0.322605        -8.7785
  42   2.0000      -0.306653        -8.3444
  43   2.0000      -0.282420        -7.6850
  44   2.0000      -0.265331        -7.2200
  45   2.0000      -0.254185        -6.9167
  46   2.0000      -0.208217        -5.6659
  47   2.0000      -0.132758        -3.6125
  48   0.0000      -0.029652        -0.8069
  49   0.0000      -0.010335        -0.2812
  50   0.0000       0.004736         0.1289
  51   0.0000       0.013386         0.3642
  52   0.0000       0.016387         0.4459

MULLIKEN ATOMIC CHARGES
-----------------------
   0 C :    0.987264
   1 N :   -0.559083
   2 C :    0.149969
   3 C :    0.167658
   4 H :    0.090204
   5 H :   -0.149257
   6 S :    1.451930
   7 C :    1.016021
   8 N :    0.042524
   9 C :    0.658206
  10 H :   -0.664613
  11 H :   -0.381119
  12 H :   -0.330753
  13 H :   -0.178501
  14 H :   -0.040425
  15 O :   -0.603750
  16 F :   -0.431638
  17 O :   -0.842008
  18 H :   -0.024594
  19 H :   -0.056594
  20 H :    0.048098
  21 H :   -0.349538
Sum of atomic charges:    0.0000000

LOEWDIN ATOMIC CHARGES
----------------------
   0 C :    0.074935
   1 N :   -0.003460
   2 C :   -0.026697
   3 C :   -0.038725
   4 H :    0.032297
   5 H :    0.018061
   6 S :    1.109605
   7 C :   -0.242556
   8 N :    0.190433
   9 C :    0.193020
  10 H :   -0.202052
  11 H :   -0.081676
  12 H :    0.016806
  13 H :   -0.021823
  14 H :   -0.002141
  15 O :   -0.423644
  16 F :   -0.235215
  17 O :   -0.443751
  18 H :    0.024830
  19 H :    0.030245
  20 H :    0.007920
  21 H :    0.023587

  Mayer bond orders larger than 0.100000
B(  0-C ,  1-N ) :   0.8819 B(  0-C ,  2-C ) :   1.1060 B(  0-C , 12-H ) :  -0.1863
B(  0-C , 18-H ) :   0.1531 B(  0-C , 19-H ) :   0.1241 B(  0-C , 20-H ) :   0.6831
B(  0-C , 21-H ) :   0.8297 B(  1-N ,  2-C ) :   0.1204 B(  1-N ,  7-C ) :   0.7873
B(  1-N ,  8-N ) :   0.2377 B(  1-N ,  9-C ) :   0.3416 B(  1-N , 12-H ) :   1.4344
B(  1-N , 20-H ) :   0.1823 B(  1-N , 21-H ) :   0.1654 B(  2-C ,  3-C ) :   1.2616
B(  2-C ,  4-H ) :   0.1458 B(  2-C ,  5-H ) :   0.1787 B(  2-C , 18-H ) :   0.8129
B(  2-C , 19-H ) :   0.7896 B(  2-C , 20-H ) :   0.1414 B(  3-C ,  4-H ) :   0.9374
B(  3-C ,  5-H ) :   0.7467 B(  3-C ,  6-S ) :   0.9712 B(  3-C , 17-O ) :   0.1535
B(  3-C , 18-H ) :   0.1410 B(  3-C , 19-H ) :   0.1256 B(  6-S , 15-O ) :   1.5385
B(  6-S , 16-F ) :   0.6390 B(  6-S , 17-O ) :   1.4250 B(  7-C ,  8-N ) :   0.8428
B(  7-C ,  9-C ) :   1.6233 B(  7-C , 10-H ) :  -0.1522 B(  7-C , 11-H ) :   0.3848
B(  7-C , 12-H ) :  -0.3182 B(  7-C , 20-H ) :  -0.1090 B(  8-N ,  9-C ) :   0.4012
B(  8-N , 11-H ) :   0.1110 B(  8-N , 13-H ) :   1.1977 B(  8-N , 14-H ) :   1.1437
B(  9-C , 10-H ) :   0.1109 B(  9-C , 11-H ) :   0.7334 B(  9-C , 20-H ) :   0.1015
B( 10-H , 17-O ) :   0.1671 B( 10-H , 20-H ) :   0.1203 B( 13-H , 14-H ) :  -0.1736
B( 20-H , 21-H ) :  -0.1808

Dispersion correction           -0.025268117
FINAL SINGLE POINT ENERGY      -953.719353642499

DIPOLE MOMENT
-------------
                                X             Y             Z
Electronic contribution:    -15.77367      -1.47504       0.16718
Nuclear contribution   :     16.57580       2.60270       1.54331
                        -----------------------------------------
Total Dipole Moment    :      0.80213       1.12766       1.71048
                        -----------------------------------------
Magnitude (a.u.)       :      2.20018
Magnitude (Debye)      :      5.59240

Rotational constants in cm-1:     0.060402     0.020377     0.017632
Rotational constants in MHz :  1810.792194   610.900365   528.582827

                             ****ORCA TERMINATED NORMALLY****
TOTAL RUN TIME: 0 days 0 hours 0 minutes 23 seconds 950 msec
