                         Program Version 5.0.0 -  RELEASE  -
|  1> !wB97X-D3 RIJCOSX def2-SVPD def2/J TightSCF CPCM(Water)
|  2> *xyz -1 1
|  3> C          4.08422        1.74208       -2.11472
|  4> C          4.26524        2.50052       -0.79589
|  5> H          4.86853        3.39267       -0.98113
|  6> H          3.30764        2.82457       -0.38781
|  7> C          4.98224        1.65026        0.24742
|  8> O          4.36806        1.38927        1.31371
|  9> O          6.12892        1.23351       -0.04562
| 10> H          3.57911        2.36849       -2.81997
| 11> H          3.50424        0.85965       -1.94198
| 12> H          5.04288        1.46841       -2.50327
| 13> *
| 14> %MaxCore 64000
| 15> %pal nprocs 8
| 16> end
| 17> %scf
| 18>   MaxIter 150
| 19> end
| 20>
| 21>
| 22>                          ****END OF INPUT****

CARTESIAN COORDINATES (ANGSTROEM)
---------------------------------
  C      4.084220    1.742080   -2.114720
  C      4.265240    2.500520   -0.795890
  H      4.868530    3.392670   -0.981130
  H      3.307640    2.824570   -0.387810
  C      4.982240    1.650260    0.247420
  O      4.368060    1.389270    1.313710
  O      6.128920    1.233510   -0.045620
  H      3.579110    2.368490   -2.819970
  H      3.504240    0.859650   -1.941980
  H      5.042880    1.468410   -2.503270

 Total Charge           Charge          ....   -1
 Multiplicity           Mult            ....    1
 Number of Electrons    NEL             ....   40
 Basis Dimension        Dim             ....  146

ORBITAL ENERGIES
----------------

  NO   OCC          E(Eh)            E(eV)
   0   2.0000     -19.177929      -521.8580
   1   2.0000     -19.177119      -521.8359
   2   2.0000     -10.365528      -282.0603
   3   2.0000     -10.269965      -279.4600
   4   2.0000     -10.265891      -279.3491
   5   2.0000      -1.123806       -30.5803
   6   2.0000      -1.028020       -27.9739
   7   2.0000      -0.865881       -23.5618
   8   2.0000      -0.732397       -19.9295
   9   2.0000      -0.591127       -16.0854
  10   2.0000      -0.546100       -14.8601
  11   2.0000      -0.537810       -14.6345
  12   2.0000      -0.508057       -13.8249
  13   2.0000      -0.492716       -13.4075
  14   2.0000      -0.466584       -12.6964
  15   2.0000      -0.438830       -11.9412
  16   2.0000      -0.425956       -11.5908
  17   2.0000      -0.343465        -9.3461
  18   2.0000      -0.329483        -8.9657
  19   2.0000      -0.323118        -8.7925
  20   0.0000       0.094946         2.5836
  21   0.0000       0.119931         3.2635
  22   0.0000       0.130480         3.5505
  23   0.0000       0.141775         3.8579
  24   0.0000       0.152227         4.1423

MULLIKEN ATOMIC CHARGES
-----------------------
   0 C :    0.490922
   1 C :   -0.302962
   2 H :    0.032988
   3 H :   -0.043729
   4 C :    0.399275
   5 O :   -0.719763
   6 O :   -0.739555
   7 H :   -0.026260
   8 H :   -0.048403
   9 H :   -0.042515
Sum of atomic charges:   -1.0000000

LOEWDIN ATOMIC CHARGES
----------------------
   0 C :    0.116788
   1 C :   -0.036142
   2 H :    0.024667
   3 H :    0.010809
   4 C :   -0.328614
   5 O :   -0.369274
   6 O :   -0.361633
   7 H :   -0.019289
   8 H :   -0.013093
   9 H :   -0.024219

  Mayer bond orders larger than 0.100000
B(  0-C ,  1-C ) :   1.2775 B(  0-C ,  7-H ) :   0.8648 B(  0-C ,  8-H ) :   0.8725
B(  0-C ,  9-H ) :   0.8450 B(  1-C ,  2-H ) :   0.8937 B(  1-C ,  3-H ) :   0.9737
B(  1-C ,  4-C ) :   1.0482 B(  1-C ,  7-H ) :   0.1373 B(  1-C ,  8-H ) :   0.1487
B(  1-C ,  9-H ) :   0.1693 B(  3-H ,  4-C ) :   0.1514 B(  4-C ,  5-O ) :   1.4734
B(  4-C ,  6-O ) :   1.4937 B(  5-O ,  6-O ) :   0.1421

Dispersion correction           -0.001959198
FINAL SINGLE POINT ENERGY      -267.692847172501

DIPOLE MOMENT
-------------
                                X             Y             Z
Electronic contribution:      2.06833      -1.10963       4.48662
Nuclear contribution   :     -3.31311       2.28398      -6.76358
                        -----------------------------------------
Total Dipole Moment    :     -1.24479       1.17435      -2.27696
                        -----------------------------------------
Magnitude (a.u.)       :      2.84836
Magnitude (Debye)      :      7.23995

Rotational constants in cm-1:     0.309287     0.135287     0.107346
Rotational constants in MHz :  9272.201029  4055.789113  3218.155789

                             ****ORCA TERMINATED NORMALLY****
TOTAL RUN TIME: 0 days 0 hours 0 minutes 12 seconds 314 msec
