                         Program Version 5.0.0 -  RELEASE  -
|  1> !wB97X-D3 RIJCOSX def2-SVPD def2/J TightSCF CPCM(Water)
|  2> *xyz 1 1
|  3> C          3.91385       -1.65829        3.01513
|  4> N          5.03927       -0.90115        2.49282
|  5> C          6.21038       -1.41726        2.17824
|  6> N          6.53591       -2.67712        2.55608
|  7> N          7.07675       -0.70082        1.47891
|  8> H          7.95464       -1.12155        1.20755
|  9> H          6.75616        0.10664        0.96028
| 10> H          4.84217        0.01761        2.11519
| 11> H          5.99388       -3.12692        3.28278
| 12> C          3.13916       -2.37657        1.91061
| 13> H          3.26723       -0.93940        3.52069
| 14> H          4.24720       -2.35509        3.79006
| 15> H          7.49844       -2.97548        2.46878
| 16> H          2.82969       -1.66654        1.17238
| 17> H          2.27790       -2.85264        2.33072
| 18> H          3.76754       -3.11338        1.45548
| 19> *
| 20> %MaxCore 64000
| 21> %pal nprocs 8
| 22> end
| 23> %scf
| 24>   MaxIter 150
| 25> end
| 26>
| 27>
| 28>                          ****END OF INPUT****

CARTESIAN COORDINATES (ANGSTROEM)
---------------------------------
  C      3.913850   -1.658290    3.015130
  N      5.039270   -0.901150    2.492820
  C      6.210380   -1.417260    2.178240
  N      6.535910   -2.677120    2.556080
  N      7.076750   -0.700820    1.478910
  H      7.954640   -1.121550    1.207550
  H      6.756160    0.106640    0.960280
  H      4.842170    0.017610    2.115190
  H      5.993880   -3.126920    3.282780
  C      3.139160   -2.376570    1.910610
  H      3.267230   -0.939400    3.520690
  H      4.247200   -2.355090    3.790060
  H      7.498440   -2.975480    2.468780
  H      2.829690   -1.666540    1.172380
  H      2.277900   -2.852640    2.330720
  H      3.767540   -3.113380    1.455480

 Total Charge           Charge          ....    1
 Multiplicity           Mult            ....    1
 Number of Electrons    NEL             ....   48
 Basis Dimension        Dim             ....  200

ORBITAL ENERGIES
----------------

  NO   OCC          E(Eh)            E(eV)
   0   2.0000     -14.492009      -394.3476
   1   2.0000     -14.484129      -394.1332
   2   2.0000     -14.483856      -394.1258
   3   2.0000     -10.456698      -284.5412
   4   2.0000     -10.341080      -281.3951
   5   2.0000     -10.280331      -279.7420
   6   2.0000      -1.155177       -31.4340
   7   2.0000      -1.044758       -28.4293
   8   2.0000      -1.023108       -27.8402
   9   2.0000      -0.883864       -24.0512
  10   2.0000      -0.783631       -21.3237
  11   2.0000      -0.743056       -20.2196
  12   2.0000      -0.717191       -19.5158
  13   2.0000      -0.677135       -18.4258
  14   2.0000      -0.617084       -16.7917
  15   2.0000      -0.610329       -16.6079
  16   2.0000      -0.592386       -16.1196
  17   2.0000      -0.565604       -15.3909
  18   2.0000      -0.547016       -14.8851
  19   2.0000      -0.506267       -13.7762
  20   2.0000      -0.481398       -13.0995
  21   2.0000      -0.456407       -12.4195
  22   2.0000      -0.400628       -10.9016
  23   2.0000      -0.377170       -10.2633
  24   0.0000       0.079037         2.1507
  25   0.0000       0.087622         2.3843
  26   0.0000       0.116266         3.1637
  27   0.0000       0.125137         3.4052
  28   0.0000       0.129487         3.5235

MULLIKEN ATOMIC CHARGES
-----------------------
   0 C :    0.214962
   1 N :   -0.441345
   2 C :    1.284730
   3 N :   -0.078658
   4 N :   -0.148620
   5 H :    0.056890
   6 H :    0.020951
   7 H :   -0.153152
   8 H :    0.013920
   9 C :    0.531028
  10 H :   -0.219444
  11 H :   -0.010914
  12 H :   -0.085963
  13 H :   -0.009116
  14 H :    0.055467
  15 H :   -0.030735
Sum of atomic charges:    1.0000000

LOEWDIN ATOMIC CHARGES
----------------------
   0 C :    0.041673
   1 N :    0.039979
   2 C :   -0.030627
   3 N :    0.275951
   4 N :    0.261704
   5 H :    0.047451
   6 H :    0.049830
   7 H :    0.074662
   8 H :    0.018497
   9 C :    0.144598
  10 H :    0.039242
  11 H :    0.028836
  12 H :    0.042568
  13 H :   -0.009148
  14 H :   -0.007036
  15 H :   -0.018180

  Mayer bond orders larger than 0.100000
B(  0-C ,  1-N ) :   0.8829 B(  0-C ,  7-H ) :  -0.1493 B(  0-C ,  9-C ) :   1.2402
B(  0-C , 10-H ) :   0.9397 B(  0-C , 11-H ) :   0.9131 B(  0-C , 13-H ) :   0.2098
B(  0-C , 14-H ) :   0.1496 B(  0-C , 15-H ) :   0.1803 B(  1-N ,  2-C ) :   1.0470
B(  1-N ,  3-N ) :   0.1869 B(  1-N ,  4-N ) :   0.2458 B(  1-N ,  7-H ) :   1.3122
B(  1-N , 10-H ) :   0.1745 B(  1-N , 11-H ) :   0.1171 B(  2-C ,  3-N ) :   0.9337
B(  2-C ,  4-N ) :   0.8760 B(  2-C ,  6-H ) :  -0.1305 B(  2-C ,  7-H ) :  -0.2206
B(  2-C , 12-H ) :  -0.1210 B(  3-N ,  4-N ) :   0.1299 B(  3-N ,  8-H ) :   1.0335
B(  3-N , 12-H ) :   1.2415 B(  4-N ,  5-H ) :   1.1047 B(  4-N ,  6-H ) :   1.1606
B(  5-H ,  6-H ) :  -0.1513 B(  8-H , 12-H ) :  -0.1846 B(  9-C , 13-H ) :   0.8279
B(  9-C , 14-H ) :   0.8139 B(  9-C , 15-H ) :   0.8603

Dispersion correction           -0.003823302
FINAL SINGLE POINT ENERGY      -284.236825406775

DIPOLE MOMENT
-------------
                                X             Y             Z
Electronic contribution:      5.01107       2.03866       0.04948
Nuclear contribution   :     -3.67981      -1.62355      -0.28562
                        -----------------------------------------
Total Dipole Moment    :      1.33126       0.41512      -0.23614
                        -----------------------------------------
Magnitude (a.u.)       :      1.41433
Magnitude (Debye)      :      3.59494

Rotational constants in cm-1:     0.222027     0.074735     0.065694
Rotational constants in MHz :  6656.200457  2240.503315  1969.451902

                             ****ORCA TERMINATED NORMALLY****
TOTAL RUN TIME: 0 days 0 hours 0 minutes 23 seconds 620 msec
