                         Program Version 5.0.0 -  RELEASE  -
|  1> !wB97X-D3 RIJCOSX def2-SVPD def2/J TightSCF CPCM(Water)
|  2> *xyz 0 1
|  3> C          4.08422        1.74208       -2.11472
|  4> C          4.26524        2.50052       -0.79589
|  5> H          4.86853        3.39267       -0.98113
|  6> H          3.30764        2.82457       -0.38781
|  7> C          4.98224        1.65026        0.24742
|  8> F          4.36806        1.38927        1.31371
|  9> O          6.12892        1.23351       -0.04562
| 10> H          3.57911        2.36849       -2.81997
| 11> H          3.50424        0.85965       -1.94198
| 12> H          5.04288        1.46841       -2.50327
| 13> *
| 14> %MaxCore 64000
| 15> %pal nprocs 8
| 16> end
| 17> %scf
| 18>   MaxIter 150
| 19> end
| 20>
| 21>
| 22>                          ****END OF INPUT****

CARTESIAN COORDINATES (ANGSTROEM)
---------------------------------
  C      4.084220    1.742080   -2.114720
  C      4.265240    2.500520   -0.795890
  H      4.868530    3.392670   -0.981130
  H      3.307640    2.824570   -0.387810
  C      4.982240    1.650260    0.247420
  F      4.368060    1.389270    1.313710
  O      6.128920    1.233510   -0.045620
  H      3.579110    2.368490   -2.819970
  H      3.504240    0.859650   -1.941980
  H      5.042880    1.468410   -2.503270

 Total Charge           Charge          ....    0
 Multiplicity           Mult            ....    1
 Number of Electrons    NEL             ....   40
 Basis Dimension        Dim             ....  146

ORBITAL ENERGIES
----------------

  NO   OCC          E(Eh)            E(eV)
   0   2.0000     -24.876112      -676.9134
   1   2.0000     -19.262901      -524.1702
   2   2.0000     -10.480374      -285.1855
   3   2.0000     -10.311037      -280.5776
   4   2.0000     -10.283566      -279.8301
   5   2.0000      -1.424658       -38.7669
   6   2.0000      -1.151575       -31.3359
   7   2.0000      -0.903490       -24.5852
   8   2.0000      -0.793580       -21.5944
   9   2.0000      -0.743302       -20.2263
  10   2.0000      -0.657668       -17.8960
  11   2.0000      -0.640869       -17.4389
  12   2.0000      -0.616397       -16.7730
  13   2.0000      -0.557031       -15.1576
  14   2.0000      -0.535724       -14.5778
  15   2.0000      -0.494520       -13.4566
  16   2.0000      -0.471035       -12.8175
  17   2.0000      -0.463213       -12.6047
  18   2.0000      -0.444919       -12.1069
  19   2.0000      -0.401833       -10.9344
  20   0.0000       0.049146         1.3373
  21   0.0000       0.091090         2.4787
  22   0.0000       0.123362         3.3569
  23   0.0000       0.133937         3.6446
  24   0.0000       0.147794         4.0217

MULLIKEN ATOMIC CHARGES
-----------------------
   0 C :    0.455373
   1 C :   -0.449929
   2 H :    0.122736
   3 H :    0.047239
   4 C :    0.777238
   5 F :   -0.380217
   6 O :   -0.552894
   7 H :    0.007781
   8 H :   -0.016625
   9 H :   -0.010703
Sum of atomic charges:   -0.0000000

LOEWDIN ATOMIC CHARGES
----------------------
   0 C :    0.140699
   1 C :    0.011265
   2 H :    0.048652
   3 H :    0.032876
   4 C :    0.004349
   5 F :   -0.033775
   6 O :   -0.181929
   7 H :   -0.006002
   8 H :   -0.004238
   9 H :   -0.011898

  Mayer bond orders larger than 0.100000
B(  0-C ,  1-C ) :   1.2914 B(  0-C ,  7-H ) :   0.8714 B(  0-C ,  8-H ) :   0.8794
B(  0-C ,  9-H ) :   0.8529 B(  1-C ,  2-H ) :   0.8915 B(  1-C ,  3-H ) :   0.9743
B(  1-C ,  4-C ) :   1.1028 B(  1-C ,  7-H ) :   0.1303 B(  1-C ,  8-H ) :   0.1392
B(  1-C ,  9-H ) :   0.1532 B(  4-C ,  5-F ) :   0.7498 B(  4-C ,  6-O ) :   1.7951

Dispersion correction           -0.001915034
FINAL SINGLE POINT ENERGY      -292.124962938658

DIPOLE MOMENT
-------------
                                X             Y             Z
Electronic contribution:      1.59209      -1.84963       8.09329
Nuclear contribution   :     -2.87511       2.61564      -8.50037
                        -----------------------------------------
Total Dipole Moment    :     -1.28302       0.76600      -0.40708
                        -----------------------------------------
Magnitude (a.u.)       :      1.54874
Magnitude (Debye)      :      3.93659

Rotational constants in cm-1:     0.297822     0.128965     0.102219
Rotational constants in MHz :  8928.481997  3866.271686  3064.463504

                             ****ORCA TERMINATED NORMALLY****
TOTAL RUN TIME: 0 days 0 hours 0 minutes 12 seconds 580 msec
