                         Program Version 5.0.0 -  RELEASE  -
|  1> !wB97X-D3 RIJCOSX def2-SVPD def2/J TightSCF CPCM(Water)
|  2> *xyz 0 1
|  3> C          3.91385       -1.65829        3.01513
|  4> C          5.03927       -0.90115        2.49282
|  5> C          6.21038       -1.41726        2.17824
|  6> N          6.53591       -2.67712        2.55608
|  7> N          7.07675       -0.70082        1.47891
|  8> H          7.95464       -1.12155        1.20755
|  9> H          6.75616        0.10664        0.96028
| 10> H          4.84217        0.01761        2.11519
| 11> H          5.99388       -3.12692        3.28278
| 12> C          3.13916       -2.37657        1.91061
| 13> H          3.26723       -0.93940        3.52069
| 14> H          4.24720       -2.35509        3.79006
| 15> H          7.49844       -2.97548        2.46878
| 16> H          2.82969       -1.66654        1.17238
| 17> H          2.27790       -2.85264        2.33072
| 18> H          3.76754       -3.11338        1.45548
| 19> *
| 20> %MaxCore 64000
| 21> %pal nprocs 8
| 22> end
| 23> %scf
| 24>   MaxIter 150
| 25> end
| 26>
| 27>
| 28>                          ****END OF INPUT****

CARTESIAN COORDINATES (ANGSTROEM)
---------------------------------
  C      3.913850   -1.658290    3.015130
  C      5.039270   -0.901150    2.492820
  C      6.210380   -1.417260    2.178240
  N      6.535910   -2.677120    2.556080
  N      7.076750   -0.700820    1.478910
  H      7.954640   -1.121550    1.207550
  H      6.756160    0.106640    0.960280
  H      4.842170    0.017610    2.115190
  H      5.993880   -3.126920    3.282780
  C      3.139160   -2.376570    1.910610
  H      3.267230   -0.939400    3.520690
  H      4.247200   -2.355090    3.790060
  H      7.498440   -2.975480    2.468780
  H      2.829690   -1.666540    1.172380
  H      2.277900   -2.852640    2.330720
  H      3.767540   -3.113380    1.455480

 Total Charge           Charge          ....    0
 Multiplicity           Mult            ....    1
 Number of Electrons    NEL             ....   48
 Basis Dimension        Dim             ....  200

ORBITAL ENERGIES
----------------

  NO   OCC          E(Eh)            E(eV)
   0   2.0000     -14.431804      -392.7094
   1   2.0000     -14.428947      -392.6316
   2   2.0000     -10.336004      -281.2570
   3   2.0000     -10.268665      -279.4246
   4   2.0000     -10.259587      -279.1776
   5   2.0000     -10.212862      -277.9061
   6   2.0000      -1.066640       -29.0247
   7   2.0000      -0.970953       -26.4210
   8   2.0000      -0.888937       -24.1892
   9   2.0000      -0.804333       -21.8870
  10   2.0000      -0.723479       -19.6869
  11   2.0000      -0.678153       -18.4535
  12   2.0000      -0.638860       -17.3843
  13   2.0000      -0.609476       -16.5847
  14   2.0000      -0.564674       -15.3656
  15   2.0000      -0.539633       -14.6842
  16   2.0000      -0.524143       -14.2626
  17   2.0000      -0.491536       -13.3754
  18   2.0000      -0.484120       -13.1736
  19   2.0000      -0.456014       -12.4088
  20   2.0000      -0.427538       -11.6339
  21   2.0000      -0.417028       -11.3479
  22   2.0000      -0.359446        -9.7810
  23   2.0000      -0.252220        -6.8633
  24   0.0000       0.096448         2.6245
  25   0.0000       0.118084         3.2132
  26   0.0000       0.125766         3.4223
  27   0.0000       0.131882         3.5887
  28   0.0000       0.156400         4.2559

MULLIKEN ATOMIC CHARGES
-----------------------
   0 C :   -0.230892
   1 C :   -0.405062
   2 C :    0.785211
   3 N :   -0.112668
   4 N :   -0.082954
   5 H :   -0.058696
   6 H :    0.017598
   7 H :   -0.173838
   8 H :    0.025336
   9 C :    0.611019
  10 H :   -0.057424
  11 H :   -0.046776
  12 H :   -0.185009
  13 H :   -0.036928
  14 H :    0.012557
  15 H :   -0.061474
Sum of atomic charges:    0.0000000

LOEWDIN ATOMIC CHARGES
----------------------
   0 C :   -0.110360
   1 C :   -0.067188
   2 C :   -0.236810
   3 N :    0.200608
   4 N :    0.175087
   5 H :    0.008407
   6 H :    0.018508
   7 H :   -0.049500
   8 H :   -0.006452
   9 C :    0.113015
  10 H :    0.012640
  11 H :    0.006285
  12 H :    0.004615
  13 H :   -0.018234
  14 H :   -0.024503
  15 H :   -0.026117

  Mayer bond orders larger than 0.100000
B(  0-C ,  1-C ) :   1.3308 B(  0-C ,  7-H ) :   0.2932 B(  0-C ,  9-C ) :   1.1981
B(  0-C , 10-H ) :   0.8189 B(  0-C , 11-H ) :   0.8954 B(  0-C , 13-H ) :   0.2185
B(  0-C , 14-H ) :   0.1636 B(  0-C , 15-H ) :   0.1871 B(  1-C ,  2-C ) :   1.7542
B(  1-C ,  3-N ) :   0.2103 B(  1-C ,  4-N ) :   0.3076 B(  1-C ,  7-H ) :   0.8417
B(  1-C , 10-H ) :   0.2605 B(  1-C , 11-H ) :   0.2097 B(  2-C ,  3-N ) :   0.9047
B(  2-C ,  4-N ) :   0.8598 B(  2-C ,  7-H ) :   0.2338 B(  2-C , 12-H ) :  -0.1479
B(  3-N ,  8-H ) :   0.9844 B(  3-N , 12-H ) :   1.2986 B(  4-N ,  5-H ) :   1.1136
B(  4-N ,  6-H ) :   1.1251 B(  5-H ,  6-H ) :  -0.1470 B(  8-H , 12-H ) :  -0.1810
B(  9-C , 13-H ) :   0.8304 B(  9-C , 14-H ) :   0.8121 B(  9-C , 15-H ) :   0.8503

Dispersion correction           -0.003816138
FINAL SINGLE POINT ENERGY      -267.683095411661

DIPOLE MOMENT
-------------
                                X             Y             Z
Electronic contribution:      4.86328       1.07120      -0.12086
Nuclear contribution   :     -3.74303      -1.46908      -0.23637
                        -----------------------------------------
Total Dipole Moment    :      1.12026      -0.39788      -0.35723
                        -----------------------------------------
Magnitude (a.u.)       :      1.24133
Magnitude (Debye)      :      3.15521

Rotational constants in cm-1:     0.225937     0.074877     0.065953
Rotational constants in MHz :  6773.424301  2244.750632  1977.214101

                             ****ORCA TERMINATED NORMALLY****
TOTAL RUN TIME: 0 days 0 hours 0 minutes 24 seconds 222 msec
