                         Program Version 5.0.0 -  RELEASE  -
|  1> !wB97X-D3 RIJCOSX def2-SVPD def2/J TightSCF CPCM(Water)
|  2> *xyz 0 1
|  3> C          4.08422        1.74208       -2.11472
|  4> C          4.26524        2.50052       -0.79589
|  5> H          4.86853        3.39267       -0.98113
|  6> H          3.30764        2.82457       -0.38781
|  7> C          4.98224        1.65026        0.24742
|  8> O          4.36806        1.38927        1.31371
|  9> F          6.12892        1.23351       -0.04562
| 10> H          3.57911        2.36849       -2.81997
| 11> H          3.50424        0.85965       -1.94198
| 12> H          5.04288        1.46841       -2.50327
| 13> *
| 14> %MaxCore 64000
| 15> %pal nprocs 8
| 16> end
| 17> %scf
| 18>   MaxIter 150
| 19> end
| 20>
| 21>
| 22>                          ****END OF INPUT****

CARTESIAN COORDINATES (ANGSTROEM)
---------------------------------
  C      4.084220    1.742080   -2.114720
  C      4.265240    2.500520   -0.795890
  H      4.868530    3.392670   -0.981130
  H      3.307640    2.824570   -0.387810
  C      4.982240    1.650260    0.247420
  O      4.368060    1.389270    1.313710
  F      6.128920    1.233510   -0.045620
  H      3.579110    2.368490   -2.819970
  H      3.504240    0.859650   -1.941980
  H      5.042880    1.468410   -2.503270

 Total Charge           Charge          ....    0
 Multiplicity           Mult            ....    1
 Number of Electrons    NEL             ....   40
 Basis Dimension        Dim             ....  146

ORBITAL ENERGIES
----------------

  NO   OCC          E(Eh)            E(eV)
   0   2.0000     -24.877433      -676.9494
   1   2.0000     -19.263153      -524.1770
   2   2.0000     -10.480655      -285.1931
   3   2.0000     -10.311009      -280.5768
   4   2.0000     -10.284334      -279.8510
   5   2.0000      -1.427430       -38.8423
   6   2.0000      -1.149511       -31.2798
   7   2.0000      -0.906230       -24.6598
   8   2.0000      -0.789893       -21.4941
   9   2.0000      -0.747769       -20.3478
  10   2.0000      -0.660287       -17.9673
  11   2.0000      -0.647500       -17.6194
  12   2.0000      -0.609520       -16.5859
  13   2.0000      -0.557069       -15.1586
  14   2.0000      -0.530700       -14.4411
  15   2.0000      -0.499019       -13.5790
  16   2.0000      -0.476872       -12.9763
  17   2.0000      -0.460899       -12.5417
  18   2.0000      -0.450782       -12.2664
  19   2.0000      -0.396633       -10.7929
  20   0.0000       0.051172         1.3925
  21   0.0000       0.090219         2.4550
  22   0.0000       0.122651         3.3375
  23   0.0000       0.133401         3.6300
  24   0.0000       0.148862         4.0507

MULLIKEN ATOMIC CHARGES
-----------------------
   0 C :    0.431390
   1 C :   -0.432333
   2 H :    0.120843
   3 H :    0.018081
   4 C :    0.792734
   5 O :   -0.535864
   6 F :   -0.397611
   7 H :    0.012154
   8 H :   -0.015534
   9 H :    0.006140
Sum of atomic charges:   -0.0000000

LOEWDIN ATOMIC CHARGES
----------------------
   0 C :    0.138893
   1 C :    0.012755
   2 H :    0.047282
   3 H :    0.037023
   4 C :   -0.001159
   5 O :   -0.186581
   6 F :   -0.028934
   7 H :   -0.005874
   8 H :   -0.004421
   9 H :   -0.008985

  Mayer bond orders larger than 0.100000
B(  0-C ,  1-C ) :   1.2747 B(  0-C ,  7-H ) :   0.8749 B(  0-C ,  8-H ) :   0.8884
B(  0-C ,  9-H ) :   0.8456 B(  1-C ,  2-H ) :   0.8863 B(  1-C ,  3-H ) :   1.0077
B(  1-C ,  4-C ) :   1.0777 B(  1-C ,  7-H ) :   0.1317 B(  1-C ,  8-H ) :   0.1359
B(  1-C ,  9-H ) :   0.1469 B(  3-H ,  4-C ) :   0.1099 B(  4-C ,  5-O ) :   1.7900
B(  4-C ,  6-F ) :   0.7336

Dispersion correction           -0.001919580
FINAL SINGLE POINT ENERGY      -292.124592321334

DIPOLE MOMENT
-------------
                                X             Y             Z
Electronic contribution:      4.90964      -2.13427       5.51527
Nuclear contribution   :     -4.79499       2.78546      -7.01827
                        -----------------------------------------
Total Dipole Moment    :      0.11465       0.65119      -1.50301
                        -----------------------------------------
Magnitude (a.u.)       :      1.64202
Magnitude (Debye)      :      4.17368

Rotational constants in cm-1:     0.286098     0.133492     0.103343
Rotational constants in MHz :  8577.003657  4001.981591  3098.148068

                             ****ORCA TERMINATED NORMALLY****
TOTAL RUN TIME: 0 days 0 hours 0 minutes 13 seconds 646 msec
