                         Program Version 5.0.0 -  RELEASE  -
|  1> !wB97X-D3 RIJCOSX def2-SVPD def2/J TightSCF CPCM(Water)
|  2> *xyz 0 1
|  3> C          3.91385       -1.65829        3.01513
|  4> N          5.03927       -0.90115        2.49282
|  5> C          6.21038       -1.41726        2.17824
|  6> C          6.53591       -2.67712        2.55608
|  7> N          7.07675       -0.70082        1.47891
|  8> H          7.95464       -1.12155        1.20755
|  9> H          6.75616        0.10664        0.96028
| 10> H          4.84217        0.01761        2.11519
| 11> H          5.99388       -3.12692        3.28278
| 12> C          3.13916       -2.37657        1.91061
| 13> H          3.26723       -0.93940        3.52069
| 14> H          4.24720       -2.35509        3.79006
| 15> H          7.49844       -2.97548        2.46878
| 16> H          2.82969       -1.66654        1.17238
| 17> H          2.27790       -2.85264        2.33072
| 18> H          3.76754       -3.11338        1.45548
| 19> *
| 20> %MaxCore 64000
| 21> %pal nprocs 8
| 22> end
| 23> %scf
| 24>   MaxIter 150
| 25> end
| 26>
| 27>
| 28>                          ****END OF INPUT****

CARTESIAN COORDINATES (ANGSTROEM)
---------------------------------
  C      3.913850   -1.658290    3.015130
  N      5.039270   -0.901150    2.492820
  C      6.210380   -1.417260    2.178240
  C      6.535910   -2.677120    2.556080
  N      7.076750   -0.700820    1.478910
  H      7.954640   -1.121550    1.207550
  H      6.756160    0.106640    0.960280
  H      4.842170    0.017610    2.115190
  H      5.993880   -3.126920    3.282780
  C      3.139160   -2.376570    1.910610
  H      3.267230   -0.939400    3.520690
  H      4.247200   -2.355090    3.790060
  H      7.498440   -2.975480    2.468780
  H      2.829690   -1.666540    1.172380
  H      2.277900   -2.852640    2.330720
  H      3.767540   -3.113380    1.455480

 Total Charge           Charge          ....    0
 Multiplicity           Mult            ....    1
 Number of Electrons    NEL             ....   48
 Basis Dimension        Dim             ....  200

ORBITAL ENERGIES
----------------

  NO   OCC          E(Eh)            E(eV)
   0   2.0000     -14.439624      -392.9221
   1   2.0000     -14.434966      -392.7954
   2   2.0000     -10.348208      -281.5891
   3   2.0000     -10.318072      -280.7690
   4   2.0000     -10.267888      -279.4034
   5   2.0000     -10.208604      -277.7902
   6   2.0000      -1.083864       -29.4934
   7   2.0000      -0.995168       -27.0799
   8   2.0000      -0.860247       -23.4085
   9   2.0000      -0.820159       -22.3177
  10   2.0000      -0.746182       -20.3047
  11   2.0000      -0.666524       -18.1371
  12   2.0000      -0.653071       -17.7710
  13   2.0000      -0.619922       -16.8689
  14   2.0000      -0.564618       -15.3640
  15   2.0000      -0.537863       -14.6360
  16   2.0000      -0.519306       -14.1310
  17   2.0000      -0.499319       -13.5872
  18   2.0000      -0.480400       -13.0724
  19   2.0000      -0.466356       -12.6902
  20   2.0000      -0.460678       -12.5357
  21   2.0000      -0.436571       -11.8797
  22   2.0000      -0.344431        -9.3725
  23   2.0000      -0.263056        -7.1581
  24   0.0000       0.095953         2.6110
  25   0.0000       0.118038         3.2120
  26   0.0000       0.122607         3.3363
  27   0.0000       0.125893         3.4257
  28   0.0000       0.151366         4.1189

MULLIKEN ATOMIC CHARGES
-----------------------
   0 C :    0.235317
   1 N :   -0.440153
   2 C :    0.580154
   3 C :    0.413568
   4 N :   -0.085462
   5 H :    0.044482
   6 H :   -0.081919
   7 H :   -0.251308
   8 H :   -0.187177
   9 C :    0.579002
  10 H :   -0.261332
  11 H :    0.054586
  12 H :   -0.485543
  13 H :   -0.044757
  14 H :    0.023277
  15 H :   -0.092735
Sum of atomic charges:   -0.0000000

LOEWDIN ATOMIC CHARGES
----------------------
   0 C :    0.021251
   1 N :   -0.021406
   2 C :   -0.246658
   3 C :    0.117569
   4 N :    0.186378
   5 H :    0.020015
   6 H :    0.015339
   7 H :    0.045117
   8 H :   -0.131755
   9 C :    0.131766
  10 H :    0.026630
  11 H :    0.015612
  12 H :   -0.117252
  13 H :   -0.015949
  14 H :   -0.015120
  15 H :   -0.031537

  Mayer bond orders larger than 0.100000
B(  0-C ,  1-N ) :   0.8620 B(  0-C ,  3-C ) :   0.1023 B(  0-C ,  7-H ) :  -0.1497
B(  0-C ,  9-C ) :   1.2017 B(  0-C , 10-H ) :   0.9778 B(  0-C , 11-H ) :   0.8735
B(  0-C , 13-H ) :   0.2026 B(  0-C , 14-H ) :   0.1566 B(  0-C , 15-H ) :   0.1845
B(  1-N ,  2-C ) :   0.9723 B(  1-N ,  3-C ) :   0.3385 B(  1-N ,  4-N ) :   0.1517
B(  1-N ,  7-H ) :   1.3786 B(  1-N , 10-H ) :   0.1508 B(  1-N , 11-H ) :   0.1009
B(  2-C ,  3-C ) :   1.7465 B(  2-C ,  4-N ) :   0.9017 B(  2-C ,  7-H ) :  -0.2513
B(  2-C ,  8-H ) :   0.3132 B(  2-C , 12-H ) :   0.1894 B(  3-C ,  4-N ) :   0.2127
B(  3-C ,  8-H ) :   0.6433 B(  3-C , 12-H ) :   0.8410 B(  4-N ,  5-H ) :   1.0881
B(  4-N ,  6-H ) :   1.1812 B(  5-H ,  6-H ) :  -0.1505 B(  8-H , 12-H ) :   0.1295
B(  9-C , 13-H ) :   0.8343 B(  9-C , 14-H ) :   0.8285 B(  9-C , 15-H ) :   0.8693

Dispersion correction           -0.003813183
FINAL SINGLE POINT ENERGY      -267.674816359237

DIPOLE MOMENT
-------------
                                X             Y             Z
Electronic contribution:      2.88222       3.30729      -0.35093
Nuclear contribution   :     -3.42552      -1.84584      -0.22295
                        -----------------------------------------
Total Dipole Moment    :     -0.54330       1.46145      -0.57389
                        -----------------------------------------
Magnitude (a.u.)       :      1.66143
Magnitude (Debye)      :      4.22303

Rotational constants in cm-1:     0.233526     0.075277     0.067092
Rotational constants in MHz :  7000.931279  2256.752901  2011.361214

                             ****ORCA TERMINATED NORMALLY****
TOTAL RUN TIME: 0 days 0 hours 0 minutes 24 seconds 114 msec
