                         Program Version 5.0.0 -  RELEASE  -
|  1> !wB97X-D3 RIJCOSX def2-SVPD def2/J TightSCF CPCM(Water)
|  2> *xyz 0 1
|  3> C          3.91385       -1.65829        3.01513
|  4> N          5.03927       -0.90115        2.49282
|  5> C          6.21038       -1.41726        2.17824
|  6> N          6.53591       -2.67712        2.55608
|  7> C          7.07675       -0.70082        1.47891
|  8> H          7.95464       -1.12155        1.20755
|  9> H          6.75616        0.10664        0.96028
| 10> H          4.84217        0.01761        2.11519
| 11> H          5.99388       -3.12692        3.28278
| 12> C          3.13916       -2.37657        1.91061
| 13> H          3.26723       -0.93940        3.52069
| 14> H          4.24720       -2.35509        3.79006
| 15> H          7.49844       -2.97548        2.46878
| 16> H          2.82969       -1.66654        1.17238
| 17> H          2.27790       -2.85264        2.33072
| 18> H          3.76754       -3.11338        1.45548
| 19> *
| 20> %MaxCore 64000
| 21> %pal nprocs 8
| 22> end
| 23> %scf
| 24>   MaxIter 150
| 25> end
| 26>
| 27>
| 28>                          ****END OF INPUT****

CARTESIAN COORDINATES (ANGSTROEM)
---------------------------------
  C      3.913850   -1.658290    3.015130
  N      5.039270   -0.901150    2.492820
  C      6.210380   -1.417260    2.178240
  N      6.535910   -2.677120    2.556080
  C      7.076750   -0.700820    1.478910
  H      7.954640   -1.121550    1.207550
  H      6.756160    0.106640    0.960280
  H      4.842170    0.017610    2.115190
  H      5.993880   -3.126920    3.282780
  C      3.139160   -2.376570    1.910610
  H      3.267230   -0.939400    3.520690
  H      4.247200   -2.355090    3.790060
  H      7.498440   -2.975480    2.468780
  H      2.829690   -1.666540    1.172380
  H      2.277900   -2.852640    2.330720
  H      3.767540   -3.113380    1.455480

 Total Charge           Charge          ....    0
 Multiplicity           Mult            ....    1
 Number of Electrons    NEL             ....   48
 Basis Dimension        Dim             ....  200

ORBITAL ENERGIES
----------------

  NO   OCC          E(Eh)            E(eV)
   0   2.0000     -14.436724      -392.8432
   1   2.0000     -14.434909      -392.7938
   2   2.0000     -10.345881      -281.5257
   3   2.0000     -10.319684      -280.8129
   4   2.0000     -10.268785      -279.4278
   5   2.0000     -10.207152      -277.7507
   6   2.0000      -1.079678       -29.3795
   7   2.0000      -0.988061       -26.8865
   8   2.0000      -0.876161       -23.8416
   9   2.0000      -0.812452       -22.1079
  10   2.0000      -0.731956       -19.9175
  11   2.0000      -0.700709       -19.0673
  12   2.0000      -0.637900       -17.3581
  13   2.0000      -0.597758       -16.2658
  14   2.0000      -0.571802       -15.5595
  15   2.0000      -0.532898       -14.5009
  16   2.0000      -0.529558       -14.4100
  17   2.0000      -0.505714       -13.7612
  18   2.0000      -0.480605       -13.0779
  19   2.0000      -0.465512       -12.6672
  20   2.0000      -0.457272       -12.4430
  21   2.0000      -0.441557       -12.0154
  22   2.0000      -0.349252        -9.5036
  23   2.0000      -0.261877        -7.1260
  24   0.0000       0.094024         2.5585
  25   0.0000       0.116843         3.1795
  26   0.0000       0.123887         3.3711
  27   0.0000       0.133654         3.6369
  28   0.0000       0.149171         4.0591

MULLIKEN ATOMIC CHARGES
-----------------------
   0 C :    0.229491
   1 N :   -0.352807
   2 C :    0.560649
   3 N :    0.018877
   4 C :    0.326160
   5 H :   -0.323045
   6 H :   -0.247949
   7 H :   -0.216056
   8 H :   -0.085739
   9 C :    0.563677
  10 H :   -0.256175
  11 H :   -0.050536
  12 H :   -0.094851
  13 H :   -0.037712
  14 H :    0.009380
  15 H :   -0.043365
Sum of atomic charges:   -0.0000000

LOEWDIN ATOMIC CHARGES
----------------------
   0 C :    0.018522
   1 N :   -0.021664
   2 C :   -0.251738
   3 N :    0.203162
   4 C :    0.100081
   5 H :   -0.110970
   6 H :   -0.107573
   7 H :    0.049683
   8 H :   -0.013064
   9 C :    0.130065
  10 H :    0.026300
  11 H :    0.017118
  12 H :    0.015347
  13 H :   -0.014988
  14 H :   -0.015716
  15 H :   -0.024565

  Mayer bond orders larger than 0.100000
B(  0-C ,  1-N ) :   0.9012 B(  0-C ,  7-H ) :  -0.1520 B(  0-C ,  9-C ) :   1.2266
B(  0-C , 10-H ) :   0.9287 B(  0-C , 11-H ) :   0.9081 B(  0-C , 13-H ) :   0.2264
B(  0-C , 14-H ) :   0.1575 B(  0-C , 15-H ) :   0.1775 B(  1-N ,  2-C ) :   1.0915
B(  1-N ,  3-N ) :   0.1260 B(  1-N ,  4-C ) :   0.2504 B(  1-N ,  7-H ) :   1.2487
B(  1-N , 10-H ) :   0.1797 B(  1-N , 11-H ) :   0.1287 B(  2-C ,  3-N ) :   0.9532
B(  2-C ,  4-C ) :   1.6348 B(  2-C ,  5-H ) :   0.1800 B(  2-C ,  6-H ) :   0.1154
B(  2-C ,  7-H ) :  -0.1807 B(  3-N ,  4-C ) :   0.1721 B(  3-N ,  8-H ) :   1.0192
B(  3-N , 12-H ) :   1.1950 B(  4-C ,  5-H ) :   0.7992 B(  4-C ,  6-H ) :   0.8471
B(  5-H ,  6-H ) :   0.1613 B(  8-H , 12-H ) :  -0.1786 B(  9-C , 13-H ) :   0.8174
B(  9-C , 14-H ) :   0.8341 B(  9-C , 15-H ) :   0.8529

Dispersion correction           -0.003849970
FINAL SINGLE POINT ENERGY      -267.673791912063

DIPOLE MOMENT
-------------
                                X             Y             Z
Electronic contribution:      2.19034       0.70855       1.19137
Nuclear contribution   :     -3.31079      -1.42658      -0.45147
                        -----------------------------------------
Total Dipole Moment    :     -1.12045      -0.71803       0.73990
                        -----------------------------------------
Magnitude (a.u.)       :      1.52264
Magnitude (Debye)      :      3.87025

Rotational constants in cm-1:     0.225507     0.077571     0.068070
Rotational constants in MHz :  6760.542142  2325.533779  2040.680522

                             ****ORCA TERMINATED NORMALLY****
TOTAL RUN TIME: 0 days 0 hours 0 minutes 24 seconds 65 msec
