                         Program Version 5.0.0 -  RELEASE  -
|  1> !wB97X-D3 RIJCOSX def2-SVPD def2/J TightSCF CPCM(Water) xyzfile
|  2>
|  3> *xyzfile 0 1 D4.xyz
|  4>
|  5> %MaxCore 64000
|  6>
|  7> %pal nprocs 18
|  8> end
|  9>
| 10> %scf
| 11>   MaxIter 150
| 12> end
| 13>
| 14>
| 15>                          ****END OF INPUT****

CARTESIAN COORDINATES (ANGSTROEM)
---------------------------------
  C      3.913853   -1.658291    3.015134
  C      5.039266   -0.901154    2.492821
  C      4.084215    1.742081   -2.114724
  C      4.265245    2.500518   -0.795890
  H      4.868534    3.392674   -0.981134
  H      3.307640    2.824571   -0.387809
  C      4.982240    1.650257    0.247422
  C      6.210384   -1.417261    2.178244
  N      6.535913   -2.677122    2.556078
  N      7.076754   -0.700820    1.478906
  H      7.954643   -1.121554    1.207554
  H      6.756161    0.106637    0.960278
  H      4.842168    0.017609    2.115191
  H      5.993876   -3.126918    3.282784
  H      7.498441   -2.975482    2.468776
  O      4.368065    1.389270    1.313706
  F      6.128919    1.233512   -0.045620
  C      3.139159   -2.376572    1.910609
  H      3.267235   -0.939401    3.520693
  H      4.247195   -2.355095    3.790065
  C      1.997274    0.430918   -1.399218
  C      3.412746    0.376886   -1.965497
  H      4.047407   -0.246590   -1.326706
  H      3.390774   -0.118719   -2.942839
  H      5.068475    1.598504   -2.565728
  H      3.503356    2.363939   -2.804565
  C      2.399946   -1.389579    1.009490
  H      2.440750   -3.087118    2.362976
  H      3.844475   -2.970462    1.318677
  C      2.070177   -1.936705   -0.372401
  H      1.481611   -1.061542    1.509912
  H      3.008628   -0.490001    0.897451
  C      1.322238   -0.935775   -1.256413
  H      1.472747   -2.850902   -0.283997
  H      3.003539   -2.234041   -0.862535
  H      1.376444    1.058920   -2.047420
  H      2.015341    0.929780   -0.426535
  H      0.316648   -0.787213   -0.848278
  H      1.185611   -1.379252   -2.248613

 Total Charge           Charge          ....    0
 Multiplicity           Mult            ....    1
 Number of Electrons    NEL             ....  126
 Basis Dimension        Dim             ....  510

ORBITAL ENERGIES
----------------

  NO   OCC          E(Eh)            E(eV)
   0   2.0000     -24.895241      -677.4339
   1   2.0000     -19.266229      -524.2607
   2   2.0000     -14.426399      -392.5623
   3   2.0000     -14.416657      -392.2972
   4   2.0000     -10.488056      -285.3945
   5   2.0000     -10.325424      -280.9691
   6   2.0000     -10.310989      -280.5763
   7   2.0000     -10.294671      -280.1322
   8   2.0000     -10.282787      -279.8089
   9   2.0000     -10.276704      -279.6433
  10   2.0000     -10.275393      -279.6077
  11   2.0000     -10.272008      -279.5156
  12   2.0000     -10.265730      -279.3447
  13   2.0000     -10.265574      -279.3405
  14   2.0000     -10.260715      -279.2083
  15   2.0000     -10.189527      -277.2711
  16   2.0000      -1.447175       -39.3796
  17   2.0000      -1.159667       -31.5561
  18   2.0000      -1.059226       -28.8230
  19   2.0000      -0.965457       -26.2714
  20   2.0000      -0.934384       -25.4259
  21   2.0000      -0.912936       -24.8422
  22   2.0000      -0.885895       -24.1064
  23   2.0000      -0.851398       -23.1677
  24   2.0000      -0.818934       -22.2843
  25   2.0000      -0.790954       -21.5229
  26   2.0000      -0.776134       -21.1197
  27   2.0000      -0.740334       -20.1455
  28   2.0000      -0.706263       -19.2184
  29   2.0000      -0.698528       -19.0079
  30   2.0000      -0.680707       -18.5230
  31   2.0000      -0.676392       -18.4056
  32   2.0000      -0.658286       -17.9129
  33   2.0000      -0.647935       -17.6312
  34   2.0000      -0.635711       -17.2986
  35   2.0000      -0.615255       -16.7419
  36   2.0000      -0.592738       -16.1292
  37   2.0000      -0.577218       -15.7069
  38   2.0000      -0.571130       -15.5412
  39   2.0000      -0.560326       -15.2472
  40   2.0000      -0.550346       -14.9757
  41   2.0000      -0.536810       -14.6074
  42   2.0000      -0.527381       -14.3508
  43   2.0000      -0.514795       -14.0083
  44   2.0000      -0.507494       -13.8096
  45   2.0000      -0.499399       -13.5893
  46   2.0000      -0.493797       -13.4369
  47   2.0000      -0.484912       -13.1951
  48   2.0000      -0.480336       -13.0706
  49   2.0000      -0.470625       -12.8064
  50   2.0000      -0.459460       -12.5025
  51   2.0000      -0.457341       -12.4449
  52   2.0000      -0.435045       -11.8382
  53   2.0000      -0.429193       -11.6789
  54   2.0000      -0.422934       -11.5086
  55   2.0000      -0.420943       -11.4545
  56   2.0000      -0.404599       -11.0097
  57   2.0000      -0.396691       -10.7945
  58   2.0000      -0.394408       -10.7324
  59   2.0000      -0.390117       -10.6156
  60   2.0000      -0.364607        -9.9215
  61   2.0000      -0.353204        -9.6112
  62   2.0000      -0.241919        -6.5830
  63   0.0000       0.041889         1.1399
  64   0.0000       0.089771         2.4428
  65   0.0000       0.102074         2.7776
  66   0.0000       0.106222         2.8904
  67   0.0000       0.108910         2.9636

MULLIKEN ATOMIC CHARGES
-----------------------
   0 C :    0.528551
   1 C :    0.212737
   2 C :    0.340997
   3 C :    0.192466
   4 H :   -0.006359
   5 H :    0.179796
   6 C :    0.614929
   7 C :    0.606484
   8 N :   -0.107479
   9 N :    0.320610
  10 H :   -0.096504
  11 H :   -0.331296
  12 H :   -0.703613
  13 H :    0.018000
  14 H :   -0.195471
  15 O :   -0.604633
  16 F :   -0.453347
  17 C :    0.372050
  18 H :    0.039543
  19 H :   -0.215327
  20 C :   -0.159153
  21 C :   -0.147846
  22 H :   -0.001929
  23 H :   -0.133936
  24 H :    0.027813
  25 H :   -0.058360
  26 C :    0.610728
  27 H :   -0.085486
  28 H :   -0.089632
  29 C :   -0.043288
  30 H :    0.062750
  31 H :   -1.003038
  32 C :    0.670654
  33 H :   -0.385932
  34 H :    0.147039
  35 H :   -0.373614
  36 H :    0.194313
  37 H :    0.037762
  38 H :    0.019018
Sum of atomic charges:   -0.0000000

LOEWDIN ATOMIC CHARGES
----------------------
   0 C :   -0.056076
   1 C :   -0.040680
   2 C :   -0.014216
   3 C :    0.069026
   4 H :    0.050813
   5 H :    0.036419
   6 C :    0.066563
   7 C :   -0.215902
   8 N :    0.196779
   9 N :    0.200385
  10 H :    0.011132
  11 H :   -0.077858
  12 H :   -0.151155
  13 H :   -0.010062
  14 H :    0.000713
  15 O :   -0.148792
  16 F :   -0.012274
  17 C :   -0.031881
  18 H :    0.017347
  19 H :    0.001149
  20 C :   -0.032458
  21 C :   -0.028772
  22 H :    0.014398
  23 H :    0.034453
  24 H :    0.029725
  25 H :    0.035077
  26 C :   -0.032158
  27 H :    0.017523
  28 H :    0.014446
  29 C :   -0.042929
  30 H :    0.036492
  31 H :   -0.026148
  32 C :   -0.033856
  33 H :    0.023731
  34 H :    0.017380
  35 H :    0.028593
  36 H :    0.007027
  37 H :    0.023658
  38 H :    0.022385

  Mayer bond orders larger than 0.100000
B(  0-C ,  1-C ) :   0.9735 B(  0-C , 12-H ) :   0.7138 B(  0-C , 17-C ) :   1.0388
B(  0-C , 18-H ) :   0.6966 B(  0-C , 19-H ) :   0.6346 B(  0-C , 28-H ) :   0.1009
B(  1-C ,  7-C ) :   1.7903 B(  1-C ,  8-N ) :   0.2617 B(  1-C ,  9-N ) :   0.2300
B(  1-C , 12-H ) :  -0.2573 B(  1-C , 13-H ) :  -0.1309 B(  1-C , 18-H ) :   0.2911
B(  1-C , 19-H ) :   0.3028 B(  2-C ,  3-C ) :   1.1677 B(  2-C ,  4-H ) :   0.1552
B(  2-C , 21-C ) :   1.2374 B(  2-C , 24-H ) :   0.7155 B(  2-C , 25-H ) :   0.8484
B(  3-C ,  4-H ) :   0.6942 B(  3-C ,  5-H ) :   0.7911 B(  3-C ,  6-C ) :   1.2082
B(  3-C , 24-H ) :   0.1029 B(  3-C , 25-H ) :   0.1388 B(  4-H ,  6-C ) :   0.2637
B(  5-H ,  6-C ) :   0.1617 B(  6-C , 15-O ) :   1.7564 B(  6-C , 16-F ) :   0.5034
B(  7-C ,  8-N ) :   0.8345 B(  7-C ,  9-N ) :   0.8483 B(  7-C , 11-H ) :  -0.2232
B(  7-C , 12-H ) :   0.4493 B(  7-C , 14-H ) :  -0.1544 B(  8-N , 13-H ) :   0.9935
B(  8-N , 14-H ) :   1.2980 B(  9-N , 10-H ) :   1.1554 B(  9-N , 11-H ) :   1.1627
B( 10-H , 11-H ) :  -0.1949 B( 12-H , 31-H ) :   0.1072 B( 13-H , 14-H ) :  -0.1853
B( 15-O , 16-F ) :   0.1253 B( 15-O , 31-H ) :   0.1083 B( 17-C , 19-H ) :   0.1052
B( 17-C , 26-C ) :   1.1016 B( 17-C , 27-H ) :   0.8556 B( 17-C , 28-H ) :   0.9001
B( 17-C , 30-H ) :   0.1548 B( 18-H , 19-H ) :  -0.1082 B( 20-C , 21-C ) :   1.2211
B( 20-C , 22-H ) :   0.1054 B( 20-C , 23-H ) :   0.1493 B( 20-C , 32-C ) :   1.1335
B( 20-C , 35-H ) :   1.0806 B( 20-C , 36-H ) :   0.8178 B( 20-C , 37-H ) :   0.2537
B( 20-C , 38-H ) :   0.1326 B( 21-C , 22-H ) :   0.9254 B( 21-C , 23-H ) :   0.9083
B( 21-C , 24-H ) :   0.2251 B( 21-C , 25-H ) :   0.1622 B( 21-C , 35-H ) :   0.1164
B( 21-C , 36-H ) :   0.1014 B( 24-H , 25-H ) :  -0.1043 B( 26-C , 27-H ) :   0.1759
B( 26-C , 28-H ) :   0.1196 B( 26-C , 29-C ) :   1.2264 B( 26-C , 30-H ) :   0.6419
B( 26-C , 31-H ) :   0.2804 B( 26-C , 33-H ) :   0.1153 B( 26-C , 34-H ) :   0.1255
B( 28-H , 33-H ) :  -0.1020 B( 29-C , 31-H ) :   0.1253 B( 29-C , 32-C ) :   1.1133
B( 29-C , 33-H ) :   1.0536 B( 29-C , 34-H ) :   0.8340 B( 29-C , 37-H ) :   0.1108
B( 29-C , 38-H ) :   0.2250 B( 30-H , 31-H ) :   0.2319 B( 31-H , 36-H ) :   0.1082
B( 32-C , 37-H ) :   0.6888 B( 32-C , 38-H ) :   0.6883 B( 37-H , 38-H ) :  -0.1023

Dispersion correction           -0.020074327
FINAL SINGLE POINT ENERGY      -754.982073742498

DIPOLE MOMENT
-------------
                                X             Y             Z
Electronic contribution:     14.61968       8.81568       3.08627
Nuclear contribution   :    -13.61164      -8.17416      -5.14068
                        -----------------------------------------
Total Dipole Moment    :      1.00804       0.64152      -2.05440
                        -----------------------------------------
Magnitude (a.u.)       :      2.37660
Magnitude (Debye)      :      6.04085

Rotational constants in cm-1:     0.019858     0.013613     0.009401
Rotational constants in MHz :   595.331791   408.100423   281.843625

                             ****ORCA TERMINATED NORMALLY****
TOTAL RUN TIME: 0 days 0 hours 1 minutes 58 seconds 809 msec
