                         Program Version 5.0.0 -  RELEASE  -
|  1> !wB97X-D3 RIJCOSX def2-SVPD def2/J TightSCF CPCM(Water) xyzfile
|  2>
|  3> *xyzfile 0 1 D5.xyz
|  4>
|  5> %MaxCore 64000
|  6>
|  7> %pal nprocs 18
|  8> end
|  9>
| 10> %scf
| 11>   MaxIter 150
| 12> end
| 13>
| 14>
| 15>                          ****END OF INPUT****

CARTESIAN COORDINATES (ANGSTROEM)
---------------------------------
  C      3.913853   -1.658291    3.015134
  N      5.039266   -0.901154    2.492821
  C      4.084215    1.742081   -2.114724
  C      4.265245    2.500518   -0.795890
  H      4.868534    3.392674   -0.981134
  H      3.307640    2.824571   -0.387809
  C      4.982240    1.650257    0.247422
  C      6.210384   -1.417261    2.178244
  C      6.535913   -2.677122    2.556078
  N      7.076754   -0.700820    1.478906
  H      7.954643   -1.121554    1.207554
  H      6.756161    0.106637    0.960278
  H      4.842168    0.017609    2.115191
  H      5.993876   -3.126918    3.282784
  H      7.498441   -2.975482    2.468776
  O      4.368065    1.389270    1.313706
  F      6.128919    1.233512   -0.045620
  C      3.139159   -2.376572    1.910609
  H      3.267235   -0.939401    3.520693
  H      4.247195   -2.355095    3.790065
  C      1.997274    0.430918   -1.399218
  C      3.412746    0.376886   -1.965497
  H      4.047407   -0.246590   -1.326706
  H      3.390774   -0.118719   -2.942839
  H      5.068475    1.598504   -2.565728
  H      3.503356    2.363939   -2.804565
  C      2.399946   -1.389579    1.009490
  H      2.440750   -3.087118    2.362976
  H      3.844475   -2.970462    1.318677
  C      2.070177   -1.936705   -0.372401
  H      1.481611   -1.061542    1.509912
  H      3.008628   -0.490001    0.897451
  C      1.322238   -0.935775   -1.256413
  H      1.472747   -2.850902   -0.283997
  H      3.003539   -2.234041   -0.862535
  H      1.376444    1.058920   -2.047420
  H      2.015341    0.929780   -0.426535
  H      0.316648   -0.787213   -0.848278
  H      1.185611   -1.379252   -2.248613

 Total Charge           Charge          ....    0
 Multiplicity           Mult            ....    1
 Number of Electrons    NEL             ....  126
 Basis Dimension        Dim             ....  510

ORBITAL ENERGIES
----------------

  NO   OCC          E(Eh)            E(eV)
   0   2.0000     -24.902601      -677.6342
   1   2.0000     -19.282252      -524.6968
   2   2.0000     -14.424537      -392.5116
   3   2.0000     -14.419161      -392.3653
   4   2.0000     -10.499692      -285.7112
   5   2.0000     -10.341003      -281.3930
   6   2.0000     -10.315170      -280.6901
   7   2.0000     -10.310617      -280.5661
   8   2.0000     -10.296991      -280.1954
   9   2.0000     -10.284279      -279.8495
  10   2.0000     -10.277977      -279.6780
  11   2.0000     -10.276731      -279.6441
  12   2.0000     -10.274512      -279.5837
  13   2.0000     -10.274426      -279.5813
  14   2.0000     -10.271665      -279.5062
  15   2.0000     -10.203370      -277.6478
  16   2.0000      -1.454553       -39.5804
  17   2.0000      -1.173753       -31.9395
  18   2.0000      -1.075380       -29.2626
  19   2.0000      -0.988744       -26.9051
  20   2.0000      -0.937355       -25.5067
  21   2.0000      -0.912234       -24.8231
  22   2.0000      -0.877897       -23.8888
  23   2.0000      -0.846194       -23.0261
  24   2.0000      -0.815203       -22.1828
  25   2.0000      -0.806554       -21.9474
  26   2.0000      -0.787151       -21.4195
  27   2.0000      -0.752146       -20.4669
  28   2.0000      -0.715857       -19.4795
  29   2.0000      -0.700834       -19.0707
  30   2.0000      -0.690409       -18.7870
  31   2.0000      -0.683068       -18.5872
  32   2.0000      -0.659679       -17.9508
  33   2.0000      -0.653236       -17.7755
  34   2.0000      -0.642426       -17.4813
  35   2.0000      -0.613650       -16.6983
  36   2.0000      -0.606029       -16.4909
  37   2.0000      -0.582414       -15.8483
  38   2.0000      -0.576291       -15.6817
  39   2.0000      -0.561698       -15.2846
  40   2.0000      -0.548029       -14.9126
  41   2.0000      -0.539537       -14.6815
  42   2.0000      -0.527326       -14.3493
  43   2.0000      -0.521268       -14.1844
  44   2.0000      -0.511587       -13.9210
  45   2.0000      -0.506023       -13.7696
  46   2.0000      -0.497007       -13.5242
  47   2.0000      -0.486881       -13.2487
  48   2.0000      -0.482889       -13.1401
  49   2.0000      -0.475101       -12.9282
  50   2.0000      -0.466175       -12.6853
  51   2.0000      -0.464019       -12.6266
  52   2.0000      -0.448178       -12.1955
  53   2.0000      -0.443430       -12.0663
  54   2.0000      -0.431348       -11.7376
  55   2.0000      -0.425695       -11.5838
  56   2.0000      -0.415587       -11.3087
  57   2.0000      -0.400967       -10.9109
  58   2.0000      -0.398651       -10.8478
  59   2.0000      -0.397738       -10.8230
  60   2.0000      -0.394717       -10.7408
  61   2.0000      -0.334915        -9.1135
  62   2.0000      -0.257740        -7.0135
  63   0.0000       0.032798         0.8925
  64   0.0000       0.089375         2.4320
  65   0.0000       0.099896         2.7183
  66   0.0000       0.107420         2.9230
  67   0.0000       0.108534         2.9533

MULLIKEN ATOMIC CHARGES
-----------------------
   0 C :    1.108473
   1 N :    0.237309
   2 C :    0.331902
   3 C :    0.157037
   4 H :    0.002375
   5 H :    0.185074
   6 C :    0.687217
   7 C :    0.508537
   8 C :    0.569533
   9 N :    0.429136
  10 H :   -0.017990
  11 H :   -0.488540
  12 H :   -1.175966
  13 H :   -0.073116
  14 H :   -0.601477
  15 O :   -0.627821
  16 F :   -0.460327
  17 C :    0.283285
  18 H :   -0.288918
  19 H :   -0.099792
  20 C :   -0.142827
  21 C :   -0.150689
  22 H :   -0.008922
  23 H :   -0.134187
  24 H :    0.031506
  25 H :   -0.053825
  26 C :    0.591501
  27 H :   -0.106648
  28 H :   -0.064692
  29 C :   -0.020729
  30 H :   -0.014646
  31 H :   -0.890979
  32 C :    0.662879
  33 H :   -0.368872
  34 H :    0.135935
  35 H :   -0.358948
  36 H :    0.179025
  37 H :    0.036528
  38 H :    0.012658
Sum of atomic charges:    0.0000000

LOEWDIN ATOMIC CHARGES
----------------------
   0 C :    0.067049
   1 N :    0.007819
   2 C :   -0.011677
   3 C :    0.072463
   4 H :    0.053298
   5 H :    0.038551
   6 C :    0.072561
   7 C :   -0.229592
   8 C :    0.114019
   9 N :    0.215391
  10 H :    0.024408
  11 H :   -0.080079
  12 H :   -0.096058
  13 H :   -0.135603
  14 H :   -0.121194
  15 O :   -0.133945
  16 F :   -0.008742
  17 C :   -0.016515
  18 H :    0.031210
  19 H :    0.011566
  20 C :   -0.031982
  21 C :   -0.028262
  22 H :    0.014878
  23 H :    0.035292
  24 H :    0.030812
  25 H :    0.036633
  26 C :   -0.034135
  27 H :    0.026642
  28 H :    0.009221
  29 C :   -0.040695
  30 H :    0.038173
  31 H :   -0.027904
  32 C :   -0.032355
  33 H :    0.025472
  34 H :    0.018972
  35 H :    0.029325
  36 H :    0.007298
  37 H :    0.024405
  38 H :    0.023280

  Mayer bond orders larger than 0.100000
B(  0-C ,  1-N ) :   0.8940 B(  0-C , 12-H ) :  -0.5131 B(  0-C , 17-C ) :   1.0493
B(  0-C , 18-H ) :   0.7423 B(  0-C , 19-H ) :   0.7738 B(  0-C , 26-C ) :   0.1172
B(  1-N ,  7-C ) :   0.9550 B(  1-N ,  8-C ) :   0.3851 B(  1-N , 12-H ) :   0.8957
B(  1-N , 18-H ) :   0.1980 B(  2-C ,  3-C ) :   1.1731 B(  2-C ,  4-H ) :   0.1587
B(  2-C , 21-C ) :   1.2411 B(  2-C , 24-H ) :   0.7214 B(  2-C , 25-H ) :   0.8527
B(  3-C ,  4-H ) :   0.7158 B(  3-C ,  5-H ) :   0.7890 B(  3-C ,  6-C ) :   1.2074
B(  3-C , 25-H ) :   0.1326 B(  4-H ,  6-C ) :   0.2443 B(  5-H ,  6-C ) :   0.1587
B(  6-C , 15-O ) :   1.6533 B(  6-C , 16-F ) :   0.5110 B(  7-C ,  8-C ) :   1.6904
B(  7-C ,  9-N ) :   0.9612 B(  7-C , 11-H ) :  -0.1203 B(  7-C , 12-H ) :  -0.5490
B(  7-C , 13-H ) :   0.3769 B(  7-C , 14-H ) :   0.3791 B(  8-C ,  9-N ) :   0.2304
B(  8-C , 13-H ) :   0.5644 B(  8-C , 14-H ) :   0.6027 B(  9-N , 10-H ) :   1.1377
B(  9-N , 11-H ) :   1.0068 B( 10-H , 11-H ) :  -0.2361 B( 11-H , 12-H ) :   0.1063
B( 11-H , 16-F ) :   0.1259 B( 12-H , 15-O ) :   0.2469 B( 12-H , 18-H ) :   0.1304
B( 13-H , 19-H ) :   0.1326 B( 17-C , 19-H ) :   0.1439 B( 17-C , 26-C ) :   1.1216
B( 17-C , 27-H ) :   0.9294 B( 17-C , 28-H ) :   0.9210 B( 17-C , 30-H ) :   0.1257
B( 18-H , 19-H ) :  -0.2344 B( 20-C , 21-C ) :   1.2147 B( 20-C , 22-H ) :   0.1035
B( 20-C , 23-H ) :   0.1484 B( 20-C , 32-C ) :   1.1488 B( 20-C , 35-H ) :   1.0591
B( 20-C , 36-H ) :   0.8227 B( 20-C , 37-H ) :   0.2541 B( 20-C , 38-H ) :   0.1373
B( 21-C , 22-H ) :   0.9292 B( 21-C , 23-H ) :   0.9145 B( 21-C , 24-H ) :   0.2201
B( 21-C , 25-H ) :   0.1645 B( 21-C , 35-H ) :   0.1215 B( 21-C , 36-H ) :   0.1014
B( 24-H , 25-H ) :  -0.1031 B( 26-C , 27-H ) :   0.1535 B( 26-C , 29-C ) :   1.2379
B( 26-C , 30-H ) :   0.6366 B( 26-C , 31-H ) :   0.3097 B( 26-C , 34-H ) :   0.1444
B( 27-H , 31-H ) :   0.1005 B( 29-C , 31-H ) :   0.1254 B( 29-C , 32-C ) :   1.1130
B( 29-C , 33-H ) :   1.0611 B( 29-C , 34-H ) :   0.8286 B( 29-C , 37-H ) :   0.1103
B( 29-C , 38-H ) :   0.2115 B( 30-H , 31-H ) :   0.3039 B( 31-H , 36-H ) :   0.1089
B( 32-C , 37-H ) :   0.6866 B( 32-C , 38-H ) :   0.7060 B( 37-H , 38-H ) :  -0.1033

Dispersion correction           -0.020119603
FINAL SINGLE POINT ENERGY      -754.991061843017

DIPOLE MOMENT
-------------
                                X             Y             Z
Electronic contribution:     12.70321      11.04899       2.69987
Nuclear contribution   :    -13.35170      -8.48261      -5.12969
                        -----------------------------------------
Total Dipole Moment    :     -0.64849       2.56637      -2.42982
                        -----------------------------------------
Magnitude (a.u.)       :      3.59316
Magnitude (Debye)      :      9.13309

Rotational constants in cm-1:     0.019886     0.013843     0.009504
Rotational constants in MHz :   596.157485   415.004628   284.931121

                             ****ORCA TERMINATED NORMALLY****
TOTAL RUN TIME: 0 days 0 hours 1 minutes 56 seconds 507 msec
