                         Program Version 5.0.0 -  RELEASE  -
|  1> !PBE D3BJ RIJCOSX def2-SVPD def2/J TightSCF
|  2> *xyz -1 1
|  3> C          3.80351        1.37472       -3.26081
|  4> C          3.93993        0.32036       -4.36773
|  5> H          4.10504       -0.65508       -3.90773
|  6> H          3.02280        0.28052       -4.95712
|  7> C          5.10585        0.66802       -5.30546
|  8> O          4.80913        1.15019       -6.41436
|  9> O          6.26737        0.56500       -4.81948
| 10> H          3.64113        2.33595       -3.70189
| 11> H          4.69995        1.39701       -2.67703
| 12> H          2.97435        1.12625       -2.63180
| 13> *
| 14>
| 15> %MaxCore 64000
| 16>
| 17> %pal nprocs 4
| 18> end
| 19>
| 20> %scf
| 21>   MaxIter 150
| 22> end
| 23>
| 24>
| 25>                          ****END OF INPUT****

CARTESIAN COORDINATES (ANGSTROEM)
---------------------------------
  C      3.803510    1.374720   -3.260810
  C      3.939930    0.320360   -4.367730
  H      4.105040   -0.655080   -3.907730
  H      3.022800    0.280520   -4.957120
  C      5.105850    0.668020   -5.305460
  O      4.809130    1.150190   -6.414360
  O      6.267370    0.565000   -4.819480
  H      3.641130    2.335950   -3.701890
  H      4.699950    1.397010   -2.677030
  H      2.974350    1.126250   -2.631800

 Total Charge           Charge          ....   -1
 Multiplicity           Mult            ....    1
 Number of Electrons    NEL             ....   40
 Basis Dimension        Dim             ....  146

ORBITAL ENERGIES
----------------

  NO   OCC          E(Eh)            E(eV)
   0   2.0000     -18.507630      -503.6182
   1   2.0000     -18.504671      -503.5377
   2   2.0000      -9.772069      -265.9115
   3   2.0000      -9.733806      -264.8703
   4   2.0000      -9.720121      -264.4979
   5   2.0000      -0.726501       -19.7691
   6   2.0000      -0.638470       -17.3737
   7   2.0000      -0.527194       -14.3457
   8   2.0000      -0.402608       -10.9555
   9   2.0000      -0.265607        -7.2275
  10   2.0000      -0.241943        -6.5836
  11   2.0000      -0.207477        -5.6457
  12   2.0000      -0.183598        -4.9960
  13   2.0000      -0.165687        -4.5086
  14   2.0000      -0.160767        -4.3747
  15   2.0000      -0.131553        -3.5798
  16   2.0000      -0.123570        -3.3625
  17   2.0000      -0.015287        -0.4160
  18   2.0000       0.001838         0.0500
  19   2.0000       0.015575         0.4238
  20   0.0000       0.140288         3.8174
  21   0.0000       0.172892         4.7046
  22   0.0000       0.185711         5.0534
  23   0.0000       0.202517         5.5108
  24   0.0000       0.213435         5.8079

MULLIKEN ATOMIC CHARGES
-----------------------
   0 C :    0.514710
   1 C :   -0.318503
   2 H :   -0.019898
   3 H :   -0.020426
   4 C :    0.383688
   5 O :   -0.637761
   6 O :   -0.688771
   7 H :   -0.079286
   8 H :   -0.045072
   9 H :   -0.088681
Sum of atomic charges:   -1.0000000

LOEWDIN ATOMIC CHARGES
----------------------
   0 C :    0.099693
   1 C :   -0.046217
   2 H :    0.000291
   3 H :   -0.004524
   4 C :   -0.328794
   5 O :   -0.306870
   6 O :   -0.317219
   7 H :   -0.022892
   8 H :   -0.027712
   9 H :   -0.045756

  Mayer bond orders larger than 0.100000
B(  0-C ,  1-C ) :   1.3477 B(  0-C ,  2-H ) :   0.1069 B(  0-C ,  3-H ) :   0.1062
B(  0-C ,  7-H ) :   0.8468 B(  0-C ,  8-H ) :   0.8347 B(  0-C ,  9-H ) :   0.8539
B(  1-C ,  2-H ) :   0.9146 B(  1-C ,  3-H ) :   0.9512 B(  1-C ,  4-C ) :   1.0724
B(  1-C ,  7-H ) :   0.1887 B(  1-C ,  8-H ) :   0.1946 B(  1-C ,  9-H ) :   0.1591
B(  3-H ,  4-C ) :   0.1493 B(  4-C ,  5-O ) :   1.4751 B(  4-C ,  6-O ) :   1.4708

Dispersion correction           -0.006570267
FINAL SINGLE POINT ENERGY      -267.356605347355

DIPOLE MOMENT
-------------
                                X             Y             Z
Electronic contribution:      3.76901      -0.47835      -4.53412
Nuclear contribution   :     -5.15232       0.33441       5.87398
                        -----------------------------------------
Total Dipole Moment    :     -1.38331      -0.14394       1.33985
                        -----------------------------------------
Magnitude (a.u.)       :      1.93119
Magnitude (Debye)      :      4.90869

Rotational constants in cm-1:     0.295355     0.137164     0.110193
Rotational constants in MHz :  8854.523706  4112.077980  3303.490503

                             ****ORCA TERMINATED NORMALLY****
TOTAL RUN TIME: 0 days 0 hours 0 minutes 9 seconds 334 msec
