                         Program Version 5.0.0 -  RELEASE  -
|  1> !PBE D3BJ RIJCOSX def2-SVPD def2/J TightSCF
|  2> *xyz 1 1
|  3> C          3.90595        2.81985       -3.75292
|  4> N          5.29562        3.13151       -4.10533
|  5> C          3.80351        1.37472       -3.26081
|  6> C          5.70862        3.46889       -5.32419
|  7> N          6.90470        3.03895       -5.71708
|  8> N          4.98188        4.29357       -6.09746
|  9> H          5.00055        4.10131       -7.08776
| 10> H          4.08469        4.59690       -5.73965
| 11> H          5.96336        2.52611       -3.64239
| 12> H          7.04716        2.06686       -5.47360
| 13> H          7.19815        3.30799       -6.64523
| 14> H          3.28202        2.94919       -4.64026
| 15> H          3.56525        3.51457       -2.98252
| 16> H          4.14157        0.71142       -4.02935
| 17> H          2.78528        1.15146       -3.01944
| 18> H          4.41205        1.25066       -2.38949
| 19> *
| 20>
| 21> %MaxCore 64000
| 22>
| 23> %pal nprocs 4
| 24> end
| 25>
| 26> %scf
| 27>   MaxIter 150
| 28> end
| 29>
| 30>
| 31>                          ****END OF INPUT****

CARTESIAN COORDINATES (ANGSTROEM)
---------------------------------
  C      3.905950    2.819850   -3.752920
  N      5.295620    3.131510   -4.105330
  C      3.803510    1.374720   -3.260810
  C      5.708620    3.468890   -5.324190
  N      6.904700    3.038950   -5.717080
  N      4.981880    4.293570   -6.097460
  H      5.000550    4.101310   -7.087760
  H      4.084690    4.596900   -5.739650
  H      5.963360    2.526110   -3.642390
  H      7.047160    2.066860   -5.473600
  H      7.198150    3.307990   -6.645230
  H      3.282020    2.949190   -4.640260
  H      3.565250    3.514570   -2.982520
  H      4.141570    0.711420   -4.029350
  H      2.785280    1.151460   -3.019440
  H      4.412050    1.250660   -2.389490

 Total Charge           Charge          ....    1
 Multiplicity           Mult            ....    1
 Number of Electrons    NEL             ....   48
 Basis Dimension        Dim             ....  200

ORBITAL ENERGIES
----------------

  NO   OCC          E(Eh)            E(eV)
   0   2.0000     -14.228200      -387.1690
   1   2.0000     -14.227152      -387.1405
   2   2.0000     -14.225749      -387.1023
   3   2.0000     -10.220546      -278.1152
   4   2.0000     -10.106781      -275.0195
   5   2.0000     -10.042070      -273.2586
   6   2.0000      -1.130273       -30.7563
   7   2.0000      -1.024793       -27.8860
   8   2.0000      -1.016599       -27.6631
   9   2.0000      -0.862275       -23.4637
  10   2.0000      -0.772516       -21.0212
  11   2.0000      -0.748962       -20.3803
  12   2.0000      -0.724707       -19.7203
  13   2.0000      -0.692460       -18.8428
  14   2.0000      -0.652984       -17.7686
  15   2.0000      -0.641571       -17.4580
  16   2.0000      -0.604647       -16.4533
  17   2.0000      -0.583209       -15.8699
  18   2.0000      -0.550279       -14.9738
  19   2.0000      -0.518080       -14.0977
  20   2.0000      -0.495335       -13.4787
  21   2.0000      -0.480072       -13.0634
  22   2.0000      -0.450305       -12.2534
  23   2.0000      -0.423691       -11.5292
  24   0.0000      -0.226813        -6.1719
  25   0.0000      -0.178534        -4.8582
  26   0.0000      -0.145396        -3.9564
  27   0.0000      -0.132325        -3.6007
  28   0.0000      -0.115748        -3.1497

MULLIKEN ATOMIC CHARGES
-----------------------
   0 C :    0.350813
   1 N :   -0.393210
   2 C :    0.713590
   3 C :    0.920716
   4 N :    0.039102
   5 N :    0.038576
   6 H :   -0.037783
   7 H :   -0.003920
   8 H :   -0.104811
   9 H :   -0.003246
  10 H :   -0.005152
  11 H :   -0.097140
  12 H :   -0.254495
  13 H :   -0.060937
  14 H :   -0.081066
  15 H :   -0.021038
Sum of atomic charges:    1.0000000

LOEWDIN ATOMIC CHARGES
----------------------
   0 C :    0.035436
   1 N :    0.063554
   2 C :    0.162639
   3 C :   -0.074839
   4 N :    0.283080
   5 N :    0.295804
   6 H :    0.035307
   7 H :    0.022127
   8 H :    0.044019
   9 H :    0.035080
  10 H :    0.034756
  11 H :    0.024763
  12 H :    0.039276
  13 H :   -0.006067
  14 H :    0.006852
  15 H :   -0.001787

  Mayer bond orders larger than 0.100000
B(  0-C ,  1-N ) :   0.8878 B(  0-C ,  2-C ) :   1.3505 B(  0-C , 11-H ) :   0.8073
B(  0-C , 12-H ) :   0.8773 B(  0-C , 13-H ) :   0.2301 B(  0-C , 14-H ) :   0.2474
B(  0-C , 15-H ) :   0.1550 B(  1-N ,  3-C ) :   1.1261 B(  1-N ,  4-N ) :   0.2359
B(  1-N ,  5-N ) :   0.1275 B(  1-N ,  8-H ) :   1.1440 B(  1-N , 11-H ) :   0.1217
B(  1-N , 12-H ) :   0.1848 B(  2-C , 13-H ) :   0.7918 B(  2-C , 14-H ) :   0.7864
B(  2-C , 15-H ) :   0.8126 B(  3-C ,  4-N ) :   0.9846 B(  3-C ,  5-N ) :   0.9732
B(  3-C ,  8-H ) :  -0.1868 B(  4-N ,  5-N ) :   0.1390 B(  4-N ,  9-H ) :   1.0421
B(  4-N , 10-H ) :   0.9793 B(  5-N ,  6-H ) :   1.1480 B(  5-N ,  7-H ) :   0.9540
B(  6-H ,  7-H ) :  -0.1184

Dispersion correction           -0.012251198
FINAL SINGLE POINT ENERGY      -283.855466349838

DIPOLE MOMENT
-------------
                                X             Y             Z
Electronic contribution:      3.51711       3.42108      -2.62590
Nuclear contribution   :     -3.31456      -3.64300       1.57303
                        -----------------------------------------
Total Dipole Moment    :      0.20254      -0.22191      -1.05287
                        -----------------------------------------
Magnitude (a.u.)       :      1.09490
Magnitude (Debye)      :      2.78302

Rotational constants in cm-1:     0.229487     0.071000     0.059428
Rotational constants in MHz :  6879.840828  2128.520047  1781.605314

                             ****ORCA TERMINATED NORMALLY****
TOTAL RUN TIME: 0 days 0 hours 0 minutes 13 seconds 11 msec
