                         Program Version 5.0.0 -  RELEASE  -
|  1> !PBE D3BJ RIJCOSX def2-SVPD def2/J TightSCF
|  2> *xyz 0 1
|  3> C          3.80351        1.37472       -3.26081
|  4> C          3.93993        0.32036       -4.36773
|  5> H          4.10504       -0.65508       -3.90773
|  6> H          3.02280        0.28052       -4.95712
|  7> C          5.10585        0.66802       -5.30546
|  8> F          4.80913        1.15019       -6.41436
|  9> O          6.26737        0.56500       -4.81948
| 10> H          3.64113        2.33595       -3.70189
| 11> H          4.69995        1.39701       -2.67703
| 12> H          2.97435        1.12625       -2.63180
| 13> *
| 14>
| 15> %MaxCore 64000
| 16>
| 17> %pal nprocs 4
| 18> end
| 19>
| 20> %scf
| 21>   MaxIter 150
| 22> end
| 23>
| 24>
| 25>                          ****END OF INPUT****

CARTESIAN COORDINATES (ANGSTROEM)
---------------------------------
  C      3.803510    1.374720   -3.260810
  C      3.939930    0.320360   -4.367730
  H      4.105040   -0.655080   -3.907730
  H      3.022800    0.280520   -4.957120
  C      5.105850    0.668020   -5.305460
  F      4.809130    1.150190   -6.414360
  O      6.267370    0.565000   -4.819480
  H      3.641130    2.335950   -3.701890
  H      4.699950    1.397010   -2.677030
  H      2.974350    1.126250   -2.631800

 Total Charge           Charge          ....    0
 Multiplicity           Mult            ....    1
 Number of Electrons    NEL             ....   40
 Basis Dimension        Dim             ....  146

ORBITAL ENERGIES
----------------

  NO   OCC          E(Eh)            E(eV)
   0   2.0000     -24.350308      -662.6056
   1   2.0000     -18.772348      -510.8216
   2   2.0000     -10.068131      -273.9678
   3   2.0000      -9.927865      -270.1509
   4   2.0000      -9.904593      -269.5177
   5   2.0000      -1.213583       -33.0233
   6   2.0000      -0.935412       -25.4539
   7   2.0000      -0.723892       -19.6981
   8   2.0000      -0.621417       -16.9096
   9   2.0000      -0.579343       -15.7647
  10   2.0000      -0.497982       -13.5508
  11   2.0000      -0.480776       -13.0826
  12   2.0000      -0.450801       -12.2669
  13   2.0000      -0.416902       -11.3445
  14   2.0000      -0.387220       -10.5368
  15   2.0000      -0.357843        -9.7374
  16   2.0000      -0.334776        -9.1097
  17   2.0000      -0.330792        -9.0013
  18   2.0000      -0.309946        -8.4341
  19   2.0000      -0.244949        -6.6654
  20   0.0000      -0.073434        -1.9982
  21   0.0000      -0.004354        -0.1185
  22   0.0000       0.029623         0.8061
  23   0.0000       0.040649         1.1061
  24   0.0000       0.054095         1.4720

MULLIKEN ATOMIC CHARGES
-----------------------
   0 C :    0.560950
   1 C :   -0.328673
   2 H :    0.018135
   3 H :   -0.003031
   4 C :    0.703342
   5 F :   -0.315570
   6 O :   -0.483690
   7 H :   -0.064431
   8 H :   -0.032191
   9 H :   -0.054840
Sum of atomic charges:    0.0000000

LOEWDIN ATOMIC CHARGES
----------------------
   0 C :    0.141673
   1 C :    0.000499
   2 H :    0.036170
   3 H :    0.020081
   4 C :   -0.039944
   5 F :   -0.007227
   6 O :   -0.122556
   7 H :   -0.009252
   8 H :   -0.007277
   9 H :   -0.012167

  Mayer bond orders larger than 0.100000
B(  0-C ,  1-C ) :   1.3637 B(  0-C ,  2-H ) :   0.1013 B(  0-C ,  3-H ) :   0.1000
B(  0-C ,  7-H ) :   0.8411 B(  0-C ,  8-H ) :   0.8321 B(  0-C ,  9-H ) :   0.8502
B(  1-C ,  2-H ) :   0.8961 B(  1-C ,  3-H ) :   0.9348 B(  1-C ,  4-C ) :   1.0888
B(  1-C ,  7-H ) :   0.1683 B(  1-C ,  8-H ) :   0.1736 B(  1-C ,  9-H ) :   0.1474
B(  4-C ,  5-F ) :   0.7818 B(  4-C ,  6-O ) :   1.7819 B(  5-F ,  6-O ) :   0.1145

Dispersion correction           -0.006234845
FINAL SINGLE POINT ENERGY      -291.870003810059

DIPOLE MOMENT
-------------
                                X             Y             Z
Electronic contribution:      4.02810      -0.00375      -7.44244
Nuclear contribution   :     -5.17129      -0.01923       7.59895
                        -----------------------------------------
Total Dipole Moment    :     -1.14320      -0.02299       0.15651
                        -----------------------------------------
Magnitude (a.u.)       :      1.15409
Magnitude (Debye)      :      2.93346

Rotational constants in cm-1:     0.282073     0.131822     0.105134
Rotational constants in MHz :  8456.328792  3951.925810  3151.840112

                             ****ORCA TERMINATED NORMALLY****
TOTAL RUN TIME: 0 days 0 hours 0 minutes 8 seconds 990 msec
