                         Program Version 5.0.0 -  RELEASE  -
|  1> !PBE D3BJ RIJCOSX def2-SVPD def2/J TightSCF
|  2> *xyz 0 1
|  3> C          3.90595        2.81985       -3.75292
|  4> C          5.29562        3.13151       -4.10533
|  5> C          3.80351        1.37472       -3.26081
|  6> C          5.70862        3.46889       -5.32419
|  7> N          6.90470        3.03895       -5.71708
|  8> N          4.98188        4.29357       -6.09746
|  9> H          5.00055        4.10131       -7.08776
| 10> H          4.08469        4.59690       -5.73965
| 11> H          5.96336        2.52611       -3.64239
| 12> H          7.04716        2.06686       -5.47360
| 13> H          7.19815        3.30799       -6.64523
| 14> H          3.28202        2.94919       -4.64026
| 15> H          3.56525        3.51457       -2.98252
| 16> H          4.14157        0.71142       -4.02935
| 17> H          2.78528        1.15146       -3.01944
| 18> H          4.41205        1.25066       -2.38949
| 19> *
| 20>
| 21> %MaxCore 64000
| 22>
| 23> %pal nprocs 4
| 24> end
| 25>
| 26> %scf
| 27>   MaxIter 150
| 28> end
| 29>
| 30>
| 31>                          ****END OF INPUT****

CARTESIAN COORDINATES (ANGSTROEM)
---------------------------------
  C      3.905950    2.819850   -3.752920
  C      5.295620    3.131510   -4.105330
  C      3.803510    1.374720   -3.260810
  C      5.708620    3.468890   -5.324190
  N      6.904700    3.038950   -5.717080
  N      4.981880    4.293570   -6.097460
  H      5.000550    4.101310   -7.087760
  H      4.084690    4.596900   -5.739650
  H      5.963360    2.526110   -3.642390
  H      7.047160    2.066860   -5.473600
  H      7.198150    3.307990   -6.645230
  H      3.282020    2.949190   -4.640260
  H      3.565250    3.514570   -2.982520
  H      4.141570    0.711420   -4.029350
  H      2.785280    1.151460   -3.019440
  H      4.412050    1.250660   -2.389490

 Total Charge           Charge          ....    0
 Multiplicity           Mult            ....    1
 Number of Electrons    NEL             ....   48
 Basis Dimension        Dim             ....  200

ORBITAL ENERGIES
----------------

  NO   OCC          E(Eh)            E(eV)
   0   2.0000     -14.005895      -381.1198
   1   2.0000     -14.002581      -381.0296
   2   2.0000      -9.932869      -270.2871
   3   2.0000      -9.875868      -268.7360
   4   2.0000      -9.868272      -268.5293
   5   2.0000      -9.825481      -267.3649
   6   2.0000      -0.877627       -23.8814
   7   2.0000      -0.794547       -21.6207
   8   2.0000      -0.699881       -19.0447
   9   2.0000      -0.624226       -16.9861
  10   2.0000      -0.550475       -14.9792
  11   2.0000      -0.520971       -14.1763
  12   2.0000      -0.485620       -13.2144
  13   2.0000      -0.458518       -12.4769
  14   2.0000      -0.431588       -11.7441
  15   2.0000      -0.398852       -10.8533
  16   2.0000      -0.375684       -10.2229
  17   2.0000      -0.344381        -9.3711
  18   2.0000      -0.326088        -8.8733
  19   2.0000      -0.310040        -8.4366
  20   2.0000      -0.285820        -7.7775
  21   2.0000      -0.283258        -7.7079
  22   2.0000      -0.233712        -6.3596
  23   2.0000      -0.142253        -3.8709
  24   0.0000      -0.009925        -0.2701
  25   0.0000       0.016672         0.4537
  26   0.0000       0.024337         0.6622
  27   0.0000       0.029468         0.8019
  28   0.0000       0.048487         1.3194

MULLIKEN ATOMIC CHARGES
-----------------------
   0 C :   -0.074883
   1 C :   -0.094805
   2 C :    0.772606
   3 C :    0.272931
   4 N :    0.088795
   5 N :    0.041768
   6 H :   -0.111079
   7 H :   -0.006772
   8 H :   -0.213071
   9 H :   -0.004360
  10 H :   -0.124839
  11 H :   -0.163059
  12 H :   -0.167578
  13 H :   -0.043642
  14 H :   -0.138977
  15 H :   -0.033034
Sum of atomic charges:    0.0000000

LOEWDIN ATOMIC CHARGES
----------------------
   0 C :   -0.107719
   1 C :   -0.019173
   2 C :    0.113813
   3 C :   -0.254452
   4 N :    0.200037
   5 N :    0.211521
   6 H :   -0.016747
   7 H :   -0.009727
   8 H :   -0.054603
   9 H :    0.000704
  10 H :   -0.016149
  11 H :    0.002218
  12 H :    0.009030
  13 H :   -0.017064
  14 H :   -0.025010
  15 H :   -0.016679

  Mayer bond orders larger than 0.100000
B(  0-C ,  1-C ) :   0.9885 B(  0-C ,  2-C ) :   1.3235 B(  0-C ,  8-H ) :   0.2138
B(  0-C , 11-H ) :   0.8584 B(  0-C , 12-H ) :   0.8198 B(  0-C , 13-H ) :   0.2429
B(  0-C , 14-H ) :   0.2856 B(  0-C , 15-H ) :   0.2019 B(  1-C ,  3-C ) :   1.8434
B(  1-C ,  4-N ) :   0.3432 B(  1-C ,  5-N ) :   0.1951 B(  1-C ,  8-H ) :   0.5869
B(  1-C , 11-H ) :   0.1113 B(  1-C , 12-H ) :   0.1799 B(  2-C , 13-H ) :   0.7792
B(  2-C , 14-H ) :   0.7738 B(  2-C , 15-H ) :   0.7950 B(  3-C ,  4-N ) :   0.9639
B(  3-C ,  5-N ) :   0.9807 B(  3-C ,  8-H ) :   0.3135 B(  4-N ,  5-N ) :   0.1126
B(  4-N ,  9-H ) :   1.0299 B(  4-N , 10-H ) :   0.9341 B(  5-N ,  6-H ) :   1.1092
B(  5-N ,  7-H ) :   0.9572

Dispersion correction           -0.012710731
FINAL SINGLE POINT ENERGY      -267.393616363108

DIPOLE MOMENT
-------------
                                X             Y             Z
Electronic contribution:      3.19783       3.28396      -2.80986
Nuclear contribution   :     -3.27358      -3.61654       1.70633
                        -----------------------------------------
Total Dipole Moment    :     -0.07575      -0.33258      -1.10353
                        -----------------------------------------
Magnitude (a.u.)       :      1.15504
Magnitude (Debye)      :      2.93588

Rotational constants in cm-1:     0.231961     0.071249     0.059473
Rotational constants in MHz :  6954.024434  2135.976855  1782.962814

                             ****ORCA TERMINATED NORMALLY****
TOTAL RUN TIME: 0 days 0 hours 0 minutes 13 seconds 25 msec
