                         Program Version 5.0.0 -  RELEASE  -
|  1> !PBE D3BJ RIJCOSX def2-SVPD def2/J TightSCF
|  2> *xyz 0 1
|  3> C          3.80351        1.37472       -3.26081
|  4> C          3.93993        0.32036       -4.36773
|  5> H          4.10504       -0.65508       -3.90773
|  6> H          3.02280        0.28052       -4.95712
|  7> C          5.10585        0.66802       -5.30546
|  8> O          4.80913        1.15019       -6.41436
|  9> F          6.26737        0.56500       -4.81948
| 10> H          3.64113        2.33595       -3.70189
| 11> H          4.69995        1.39701       -2.67703
| 12> H          2.97435        1.12625       -2.63180
| 13> *
| 14>
| 15> %MaxCore 64000
| 16>
| 17> %pal nprocs 4
| 18> end
| 19>
| 20> %scf
| 21>   MaxIter 150
| 22> end
| 23>
| 24>
| 25>                          ****END OF INPUT****

CARTESIAN COORDINATES (ANGSTROEM)
---------------------------------
  C      3.803510    1.374720   -3.260810
  C      3.939930    0.320360   -4.367730
  H      4.105040   -0.655080   -3.907730
  H      3.022800    0.280520   -4.957120
  C      5.105850    0.668020   -5.305460
  O      4.809130    1.150190   -6.414360
  F      6.267370    0.565000   -4.819480
  H      3.641130    2.335950   -3.701890
  H      4.699950    1.397010   -2.677030
  H      2.974350    1.126250   -2.631800

 Total Charge           Charge          ....    0
 Multiplicity           Mult            ....    1
 Number of Electrons    NEL             ....   40
 Basis Dimension        Dim             ....  146

ORBITAL ENERGIES
----------------

  NO   OCC          E(Eh)            E(eV)
   0   2.0000     -24.343771      -662.4277
   1   2.0000     -18.774722      -510.8861
   2   2.0000     -10.066340      -273.9190
   3   2.0000      -9.927433      -270.1392
   4   2.0000      -9.907299      -269.5913
   5   2.0000      -1.200171       -32.6583
   6   2.0000      -0.945780       -25.7360
   7   2.0000      -0.725759       -19.7489
   8   2.0000      -0.615974       -16.7615
   9   2.0000      -0.577810       -15.7230
  10   2.0000      -0.492392       -13.3987
  11   2.0000      -0.477045       -12.9810
  12   2.0000      -0.447801       -12.1853
  13   2.0000      -0.416308       -11.3283
  14   2.0000      -0.388124       -10.5614
  15   2.0000      -0.360328        -9.8050
  16   2.0000      -0.339545        -9.2395
  17   2.0000      -0.331263        -9.0141
  18   2.0000      -0.318722        -8.6729
  19   2.0000      -0.245895        -6.6912
  20   0.0000      -0.069827        -1.9001
  21   0.0000      -0.005428        -0.1477
  22   0.0000       0.029991         0.8161
  23   0.0000       0.040660         1.1064
  24   0.0000       0.054990         1.4964

MULLIKEN ATOMIC CHARGES
-----------------------
   0 C :    0.546446
   1 C :   -0.311136
   2 H :    0.008858
   3 H :   -0.007146
   4 C :    0.717573
   5 O :   -0.449947
   6 F :   -0.352600
   7 H :   -0.057130
   8 H :   -0.043949
   9 H :   -0.050970
Sum of atomic charges:    0.0000000

LOEWDIN ATOMIC CHARGES
----------------------
   0 C :    0.138910
   1 C :    0.003043
   2 H :    0.027943
   3 H :    0.032279
   4 C :   -0.040995
   5 O :   -0.111899
   6 F :   -0.018826
   7 H :   -0.005974
   8 H :   -0.012697
   9 H :   -0.011785

  Mayer bond orders larger than 0.100000
B(  0-C ,  1-C ) :   1.3507 B(  0-C ,  2-H ) :   0.1023 B(  0-C ,  7-H ) :   0.8526
B(  0-C ,  8-H ) :   0.8269 B(  0-C ,  9-H ) :   0.8550 B(  1-C ,  2-H ) :   0.8950
B(  1-C ,  3-H ) :   0.9509 B(  1-C ,  4-C ) :   1.0628 B(  1-C ,  7-H ) :   0.1670
B(  1-C ,  8-H ) :   0.1683 B(  1-C ,  9-H ) :   0.1458 B(  3-H ,  4-C ) :   0.1087
B(  4-C ,  5-O ) :   1.7960 B(  4-C ,  6-F ) :   0.7416 B(  5-O ,  6-F ) :   0.1212

Dispersion correction           -0.006214541
FINAL SINGLE POINT ENERGY      -291.875016910644

DIPOLE MOMENT
-------------
                                X             Y             Z
Electronic contribution:      6.42469      -0.97356      -4.79334
Nuclear contribution   :     -6.76123       0.61881       5.86003
                        -----------------------------------------
Total Dipole Moment    :     -0.33654      -0.35475       1.06669
                        -----------------------------------------
Magnitude (a.u.)       :      1.17343
Magnitude (Debye)      :      2.98262

Rotational constants in cm-1:     0.275298     0.134631     0.105723
Rotational constants in MHz :  8253.224169  4036.137572  3169.487264

                             ****ORCA TERMINATED NORMALLY****
TOTAL RUN TIME: 0 days 0 hours 0 minutes 8 seconds 705 msec
