                         Program Version 5.0.0 -  RELEASE  -
|  1> !PBE D3BJ RIJCOSX def2-SVPD def2/J TightSCF
|  2> *xyz 0 1
|  3> C          3.90595        2.81985       -3.75292
|  4> N          5.29562        3.13151       -4.10533
|  5> C          3.80351        1.37472       -3.26081
|  6> C          5.70862        3.46889       -5.32419
|  7> C          6.90470        3.03895       -5.71708
|  8> N          4.98188        4.29357       -6.09746
|  9> H          5.00055        4.10131       -7.08776
| 10> H          4.08469        4.59690       -5.73965
| 11> H          5.96336        2.52611       -3.64239
| 12> H          7.04716        2.06686       -5.47360
| 13> H          7.19815        3.30799       -6.64523
| 14> H          3.28202        2.94919       -4.64026
| 15> H          3.56525        3.51457       -2.98252
| 16> H          4.14157        0.71142       -4.02935
| 17> H          2.78528        1.15146       -3.01944
| 18> H          4.41205        1.25066       -2.38949
| 19> *
| 20>
| 21> %MaxCore 64000
| 22>
| 23> %pal nprocs 4
| 24> end
| 25>
| 26> %scf
| 27>   MaxIter 150
| 28> end
| 29>
| 30>
| 31>                          ****END OF INPUT****

CARTESIAN COORDINATES (ANGSTROEM)
---------------------------------
  C      3.905950    2.819850   -3.752920
  N      5.295620    3.131510   -4.105330
  C      3.803510    1.374720   -3.260810
  C      5.708620    3.468890   -5.324190
  C      6.904700    3.038950   -5.717080
  N      4.981880    4.293570   -6.097460
  H      5.000550    4.101310   -7.087760
  H      4.084690    4.596900   -5.739650
  H      5.963360    2.526110   -3.642390
  H      7.047160    2.066860   -5.473600
  H      7.198150    3.307990   -6.645230
  H      3.282020    2.949190   -4.640260
  H      3.565250    3.514570   -2.982520
  H      4.141570    0.711420   -4.029350
  H      2.785280    1.151460   -3.019440
  H      4.412050    1.250660   -2.389490

 Total Charge           Charge          ....    0
 Multiplicity           Mult            ....    1
 Number of Electrons    NEL             ....   48
 Basis Dimension        Dim             ....  200

ORBITAL ENERGIES
----------------

  NO   OCC          E(Eh)            E(eV)
   0   2.0000     -14.004838      -381.0910
   1   2.0000     -14.004375      -381.0784
   2   2.0000      -9.936367      -270.3823
   3   2.0000      -9.935865      -270.3686
   4   2.0000      -9.896796      -269.3055
   5   2.0000      -9.810569      -266.9591
   6   2.0000      -0.881876       -23.9971
   7   2.0000      -0.805073       -21.9071
   8   2.0000      -0.699252       -19.0276
   9   2.0000      -0.634032       -17.2529
  10   2.0000      -0.565768       -15.3953
  11   2.0000      -0.540738       -14.7142
  12   2.0000      -0.483748       -13.1635
  13   2.0000      -0.446851       -12.1594
  14   2.0000      -0.436233       -11.8705
  15   2.0000      -0.407380       -11.0854
  16   2.0000      -0.376114       -10.2346
  17   2.0000      -0.356657        -9.7051
  18   2.0000      -0.338658        -9.2154
  19   2.0000      -0.332177        -9.0390
  20   2.0000      -0.329410        -8.9637
  21   2.0000      -0.294492        -8.0135
  22   2.0000      -0.221764        -6.0345
  23   2.0000      -0.144651        -3.9362
  24   0.0000      -0.007979        -0.2171
  25   0.0000       0.012006         0.3267
  26   0.0000       0.020510         0.5581
  27   0.0000       0.028567         0.7773
  28   0.0000       0.046077         1.2538

MULLIKEN ATOMIC CHARGES
-----------------------
   0 C :    0.328309
   1 N :   -0.410045
   2 C :    0.707714
   3 C :    0.316806
   4 C :    0.477423
   5 N :    0.067755
   6 H :   -0.052378
   7 H :   -0.103951
   8 H :   -0.065049
   9 H :   -0.256342
  10 H :   -0.357007
  11 H :   -0.105595
  12 H :   -0.308241
  13 H :   -0.075464
  14 H :   -0.129529
  15 H :   -0.034405
Sum of atomic charges:   -0.0000000

LOEWDIN ATOMIC CHARGES
----------------------
   0 C :    0.002509
   1 N :    0.002052
   2 C :    0.132272
   3 C :   -0.259981
   4 C :    0.146509
   5 N :    0.214698
   6 H :    0.001036
   7 H :   -0.023893
   8 H :    0.016479
   9 H :   -0.103506
  10 H :   -0.104702
  11 H :    0.010167
  12 H :    0.012692
  13 H :   -0.012110
  14 H :   -0.017843
  15 H :   -0.016378

  Mayer bond orders larger than 0.100000
B(  0-C ,  1-N ) :   0.8760 B(  0-C ,  2-C ) :   1.3272 B(  0-C , 11-H ) :   0.8042
B(  0-C , 12-H ) :   0.8656 B(  0-C , 13-H ) :   0.2467 B(  0-C , 14-H ) :   0.2553
B(  0-C , 15-H ) :   0.1630 B(  1-N ,  3-C ) :   1.1459 B(  1-N ,  4-C ) :   0.2559
B(  1-N ,  8-H ) :   1.0854 B(  1-N , 11-H ) :   0.1295 B(  1-N , 12-H ) :   0.1945
B(  2-C , 13-H ) :   0.7894 B(  2-C , 14-H ) :   0.7988 B(  2-C , 15-H ) :   0.8079
B(  3-C ,  4-C ) :   1.6974 B(  3-C ,  5-N ) :   0.9090 B(  3-C ,  8-H ) :  -0.1381
B(  3-C ,  9-H ) :   0.2185 B(  3-C , 10-H ) :   0.3518 B(  4-C ,  5-N ) :   0.2496
B(  4-C ,  9-H ) :   0.8711 B(  4-C , 10-H ) :   0.5397 B(  5-N ,  6-H ) :   1.1119
B(  5-N ,  7-H ) :   0.9281 B(  6-H ,  7-H ) :  -0.1118 B(  9-H , 10-H ) :   0.1703

Dispersion correction           -0.012608799
FINAL SINGLE POINT ENERGY      -267.381052512503

DIPOLE MOMENT
-------------
                                X             Y             Z
Electronic contribution:      1.55984       3.26233      -1.26914
Nuclear contribution   :     -2.93222      -3.63618       1.36440
                        -----------------------------------------
Total Dipole Moment    :     -1.37238      -0.37385       0.09527
                        -----------------------------------------
Magnitude (a.u.)       :      1.42557
Magnitude (Debye)      :      3.62352

Rotational constants in cm-1:     0.237993     0.072843     0.061284
Rotational constants in MHz :  7134.860770  2183.763760  1837.240960

                             ****ORCA TERMINATED NORMALLY****
TOTAL RUN TIME: 0 days 0 hours 0 minutes 13 seconds 620 msec
