                         Program Version 5.0.0 -  RELEASE  -
|  1> !PBE D3BJ RIJCOSX def2-SVPD def2/J TightSCF
|  2> *xyz 0 1
|  3> C          3.90595        2.81985       -3.75292
|  4> N          5.29562        3.13151       -4.10533
|  5> C          3.80351        1.37472       -3.26081
|  6> C          5.70862        3.46889       -5.32419
|  7> N          6.90470        3.03895       -5.71708
|  8> C          4.98188        4.29357       -6.09746
|  9> H          5.00055        4.10131       -7.08776
| 10> H          4.08469        4.59690       -5.73965
| 11> H          5.96336        2.52611       -3.64239
| 12> H          7.04716        2.06686       -5.47360
| 13> H          7.19815        3.30799       -6.64523
| 14> H          3.28202        2.94919       -4.64026
| 15> H          3.56525        3.51457       -2.98252
| 16> H          4.14157        0.71142       -4.02935
| 17> H          2.78528        1.15146       -3.01944
| 18> H          4.41205        1.25066       -2.38949
| 19> *
| 20>
| 21> %MaxCore 64000
| 22>
| 23> %pal nprocs 4
| 24> end
| 25>
| 26> %scf
| 27>   MaxIter 150
| 28> end
| 29>
| 30>
| 31>                          ****END OF INPUT****

CARTESIAN COORDINATES (ANGSTROEM)
---------------------------------
  C      3.905950    2.819850   -3.752920
  N      5.295620    3.131510   -4.105330
  C      3.803510    1.374720   -3.260810
  C      5.708620    3.468890   -5.324190
  N      6.904700    3.038950   -5.717080
  C      4.981880    4.293570   -6.097460
  H      5.000550    4.101310   -7.087760
  H      4.084690    4.596900   -5.739650
  H      5.963360    2.526110   -3.642390
  H      7.047160    2.066860   -5.473600
  H      7.198150    3.307990   -6.645230
  H      3.282020    2.949190   -4.640260
  H      3.565250    3.514570   -2.982520
  H      4.141570    0.711420   -4.029350
  H      2.785280    1.151460   -3.019440
  H      4.412050    1.250660   -2.389490

 Total Charge           Charge          ....    0
 Multiplicity           Mult            ....    1
 Number of Electrons    NEL             ....   48
 Basis Dimension        Dim             ....  200

ORBITAL ENERGIES
----------------

  NO   OCC          E(Eh)            E(eV)
   0   2.0000     -14.007125      -381.1533
   1   2.0000     -14.003611      -381.0576
   2   2.0000      -9.935978      -270.3717
   3   2.0000      -9.930487      -270.2223
   4   2.0000      -9.894881      -269.2534
   5   2.0000      -9.816289      -267.1148
   6   2.0000      -0.886994       -24.1363
   7   2.0000      -0.807125       -21.9630
   8   2.0000      -0.688990       -18.7484
   9   2.0000      -0.635352       -17.2888
  10   2.0000      -0.580444       -15.7947
  11   2.0000      -0.510901       -13.9023
  12   2.0000      -0.486884       -13.2488
  13   2.0000      -0.466858       -12.7038
  14   2.0000      -0.424614       -11.5543
  15   2.0000      -0.411889       -11.2081
  16   2.0000      -0.360764        -9.8169
  17   2.0000      -0.359161        -9.7733
  18   2.0000      -0.348038        -9.4706
  19   2.0000      -0.331116        -9.0101
  20   2.0000      -0.321973        -8.7613
  21   2.0000      -0.296422        -8.0660
  22   2.0000      -0.219687        -5.9780
  23   2.0000      -0.148671        -4.0455
  24   0.0000      -0.009111        -0.2479
  25   0.0000       0.016366         0.4453
  26   0.0000       0.021793         0.5930
  27   0.0000       0.029438         0.8010
  28   0.0000       0.046088         1.2541

MULLIKEN ATOMIC CHARGES
-----------------------
   0 C :    0.355354
   1 N :   -0.298460
   2 C :    0.729884
   3 C :    0.197140
   4 N :    0.011972
   5 C :    0.434711
   6 H :   -0.441559
   7 H :   -0.087682
   8 H :   -0.209975
   9 H :   -0.053050
  10 H :    0.006986
  11 H :   -0.058086
  12 H :   -0.334567
  13 H :   -0.085054
  14 H :   -0.108724
  15 H :   -0.058890
Sum of atomic charges:   -0.0000000

LOEWDIN ATOMIC CHARGES
----------------------
   0 C :    0.014394
   1 N :    0.003647
   2 C :    0.129507
   3 C :   -0.270352
   4 N :    0.200960
   5 C :    0.165164
   6 H :   -0.104815
   7 H :   -0.109354
   8 H :    0.005229
   9 H :   -0.014724
  10 H :   -0.000149
  11 H :    0.015843
  12 H :    0.017858
  13 H :   -0.016487
  14 H :   -0.016836
  15 H :   -0.019887

  Mayer bond orders larger than 0.100000
B(  0-C ,  1-N ) :   0.9162 B(  0-C ,  2-C ) :   1.3029 B(  0-C , 11-H ) :   0.8303
B(  0-C , 12-H ) :   0.8703 B(  0-C , 13-H ) :   0.2167 B(  0-C , 14-H ) :   0.2582
B(  0-C , 15-H ) :   0.1702 B(  1-N ,  2-C ) :   0.1002 B(  1-N ,  3-C ) :   1.1111
B(  1-N ,  4-N ) :   0.2057 B(  1-N ,  5-C ) :   0.2415 B(  1-N ,  8-H ) :   1.0585
B(  1-N , 11-H ) :   0.1249 B(  1-N , 12-H ) :   0.1848 B(  2-C , 13-H ) :   0.8134
B(  2-C , 14-H ) :   0.7809 B(  2-C , 15-H ) :   0.8033 B(  3-C ,  4-N ) :   1.0067
B(  3-C ,  5-C ) :   1.8008 B(  3-C ,  6-H ) :   0.2083 B(  3-C ,  7-H ) :   0.3097
B(  3-C ,  8-H ) :  -0.1225 B(  4-N ,  5-C ) :   0.1651 B(  4-N ,  9-H ) :   0.9738
B(  4-N , 10-H ) :   0.9727 B(  5-C ,  6-H ) :   0.8552 B(  5-C ,  7-H ) :   0.5038
B(  6-H ,  7-H ) :   0.2854

Dispersion correction           -0.012639025
FINAL SINGLE POINT ENERGY      -267.385285214489

DIPOLE MOMENT
-------------
                                X             Y             Z
Electronic contribution:      3.39681       2.11221      -0.97643
Nuclear contribution   :     -3.34013      -3.37002       1.28371
                        -----------------------------------------
Total Dipole Moment    :      0.05668      -1.25780       0.30728
                        -----------------------------------------
Magnitude (a.u.)       :      1.29603
Magnitude (Debye)      :      3.29426

Rotational constants in cm-1:     0.239537     0.072280     0.060961
Rotational constants in MHz :  7181.153552  2166.902802  1827.551447

                             ****ORCA TERMINATED NORMALLY****
TOTAL RUN TIME: 0 days 0 hours 0 minutes 13 seconds 532 msec
