                         Program Version 5.0.0 -  RELEASE  -
|  1> !PBE D3BJ RIJCOSX def2-SVPD def2/J TightSCF xyzfile
|  2>
|  3> *xyzfile 0 1 D5.xyz
|  4>
|  5> %MaxCore 64000
|  6>
|  7> %pal nprocs 4
|  8> end
|  9>
| 10> %scf
| 11>   MaxIter 150
| 12> end
| 13>
| 14>
| 15>                          ****END OF INPUT****

CARTESIAN COORDINATES (ANGSTROEM)
---------------------------------
  C      3.905947    2.819855   -3.752920
  N      5.295615    3.131515   -4.105334
  C      3.803511    1.374716   -3.260807
  C      3.939934    0.320362   -4.367729
  H      4.105043   -0.655085   -3.907733
  H      3.022801    0.280517   -4.957117
  C      5.105846    0.668022   -5.305463
  C      5.708619    3.468885   -5.324190
  C      6.904696    3.038954   -5.717084
  N      4.981884    4.293570   -6.097457
  H      5.000546    4.101311   -7.087761
  H      4.084693    4.596899   -5.739652
  H      5.963358    2.526112   -3.642391
  H      7.047164    2.066861   -5.473604
  H      7.198145    3.307994   -6.645225
  H      3.282025    2.949187   -4.640259
  H      3.565254    3.514574   -2.982523
  H      4.574833    1.215157   -2.500443
  H      2.843514    1.260845   -2.751465
  O      4.809132    1.150187   -6.414361
  F      6.267366    0.564999   -4.819481

 Total Charge           Charge          ....    0
 Multiplicity           Mult            ....    1
 Number of Electrons    NEL             ....   78
 Basis Dimension        Dim             ....  294

ORBITAL ENERGIES
----------------

  NO   OCC          E(Eh)            E(eV)
   0   2.0000     -24.346406      -662.4994
   1   2.0000     -18.774175      -510.8713
   2   2.0000     -14.011493      -381.2721
   3   2.0000     -13.999375      -380.9424
   4   2.0000     -10.067193      -273.9422
   5   2.0000      -9.943298      -270.5709
   6   2.0000      -9.932725      -270.2832
   7   2.0000      -9.931723      -270.2559
   8   2.0000      -9.929134      -270.1855
   9   2.0000      -9.802074      -266.7280
  10   2.0000      -1.205581       -32.8055
  11   2.0000      -0.947420       -25.7806
  12   2.0000      -0.884199       -24.0603
  13   2.0000      -0.806431       -21.9441
  14   2.0000      -0.742125       -20.1942
  15   2.0000      -0.671632       -18.2760
  16   2.0000      -0.630618       -17.1600
  17   2.0000      -0.594529       -16.1779
  18   2.0000      -0.560925       -15.2635
  19   2.0000      -0.543725       -14.7955
  20   2.0000      -0.500188       -13.6108
  21   2.0000      -0.495297       -13.4777
  22   2.0000      -0.471681       -12.8351
  23   2.0000      -0.452775       -12.3206
  24   2.0000      -0.447908       -12.1882
  25   2.0000      -0.437865       -11.9149
  26   2.0000      -0.420052       -11.4302
  27   2.0000      -0.394513       -10.7353
  28   2.0000      -0.375004       -10.2044
  29   2.0000      -0.362331        -9.8595
  30   2.0000      -0.349067        -9.4986
  31   2.0000      -0.340516        -9.2659
  32   2.0000      -0.332213        -9.0400
  33   2.0000      -0.324516        -8.8305
  34   2.0000      -0.318967        -8.6795
  35   2.0000      -0.284035        -7.7290
  36   2.0000      -0.246666        -6.7121
  37   2.0000      -0.223771        -6.0891
  38   2.0000      -0.139574        -3.7980
  39   0.0000      -0.071875        -1.9558
  40   0.0000      -0.012239        -0.3330
  41   0.0000       0.005124         0.1394
  42   0.0000       0.016038         0.4364
  43   0.0000       0.022040         0.5997

MULLIKEN ATOMIC CHARGES
-----------------------
   0 C :    0.828025
   1 N :   -0.308472
   2 C :    0.084385
   3 C :    0.280878
   4 H :   -0.086429
   5 H :    0.011602
   6 C :    0.556484
   7 C :    0.061354
   8 C :    0.802755
   9 N :    0.059660
  10 H :   -0.036289
  11 H :   -0.026784
  12 H :   -0.085551
  13 H :   -0.495718
  14 H :   -0.242431
  15 H :   -0.005750
  16 H :   -0.378321
  17 H :    0.013613
  18 H :   -0.170729
  19 O :   -0.410427
  20 F :   -0.451855
Sum of atomic charges:    0.0000000

LOEWDIN ATOMIC CHARGES
----------------------
   0 C :    0.054531
   1 N :    0.024490
   2 C :   -0.014142
   3 C :    0.060619
   4 H :    0.030442
   5 H :    0.035654
   6 C :   -0.041181
   7 C :   -0.269345
   8 C :    0.164902
   9 N :    0.228732
  10 H :    0.005850
  11 H :   -0.021423
  12 H :    0.010975
  13 H :   -0.136520
  14 H :   -0.085309
  15 H :    0.020780
  16 H :    0.015976
  17 H :    0.027616
  18 H :    0.024861
  19 O :   -0.103721
  20 F :   -0.033787

  Mayer bond orders larger than 0.100000
B(  0-C ,  1-N ) :   0.8487 B(  0-C ,  2-C ) :   1.1813 B(  0-C , 15-H ) :   0.7104
B(  0-C , 16-H ) :   0.8168 B(  0-C , 18-H ) :   0.1925 B(  1-N ,  2-C ) :   0.1794
B(  1-N ,  7-C ) :   1.1434 B(  1-N ,  8-C ) :   0.1980 B(  1-N , 12-H ) :   1.0401
B(  1-N , 15-H ) :   0.1394 B(  1-N , 16-H ) :   0.1218 B(  2-C ,  3-C ) :   1.2186
B(  2-C ,  4-H ) :   0.1915 B(  2-C ,  5-H ) :   0.1127 B(  2-C , 17-H ) :   0.8097
B(  2-C , 18-H ) :   0.9113 B(  3-C ,  4-H ) :   0.7922 B(  3-C ,  5-H ) :   0.8263
B(  3-C ,  6-C ) :   1.1159 B(  4-H ,  6-C ) :   0.1149 B(  5-H ,  6-C ) :   0.2078
B(  6-C , 13-H ) :   0.1036 B(  6-C , 19-O ) :   1.7716 B(  6-C , 20-F ) :   0.6332
B(  7-C ,  8-C ) :   1.7605 B(  7-C ,  9-N ) :   0.8666 B(  7-C , 11-H ) :   0.1690
B(  7-C , 12-H ) :  -0.1428 B(  7-C , 13-H ) :   0.2237 B(  7-C , 14-H ) :   0.4617
B(  8-C ,  9-N ) :   0.3231 B(  8-C , 13-H ) :   0.4896 B(  8-C , 14-H ) :   0.3067
B(  9-N , 10-H ) :   1.0541 B(  9-N , 11-H ) :   0.8394 B(  9-N , 14-H ) :   0.1079
B( 10-H , 11-H ) :  -0.1246 B( 13-H , 14-H ) :   0.1507 B( 13-H , 20-F ) :   0.2179
B( 15-H , 16-H ) :  -0.1309

Dispersion correction           -0.022754392
FINAL SINGLE POINT ENERGY      -518.826587327096

DIPOLE MOMENT
-------------
                                X             Y             Z
Electronic contribution:      4.49245      -4.56567      -2.62584
Nuclear contribution   :     -6.05797       3.87976       3.55209
                        -----------------------------------------
Total Dipole Moment    :     -1.56551      -0.68591       0.92625
                        -----------------------------------------
Magnitude (a.u.)       :      1.94403
Magnitude (Debye)      :      4.94132

Rotational constants in cm-1:     0.061282     0.043164     0.033679
Rotational constants in MHz :  1837.191639  1294.028651  1009.659886

                             ****ORCA TERMINATED NORMALLY****
TOTAL RUN TIME: 0 days 0 hours 0 minutes 21 seconds 525 msec
