                         Program Version 5.0.0 -  RELEASE  -
|  1> !LC-PBE RIJCOSX def2-SVP def2/J TightSCF
|  2> *xyz -1 1
|  3> C          3.76678       -2.26611       -6.51175
|  4> C          2.49670       -1.84416       -5.73570
|  5> H          1.62642       -2.21743       -6.30895
|  6> H          2.48182       -2.45607       -4.79341
|  7> O          2.45973       -0.50920       -5.50576
|  8> H          3.82914       -1.70941       -7.42340
|  9> H          3.71764       -3.31144       -6.73483
| 10> H          4.63199       -2.06931       -5.91377
| 11> *
| 12>
| 13> %MaxCore 64000
| 14>
| 15> %pal nprocs 4
| 16> end
| 17>
| 18> %scf
| 19>   MaxIter 150
| 20> end
| 21>
| 22>
| 23>                          ****END OF INPUT****

CARTESIAN COORDINATES (ANGSTROEM)
---------------------------------
  C      3.766780   -2.266110   -6.511750
  C      2.496700   -1.844160   -5.735700
  H      1.626420   -2.217430   -6.308950
  H      2.481820   -2.456070   -4.793410
  O      2.459730   -0.509200   -5.505760
  H      3.829140   -1.709410   -7.423400
  H      3.717640   -3.311440   -6.734830
  H      4.631990   -2.069310   -5.913770

 Total Charge           Charge          ....   -1
 Multiplicity           Mult            ....    1
 Number of Electrons    NEL             ....   26
 Basis Dimension        Dim             ....   67

ORBITAL ENERGIES
----------------

  NO   OCC          E(Eh)            E(eV)
   0   2.0000     -18.588333      -505.8143
   1   2.0000      -9.915678      -269.8193
   2   2.0000      -9.901133      -269.4235
   3   2.0000      -0.798429       -21.7263
   4   2.0000      -0.667264       -18.1572
   5   2.0000      -0.501340       -13.6421
   6   2.0000      -0.377183       -10.2637
   7   2.0000      -0.349887        -9.5209
   8   2.0000      -0.290541        -7.9060
   9   2.0000      -0.269800        -7.3416
  10   2.0000      -0.203924        -5.5490
  11   2.0000      -0.048481        -1.3192
  12   2.0000      -0.046042        -1.2529
  13   0.0000       0.343021         9.3341
  14   0.0000       0.388903        10.5826
  15   0.0000       0.401649        10.9294
  16   0.0000       0.411552        11.1989
  17   0.0000       0.455517        12.3953

MULLIKEN ATOMIC CHARGES
-----------------------
   0 C :   -0.110738
   1 C :    0.156704
   2 H :   -0.127451
   3 H :   -0.134317
   4 O :   -0.710408
   5 H :   -0.007544
   6 H :   -0.059011
   7 H :   -0.007235
Sum of atomic charges:   -1.0000000

LOEWDIN ATOMIC CHARGES
----------------------
   0 C :   -0.148122
   1 C :   -0.025097
   2 H :   -0.069389
   3 H :   -0.071494
   4 O :   -0.674028
   5 H :    0.002408
   6 H :   -0.016808
   7 H :    0.002530

  Mayer bond orders larger than 0.100000
B(  0-C ,  1-C ) :   0.9813 B(  0-C ,  5-H ) :   0.9711 B(  0-C ,  6-H ) :   0.9495
B(  0-C ,  7-H ) :   0.9743 B(  1-C ,  2-H ) :   0.8983 B(  1-C ,  3-H ) :   0.8891
B(  1-C ,  4-O ) :   1.5141

FINAL SINGLE POINT ENERGY      -153.805450083766

DIPOLE MOMENT
-------------
                                X             Y             Z
Electronic contribution:     -1.02576       2.69833       0.96079
Nuclear contribution   :      1.63615      -3.79938      -1.48621
                        -----------------------------------------
Total Dipole Moment    :      0.61040      -1.10105      -0.52542
                        -----------------------------------------
Magnitude (a.u.)       :      1.36417
Magnitude (Debye)      :      3.46745

Rotational constants in cm-1:     1.265582     0.329289     0.289024
Rotational constants in MHz : 37941.194363  9871.829581  8664.719106

                             ****ORCA TERMINATED NORMALLY****
TOTAL RUN TIME: 0 days 0 hours 0 minutes 8 seconds 798 msec
