                         Program Version 5.0.0 -  RELEASE  -
|  1> !LC-PBE RIJCOSX def2-SVP def2/J TightSCF
|  2> *xyz 1 1
|  3> C          4.99986       -1.59613       -5.92488
|  4> N          5.28156       -1.97413       -4.53576
|  5> C          3.76678       -2.26611       -6.51175
|  6> C          4.79250       -1.36132       -3.45730
|  7> N          3.93990       -0.37492       -3.55736
|  8> N          5.25986       -1.75422       -2.23913
|  9> H          5.92282       -2.52145       -2.18672
| 10> H          4.65468       -1.64040       -1.44202
| 11> H          5.70914       -2.87560       -4.38702
| 12> H          3.33010       -0.31764       -4.36125
| 13> H          3.69849        0.11447       -2.70833
| 14> H          4.84333       -0.51793       -5.94302
| 15> H          5.90170       -1.82250       -6.49647
| 16> H          3.63046       -1.94025       -7.52177
| 17> H          2.90710       -2.00116       -5.93240
| 18> H          3.89538       -3.32820       -6.49392
| 19> *
| 20>
| 21> %MaxCore 64000
| 22>
| 23> %pal nprocs 4
| 24> end
| 25>
| 26> %scf
| 27>   MaxIter 150
| 28> end
| 29>
| 30>
| 31>                          ****END OF INPUT****

CARTESIAN COORDINATES (ANGSTROEM)
---------------------------------
  C      4.999860   -1.596130   -5.924880
  N      5.281560   -1.974130   -4.535760
  C      3.766780   -2.266110   -6.511750
  C      4.792500   -1.361320   -3.457300
  N      3.939900   -0.374920   -3.557360
  N      5.259860   -1.754220   -2.239130
  H      5.922820   -2.521450   -2.186720
  H      4.654680   -1.640400   -1.442020
  H      5.709140   -2.875600   -4.387020
  H      3.330100   -0.317640   -4.361250
  H      3.698490    0.114470   -2.708330
  H      4.843330   -0.517930   -5.943020
  H      5.901700   -1.822500   -6.496470
  H      3.630460   -1.940250   -7.521770
  H      2.907100   -2.001160   -5.932400
  H      3.895380   -3.328200   -6.493920

 Total Charge           Charge          ....    1
 Multiplicity           Mult            ....    1
 Number of Electrons    NEL             ....   48
 Basis Dimension        Dim             ....  134

ORBITAL ENERGIES
----------------

  NO   OCC          E(Eh)            E(eV)
   0   2.0000     -14.457526      -393.4093
   1   2.0000     -14.453550      -393.3011
   2   2.0000     -14.446873      -393.1194
   3   2.0000     -10.471653      -284.9482
   4   2.0000     -10.331789      -281.1423
   5   2.0000     -10.264226      -279.3038
   6   2.0000      -1.389269       -37.8039
   7   2.0000      -1.269948       -34.5570
   8   2.0000      -1.253378       -34.1061
   9   2.0000      -1.099230       -29.9116
  10   2.0000      -0.996251       -27.1094
  11   2.0000      -0.959412       -26.1069
  12   2.0000      -0.942101       -25.6359
  13   2.0000      -0.888969       -24.1901
  14   2.0000      -0.839834       -22.8530
  15   2.0000      -0.834257       -22.7013
  16   2.0000      -0.784731       -21.3536
  17   2.0000      -0.781907       -21.2768
  18   2.0000      -0.747928       -20.3522
  19   2.0000      -0.700937       -19.0735
  20   2.0000      -0.665882       -18.1196
  21   2.0000      -0.643976       -17.5235
  22   2.0000      -0.612625       -16.6704
  23   2.0000      -0.578364       -15.7381
  24   0.0000      -0.073780        -2.0077
  25   0.0000      -0.037067        -1.0086
  26   0.0000      -0.006750        -0.1837
  27   0.0000       0.005090         0.1385
  28   0.0000       0.023901         0.6504

MULLIKEN ATOMIC CHARGES
-----------------------
   0 C :   -0.102680
   1 N :   -0.184171
   2 C :   -0.118297
   3 C :    0.106606
   4 N :   -0.083672
   5 N :   -0.138571
   6 H :    0.198744
   7 H :    0.199821
   8 H :    0.197264
   9 H :    0.208851
  10 H :    0.204650
  11 H :    0.107499
  12 H :    0.130014
  13 H :    0.119445
  14 H :    0.060114
  15 H :    0.094382
Sum of atomic charges:    1.0000000

LOEWDIN ATOMIC CHARGES
----------------------
   0 C :    0.012909
   1 N :    0.017213
   2 C :   -0.084271
   3 C :    0.157683
   4 N :    0.049576
   5 N :    0.006799
   6 H :    0.117926
   7 H :    0.112515
   8 H :    0.112326
   9 H :    0.120396
  10 H :    0.123048
  11 H :    0.047519
  12 H :    0.062798
  13 H :    0.062699
  14 H :    0.032563
  15 H :    0.048300

  Mayer bond orders larger than 0.100000
B(  0-C ,  1-N ) :   0.9172 B(  0-C ,  2-C ) :   1.0662 B(  0-C , 11-H ) :   0.9610
B(  0-C , 12-H ) :   0.9510 B(  1-N ,  3-C ) :   1.3822 B(  1-N ,  8-H ) :   0.9086
B(  2-C , 13-H ) :   0.9647 B(  2-C , 14-H ) :   0.9685 B(  2-C , 15-H ) :   0.9684
B(  3-C ,  4-N ) :   1.4238 B(  3-C ,  5-N ) :   1.3549 B(  4-N ,  9-H ) :   0.9138
B(  4-N , 10-H ) :   0.9194 B(  5-N ,  6-H ) :   0.9235 B(  5-N ,  7-H ) :   0.9275

FINAL SINGLE POINT ENERGY      -283.293222036182

DIPOLE MOMENT
-------------
                                X             Y             Z
Electronic contribution:      1.71901       1.07395       4.83062
Nuclear contribution   :     -1.95709      -1.20097      -3.70214
                        -----------------------------------------
Total Dipole Moment    :     -0.23808      -0.12702       1.12849
                        -----------------------------------------
Magnitude (a.u.)       :      1.16030
Magnitude (Debye)      :      2.94925

Rotational constants in cm-1:     0.241661     0.071598     0.061743
Rotational constants in MHz :  7244.800091  2146.442409  1851.001864

                             ****ORCA TERMINATED NORMALLY****
TOTAL RUN TIME: 0 days 0 hours 0 minutes 18 seconds 698 msec
