                         Program Version 5.0.0 -  RELEASE  -
|  1> !LC-PBE RIJCOSX def2-TZVP def2/J TightSCF xyzfile
|  2>
|  3> *xyzfile 0 1 B.xyz
|  4>
|  5> %MaxCore 64000
|  6>
|  7> %pal nprocs 18
|  8> end
|  9>
| 10> %scf
| 11>   MaxIter 150
| 12> end
| 13>
| 14>
| 15>                          ****END OF INPUT****

CARTESIAN COORDINATES (ANGSTROEM)
---------------------------------
  C      4.999862   -1.596133   -5.924876
  N      5.281560   -1.974132   -4.535764
  C      3.766779   -2.266110   -6.511752
  C      2.496702   -1.844161   -5.735704
  H      1.626416   -2.217434   -6.308950
  H      2.481824   -2.456069   -4.793414
  O      2.459729   -0.509204   -5.505757
  C      4.792500   -1.361316   -3.457295
  N      3.939898   -0.374925   -3.557359
  N      5.259860   -1.754224   -2.239133
  H      5.922824   -2.521451   -2.186720
  H      4.654678   -1.640404   -1.442016
  H      5.709139   -2.875599   -4.387021
  H      3.330101   -0.317639   -4.361247
  H      3.698494    0.114468   -2.708333
  H      4.843333   -0.517930   -5.943019
  H      5.901695   -1.822503   -6.496467
  H      3.886191   -3.357076   -6.533604
  H      3.685602   -1.922168   -7.547128

 Total Charge           Charge          ....    0
 Multiplicity           Mult            ....    1
 Number of Electrons    NEL             ....   64
 Basis Dimension        Dim             ....  314

ORBITAL ENERGIES
----------------

  NO   OCC          E(Eh)            E(eV)
   0   2.0000     -18.818285      -512.0716
   1   2.0000     -14.279500      -388.5650
   2   2.0000     -14.272602      -388.3772
   3   2.0000     -14.226532      -387.1236
   4   2.0000     -10.283582      -279.8305
   5   2.0000     -10.147507      -276.1277
   6   2.0000     -10.094116      -274.6749
   7   2.0000     -10.081810      -274.3400
   8   2.0000      -1.222548       -33.2672
   9   2.0000      -1.108458       -30.1627
  10   2.0000      -1.088018       -29.6065
  11   2.0000      -1.042584       -28.3702
  12   2.0000      -0.927763       -25.2457
  13   2.0000      -0.839051       -22.8317
  14   2.0000      -0.790220       -21.5030
  15   2.0000      -0.764829       -20.8121
  16   2.0000      -0.737506       -20.0686
  17   2.0000      -0.694043       -18.8859
  18   2.0000      -0.662117       -18.0171
  19   2.0000      -0.651067       -17.7164
  20   2.0000      -0.612458       -16.6658
  21   2.0000      -0.606981       -16.5168
  22   2.0000      -0.577711       -15.7203
  23   2.0000      -0.545807       -14.8522
  24   2.0000      -0.494886       -13.4665
  25   2.0000      -0.474793       -12.9198
  26   2.0000      -0.462486       -12.5849
  27   2.0000      -0.441115       -12.0033
  28   2.0000      -0.425420       -11.5763
  29   2.0000      -0.402675       -10.9574
  30   2.0000      -0.287182        -7.8146
  31   2.0000      -0.284074        -7.7300
  32   0.0000       0.068514         1.8644
  33   0.0000       0.096821         2.6346
  34   0.0000       0.107356         2.9213
  35   0.0000       0.128789         3.5045
  36   0.0000       0.161147         4.3850

MULLIKEN ATOMIC CHARGES
-----------------------
   0 C :   -0.324542
   1 N :   -0.271560
   2 C :   -0.171779
   3 C :   -0.143120
   4 H :    0.085310
   5 H :    0.050523
   6 O :   -0.662059
   7 C :    0.375598
   8 N :   -0.391529
   9 N :   -0.495470
  10 H :    0.266809
  11 H :    0.279937
  12 H :    0.243046
  13 H :    0.311005
  14 H :    0.241785
  15 H :    0.222100
  16 H :    0.155919
  17 H :    0.102649
  18 H :    0.125378
Sum of atomic charges:   -0.0000000

LOEWDIN ATOMIC CHARGES
----------------------
   0 C :   -0.294516
   1 N :    0.147614
   2 C :   -0.308976
   3 C :   -0.524152
   4 H :    0.111968
   5 H :    0.091239
   6 O :   -0.288298
   7 C :   -0.432802
   8 N :    0.090299
   9 N :   -0.016486
  10 H :    0.181574
  11 H :    0.182593
  12 H :    0.195172
  13 H :    0.110322
  14 H :    0.181959
  15 H :    0.159625
  16 H :    0.137622
  17 H :    0.128961
  18 H :    0.146281

  Mayer bond orders larger than 0.100000
B(  0-C ,  1-N ) :   0.8594 B(  0-C ,  2-C ) :   0.9416 B(  0-C ,  6-O ) :   0.1118
B(  0-C , 15-H ) :   0.9591 B(  0-C , 16-H ) :   0.9713 B(  1-N ,  7-C ) :   1.3366
B(  1-N , 12-H ) :   0.9183 B(  2-C ,  3-C ) :   0.9017 B(  2-C ,  6-O ) :  -0.1049
B(  2-C , 17-H ) :   0.9639 B(  2-C , 18-H ) :   0.9624 B(  3-C ,  4-H ) :   0.9783
B(  3-C ,  5-H ) :   0.9799 B(  3-C ,  6-O ) :   1.2807 B(  6-O , 13-H ) :   0.3651
B(  7-C ,  8-N ) :   1.5078 B(  7-C ,  9-N ) :   1.1949 B(  8-N , 13-H ) :   0.6443
B(  8-N , 14-H ) :   0.9195 B(  9-N , 10-H ) :   0.9130 B(  9-N , 11-H ) :   0.9052

FINAL SINGLE POINT ENERGY      -397.427823622340

DIPOLE MOMENT
-------------
                                X             Y             Z
Electronic contribution:      1.94490       1.87525       3.75660
Nuclear contribution   :      0.51577      -3.31768      -1.36804
                        -----------------------------------------
Total Dipole Moment    :      2.46066      -1.44243       2.38856
                        -----------------------------------------
Magnitude (a.u.)       :      3.72031
Magnitude (Debye)      :      9.45628

Rotational constants in cm-1:     0.111492     0.050787     0.040163
Rotational constants in MHz :  3342.457536  1522.560798  1204.057148

                             ****ORCA TERMINATED NORMALLY****
TOTAL RUN TIME: 0 days 0 hours 0 minutes 25 seconds 283 msec
