                         Program Version 5.0.0 -  RELEASE  -
|  1> !LC-PBE RIJCOSX def2-SVP def2/J TightSCF
|  2> *xyz 0 1
|  3> C          3.76678       -2.26611       -6.51175
|  4> C          2.49670       -1.84416       -5.73570
|  5> H          1.62642       -2.21743       -6.30895
|  6> H          2.48182       -2.45607       -4.79341
|  7> F          2.45973       -0.50920       -5.50576
|  8> H          3.82914       -1.70941       -7.42340
|  9> H          3.71764       -3.31144       -6.73483
| 10> H          4.63199       -2.06931       -5.91377
| 11> *
| 12>
| 13> %MaxCore 64000
| 14>
| 15> %pal nprocs 4
| 16> end
| 17>
| 18> %scf
| 19>   MaxIter 150
| 20> end
| 21>
| 22>
| 23>                          ****END OF INPUT****

CARTESIAN COORDINATES (ANGSTROEM)
---------------------------------
  C      3.766780   -2.266110   -6.511750
  C      2.496700   -1.844160   -5.735700
  H      1.626420   -2.217430   -6.308950
  H      2.481820   -2.456070   -4.793410
  F      2.459730   -0.509200   -5.505760
  H      3.829140   -1.709410   -7.423400
  H      3.717640   -3.311440   -6.734830
  H      4.631990   -2.069310   -5.913770

 Total Charge           Charge          ....    0
 Multiplicity           Mult            ....    1
 Number of Electrons    NEL             ....   26
 Basis Dimension        Dim             ....   67

ORBITAL ENERGIES
----------------

  NO   OCC          E(Eh)            E(eV)
   0   2.0000     -24.473952      -665.9701
   1   2.0000     -10.201678      -277.6018
   2   2.0000     -10.118656      -275.3426
   3   2.0000      -1.331653       -36.2361
   4   2.0000      -0.927760       -25.2456
   5   2.0000      -0.783167       -21.3111
   6   2.0000      -0.652224       -17.7479
   7   2.0000      -0.642883       -17.4937
   8   2.0000      -0.600762       -16.3476
   9   2.0000      -0.540060       -14.6958
  10   2.0000      -0.533975       -14.5302
  11   2.0000      -0.460739       -12.5373
  12   2.0000      -0.453938       -12.3523
  13   0.0000       0.156955         4.2710
  14   0.0000       0.204216         5.5570
  15   0.0000       0.210840         5.7372
  16   0.0000       0.232004         6.3132
  17   0.0000       0.251011         6.8304

MULLIKEN ATOMIC CHARGES
-----------------------
   0 C :   -0.196874
   1 C :    0.114274
   2 H :    0.053113
   3 H :    0.053765
   4 F :   -0.239122
   5 H :    0.076044
   6 H :    0.063640
   7 H :    0.075161
Sum of atomic charges:    0.0000000

LOEWDIN ATOMIC CHARGES
----------------------
   0 C :   -0.112173
   1 C :    0.068460
   2 H :    0.020806
   3 H :    0.023544
   4 F :   -0.116690
   5 H :    0.038048
   6 H :    0.040788
   7 H :    0.037218

  Mayer bond orders larger than 0.100000
B(  0-C ,  1-C ) :   1.0644 B(  0-C ,  5-H ) :   0.9736 B(  0-C ,  6-H ) :   0.9669
B(  0-C ,  7-H ) :   0.9753 B(  1-C ,  2-H ) :   0.9631 B(  1-C ,  3-H ) :   0.9611
B(  1-C ,  4-F ) :   1.0271

FINAL SINGLE POINT ENERGY      -178.421413774542

DIPOLE MOMENT
-------------
                                X             Y             Z
Electronic contribution:     -2.09188       4.33481       1.82044
Nuclear contribution   :      2.16248      -5.01128      -1.96962
                        -----------------------------------------
Total Dipole Moment    :      0.07059      -0.67648      -0.14918
                        -----------------------------------------
Magnitude (a.u.)       :      0.69632
Magnitude (Debye)      :      1.76990

Rotational constants in cm-1:     1.244010     0.306580     0.270375
Rotational constants in MHz : 37294.476802  9191.037795  8105.639967

                             ****ORCA TERMINATED NORMALLY****
TOTAL RUN TIME: 0 days 0 hours 0 minutes 7 seconds 51 msec
