                         Program Version 5.0.0 -  RELEASE  -
|  1> !LC-PBE RIJCOSX def2-SVP def2/J TightSCF
|  2> *xyz 0 1
|  3> C          4.99986       -1.59613       -5.92488
|  4> C          5.28156       -1.97413       -4.53576
|  5> C          3.76678       -2.26611       -6.51175
|  6> C          4.79250       -1.36132       -3.45730
|  7> N          3.93990       -0.37492       -3.55736
|  8> N          5.25986       -1.75422       -2.23913
|  9> H          5.92282       -2.52145       -2.18672
| 10> H          4.65468       -1.64040       -1.44202
| 11> H          5.70914       -2.87560       -4.38702
| 12> H          3.33010       -0.31764       -4.36125
| 13> H          3.69849        0.11447       -2.70833
| 14> H          4.84333       -0.51793       -5.94302
| 15> H          5.90170       -1.82250       -6.49647
| 16> H          3.63046       -1.94025       -7.52177
| 17> H          2.90710       -2.00116       -5.93240
| 18> H          3.89538       -3.32820       -6.49392
| 19> *
| 20>
| 21> %MaxCore 64000
| 22>
| 23> %pal nprocs 4
| 24> end
| 25>
| 26> %scf
| 27>   MaxIter 150
| 28> end
| 29>
| 30>
| 31>                          ****END OF INPUT****

CARTESIAN COORDINATES (ANGSTROEM)
---------------------------------
  C      4.999860   -1.596130   -5.924880
  C      5.281560   -1.974130   -4.535760
  C      3.766780   -2.266110   -6.511750
  C      4.792500   -1.361320   -3.457300
  N      3.939900   -0.374920   -3.557360
  N      5.259860   -1.754220   -2.239130
  H      5.922820   -2.521450   -2.186720
  H      4.654680   -1.640400   -1.442020
  H      5.709140   -2.875600   -4.387020
  H      3.330100   -0.317640   -4.361250
  H      3.698490    0.114470   -2.708330
  H      4.843330   -0.517930   -5.943020
  H      5.901700   -1.822500   -6.496470
  H      3.630460   -1.940250   -7.521770
  H      2.907100   -2.001160   -5.932400
  H      3.895380   -3.328200   -6.493920

 Total Charge           Charge          ....    0
 Multiplicity           Mult            ....    1
 Number of Electrons    NEL             ....   48
 Basis Dimension        Dim             ....  134

ORBITAL ENERGIES
----------------

  NO   OCC          E(Eh)            E(eV)
   0   2.0000     -14.225300      -387.0901
   1   2.0000     -14.215786      -386.8312
   2   2.0000     -10.167712      -276.6775
   3   2.0000     -10.094091      -274.6742
   4   2.0000     -10.090972      -274.5893
   5   2.0000     -10.041628      -273.2466
   6   2.0000      -1.124751       -30.6060
   7   2.0000      -1.023532       -27.8517
   8   2.0000      -0.939642       -25.5690
   9   2.0000      -0.851348       -23.1664
  10   2.0000      -0.764560       -20.8047
  11   2.0000      -0.724034       -19.7020
  12   2.0000      -0.688983       -18.7482
  13   2.0000      -0.644350       -17.5336
  14   2.0000      -0.612055       -16.6549
  15   2.0000      -0.581443       -15.8219
  16   2.0000      -0.552183       -15.0257
  17   2.0000      -0.534837       -14.5536
  18   2.0000      -0.515400       -14.0247
  19   2.0000      -0.483393       -13.1538
  20   2.0000      -0.451177       -12.2772
  21   2.0000      -0.441090       -12.0027
  22   2.0000      -0.392582       -10.6827
  23   2.0000      -0.269935        -7.3453
  24   0.0000       0.137693         3.7468
  25   0.0000       0.168762         4.5923
  26   0.0000       0.187141         5.0924
  27   0.0000       0.196295         5.3415
  28   0.0000       0.208101         5.6627

MULLIKEN ATOMIC CHARGES
-----------------------
   0 C :   -0.103639
   1 C :   -0.244323
   2 C :   -0.081446
   3 C :   -0.004555
   4 N :   -0.130054
   5 N :   -0.177245
   6 H :    0.147736
   7 H :    0.124952
   8 H :   -0.035348
   9 H :    0.159099
  10 H :    0.135565
  11 H :    0.035771
  12 H :    0.049847
  13 H :    0.048921
  14 H :    0.026648
  15 H :    0.048071
Sum of atomic charges:   -0.0000000

LOEWDIN ATOMIC CHARGES
----------------------
   0 C :   -0.071315
   1 C :   -0.234029
   2 C :   -0.089788
   3 C :    0.023490
   4 N :   -0.023070
   5 N :   -0.061027
   6 H :    0.089738
   7 H :    0.064427
   8 H :   -0.002487
   9 H :    0.089745
  10 H :    0.077283
  11 H :    0.023998
  12 H :    0.035757
  13 H :    0.026443
  14 H :    0.020201
  15 H :    0.030635

  Mayer bond orders larger than 0.100000
B(  0-C ,  1-C ) :   1.0542 B(  0-C ,  2-C ) :   1.0643 B(  0-C , 11-H ) :   0.9601
B(  0-C , 12-H ) :   0.9446 B(  1-C ,  3-C ) :   1.7192 B(  1-C ,  8-H ) :   0.9617
B(  2-C , 13-H ) :   0.9749 B(  2-C , 14-H ) :   0.9750 B(  2-C , 15-H ) :   0.9734
B(  3-C ,  4-N ) :   1.2486 B(  3-C ,  5-N ) :   1.2005 B(  4-N ,  9-H ) :   0.9362
B(  4-N , 10-H ) :   0.9484 B(  5-N ,  6-H ) :   0.9457 B(  5-N ,  7-H ) :   0.9521

FINAL SINGLE POINT ENERGY      -266.841144383457

DIPOLE MOMENT
-------------
                                X             Y             Z
Electronic contribution:      1.14050       1.42619       4.65288
Nuclear contribution   :     -1.82485      -1.28952      -3.74132
                        -----------------------------------------
Total Dipole Moment    :     -0.68436       0.13667       0.91157
                        -----------------------------------------
Magnitude (a.u.)       :      1.14803
Magnitude (Debye)      :      2.91806

Rotational constants in cm-1:     0.245790     0.071632     0.062004
Rotational constants in MHz :  7368.599517  2147.482078  1858.844841

                             ****ORCA TERMINATED NORMALLY****
TOTAL RUN TIME: 0 days 0 hours 0 minutes 20 seconds 299 msec
