                         Program Version 5.0.0 -  RELEASE  -
|  1> !LC-PBE RIJCOSX def2-SVP def2/J TightSCF
|  2> *xyz 0 1
|  3> C          4.99986       -1.59613       -5.92488
|  4> N          5.28156       -1.97413       -4.53576
|  5> C          3.76678       -2.26611       -6.51175
|  6> C          4.79250       -1.36132       -3.45730
|  7> C          3.93990       -0.37492       -3.55736
|  8> N          5.25986       -1.75422       -2.23913
|  9> H          5.92282       -2.52145       -2.18672
| 10> H          4.65468       -1.64040       -1.44202
| 11> H          5.70914       -2.87560       -4.38702
| 12> H          3.33010       -0.31764       -4.36125
| 13> H          3.69849        0.11447       -2.70833
| 14> H          4.84333       -0.51793       -5.94302
| 15> H          5.90170       -1.82250       -6.49647
| 16> H          3.63046       -1.94025       -7.52177
| 17> H          2.90710       -2.00116       -5.93240
| 18> H          3.89538       -3.32820       -6.49392
| 19> *
| 20>
| 21> %MaxCore 64000
| 22>
| 23> %pal nprocs 4
| 24> end
| 25>
| 26> %scf
| 27>   MaxIter 150
| 28> end
| 29>
| 30>
| 31>                          ****END OF INPUT****

CARTESIAN COORDINATES (ANGSTROEM)
---------------------------------
  C      4.999860   -1.596130   -5.924880
  N      5.281560   -1.974130   -4.535760
  C      3.766780   -2.266110   -6.511750
  C      4.792500   -1.361320   -3.457300
  C      3.939900   -0.374920   -3.557360
  N      5.259860   -1.754220   -2.239130
  H      5.922820   -2.521450   -2.186720
  H      4.654680   -1.640400   -1.442020
  H      5.709140   -2.875600   -4.387020
  H      3.330100   -0.317640   -4.361250
  H      3.698490    0.114470   -2.708330
  H      4.843330   -0.517930   -5.943020
  H      5.901700   -1.822500   -6.496470
  H      3.630460   -1.940250   -7.521770
  H      2.907100   -2.001160   -5.932400
  H      3.895380   -3.328200   -6.493920

 Total Charge           Charge          ....    0
 Multiplicity           Mult            ....    1
 Number of Electrons    NEL             ....   48
 Basis Dimension        Dim             ....  134

ORBITAL ENERGIES
----------------

  NO   OCC          E(Eh)            E(eV)
   0   2.0000     -14.223961      -387.0537
   1   2.0000     -14.217814      -386.8864
   2   2.0000     -10.170739      -276.7599
   3   2.0000     -10.153976      -276.3037
   4   2.0000     -10.108337      -275.0618
   5   2.0000     -10.032873      -273.0083
   6   2.0000      -1.126884       -30.6641
   7   2.0000      -1.036741       -28.2112
   8   2.0000      -0.919274       -25.0147
   9   2.0000      -0.874197       -23.7881
  10   2.0000      -0.791665       -21.5423
  11   2.0000      -0.709293       -19.3008
  12   2.0000      -0.687897       -18.7186
  13   2.0000      -0.651659       -17.7325
  14   2.0000      -0.594774       -16.1846
  15   2.0000      -0.585741       -15.9388
  16   2.0000      -0.568158       -15.4604
  17   2.0000      -0.530796       -14.4437
  18   2.0000      -0.514616       -14.0034
  19   2.0000      -0.501193       -13.6382
  20   2.0000      -0.484321       -13.1791
  21   2.0000      -0.474436       -12.9100
  22   2.0000      -0.374981       -10.2037
  23   2.0000      -0.284389        -7.7386
  24   0.0000       0.140955         3.8356
  25   0.0000       0.170372         4.6361
  26   0.0000       0.180840         4.9209
  27   0.0000       0.197370         5.3707
  28   0.0000       0.211118         5.7448

MULLIKEN ATOMIC CHARGES
-----------------------
   0 C :   -0.040039
   1 N :   -0.229435
   2 C :   -0.107979
   3 C :    0.062737
   4 C :   -0.220537
   5 N :   -0.195717
   6 H :    0.127649
   7 H :    0.153624
   8 H :    0.129686
   9 H :    0.004483
  10 H :   -0.011395
  11 H :    0.085400
  12 H :    0.062910
  13 H :    0.061365
  14 H :    0.068438
  15 H :    0.048809
Sum of atomic charges:   -0.0000000

LOEWDIN ATOMIC CHARGES
----------------------
   0 C :    0.013682
   1 N :   -0.045783
   2 C :   -0.097617
   3 C :    0.046598
   4 C :   -0.272514
   5 N :   -0.057807
   6 H :    0.071659
   7 H :    0.084332
   8 H :    0.069845
   9 H :    0.004518
  10 H :    0.004564
  11 H :    0.043093
  12 H :    0.031971
  13 H :    0.036834
  14 H :    0.037446
  15 H :    0.029179

  Mayer bond orders larger than 0.100000
B(  0-C ,  1-N ) :   0.9858 B(  0-C ,  2-C ) :   1.0726 B(  0-C , 11-H ) :   0.9501
B(  0-C , 12-H ) :   0.9680 B(  1-N ,  3-C ) :   1.1638 B(  1-N ,  8-H ) :   0.9374
B(  2-C , 13-H ) :   0.9716 B(  2-C , 14-H ) :   0.9696 B(  2-C , 15-H ) :   0.9723
B(  3-C ,  4-C ) :   1.7892 B(  3-C ,  5-N ) :   1.1841 B(  4-C ,  9-H ) :   0.9464
B(  4-C , 10-H ) :   0.9516 B(  5-N ,  6-H ) :   0.9566 B(  5-N ,  7-H ) :   0.9512

FINAL SINGLE POINT ENERGY      -266.832856781652

DIPOLE MOMENT
-------------
                                X             Y             Z
Electronic contribution:      2.45397      -0.19618       3.56010
Nuclear contribution   :     -2.10948      -0.95026      -3.53375
                        -----------------------------------------
Total Dipole Moment    :      0.34450      -1.14644       0.02634
                        -----------------------------------------
Magnitude (a.u.)       :      1.19737
Magnitude (Debye)      :      3.04348

Rotational constants in cm-1:     0.255209     0.072067     0.062929
Rotational constants in MHz :  7650.964615  2160.525743  1886.569524

                             ****ORCA TERMINATED NORMALLY****
TOTAL RUN TIME: 0 days 0 hours 0 minutes 19 seconds 247 msec
