                         Program Version 5.0.0 -  RELEASE  -
|  1> !LC-PBE RIJCOSX def2-SVP def2/J TightSCF
|  2> *xyz 0 1
|  3> C          4.99986       -1.59613       -5.92488
|  4> N          5.28156       -1.97413       -4.53576
|  5> C          3.76678       -2.26611       -6.51175
|  6> C          4.79250       -1.36132       -3.45730
|  7> N          3.93990       -0.37492       -3.55736
|  8> C          5.25986       -1.75422       -2.23913
|  9> H          5.92282       -2.52145       -2.18672
| 10> H          4.65468       -1.64040       -1.44202
| 11> H          5.70914       -2.87560       -4.38702
| 12> H          3.33010       -0.31764       -4.36125
| 13> H          3.69849        0.11447       -2.70833
| 14> H          4.84333       -0.51793       -5.94302
| 15> H          5.90170       -1.82250       -6.49647
| 16> H          3.63046       -1.94025       -7.52177
| 17> H          2.90710       -2.00116       -5.93240
| 18> H          3.89538       -3.32820       -6.49392
| 19> *
| 20>
| 21> %MaxCore 64000
| 22>
| 23> %pal nprocs 4
| 24> end
| 25>
| 26> %scf
| 27>   MaxIter 150
| 28> end
| 29>
| 30>
| 31>                          ****END OF INPUT****

CARTESIAN COORDINATES (ANGSTROEM)
---------------------------------
  C      4.999860   -1.596130   -5.924880
  N      5.281560   -1.974130   -4.535760
  C      3.766780   -2.266110   -6.511750
  C      4.792500   -1.361320   -3.457300
  N      3.939900   -0.374920   -3.557360
  C      5.259860   -1.754220   -2.239130
  H      5.922820   -2.521450   -2.186720
  H      4.654680   -1.640400   -1.442020
  H      5.709140   -2.875600   -4.387020
  H      3.330100   -0.317640   -4.361250
  H      3.698490    0.114470   -2.708330
  H      4.843330   -0.517930   -5.943020
  H      5.901700   -1.822500   -6.496470
  H      3.630460   -1.940250   -7.521770
  H      2.907100   -2.001160   -5.932400
  H      3.895380   -3.328200   -6.493920

 Total Charge           Charge          ....    0
 Multiplicity           Mult            ....    1
 Number of Electrons    NEL             ....   48
 Basis Dimension        Dim             ....  134

ORBITAL ENERGIES
----------------

  NO   OCC          E(Eh)            E(eV)
   0   2.0000     -14.227409      -387.1475
   1   2.0000     -14.224394      -387.0654
   2   2.0000     -10.175608      -276.8924
   3   2.0000     -10.164510      -276.5904
   4   2.0000     -10.120863      -275.4027
   5   2.0000     -10.027817      -272.8708
   6   2.0000      -1.137780       -30.9606
   7   2.0000      -1.047518       -28.5044
   8   2.0000      -0.939827       -25.5740
   9   2.0000      -0.855088       -23.2681
  10   2.0000      -0.782602       -21.2957
  11   2.0000      -0.751629       -20.4529
  12   2.0000      -0.690406       -18.7869
  13   2.0000      -0.642544       -17.4845
  14   2.0000      -0.622559       -16.9407
  15   2.0000      -0.584915       -15.9163
  16   2.0000      -0.572899       -15.5894
  17   2.0000      -0.540520       -14.7083
  18   2.0000      -0.521008       -14.1774
  19   2.0000      -0.497358       -13.5338
  20   2.0000      -0.492313       -13.3965
  21   2.0000      -0.478059       -13.0086
  22   2.0000      -0.382367       -10.4047
  23   2.0000      -0.269847        -7.3429
  24   0.0000       0.132358         3.6016
  25   0.0000       0.169963         4.6249
  26   0.0000       0.179180         4.8757
  27   0.0000       0.188239         5.1223
  28   0.0000       0.202507         5.5105

MULLIKEN ATOMIC CHARGES
-----------------------
   0 C :   -0.066830
   1 N :   -0.214190
   2 C :   -0.104190
   3 C :   -0.008263
   4 N :   -0.132827
   5 C :   -0.219557
   6 H :   -0.018529
   7 H :   -0.005272
   8 H :    0.156613
   9 H :    0.138439
  10 H :    0.158213
  11 H :    0.068528
  12 H :    0.072802
  13 H :    0.064648
  14 H :    0.048222
  15 H :    0.062192
Sum of atomic charges:    0.0000000

LOEWDIN ATOMIC CHARGES
----------------------
   0 C :    0.000940
   1 N :   -0.039396
   2 C :   -0.099938
   3 C :    0.041762
   4 N :   -0.019262
   5 C :   -0.309045
   6 H :   -0.002386
   7 H :   -0.003867
   8 H :    0.089472
   9 H :    0.074890
  10 H :    0.096287
  11 H :    0.032858
  12 H :    0.036877
  13 H :    0.037567
  14 H :    0.028311
  15 H :    0.034930

  Mayer bond orders larger than 0.100000
B(  0-C ,  1-N ) :   0.9990 B(  0-C ,  2-C ) :   1.0608 B(  0-C , 11-H ) :   0.9633
B(  0-C , 12-H ) :   0.9644 B(  1-N ,  3-C ) :   1.1865 B(  1-N ,  8-H ) :   0.9319
B(  2-C , 13-H ) :   0.9702 B(  2-C , 14-H ) :   0.9699 B(  2-C , 15-H ) :   0.9712
B(  3-C ,  4-N ) :   1.2478 B(  3-C ,  5-C ) :   1.7131 B(  4-N ,  9-H ) :   0.9445
B(  4-N , 10-H ) :   0.9414 B(  5-C ,  6-H ) :   0.9586 B(  5-C ,  7-H ) :   0.9613

FINAL SINGLE POINT ENERGY      -266.827916690784

DIPOLE MOMENT
-------------
                                X             Y             Z
Electronic contribution:      1.07822       1.28409       2.10956
Nuclear contribution   :     -1.82946      -1.24287      -3.25410
                        -----------------------------------------
Total Dipole Moment    :     -0.75123       0.04123      -1.14454
                        -----------------------------------------
Magnitude (a.u.)       :      1.36968
Magnitude (Debye)      :      3.48146

Rotational constants in cm-1:     0.244672     0.074506     0.064043
Rotational constants in MHz :  7335.067153  2233.624025  1919.970379

                             ****ORCA TERMINATED NORMALLY****
TOTAL RUN TIME: 0 days 0 hours 0 minutes 19 seconds 251 msec
