                         Program Version 5.0.0 -  RELEASE  -
|  1> !LC-PBE RIJCOSX def2-TZVP def2/J TightSCF xyzfile
|  2>
|  3> *xyzfile 0 1 D3.xyz
|  4>
|  5> %MaxCore 64000
|  6>
|  7> %pal nprocs 18
|  8> end
|  9>
| 10> %scf
| 11>   MaxIter 150
| 12> end
| 13>
| 14>
| 15>                          ****END OF INPUT****

CARTESIAN COORDINATES (ANGSTROEM)
---------------------------------
  C      4.999862   -1.596133   -5.924876
  N      5.281560   -1.974132   -4.535764
  C      3.766779   -2.266110   -6.511752
  C      2.496702   -1.844161   -5.735704
  H      1.626416   -2.217434   -6.308950
  H      2.481824   -2.456069   -4.793414
  F      2.459729   -0.509204   -5.505757
  C      4.792500   -1.361316   -3.457295
  N      3.939898   -0.374925   -3.557359
  C      5.259860   -1.754224   -2.239133
  H      5.922824   -2.521451   -2.186720
  H      4.654678   -1.640404   -1.442016
  H      5.709139   -2.875599   -4.387021
  H      3.330101   -0.317639   -4.361247
  H      3.698494    0.114468   -2.708333
  H      4.843333   -0.517930   -5.943019
  H      5.901695   -1.822503   -6.496467
  H      3.886191   -3.357076   -6.533604
  H      3.685602   -1.922168   -7.547128

 Total Charge           Charge          ....    0
 Multiplicity           Mult            ....    1
 Number of Electrons    NEL             ....   64
 Basis Dimension        Dim             ....  314

ORBITAL ENERGIES
----------------

  NO   OCC          E(Eh)            E(eV)
   0   2.0000     -24.525367      -667.3692
   1   2.0000     -14.214637      -386.7999
   2   2.0000     -14.187079      -386.0500
   3   2.0000     -10.218059      -278.0475
   4   2.0000     -10.160272      -276.4751
   5   2.0000     -10.157747      -276.4063
   6   2.0000     -10.138482      -275.8821
   7   2.0000     -10.010338      -272.3951
   8   2.0000      -1.416864       -38.5548
   9   2.0000      -1.142473       -31.0883
  10   2.0000      -1.052973       -28.6528
  11   2.0000      -0.976367       -26.5683
  12   2.0000      -0.900147       -24.4942
  13   2.0000      -0.838074       -22.8051
  14   2.0000      -0.780402       -21.2358
  15   2.0000      -0.752258       -20.4700
  16   2.0000      -0.732419       -19.9301
  17   2.0000      -0.695366       -18.9219
  18   2.0000      -0.667012       -18.1503
  19   2.0000      -0.652727       -17.7616
  20   2.0000      -0.617357       -16.7991
  21   2.0000      -0.611350       -16.6357
  22   2.0000      -0.581697       -15.8288
  23   2.0000      -0.565062       -15.3761
  24   2.0000      -0.528025       -14.3683
  25   2.0000      -0.513791       -13.9810
  26   2.0000      -0.503746       -13.7076
  27   2.0000      -0.487944       -13.2776
  28   2.0000      -0.475497       -12.9389
  29   2.0000      -0.473939       -12.8965
  30   2.0000      -0.377918       -10.2837
  31   2.0000      -0.268449        -7.3049
  32   0.0000       0.106355         2.8941
  33   0.0000       0.137498         3.7415
  34   0.0000       0.142185         3.8690
  35   0.0000       0.147713         4.0195
  36   0.0000       0.165509         4.5037

MULLIKEN ATOMIC CHARGES
-----------------------
   0 C :   -0.370012
   1 N :   -0.303477
   2 C :   -0.219528
   3 C :   -0.152295
   4 H :    0.156357
   5 H :    0.184178
   6 F :   -0.176425
   7 C :    0.334233
   8 N :   -0.502304
   9 C :   -0.641852
  10 H :    0.095317
  11 H :    0.121767
  12 H :    0.245838
  13 H :    0.278773
  14 H :    0.256832
  15 H :    0.223202
  16 H :    0.169231
  17 H :    0.153538
  18 H :    0.146630
Sum of atomic charges:   -0.0000000

LOEWDIN ATOMIC CHARGES
----------------------
   0 C :   -0.309370
   1 N :    0.114664
   2 C :   -0.296463
   3 C :   -0.380193
   4 H :    0.136047
   5 H :    0.147885
   6 F :    0.173310
   7 C :   -0.483276
   8 N :    0.003431
   9 C :   -0.394785
  10 H :    0.095401
  11 H :    0.096010
  12 H :    0.195342
  13 H :    0.125679
  14 H :    0.183883
  15 H :    0.151429
  16 H :    0.142664
  17 H :    0.150263
  18 H :    0.148079

  Mayer bond orders larger than 0.100000
B(  0-C ,  1-N ) :   0.9202 B(  0-C ,  2-C ) :   0.9058 B(  0-C , 15-H ) :   0.9811
B(  0-C , 16-H ) :   0.9779 B(  1-N ,  7-C ) :   1.1491 B(  1-N , 12-H ) :   0.9254
B(  2-C ,  3-C ) :   0.9632 B(  2-C , 17-H ) :   0.9525 B(  2-C , 18-H ) :   0.9725
B(  3-C ,  4-H ) :   0.9730 B(  3-C ,  5-H ) :   0.9773 B(  3-C ,  6-F ) :   0.9466
B(  6-F , 13-H ) :   0.1060 B(  7-C ,  8-N ) :   1.1762 B(  7-C ,  9-C ) :   1.5843
B(  8-N , 13-H ) :   0.8584 B(  8-N , 14-H ) :   0.9248 B(  9-C , 10-H ) :   1.0293
B(  9-C , 11-H ) :   0.9892

FINAL SINGLE POINT ENERGY      -405.367134905909

DIPOLE MOMENT
-------------
                                X             Y             Z
Electronic contribution:     -3.51636       3.82197      -1.55936
Nuclear contribution   :      2.63642      -4.47741       0.00296
                        -----------------------------------------
Total Dipole Moment    :     -0.87994      -0.65543      -1.55640
                        -----------------------------------------
Magnitude (a.u.)       :      1.90428
Magnitude (Debye)      :      4.84029

Rotational constants in cm-1:     0.108041     0.051979     0.040387
Rotational constants in MHz :  3238.993235  1558.297571  1210.782552

                             ****ORCA TERMINATED NORMALLY****
TOTAL RUN TIME: 0 days 0 hours 0 minutes 24 seconds 67 msec
