                         Program Version 5.0.0 -  RELEASE  -
|  1> !BLYP D3BJ RIJCOSX def2-SVPD def2/J TightSCF
|  2> *xyz -1 1
|  3> C         -0.01741        0.08059       -2.77841
|  4> C         -0.90349       -0.87394       -1.98739
|  5> H         -0.50255       -1.89210       -2.08120
|  6> H         -1.91704       -0.89543       -2.40628
|  7> C         -0.96015       -0.52236       -0.48987
|  8> H         -1.69039       -1.20813       -0.02168
|  9> H         -1.41449        0.48633       -0.40668
| 10> O          0.26170       -0.58031        0.13861
| 11> H         -0.01329       -0.20776       -3.80881
| 12> H          0.98025        0.04284       -2.39348
| 13> H         -0.39697        1.07694       -2.68836
| 14> *
| 15>
| 16> %MaxCore 64000
| 17>
| 18> %pal nprocs 4
| 19> end
| 20>
| 21> %scf
| 22>   MaxIter 150
| 23> end
| 24>
| 25>
| 26>                          ****END OF INPUT****

CARTESIAN COORDINATES (ANGSTROEM)
---------------------------------
  C     -0.017410    0.080590   -2.778410
  C     -0.903490   -0.873940   -1.987390
  H     -0.502550   -1.892100   -2.081200
  H     -1.917040   -0.895430   -2.406280
  C     -0.960150   -0.522360   -0.489870
  H     -1.690390   -1.208130   -0.021680
  H     -1.414490    0.486330   -0.406680
  O      0.261700   -0.580310    0.138610
  H     -0.013290   -0.207760   -3.808810
  H      0.980250    0.042840   -2.393480
  H     -0.396970    1.076940   -2.688360

 Total Charge           Charge          ....   -1
 Multiplicity           Mult            ....    1
 Number of Electrons    NEL             ....   34
 Basis Dimension        Dim             ....  139

ORBITAL ENERGIES
----------------

  NO   OCC          E(Eh)            E(eV)
   0   2.0000     -18.473504      -502.6896
   1   2.0000      -9.741373      -265.0762
   2   2.0000      -9.740820      -265.0612
   3   2.0000      -9.732592      -264.8373
   4   2.0000      -0.590780       -16.0759
   5   2.0000      -0.501717       -13.6524
   6   2.0000      -0.393378       -10.7044
   7   2.0000      -0.301249        -8.1974
   8   2.0000      -0.222924        -6.0661
   9   2.0000      -0.216217        -5.8836
  10   2.0000      -0.172127        -4.6838
  11   2.0000      -0.142143        -3.8679
  12   2.0000      -0.118101        -3.2137
  13   2.0000      -0.110847        -3.0163
  14   2.0000      -0.069870        -1.9013
  15   2.0000       0.063463         1.7269
  16   2.0000       0.068664         1.8684
  17   0.0000       0.148405         4.0383
  18   0.0000       0.173389         4.7182
  19   0.0000       0.188129         5.1193
  20   0.0000       0.214159         5.8276
  21   0.0000       0.229170         6.2360

MULLIKEN ATOMIC CHARGES
-----------------------
   0 C :    0.957254
   1 C :   -0.297535
   2 H :   -0.166517
   3 H :   -0.195423
   4 C :    0.622258
   5 H :   -0.317349
   6 H :   -0.226175
   7 O :   -0.816963
   8 H :   -0.234150
   9 H :   -0.139176
  10 H :   -0.186224
Sum of atomic charges:   -1.0000000

LOEWDIN ATOMIC CHARGES
----------------------
   0 C :    0.094760
   1 C :   -0.107418
   2 H :   -0.003554
   3 H :   -0.022568
   4 C :   -0.216461
   5 H :   -0.045903
   6 H :   -0.039265
   7 O :   -0.523423
   8 H :   -0.055880
   9 H :   -0.038073
  10 H :   -0.042215

  Mayer bond orders larger than 0.100000
B(  0-C ,  1-C ) :   1.2686 B(  0-C ,  2-H ) :   0.1099 B(  0-C ,  3-H ) :   0.1134
B(  0-C ,  8-H ) :   0.6920 B(  0-C ,  9-H ) :   0.7487 B(  0-C , 10-H ) :   0.7464
B(  1-C ,  2-H ) :   0.9103 B(  1-C ,  3-H ) :   0.9679 B(  1-C ,  4-C ) :   1.0216
B(  1-C ,  5-H ) :   0.2018 B(  1-C ,  6-H ) :   0.1796 B(  1-C ,  7-O ) :   0.2192
B(  1-C ,  8-H ) :   0.2685 B(  1-C ,  9-H ) :   0.2610 B(  1-C , 10-H ) :   0.2432
B(  2-H ,  4-C ) :   0.1604 B(  3-H ,  4-C ) :   0.1246 B(  4-C ,  5-H ) :   0.8919
B(  4-C ,  6-H ) :   0.8899 B(  4-C ,  7-O ) :   1.1601

Dispersion correction           -0.013561534
FINAL SINGLE POINT ENERGY      -193.535615101658

DIPOLE MOMENT
-------------
                                X             Y             Z
Electronic contribution:      1.31901      -0.48490       2.79120
Nuclear contribution   :     -2.03764       0.64089      -4.61583
                        -----------------------------------------
Total Dipole Moment    :     -0.71864       0.15599      -1.82463
                        -----------------------------------------
Magnitude (a.u.)       :      1.96725
Magnitude (Debye)      :      5.00034

Rotational constants in cm-1:     0.508897     0.174909     0.148249
Rotational constants in MHz : 15256.351998  5243.652192  4444.387232

                             ****ORCA TERMINATED NORMALLY****
TOTAL RUN TIME: 0 days 0 hours 0 minutes 4 seconds 750 msec
