                         Program Version 5.0.0 -  RELEASE  -
|  1> !BLYP D3BJ RIJCOSX def2-SVPD def2/J TightSCF
|  2> *xyz 1 1
|  3> C          4.36645       -0.13321       -1.41606
|  4> C          4.50829       -0.93187       -2.72425
|  5> H          4.75372       -1.97205       -2.48841
|  6> C          3.29416       -0.91821       -3.65657
|  7> H          5.38564       -0.53624       -3.24264
|  8> C          3.05650       -0.32080       -0.70738
|  9> N          2.38983        0.71129       -0.24391
| 10> N          2.51600       -1.50772       -0.55023
| 11> H          2.96768       -2.32291       -0.95631
| 12> H          1.54987       -1.49063       -0.24988
| 13> H          2.74307        1.64947       -0.41280
| 14> H          1.44036        0.50278        0.03703
| 15> H          4.48784        0.93300       -1.61157
| 16> H          5.16967       -0.41443       -0.72982
| 17> H          3.50670       -1.50229       -4.52754
| 18> H          3.07837        0.08892       -3.94644
| 19> H          2.44880       -1.33173       -3.14739
| 20> *
| 21>
| 22> %MaxCore 64000
| 23>
| 24> %pal nprocs 4
| 25> end
| 26>
| 27> %scf
| 28>   MaxIter 150
| 29> end
| 30>
| 31>
| 32>                          ****END OF INPUT****

CARTESIAN COORDINATES (ANGSTROEM)
---------------------------------
  C      4.366450   -0.133210   -1.416060
  C      4.508290   -0.931870   -2.724250
  H      4.753720   -1.972050   -2.488410
  C      3.294160   -0.918210   -3.656570
  H      5.385640   -0.536240   -3.242640
  C      3.056500   -0.320800   -0.707380
  N      2.389830    0.711290   -0.243910
  N      2.516000   -1.507720   -0.550230
  H      2.967680   -2.322910   -0.956310
  H      1.549870   -1.490630   -0.249880
  H      2.743070    1.649470   -0.412800
  H      1.440360    0.502780    0.037030
  H      4.487840    0.933000   -1.611570
  H      5.169670   -0.414430   -0.729820
  H      3.506700   -1.502290   -4.527540
  H      3.078370    0.088920   -3.946440
  H      2.448800   -1.331730   -3.147390

 Total Charge           Charge          ....    1
 Multiplicity           Mult            ....    1
 Number of Electrons    NEL             ....   48
 Basis Dimension        Dim             ....  208

ORBITAL ENERGIES
----------------

  NO   OCC          E(Eh)            E(eV)
   0   2.0000     -14.268389      -388.2626
   1   2.0000     -14.266858      -388.2210
   2   2.0000     -10.232689      -278.4456
   3   2.0000     -10.118171      -275.3294
   4   2.0000     -10.085566      -274.4422
   5   2.0000     -10.053625      -273.5731
   6   2.0000      -1.111962       -30.2580
   7   2.0000      -1.013640       -27.5825
   8   2.0000      -0.889390       -24.2015
   9   2.0000      -0.810599       -22.0575
  10   2.0000      -0.764874       -20.8133
  11   2.0000      -0.727202       -19.7882
  12   2.0000      -0.708678       -19.2841
  13   2.0000      -0.670835       -18.2544
  14   2.0000      -0.651471       -17.7274
  15   2.0000      -0.604115       -16.4388
  16   2.0000      -0.579764       -15.7762
  17   2.0000      -0.545044       -14.8314
  18   2.0000      -0.530525       -14.4363
  19   2.0000      -0.513458       -13.9719
  20   2.0000      -0.465198       -12.6587
  21   2.0000      -0.460006       -12.5174
  22   2.0000      -0.452381       -12.3099
  23   2.0000      -0.444313       -12.0904
  24   0.0000      -0.243244        -6.6190
  25   0.0000      -0.186724        -5.0810
  26   0.0000      -0.144866        -3.9420
  27   0.0000      -0.140842        -3.8325
  28   0.0000      -0.107687        -2.9303

MULLIKEN ATOMIC CHARGES
-----------------------
   0 C :    0.538737
   1 C :   -0.119951
   2 H :   -0.139019
   3 C :    1.156735
   4 H :   -0.338824
   5 C :    0.185112
   6 N :    0.393539
   7 N :    0.367911
   8 H :   -0.031028
   9 H :   -0.152200
  10 H :   -0.068690
  11 H :   -0.149282
  12 H :    0.027349
  13 H :   -0.154390
  14 H :   -0.190582
  15 H :   -0.127173
  16 H :   -0.198243
Sum of atomic charges:    1.0000000

LOEWDIN ATOMIC CHARGES
----------------------
   0 C :    0.063138
   1 C :   -0.036850
   2 H :    0.020581
   3 C :    0.157820
   4 H :    0.035900
   5 C :   -0.068524
   6 N :    0.303870
   7 N :    0.306927
   8 H :    0.051036
   9 H :    0.041334
  10 H :    0.053999
  11 H :    0.038859
  12 H :    0.033215
  13 H :    0.051714
  14 H :   -0.002137
  15 H :   -0.009556
  16 H :   -0.041322

  Mayer bond orders larger than 0.100000
B(  0-C ,  1-C ) :   1.2155 B(  0-C ,  2-H ) :   0.1527 B(  0-C ,  4-H ) :   0.1729
B(  0-C ,  5-C ) :   1.1864 B(  0-C , 12-H ) :   0.7066 B(  0-C , 13-H ) :   0.6462
B(  1-C ,  2-H ) :   0.8137 B(  1-C ,  3-C ) :   1.3568 B(  1-C ,  4-H ) :   0.8423
B(  1-C ,  5-C ) :   0.1151 B(  1-C , 12-H ) :   0.1925 B(  1-C , 13-H ) :   0.1450
B(  1-C , 14-H ) :   0.2906 B(  1-C , 15-H ) :   0.2661 B(  1-C , 16-H ) :   0.2840
B(  3-C , 14-H ) :   0.6293 B(  3-C , 15-H ) :   0.6817 B(  3-C , 16-H ) :   0.7135
B(  5-C ,  6-N ) :   1.1727 B(  5-C ,  7-N ) :   1.2551 B(  5-C ,  9-H ) :  -0.1253
B(  5-C , 12-H ) :   0.2175 B(  5-C , 13-H ) :   0.2137 B(  6-N ,  7-N ) :   0.2313
B(  6-N , 10-H ) :   1.1385 B(  6-N , 11-H ) :   1.1578 B(  7-N ,  8-H ) :   1.0523
B(  7-N ,  9-H ) :   1.2259 B(  8-H ,  9-H ) :  -0.1829 B( 10-H , 11-H ) :  -0.1517

Dispersion correction           -0.027929552
FINAL SINGLE POINT ENERGY      -268.048117822432

DIPOLE MOMENT
-------------
                                X             Y             Z
Electronic contribution:     -1.79319       0.88714       5.03695
Nuclear contribution   :      0.92830      -0.63755      -3.99475
                        -----------------------------------------
Total Dipole Moment    :     -0.86489       0.24959       1.04220
                        -----------------------------------------
Magnitude (a.u.)       :      1.37714
Magnitude (Debye)      :      3.50040

Rotational constants in cm-1:     0.183706     0.077449     0.071296
Rotational constants in MHz :  5507.368439  2321.870034  2137.394204

                             ****ORCA TERMINATED NORMALLY****
TOTAL RUN TIME: 0 days 0 hours 0 minutes 7 seconds 988 msec
