                         Program Version 5.0.0 -  RELEASE  -
|  1> !BLYP D3BJ RIJCOSX def2-SVPD def2/J TightSCF xyzfile
|  2>
|  3> *xyzfile 0 1 B.xyz
|  4>
|  5> %MaxCore 64000
|  6>
|  7> %pal nprocs 4
|  8> end
|  9>
| 10> %scf
| 11>   MaxIter 150
| 12> end
| 13>
| 14>
| 15>                          ****END OF INPUT****

CARTESIAN COORDINATES (ANGSTROEM)
---------------------------------
  C      4.366454   -0.133215   -1.416062
  C      4.508292   -0.931872   -2.724249
  H      4.753716   -1.972051   -2.488408
  C      3.294164   -0.918214   -3.656570
  H      5.385637   -0.536236   -3.242640
  H      2.483463   -1.477378   -3.185764
  H      3.553092   -1.478495   -4.560331
  C      2.772335    0.460100   -4.051448
  H      2.608762    1.065107   -3.155194
  C      1.465354    0.410537   -4.853644
  H      3.532940    0.988848   -4.635671
  C      0.326171   -0.375613   -4.192580
  H      1.666704   -0.022269   -5.839323
  H      1.138198    1.439246   -5.035449
  C     -0.017405    0.080588   -2.778406
  H      0.585573   -1.439385   -4.168057
  H     -0.560005   -0.311425   -4.831461
  H      0.902090    0.201296   -2.206729
  C     -0.903495   -0.873945   -1.987388
  H     -0.479549    1.074657   -2.811915
  H     -0.502554   -1.892096   -2.081204
  H     -1.917039   -0.895427   -2.406277
  C     -0.960148   -0.522365   -0.489867
  H     -1.690392   -1.208130   -0.021677
  H     -1.414490    0.486329   -0.406677
  O      0.261703   -0.580307    0.138611
  C      3.056503   -0.320797   -0.707384
  N      2.389825    0.711285   -0.243909
  N      2.515999   -1.507721   -0.550229
  H      2.967683   -2.322915   -0.956305
  H      1.549872   -1.490634   -0.249876
  H      2.743071    1.649471   -0.412802
  H      1.440364    0.502778    0.037031
  H      4.487835    0.932997   -1.611569
  H      5.169672   -0.414432   -0.729817

 Total Charge           Charge          ....    0
 Multiplicity           Mult            ....    1
 Number of Electrons    NEL             ....  104
 Basis Dimension        Dim             ....  439

ORBITAL ENERGIES
----------------

  NO   OCC          E(Eh)            E(eV)
   0   2.0000     -18.672955      -508.1169
   1   2.0000     -14.051060      -382.3488
   2   2.0000     -14.050761      -382.3406
   3   2.0000     -10.035104      -273.0691
   4   2.0000      -9.963772      -271.1280
   5   2.0000      -9.949382      -270.7365
   6   2.0000      -9.929572      -270.1974
   7   2.0000      -9.923759      -270.0392
   8   2.0000      -9.915436      -269.8127
   9   2.0000      -9.907054      -269.5846
  10   2.0000      -9.905401      -269.5397
  11   2.0000      -9.892924      -269.2002
  12   2.0000      -9.881148      -268.8797
  13   2.0000      -0.908199       -24.7134
  14   2.0000      -0.809170       -22.0186
  15   2.0000      -0.793198       -21.5840
  16   2.0000      -0.746106       -20.3026
  17   2.0000      -0.712416       -19.3858
  18   2.0000      -0.675865       -18.3912
  19   2.0000      -0.639494       -17.4015
  20   2.0000      -0.604711       -16.4550
  21   2.0000      -0.571083       -15.5400
  22   2.0000      -0.553269       -15.0552
  23   2.0000      -0.542709       -14.7679
  24   2.0000      -0.506482       -13.7821
  25   2.0000      -0.492128       -13.3915
  26   2.0000      -0.486356       -13.2344
  27   2.0000      -0.462274       -12.5791
  28   2.0000      -0.451582       -12.2882
  29   2.0000      -0.446587       -12.1523
  30   2.0000      -0.429789       -11.6952
  31   2.0000      -0.410868       -11.1803
  32   2.0000      -0.396017       -10.7762
  33   2.0000      -0.379997       -10.3403
  34   2.0000      -0.370657       -10.0861
  35   2.0000      -0.364127        -9.9084
  36   2.0000      -0.358490        -9.7550
  37   2.0000      -0.353268        -9.6129
  38   2.0000      -0.333820        -9.0837
  39   2.0000      -0.325212        -8.8495
  40   2.0000      -0.317289        -8.6339
  41   2.0000      -0.308752        -8.4016
  42   2.0000      -0.299510        -8.1501
  43   2.0000      -0.295422        -8.0389
  44   2.0000      -0.277633        -7.5548
  45   2.0000      -0.271803        -7.3961
  46   2.0000      -0.262979        -7.1560
  47   2.0000      -0.259189        -7.0529
  48   2.0000      -0.255165        -6.9434
  49   2.0000      -0.244879        -6.6635
  50   2.0000      -0.142281        -3.8717
  51   2.0000      -0.136911        -3.7255
  52   0.0000      -0.053177        -1.4470
  53   0.0000      -0.022088        -0.6010
  54   0.0000      -0.006242        -0.1698
  55   0.0000       0.010081         0.2743
  56   0.0000       0.016370         0.4454

MULLIKEN ATOMIC CHARGES
-----------------------
   0 C :    0.644425
   1 C :    0.760948
   2 H :   -0.142099
   3 C :    0.183842
   4 H :   -0.309192
   5 H :   -0.143375
   6 H :   -0.288959
   7 C :    0.287096
   8 H :   -0.081986
   9 C :    1.051153
  10 H :   -0.561985
  11 C :    0.398922
  12 H :   -0.182707
  13 H :   -0.144951
  14 C :    0.940263
  15 H :    0.038659
  16 H :   -0.648622
  17 H :   -1.173422
  18 C :    0.422056
  19 H :   -0.099148
  20 H :   -0.137202
  21 H :   -0.373717
  22 C :    1.166589
  23 H :   -0.332181
  24 H :   -0.214200
  25 O :   -1.019582
  26 C :   -0.201696
  27 N :    0.754186
  28 N :    0.786019
  29 H :   -0.156059
  30 H :   -0.398178
  31 H :   -0.156907
  32 H :   -0.332429
  33 H :    0.116984
  34 H :   -0.452544
Sum of atomic charges:    0.0000000

LOEWDIN ATOMIC CHARGES
----------------------
   0 C :    0.047644
   1 C :   -0.008057
   2 H :    0.012631
   3 C :   -0.019602
   4 H :    0.020766
   5 H :   -0.011588
   6 H :    0.027536
   7 C :   -0.023051
   8 H :   -0.006099
   9 C :   -0.016622
  10 H :    0.019277
  11 C :   -0.027998
  12 H :    0.015119
  13 H :    0.017117
  14 C :   -0.026851
  15 H :    0.004610
  16 H :    0.017020
  17 H :   -0.035483
  18 C :   -0.023565
  19 H :    0.029588
  20 H :    0.012495
  21 H :    0.013271
  22 C :   -0.054109
  23 H :    0.000483
  24 H :    0.005040
  25 O :   -0.394776
  26 C :   -0.089351
  27 N :    0.299572
  28 N :    0.309754
  29 H :    0.024044
  30 H :   -0.102032
  31 H :    0.026644
  32 H :   -0.107919
  33 H :    0.015046
  34 H :    0.029445

  Mayer bond orders larger than 0.100000
B(  0-C ,  1-C ) :   1.1369 B(  0-C ,  2-H ) :   0.1223 B(  0-C ,  3-C ) :   0.1807
B(  0-C ,  4-H ) :   0.2309 B(  0-C , 26-C ) :   1.1564 B(  0-C , 33-H ) :   0.6454
B(  0-C , 34-H ) :   0.4607 B(  1-C ,  2-H ) :   0.5226 B(  1-C ,  3-C ) :   1.2153
B(  1-C ,  4-H ) :   0.6167 B(  1-C ,  5-H ) :   0.1749 B(  1-C ,  6-H ) :   0.1452
B(  1-C , 26-C ) :   0.1578 B(  1-C , 33-H ) :   0.2024 B(  1-C , 34-H ) :   0.1465
B(  2-H ,  3-C ) :   0.3447 B(  2-H ,  4-H ) :  -0.2128 B(  3-C ,  4-H ) :   0.2107
B(  3-C ,  5-H ) :   0.7402 B(  3-C ,  6-H ) :   0.6723 B(  3-C ,  7-C ) :   1.2367
B(  3-C ,  8-H ) :   0.1885 B(  3-C , 10-H ) :   0.1962 B(  5-H ,  7-C ) :   0.2047
B(  5-H , 15-H ) :   0.2261 B(  5-H , 16-H ) :  -0.1316 B(  6-H ,  7-C ) :   0.1723
B(  7-C ,  8-H ) :   0.7468 B(  7-C ,  9-C ) :   1.0706 B(  7-C , 10-H ) :   0.7683
B(  7-C , 11-C ) :   0.2675 B(  7-C , 12-H ) :   0.1475 B(  7-C , 13-H ) :   0.3578
B(  7-C , 15-H ) :  -0.1064 B(  8-H , 17-H ) :   0.2677 B(  9-C , 11-C ) :   1.0940
B(  9-C , 12-H ) :   0.5445 B(  9-C , 13-H ) :   0.4965 B( 10-H , 17-H ) :  -0.1085
B( 11-C , 12-H ) :   0.2645 B( 11-C , 13-H ) :   0.1771 B( 11-C , 14-C ) :   1.0403
B( 11-C , 15-H ) :   0.7584 B( 11-C , 16-H ) :   0.7582 B( 11-C , 17-H ) :   0.2966
B( 11-C , 18-C ) :   0.1079 B( 11-C , 19-H ) :   0.1418 B( 12-H , 13-H ) :  -0.1836
B( 14-C , 15-H ) :   0.1917 B( 14-C , 16-H ) :   0.2634 B( 14-C , 17-H ) :  -0.4004
B( 14-C , 18-C ) :   1.1033 B( 14-C , 19-H ) :   0.5273 B( 14-C , 20-H ) :   0.1833
B( 14-C , 21-H ) :   0.3168 B( 14-C , 22-C ) :   0.1918 B( 15-H , 16-H ) :  -0.1544
B( 17-H , 18-C ) :   0.3176 B( 17-H , 19-H ) :   0.2039 B( 17-H , 26-C ) :   0.1605
B( 18-C , 19-H ) :   0.1277 B( 18-C , 20-H ) :   0.8146 B( 18-C , 21-H ) :   0.6815
B( 18-C , 22-C ) :   0.9745 B( 18-C , 23-H ) :   0.2930 B( 18-C , 24-H ) :   0.1458
B( 18-C , 25-O ) :   0.1225 B( 20-H , 22-C ) :   0.1260 B( 22-C , 23-H ) :   0.5775
B( 22-C , 24-H ) :   0.6842 B( 22-C , 25-O ) :   1.0735 B( 23-H , 24-H ) :  -0.1017
B( 23-H , 25-O ) :   0.1031 B( 24-H , 25-O ) :   0.2323 B( 25-O , 26-C ) :   0.1428
B( 25-O , 27-N ) :  -0.1031 B( 25-O , 30-H ) :   0.3783 B( 25-O , 32-H ) :   0.3447
B( 26-C , 27-N ) :   1.0622 B( 26-C , 28-N ) :   1.0983 B( 26-C , 32-H ) :   0.1489
B( 26-C , 33-H ) :   0.2875 B( 26-C , 34-H ) :   0.3630 B( 27-N , 28-N ) :   0.2799
B( 27-N , 31-H ) :   1.0920 B( 27-N , 32-H ) :   0.9737 B( 28-N , 29-H ) :   1.0690
B( 28-N , 30-H ) :   1.0181 B( 29-H , 30-H ) :  -0.2574 B( 31-H , 32-H ) :  -0.1782
B( 33-H , 34-H ) :  -0.1348

Dispersion correction           -0.078434538
FINAL SINGLE POINT ENERGY      -578.417246838908

DIPOLE MOMENT
-------------
                                X             Y             Z
Electronic contribution:      2.64847      -0.27882       7.59861
Nuclear contribution   :     -0.17996       0.53390      -8.68067
                        -----------------------------------------
Total Dipole Moment    :      2.46851       0.25508      -1.08206
                        -----------------------------------------
Magnitude (a.u.)       :      2.70730
Magnitude (Debye)      :      6.88140

Rotational constants in cm-1:     0.028240     0.022734     0.014600
Rotational constants in MHz :   846.611263   681.554306   437.693928

                             ****ORCA TERMINATED NORMALLY****
TOTAL RUN TIME: 0 days 0 hours 0 minutes 48 seconds 108 msec
