                         Program Version 5.0.0 -  RELEASE  -
|  1> !BLYP D3BJ RIJCOSX def2-SVPD def2/J TightSCF
|  2> *xyz 0 1
|  3> C         -0.01741        0.08059       -2.77841
|  4> C         -0.90349       -0.87394       -1.98739
|  5> H         -0.50255       -1.89210       -2.08120
|  6> H         -1.91704       -0.89543       -2.40628
|  7> C         -0.96015       -0.52236       -0.48987
|  8> H         -1.69039       -1.20813       -0.02168
|  9> H         -1.41449        0.48633       -0.40668
| 10> F          0.26170       -0.58031        0.13861
| 11> H         -0.01329       -0.20776       -3.80881
| 12> H          0.98025        0.04284       -2.39348
| 13> H         -0.39697        1.07694       -2.68836
| 14> *
| 15>
| 16> %MaxCore 64000
| 17>
| 18> %pal nprocs 4
| 19> end
| 20>
| 21> %scf
| 22>   MaxIter 150
| 23> end
| 24>
| 25>
| 26>                          ****END OF INPUT****

CARTESIAN COORDINATES (ANGSTROEM)
---------------------------------
  C     -0.017410    0.080590   -2.778410
  C     -0.903490   -0.873940   -1.987390
  H     -0.502550   -1.892100   -2.081200
  H     -1.917040   -0.895430   -2.406280
  C     -0.960150   -0.522360   -0.489870
  H     -1.690390   -1.208130   -0.021680
  H     -1.414490    0.486330   -0.406680
  F      0.261700   -0.580310    0.138610
  H     -0.013290   -0.207760   -3.808810
  H      0.980250    0.042840   -2.393480
  H     -0.396970    1.076940   -2.688360

 Total Charge           Charge          ....    0
 Multiplicity           Mult            ....    1
 Number of Electrons    NEL             ....   34
 Basis Dimension        Dim             ....  139

ORBITAL ENERGIES
----------------

  NO   OCC          E(Eh)            E(eV)
   0   2.0000     -24.294681      -661.0919
   1   2.0000      -9.998792      -272.0810
   2   2.0000      -9.929717      -270.2013
   3   2.0000      -9.910659      -269.6827
   4   2.0000      -1.076598       -29.2957
   5   2.0000      -0.705374       -19.1942
   6   2.0000      -0.612543       -16.6682
   7   2.0000      -0.528741       -14.3878
   8   2.0000      -0.453018       -12.3272
   9   2.0000      -0.434208       -11.8154
  10   2.0000      -0.413929       -11.2636
  11   2.0000      -0.384397       -10.4600
  12   2.0000      -0.347895        -9.4667
  13   2.0000      -0.327984        -8.9249
  14   2.0000      -0.308656        -8.3990
  15   2.0000      -0.280839        -7.6420
  16   2.0000      -0.279611        -7.6086
  17   0.0000       0.002339         0.0636
  18   0.0000       0.028891         0.7862
  19   0.0000       0.036810         1.0017
  20   0.0000       0.044185         1.2023
  21   0.0000       0.066181         1.8009

MULLIKEN ATOMIC CHARGES
-----------------------
   0 C :    1.005576
   1 C :   -0.191502
   2 H :   -0.193719
   3 H :   -0.211136
   4 C :    0.937495
   5 H :   -0.243108
   6 H :   -0.165142
   7 F :   -0.388709
   8 H :   -0.216033
   9 H :   -0.152360
  10 H :   -0.181363
Sum of atomic charges:    0.0000000

LOEWDIN ATOMIC CHARGES
----------------------
   0 C :    0.133359
   1 C :   -0.057797
   2 H :    0.020090
   3 H :    0.022027
   4 C :    0.090224
   5 H :    0.022026
   6 H :    0.026815
   7 F :   -0.189613
   8 H :   -0.024123
   9 H :   -0.020321
  10 H :   -0.022686

  Mayer bond orders larger than 0.100000
B(  0-C ,  1-C ) :   1.3260 B(  0-C ,  8-H ) :   0.7075 B(  0-C ,  9-H ) :   0.7339
B(  0-C , 10-H ) :   0.7285 B(  1-C ,  2-H ) :   0.8703 B(  1-C ,  3-H ) :   0.8850
B(  1-C ,  4-C ) :   1.1837 B(  1-C ,  5-H ) :   0.1599 B(  1-C ,  6-H ) :   0.1350
B(  1-C ,  8-H ) :   0.2531 B(  1-C ,  9-H ) :   0.2398 B(  1-C , 10-H ) :   0.2205
B(  2-H ,  4-C ) :   0.1094 B(  4-C ,  5-H ) :   0.8250 B(  4-C ,  6-H ) :   0.8344
B(  4-C ,  7-F ) :   0.7975

Dispersion correction           -0.012792615
FINAL SINGLE POINT ENERGY      -218.145845724771

DIPOLE MOMENT
-------------
                                X             Y             Z
Electronic contribution:      2.27154      -0.77850       5.89873
Nuclear contribution   :     -2.83598       0.77614      -6.32113
                        -----------------------------------------
Total Dipole Moment    :     -0.56444      -0.00236      -0.42241
                        -----------------------------------------
Magnitude (a.u.)       :      0.70500
Magnitude (Debye)      :      1.79197

Rotational constants in cm-1:     0.494803     0.164634     0.139827
Rotational constants in MHz : 14833.819345  4935.593559  4191.919783

                             ****ORCA TERMINATED NORMALLY****
TOTAL RUN TIME: 0 days 0 hours 0 minutes 3 seconds 806 msec
