                         Program Version 5.0.0 -  RELEASE  -
|  1> !BLYP D3BJ RIJCOSX def2-SVPD def2/J TightSCF
|  2> *xyz 0 1
|  3> C          4.36645       -0.13321       -1.41606
|  4> C          4.50829       -0.93187       -2.72425
|  5> H          4.75372       -1.97205       -2.48841
|  6> C          3.29416       -0.91821       -3.65657
|  7> H          5.38564       -0.53624       -3.24264
|  8> C          3.05650       -0.32080       -0.70738
|  9> C          2.38983        0.71129       -0.24391
| 10> N          2.51600       -1.50772       -0.55023
| 11> H          2.96768       -2.32291       -0.95631
| 12> H          1.54987       -1.49063       -0.24988
| 13> H          2.74307        1.64947       -0.41280
| 14> H          1.44036        0.50278        0.03703
| 15> H          4.48784        0.93300       -1.61157
| 16> H          5.16967       -0.41443       -0.72982
| 17> H          3.50670       -1.50229       -4.52754
| 18> H          3.07837        0.08892       -3.94644
| 19> H          2.44880       -1.33173       -3.14739
| 20> *
| 21>
| 22> %MaxCore 64000
| 23>
| 24> %pal nprocs 4
| 25> end
| 26>
| 27> %scf
| 28>   MaxIter 150
| 29> end
| 30>
| 31>
| 32>                          ****END OF INPUT****

CARTESIAN COORDINATES (ANGSTROEM)
---------------------------------
  C      4.366450   -0.133210   -1.416060
  C      4.508290   -0.931870   -2.724250
  H      4.753720   -1.972050   -2.488410
  C      3.294160   -0.918210   -3.656570
  H      5.385640   -0.536240   -3.242640
  C      3.056500   -0.320800   -0.707380
  C      2.389830    0.711290   -0.243910
  N      2.516000   -1.507720   -0.550230
  H      2.967680   -2.322910   -0.956310
  H      1.549870   -1.490630   -0.249880
  H      2.743070    1.649470   -0.412800
  H      1.440360    0.502780    0.037030
  H      4.487840    0.933000   -1.611570
  H      5.169670   -0.414430   -0.729820
  H      3.506700   -1.502290   -4.527540
  H      3.078370    0.088920   -3.946440
  H      2.448800   -1.331730   -3.147390

 Total Charge           Charge          ....    0
 Multiplicity           Mult            ....    1
 Number of Electrons    NEL             ....   48
 Basis Dimension        Dim             ....  208

ORBITAL ENERGIES
----------------

  NO   OCC          E(Eh)            E(eV)
   0   2.0000     -14.025205      -381.6452
   1   2.0000      -9.935308      -270.3535
   2   2.0000      -9.923370      -270.0286
   3   2.0000      -9.921001      -269.9642
   4   2.0000      -9.905803      -269.5506
   5   2.0000      -9.855441      -268.1802
   6   2.0000      -0.839225       -22.8365
   7   2.0000      -0.706501       -19.2249
   8   2.0000      -0.654446       -17.8084
   9   2.0000      -0.607848       -16.5404
  10   2.0000      -0.533960       -14.5298
  11   2.0000      -0.498287       -13.5591
  12   2.0000      -0.476538       -12.9673
  13   2.0000      -0.406501       -11.0614
  14   2.0000      -0.403807       -10.9882
  15   2.0000      -0.399024       -10.8580
  16   2.0000      -0.347042        -9.4435
  17   2.0000      -0.345326        -9.3968
  18   2.0000      -0.333678        -9.0798
  19   2.0000      -0.316430        -8.6105
  20   2.0000      -0.290283        -7.8990
  21   2.0000      -0.289403        -7.8751
  22   2.0000      -0.276699        -7.5294
  23   2.0000      -0.154880        -4.2145
  24   0.0000      -0.007020        -0.1910
  25   0.0000       0.008779         0.2389
  26   0.0000       0.028566         0.7773
  27   0.0000       0.032292         0.8787
  28   0.0000       0.040744         1.1087

MULLIKEN ATOMIC CHARGES
-----------------------
   0 C :    0.693576
   1 C :   -0.129799
   2 H :   -0.170461
   3 C :    1.159834
   4 H :   -0.347275
   5 C :   -0.519968
   6 C :    0.636523
   7 N :    0.545712
   8 H :   -0.156732
   9 H :   -0.182271
  10 H :   -0.300280
  11 H :   -0.521402
  12 H :    0.092574
  13 H :   -0.237125
  14 H :   -0.182050
  15 H :   -0.158811
  16 H :   -0.222044
Sum of atomic charges:    0.0000000

LOEWDIN ATOMIC CHARGES
----------------------
   0 C :    0.023190
   1 C :   -0.062157
   2 H :    0.004259
   3 C :    0.139122
   4 H :    0.011543
   5 C :   -0.271726
   6 C :    0.185650
   7 N :    0.193217
   8 H :   -0.001458
   9 H :    0.001715
  10 H :   -0.084022
  11 H :   -0.090747
  12 H :    0.017820
  13 H :    0.019974
  14 H :   -0.024622
  15 H :   -0.019287
  16 H :   -0.042468

  Mayer bond orders larger than 0.100000
B(  0-C ,  1-C ) :   1.1738 B(  0-C ,  2-H ) :   0.1977 B(  0-C ,  4-H ) :   0.2131
B(  0-C ,  5-C ) :   1.2256 B(  0-C ,  6-C ) :   0.1077 B(  0-C , 10-H ) :  -0.1195
B(  0-C , 12-H ) :   0.7201 B(  0-C , 13-H ) :   0.5494 B(  1-C ,  2-H ) :   0.7793
B(  1-C ,  3-C ) :   1.3308 B(  1-C ,  4-H ) :   0.8067 B(  1-C ,  5-C ) :   0.1867
B(  1-C , 12-H ) :   0.2073 B(  1-C , 13-H ) :   0.1429 B(  1-C , 14-H ) :   0.2991
B(  1-C , 15-H ) :   0.2732 B(  1-C , 16-H ) :   0.2841 B(  2-H ,  3-C ) :   0.1214
B(  3-C ,  4-H ) :   0.1024 B(  3-C , 14-H ) :   0.5981 B(  3-C , 15-H ) :   0.6728
B(  3-C , 16-H ) :   0.7255 B(  5-C ,  6-C ) :   1.6627 B(  5-C ,  7-N ) :   1.3148
B(  5-C ,  8-H ) :   0.1053 B(  5-C , 11-H ) :   0.4232 B(  5-C , 12-H ) :   0.1217
B(  5-C , 13-H ) :   0.3194 B(  6-C ,  7-N ) :   0.3677 B(  6-C , 10-H ) :   0.9199
B(  6-C , 11-H ) :   0.4241 B(  7-N ,  8-H ) :   0.9991 B(  7-N ,  9-H ) :   1.0832
B(  8-H ,  9-H ) :  -0.1557 B( 15-H , 16-H ) :   0.1093

Dispersion correction           -0.028862466
FINAL SINGLE POINT ENERGY      -251.578947330941

DIPOLE MOMENT
-------------
                                X             Y             Z
Electronic contribution:     -0.65258      -0.29685       3.31491
Nuclear contribution   :      0.70803      -0.34641      -3.68680
                        -----------------------------------------
Total Dipole Moment    :      0.05545      -0.64326      -0.37189
                        -----------------------------------------
Magnitude (a.u.)       :      0.74509
Magnitude (Debye)      :      1.89388

Rotational constants in cm-1:     0.186653     0.080341     0.073591
Rotational constants in MHz :  5595.710092  2408.571280  2206.200061

                             ****ORCA TERMINATED NORMALLY****
TOTAL RUN TIME: 0 days 0 hours 0 minutes 8 seconds 658 msec
