                         Program Version 5.0.0 -  RELEASE  -
|  1> !BLYP D3BJ RIJCOSX def2-SVPD def2/J TightSCF
|  2> *xyz 0 1
|  3> C          4.36645       -0.13321       -1.41606
|  4> C          4.50829       -0.93187       -2.72425
|  5> H          4.75372       -1.97205       -2.48841
|  6> C          3.29416       -0.91821       -3.65657
|  7> H          5.38564       -0.53624       -3.24264
|  8> C          3.05650       -0.32080       -0.70738
|  9> N          2.38983        0.71129       -0.24391
| 10> C          2.51600       -1.50772       -0.55023
| 11> H          2.96768       -2.32291       -0.95631
| 12> H          1.54987       -1.49063       -0.24988
| 13> H          2.74307        1.64947       -0.41280
| 14> H          1.44036        0.50278        0.03703
| 15> H          4.48784        0.93300       -1.61157
| 16> H          5.16967       -0.41443       -0.72982
| 17> H          3.50670       -1.50229       -4.52754
| 18> H          3.07837        0.08892       -3.94644
| 19> H          2.44880       -1.33173       -3.14739
| 20> *
| 21>
| 22> %MaxCore 64000
| 23>
| 24> %pal nprocs 4
| 25> end
| 26>
| 27> %scf
| 28>   MaxIter 150
| 29> end
| 30>
| 31>
| 32>                          ****END OF INPUT****

CARTESIAN COORDINATES (ANGSTROEM)
---------------------------------
  C      4.366450   -0.133210   -1.416060
  C      4.508290   -0.931870   -2.724250
  H      4.753720   -1.972050   -2.488410
  C      3.294160   -0.918210   -3.656570
  H      5.385640   -0.536240   -3.242640
  C      3.056500   -0.320800   -0.707380
  N      2.389830    0.711290   -0.243910
  C      2.516000   -1.507720   -0.550230
  H      2.967680   -2.322910   -0.956310
  H      1.549870   -1.490630   -0.249880
  H      2.743070    1.649470   -0.412800
  H      1.440360    0.502780    0.037030
  H      4.487840    0.933000   -1.611570
  H      5.169670   -0.414430   -0.729820
  H      3.506700   -1.502290   -4.527540
  H      3.078370    0.088920   -3.946440
  H      2.448800   -1.331730   -3.147390

 Total Charge           Charge          ....    0
 Multiplicity           Mult            ....    1
 Number of Electrons    NEL             ....   48
 Basis Dimension        Dim             ....  208

ORBITAL ENERGIES
----------------

  NO   OCC          E(Eh)            E(eV)
   0   2.0000     -14.025669      -381.6579
   1   2.0000      -9.935299      -270.3532
   2   2.0000      -9.922867      -270.0150
   3   2.0000      -9.918295      -269.8905
   4   2.0000      -9.898647      -269.3559
   5   2.0000      -9.853512      -268.1277
   6   2.0000      -0.839033       -22.8312
   7   2.0000      -0.706925       -19.2364
   8   2.0000      -0.643426       -17.5085
   9   2.0000      -0.611880       -16.6501
  10   2.0000      -0.537590       -14.6286
  11   2.0000      -0.489076       -13.3084
  12   2.0000      -0.471216       -12.8224
  13   2.0000      -0.426245       -11.5987
  14   2.0000      -0.400372       -10.8947
  15   2.0000      -0.378183       -10.2909
  16   2.0000      -0.354743        -9.6531
  17   2.0000      -0.342639        -9.3237
  18   2.0000      -0.322978        -8.7887
  19   2.0000      -0.313377        -8.5274
  20   2.0000      -0.292918        -7.9707
  21   2.0000      -0.282077        -7.6757
  22   2.0000      -0.278531        -7.5792
  23   2.0000      -0.152510        -4.1500
  24   0.0000      -0.001716        -0.0467
  25   0.0000       0.006620         0.1801
  26   0.0000       0.022983         0.6254
  27   0.0000       0.033688         0.9167
  28   0.0000       0.045966         1.2508

MULLIKEN ATOMIC CHARGES
-----------------------
   0 C :    0.872053
   1 C :   -0.157921
   2 H :   -0.117201
   3 C :    1.157012
   4 H :   -0.370730
   5 C :   -0.428549
   6 N :    0.497010
   7 C :    0.791375
   8 H :   -0.259171
   9 H :   -0.690642
  10 H :   -0.231000
  11 H :   -0.144823
  12 H :   -0.103551
  13 H :   -0.250900
  14 H :   -0.215394
  15 H :   -0.161024
  16 H :   -0.186545
Sum of atomic charges:   -0.0000000

LOEWDIN ATOMIC CHARGES
----------------------
   0 C :    0.022985
   1 C :   -0.056621
   2 H :    0.011518
   3 C :    0.140429
   4 H :    0.010259
   5 C :   -0.261710
   6 N :    0.190071
   7 C :    0.177979
   8 H :   -0.079351
   9 H :   -0.089401
  10 H :   -0.004494
  11 H :   -0.000981
  12 H :    0.005848
  13 H :    0.022849
  14 H :   -0.024950
  15 H :   -0.023147
  16 H :   -0.041284

  Mayer bond orders larger than 0.100000
B(  0-C ,  1-C ) :   1.2039 B(  0-C ,  2-H ) :   0.1514 B(  0-C ,  4-H ) :   0.2211
B(  0-C ,  5-C ) :   1.0654 B(  0-C , 12-H ) :   0.4733 B(  0-C , 13-H ) :   0.6522
B(  1-C ,  2-H ) :   0.7921 B(  1-C ,  3-C ) :   1.3384 B(  1-C ,  4-H ) :   0.7944
B(  1-C ,  5-C ) :   0.1256 B(  1-C , 12-H ) :   0.1938 B(  1-C , 13-H ) :   0.1765
B(  1-C , 14-H ) :   0.3094 B(  1-C , 15-H ) :   0.2809 B(  1-C , 16-H ) :   0.3074
B(  2-H ,  3-C ) :   0.1168 B(  3-C ,  4-H ) :   0.1026 B(  3-C , 14-H ) :   0.5967
B(  3-C , 15-H ) :   0.6747 B(  3-C , 16-H ) :   0.7133 B(  5-C ,  6-N ) :   1.2549
B(  5-C ,  7-C ) :   1.7885 B(  5-C ,  8-H ) :   0.1848 B(  5-C ,  9-H ) :   0.3662
B(  5-C , 12-H ) :   0.3365 B(  5-C , 13-H ) :   0.1889 B(  6-N ,  7-C ) :   0.3207
B(  6-N , 10-H ) :   1.1196 B(  6-N , 11-H ) :   1.0643 B(  7-C ,  8-H ) :   0.6215
B(  7-C ,  9-H ) :   0.5001 B(  8-H ,  9-H ) :  -0.1599 B( 10-H , 11-H ) :  -0.1237
B( 15-H , 16-H ) :   0.1089

Dispersion correction           -0.029006873
FINAL SINGLE POINT ENERGY      -251.577600073978

DIPOLE MOMENT
-------------
                                X             Y             Z
Electronic contribution:     -0.76220       1.57332       3.60137
Nuclear contribution   :      0.73787      -0.87128      -3.75926
                        -----------------------------------------
Total Dipole Moment    :     -0.02433       0.70204      -0.15788
                        -----------------------------------------
Magnitude (a.u.)       :      0.71999
Magnitude (Debye)      :      1.83007

Rotational constants in cm-1:     0.191039     0.078358     0.072723
Rotational constants in MHz :  5727.202281  2349.118247  2180.181745

                             ****ORCA TERMINATED NORMALLY****
TOTAL RUN TIME: 0 days 0 hours 0 minutes 8 seconds 450 msec
