                         Program Version 5.0.0 -  RELEASE  -
|  1> !CAM-B3LYP RIJCOSX def2-SVP def2/J TightSCF
|  2> *xyz -1 1
|  3> C         -1.10433        0.25137       -2.86006
|  4> C         -0.71189        0.84252       -4.21834
|  5> H          0.15463        1.49980       -4.13091
|  6> H         -1.53813        1.45922       -4.58267
|  7> C         -0.39762       -0.20587       -5.28802
|  8> O          0.61717       -0.00535       -5.99827
|  9> O         -1.13317       -1.22138       -5.34147
| 10> H         -1.95489       -0.38644       -2.98099
| 11> H         -1.34603        1.04362       -2.18269
| 12> H         -0.28606       -0.31581       -2.46809
| 13> *
| 14>
| 15> %MaxCore 64000
| 16>
| 17> %pal nprocs 4
| 18> end
| 19>
| 20> %scf
| 21>   MaxIter 150
| 22> end
| 23>
| 24>
| 25>                          ****END OF INPUT****

CARTESIAN COORDINATES (ANGSTROEM)
---------------------------------
  C     -1.104330    0.251370   -2.860060
  C     -0.711890    0.842520   -4.218340
  H      0.154630    1.499800   -4.130910
  H     -1.538130    1.459220   -4.582670
  C     -0.397620   -0.205870   -5.288020
  O      0.617170   -0.005350   -5.998270
  O     -1.133170   -1.221380   -5.341470
  H     -1.954890   -0.386440   -2.980990
  H     -1.346030    1.043620   -2.182690
  H     -0.286060   -0.315810   -2.468090

 Total Charge           Charge          ....   -1
 Multiplicity           Mult            ....    1
 Number of Electrons    NEL             ....   40
 Basis Dimension        Dim             ....   95

ORBITAL ENERGIES
----------------

  NO   OCC          E(Eh)            E(eV)
   0   2.0000     -18.906174      -514.4631
   1   2.0000     -18.903829      -514.3993
   2   2.0000     -10.111989      -275.1612
   3   2.0000     -10.085997      -274.4539
   4   2.0000     -10.066584      -273.9257
   5   2.0000      -0.855993       -23.2927
   6   2.0000      -0.759672       -20.6717
   7   2.0000      -0.666138       -18.1265
   8   2.0000      -0.531789       -14.4707
   9   2.0000      -0.370038       -10.0692
  10   2.0000      -0.349886        -9.5209
  11   2.0000      -0.305641        -8.3169
  12   2.0000      -0.277216        -7.5434
  13   2.0000      -0.263989        -7.1835
  14   2.0000      -0.249595        -6.7918
  15   2.0000      -0.218019        -5.9326
  16   2.0000      -0.202555        -5.5118
  17   2.0000      -0.074455        -2.0260
  18   2.0000      -0.073216        -1.9923
  19   2.0000      -0.058271        -1.5856
  20   0.0000       0.257209         6.9990
  21   0.0000       0.308112         8.3841
  22   0.0000       0.321647         8.7525
  23   0.0000       0.327178         8.9030
  24   0.0000       0.336484         9.1562

MULLIKEN ATOMIC CHARGES
-----------------------
   0 C :    0.042827
   1 C :    0.016811
   2 H :   -0.059481
   3 H :   -0.048388
   4 C :   -0.002502
   5 O :   -0.423469
   6 O :   -0.427589
   7 H :   -0.012194
   8 H :   -0.062525
   9 H :   -0.023489
Sum of atomic charges:   -1.0000000

LOEWDIN ATOMIC CHARGES
----------------------
   0 C :   -0.062302
   1 C :   -0.090429
   2 H :   -0.004044
   3 H :    0.003447
   4 C :   -0.055139
   5 O :   -0.398035
   6 O :   -0.401477
   7 H :    0.009630
   8 H :   -0.009803
   9 H :    0.008153

  Mayer bond orders larger than 0.100000
B(  0-C ,  1-C ) :   1.0846 B(  0-C ,  7-H ) :   0.9598 B(  0-C ,  8-H ) :   0.9591
B(  0-C ,  9-H ) :   0.9744 B(  1-C ,  2-H ) :   0.9381 B(  1-C ,  3-H ) :   0.9334
B(  1-C ,  4-C ) :   0.9183 B(  4-C ,  5-O ) :   1.8903 B(  4-C ,  6-O ) :   1.8583
B(  5-O ,  6-O ) :   0.1106

FINAL SINGLE POINT ENERGY      -267.498514495730

DIPOLE MOMENT
-------------
                                X             Y             Z
Electronic contribution:      1.59314      -2.47818      -5.38526
Nuclear contribution   :     -2.09607       3.44215       6.87744
                        -----------------------------------------
Total Dipole Moment    :     -0.50293       0.96396       1.49218
                        -----------------------------------------
Magnitude (a.u.)       :      1.84628
Magnitude (Debye)      :      4.69288

Rotational constants in cm-1:     0.324698     0.133739     0.103466
Rotational constants in MHz :  9734.203431  4009.406827  3101.846422

                             ****ORCA TERMINATED NORMALLY****
TOTAL RUN TIME: 0 days 0 hours 0 minutes 15 seconds 762 msec
