                         Program Version 5.0.0 -  RELEASE  -
|  1> !CAM-B3LYP RIJCOSX def2-SVP def2/J TightSCF
|  2> *xyz 1 1
|  3> C          2.23447       -2.98975       -2.39762
|  4> N          2.75680       -2.94555       -3.76503
|  5> C          1.98721       -2.59045       -4.81898
|  6> N          0.74322       -3.01749       -4.91352
|  7> N          2.49964       -1.84860       -5.80324
|  8> H          3.30978       -1.29282       -5.55895
|  9> H          1.80103       -1.30430       -6.28913
| 10> H          3.71612       -2.62880       -3.82953
| 11> H          0.39583       -3.62775       -4.18502
| 12> H          0.03920       -2.45438       -5.37137
| 13> C          2.19120       -1.61950       -1.71549
| 14> H          2.87278       -3.66637       -1.82801
| 15> H          1.24619       -3.44744       -2.40784
| 16> H          1.56387       -0.96046       -2.27853
| 17> H          3.18033       -1.21449       -1.66568
| 18> H          1.79916       -1.72608       -0.72562
| 19> *
| 20>
| 21> %MaxCore 64000
| 22>
| 23> %pal nprocs 4
| 24> end
| 25>
| 26> %scf
| 27>   MaxIter 150
| 28> end
| 29>
| 30>
| 31>                          ****END OF INPUT****

CARTESIAN COORDINATES (ANGSTROEM)
---------------------------------
  C      2.234470   -2.989750   -2.397620
  N      2.756800   -2.945550   -3.765030
  C      1.987210   -2.590450   -4.818980
  N      0.743220   -3.017490   -4.913520
  N      2.499640   -1.848600   -5.803240
  H      3.309780   -1.292820   -5.558950
  H      1.801030   -1.304300   -6.289130
  H      3.716120   -2.628800   -3.829530
  H      0.395830   -3.627750   -4.185020
  H      0.039200   -2.454380   -5.371370
  C      2.191200   -1.619500   -1.715490
  H      2.872780   -3.666370   -1.828010
  H      1.246190   -3.447440   -2.407840
  H      1.563870   -0.960460   -2.278530
  H      3.180330   -1.214490   -1.665680
  H      1.799160   -1.726080   -0.725620

 Total Charge           Charge          ....    1
 Multiplicity           Mult            ....    1
 Number of Electrons    NEL             ....   48
 Basis Dimension        Dim             ....  134

ORBITAL ENERGIES
----------------

  NO   OCC          E(Eh)            E(eV)
   0   2.0000     -14.633954      -398.2101
   1   2.0000     -14.629673      -398.0936
   2   2.0000     -14.624167      -397.9438
   3   2.0000     -10.601306      -288.4762
   4   2.0000     -10.467141      -284.8254
   5   2.0000     -10.400541      -283.0131
   6   2.0000      -1.297052       -35.2946
   7   2.0000      -1.180236       -32.1158
   8   2.0000      -1.175239       -31.9799
   9   2.0000      -1.003779       -27.3142
  10   2.0000      -0.915140       -24.9022
  11   2.0000      -0.877579       -23.8801
  12   2.0000      -0.858192       -23.3526
  13   2.0000      -0.812563       -22.1110
  14   2.0000      -0.772356       -21.0169
  15   2.0000      -0.754845       -20.5404
  16   2.0000      -0.720179       -19.5971
  17   2.0000      -0.691109       -18.8060
  18   2.0000      -0.671441       -18.2708
  19   2.0000      -0.636616       -17.3232
  20   2.0000      -0.601200       -16.3595
  21   2.0000      -0.581721       -15.8294
  22   2.0000      -0.551992       -15.0205
  23   2.0000      -0.513192       -13.9647
  24   0.0000      -0.138936        -3.7807
  25   0.0000      -0.097555        -2.6546
  26   0.0000      -0.065420        -1.7802
  27   0.0000      -0.050267        -1.3678
  28   0.0000      -0.031757        -0.8642

MULLIKEN ATOMIC CHARGES
-----------------------
   0 C :    0.024250
   1 N :   -0.117639
   2 C :    0.001841
   3 N :   -0.008672
   4 N :    0.011405
   5 H :    0.163462
   6 H :    0.164923
   7 H :    0.156919
   8 H :    0.170869
   9 H :    0.176494
  10 C :    0.012945
  11 H :    0.075027
  12 H :    0.039330
  13 H :    0.020790
  14 H :    0.040785
  15 H :    0.067269
Sum of atomic charges:    1.0000000

LOEWDIN ATOMIC CHARGES
----------------------
   0 C :    0.042991
   1 N :    0.013869
   2 C :    0.150766
   3 N :    0.062901
   4 N :    0.048380
   5 H :    0.107355
   6 H :    0.109639
   7 H :    0.101178
   8 H :    0.109643
   9 H :    0.114401
  10 C :   -0.048198
  11 H :    0.048783
  12 H :    0.029339
  13 H :    0.024250
  14 H :    0.033620
  15 H :    0.051082

  Mayer bond orders larger than 0.100000
B(  0-C ,  1-N ) :   0.9434 B(  0-C , 10-C ) :   1.0919 B(  0-C , 11-H ) :   0.9511
B(  0-C , 12-H ) :   0.9568 B(  1-N ,  2-C ) :   1.3579 B(  1-N ,  7-H ) :   0.9126
B(  2-C ,  3-N ) :   1.4186 B(  2-C ,  4-N ) :   1.3854 B(  3-N ,  8-H ) :   0.9258
B(  3-N ,  9-H ) :   0.9264 B(  4-N ,  5-H ) :   0.9285 B(  4-N ,  6-H ) :   0.9293
B( 10-C , 13-H ) :   0.9687 B( 10-C , 14-H ) :   0.9702 B( 10-C , 15-H ) :   0.9616

FINAL SINGLE POINT ENERGY      -284.030333199215

DIPOLE MOMENT
-------------
                                X             Y             Z
Electronic contribution:      0.16076      -1.63642      -5.25549
Nuclear contribution   :     -0.59121       2.30298       4.63196
                        -----------------------------------------
Total Dipole Moment    :     -0.43044       0.66656      -0.62353
                        -----------------------------------------
Magnitude (a.u.)       :      1.00914
Magnitude (Debye)      :      2.56504

Rotational constants in cm-1:     0.205874     0.074757     0.066901
Rotational constants in MHz :  6171.937773  2241.151057  2005.629823

                             ****ORCA TERMINATED NORMALLY****
TOTAL RUN TIME: 0 days 0 hours 0 minutes 25 seconds 485 msec
