                         Program Version 5.0.0 -  RELEASE  -
|  1> !CAM-B3LYP RIJCOSX def2-SVP def2/J TightSCF
|  2> *xyz 0 1
|  3> C         -1.10433        0.25137       -2.86006
|  4> C         -0.71189        0.84252       -4.21834
|  5> H          0.15463        1.49980       -4.13091
|  6> H         -1.53813        1.45922       -4.58267
|  7> C         -0.39762       -0.20587       -5.28802
|  8> F          0.61717       -0.00535       -5.99827
|  9> O         -1.13317       -1.22138       -5.34147
| 10> H         -1.95489       -0.38644       -2.98099
| 11> H         -1.34603        1.04362       -2.18269
| 12> H         -0.28606       -0.31581       -2.46809
| 13> *
| 14>
| 15> %MaxCore 64000
| 16>
| 17> %pal nprocs 4
| 18> end
| 19>
| 20> %scf
| 21>   MaxIter 150
| 22> end
| 23>
| 24>
| 25>                          ****END OF INPUT****

CARTESIAN COORDINATES (ANGSTROEM)
---------------------------------
  C     -1.104330    0.251370   -2.860060
  C     -0.711890    0.842520   -4.218340
  H      0.154630    1.499800   -4.130910
  H     -1.538130    1.459220   -4.582670
  C     -0.397620   -0.205870   -5.288020
  F      0.617170   -0.005350   -5.998270
  O     -1.133170   -1.221380   -5.341470
  H     -1.954890   -0.386440   -2.980990
  H     -1.346030    1.043620   -2.182690
  H     -0.286060   -0.315810   -2.468090

 Total Charge           Charge          ....    0
 Multiplicity           Mult            ....    1
 Number of Electrons    NEL             ....   40
 Basis Dimension        Dim             ....   95

ORBITAL ENERGIES
----------------

  NO   OCC          E(Eh)            E(eV)
   0   2.0000     -24.828024      -675.6049
   1   2.0000     -19.209153      -522.7076
   2   2.0000     -10.433192      -283.9016
   3   2.0000     -10.287101      -279.9262
   4   2.0000     -10.260713      -279.2082
   5   2.0000      -1.377678       -37.4885
   6   2.0000      -1.097270       -29.8582
   7   2.0000      -0.872119       -23.7316
   8   2.0000      -0.759113       -20.6565
   9   2.0000      -0.704640       -19.1742
  10   2.0000      -0.618054       -16.8181
  11   2.0000      -0.603614       -16.4252
  12   2.0000      -0.571228       -15.5439
  13   2.0000      -0.532333       -14.4855
  14   2.0000      -0.497888       -13.5482
  15   2.0000      -0.459968       -12.5164
  16   2.0000      -0.439826       -11.9683
  17   2.0000      -0.437964       -11.9176
  18   2.0000      -0.407251       -11.0819
  19   2.0000      -0.353998        -9.6328
  20   0.0000       0.031278         0.8511
  21   0.0000       0.101256         2.7553
  22   0.0000       0.146845         3.9958
  23   0.0000       0.155022         4.2184
  24   0.0000       0.172742         4.7006

MULLIKEN ATOMIC CHARGES
-----------------------
   0 C :    0.025281
   1 C :   -0.068730
   2 H :    0.020512
   3 H :    0.052175
   4 C :    0.209976
   5 F :   -0.066321
   6 O :   -0.246232
   7 H :    0.038957
   8 H :    0.015178
   9 H :    0.019204
Sum of atomic charges:   -0.0000000

LOEWDIN ATOMIC CHARGES
----------------------
   0 C :   -0.037423
   1 C :   -0.072529
   2 H :    0.028042
   3 H :    0.049672
   4 C :    0.100869
   5 F :    0.044743
   6 O :   -0.196755
   7 H :    0.031292
   8 H :    0.026370
   9 H :    0.025718

  Mayer bond orders larger than 0.100000
B(  0-C ,  1-C ) :   1.0949 B(  0-C ,  7-H ) :   0.9688 B(  0-C ,  8-H ) :   0.9670
B(  0-C ,  9-H ) :   0.9797 B(  1-C ,  2-H ) :   0.9417 B(  1-C ,  3-H ) :   0.9283
B(  1-C ,  4-C ) :   0.9946 B(  4-C ,  5-F ) :   1.2166 B(  4-C ,  6-O ) :   2.0949

FINAL SINGLE POINT ENERGY      -292.055855926433

DIPOLE MOMENT
-------------
                                X             Y             Z
Electronic contribution:      3.59666      -2.41109      -7.77182
Nuclear contribution   :     -3.36368       3.36392       8.24820
                        -----------------------------------------
Total Dipole Moment    :      0.23298       0.95283       0.47638
                        -----------------------------------------
Magnitude (a.u.)       :      1.09046
Magnitude (Debye)      :      2.77173

Rotational constants in cm-1:     0.315013     0.126712     0.098430
Rotational constants in MHz :  9443.861322  3798.734540  2950.846388

                             ****ORCA TERMINATED NORMALLY****
TOTAL RUN TIME: 0 days 0 hours 0 minutes 15 seconds 740 msec
