                         Program Version 5.0.0 -  RELEASE  -
|  1> !CAM-B3LYP RIJCOSX def2-SVP def2/J TightSCF
|  2> *xyz 0 1
|  3> C          2.23447       -2.98975       -2.39762
|  4> C          2.75680       -2.94555       -3.76503
|  5> C          1.98721       -2.59045       -4.81898
|  6> N          0.74322       -3.01749       -4.91352
|  7> N          2.49964       -1.84860       -5.80324
|  8> H          3.30978       -1.29282       -5.55895
|  9> H          1.80103       -1.30430       -6.28913
| 10> H          3.71612       -2.62880       -3.82953
| 11> H          0.39583       -3.62775       -4.18502
| 12> H          0.03920       -2.45438       -5.37137
| 13> C          2.19120       -1.61950       -1.71549
| 14> H          2.87278       -3.66637       -1.82801
| 15> H          1.24619       -3.44744       -2.40784
| 16> H          1.56387       -0.96046       -2.27853
| 17> H          3.18033       -1.21449       -1.66568
| 18> H          1.79916       -1.72608       -0.72562
| 19> *
| 20>
| 21> %MaxCore 64000
| 22>
| 23> %pal nprocs 4
| 24> end
| 25>
| 26> %scf
| 27>   MaxIter 150
| 28> end
| 29>
| 30>
| 31>                          ****END OF INPUT****

CARTESIAN COORDINATES (ANGSTROEM)
---------------------------------
  C      2.234470   -2.989750   -2.397620
  C      2.756800   -2.945550   -3.765030
  C      1.987210   -2.590450   -4.818980
  N      0.743220   -3.017490   -4.913520
  N      2.499640   -1.848600   -5.803240
  H      3.309780   -1.292820   -5.558950
  H      1.801030   -1.304300   -6.289130
  H      3.716120   -2.628800   -3.829530
  H      0.395830   -3.627750   -4.185020
  H      0.039200   -2.454380   -5.371370
  C      2.191200   -1.619500   -1.715490
  H      2.872780   -3.666370   -1.828010
  H      1.246190   -3.447440   -2.407840
  H      1.563870   -0.960460   -2.278530
  H      3.180330   -1.214490   -1.665680
  H      1.799160   -1.726080   -0.725620

 Total Charge           Charge          ....    0
 Multiplicity           Mult            ....    1
 Number of Electrons    NEL             ....   48
 Basis Dimension        Dim             ....  134

ORBITAL ENERGIES
----------------

  NO   OCC          E(Eh)            E(eV)
   0   2.0000     -14.402921      -391.9234
   1   2.0000     -14.397231      -391.7686
   2   2.0000     -10.301767      -280.3253
   3   2.0000     -10.229983      -278.3720
   4   2.0000     -10.224526      -278.2235
   5   2.0000     -10.172874      -276.8180
   6   2.0000      -1.038760       -28.2661
   7   2.0000      -0.944499       -25.7011
   8   2.0000      -0.843237       -22.9457
   9   2.0000      -0.759497       -20.6670
  10   2.0000      -0.685212       -18.6456
  11   2.0000      -0.645381       -17.5617
  12   2.0000      -0.608283       -16.5522
  13   2.0000      -0.571413       -15.5489
  14   2.0000      -0.532064       -14.4782
  15   2.0000      -0.515378       -14.0241
  16   2.0000      -0.476934       -12.9780
  17   2.0000      -0.456505       -12.4221
  18   2.0000      -0.433969       -11.8089
  19   2.0000      -0.420774       -11.4498
  20   2.0000      -0.387100       -10.5335
  21   2.0000      -0.379571       -10.3286
  22   2.0000      -0.332293        -9.0422
  23   2.0000      -0.207712        -5.6521
  24   0.0000       0.078047         2.1238
  25   0.0000       0.114432         3.1138
  26   0.0000       0.129486         3.5235
  27   0.0000       0.132564         3.6073
  28   0.0000       0.148637         4.0446

MULLIKEN ATOMIC CHARGES
-----------------------
   0 C :    0.031130
   1 C :   -0.110438
   2 C :   -0.127549
   3 N :   -0.044944
   4 N :   -0.034096
   5 H :    0.113982
   6 H :    0.091917
   7 H :   -0.109695
   8 H :    0.116984
   9 H :    0.099377
  10 C :    0.069839
  11 H :   -0.014289
  12 H :   -0.044243
  13 H :   -0.018760
  14 H :   -0.010229
  15 H :   -0.008987
Sum of atomic charges:   -0.0000000

LOEWDIN ATOMIC CHARGES
----------------------
   0 C :   -0.036154
   1 C :   -0.229009
   2 C :    0.023382
   3 N :   -0.009725
   4 N :   -0.021704
   5 H :    0.077830
   6 H :    0.062615
   7 H :   -0.016445
   8 H :    0.080263
   9 H :    0.063778
  10 C :   -0.054344
  11 H :    0.016767
  12 H :    0.003361
  13 H :    0.010485
  14 H :    0.015871
  15 H :    0.013027

  Mayer bond orders larger than 0.100000
B(  0-C ,  1-C ) :   1.0892 B(  0-C , 10-C ) :   1.0841 B(  0-C , 11-H ) :   0.9314
B(  0-C , 12-H ) :   0.9436 B(  1-C ,  2-C ) :   1.6744 B(  1-C ,  7-H ) :   0.9177
B(  2-C ,  3-N ) :   1.2723 B(  2-C ,  4-N ) :   1.2150 B(  3-N ,  8-H ) :   0.9479
B(  3-N ,  9-H ) :   0.9444 B(  4-N ,  5-H ) :   0.9462 B(  4-N ,  6-H ) :   0.9556
B( 10-C , 13-H ) :   0.9707 B( 10-C , 14-H ) :   0.9679 B( 10-C , 15-H ) :   0.9622

FINAL SINGLE POINT ENERGY      -267.556608227987

DIPOLE MOMENT
-------------
                                X             Y             Z
Electronic contribution:     -0.41107      -1.34536      -5.12353
Nuclear contribution   :     -0.44240       2.20379       4.66256
                        -----------------------------------------
Total Dipole Moment    :     -0.85347       0.85843      -0.46096
                        -----------------------------------------
Magnitude (a.u.)       :      1.29530
Magnitude (Debye)      :      3.29239

Rotational constants in cm-1:     0.209447     0.075194     0.066975
Rotational constants in MHz :  6279.068019  2254.272519  2007.845458

                             ****ORCA TERMINATED NORMALLY****
TOTAL RUN TIME: 0 days 0 hours 0 minutes 25 seconds 862 msec
