                         Program Version 5.0.0 -  RELEASE  -
|  1> !CAM-B3LYP RIJCOSX def2-SVP def2/J TightSCF
|  2> *xyz 0 1
|  3> C         -1.10433        0.25137       -2.86006
|  4> C         -0.71189        0.84252       -4.21834
|  5> H          0.15463        1.49980       -4.13091
|  6> H         -1.53813        1.45922       -4.58267
|  7> C         -0.39762       -0.20587       -5.28802
|  8> O          0.61717       -0.00535       -5.99827
|  9> F         -1.13317       -1.22138       -5.34147
| 10> H         -1.95489       -0.38644       -2.98099
| 11> H         -1.34603        1.04362       -2.18269
| 12> H         -0.28606       -0.31581       -2.46809
| 13> *
| 14>
| 15> %MaxCore 64000
| 16>
| 17> %pal nprocs 4
| 18> end
| 19>
| 20> %scf
| 21>   MaxIter 150
| 22> end
| 23>
| 24>
| 25>                          ****END OF INPUT****

CARTESIAN COORDINATES (ANGSTROEM)
---------------------------------
  C     -1.104330    0.251370   -2.860060
  C     -0.711890    0.842520   -4.218340
  H      0.154630    1.499800   -4.130910
  H     -1.538130    1.459220   -4.582670
  C     -0.397620   -0.205870   -5.288020
  O      0.617170   -0.005350   -5.998270
  F     -1.133170   -1.221380   -5.341470
  H     -1.954890   -0.386440   -2.980990
  H     -1.346030    1.043620   -2.182690
  H     -0.286060   -0.315810   -2.468090

 Total Charge           Charge          ....    0
 Multiplicity           Mult            ....    1
 Number of Electrons    NEL             ....   40
 Basis Dimension        Dim             ....   95

ORBITAL ENERGIES
----------------

  NO   OCC          E(Eh)            E(eV)
   0   2.0000     -24.829492      -675.6448
   1   2.0000     -19.207246      -522.6557
   2   2.0000     -10.432033      -283.8701
   3   2.0000     -10.286000      -279.8963
   4   2.0000     -10.266506      -279.3658
   5   2.0000      -1.378544       -37.5121
   6   2.0000      -1.095558       -29.8116
   7   2.0000      -0.876402       -23.8481
   8   2.0000      -0.753975       -20.5167
   9   2.0000      -0.711954       -19.3733
  10   2.0000      -0.620542       -16.8858
  11   2.0000      -0.610871       -16.6226
  12   2.0000      -0.560978       -15.2650
  13   2.0000      -0.533179       -14.5085
  14   2.0000      -0.499086       -13.5808
  15   2.0000      -0.465177       -12.6581
  16   2.0000      -0.448173       -12.1954
  17   2.0000      -0.441653       -12.0180
  18   2.0000      -0.407039       -11.0761
  19   2.0000      -0.348820        -9.4919
  20   0.0000       0.034012         0.9255
  21   0.0000       0.095972         2.6115
  22   0.0000       0.144487         3.9317
  23   0.0000       0.156340         4.2542
  24   0.0000       0.172542         4.6951

MULLIKEN ATOMIC CHARGES
-----------------------
   0 C :    0.000321
   1 C :   -0.061949
   2 H :    0.047011
   3 H :    0.044508
   4 C :    0.208472
   5 O :   -0.240768
   6 F :   -0.069703
   7 H :    0.023521
   8 H :    0.022568
   9 H :    0.026019
Sum of atomic charges:   -0.0000000

LOEWDIN ATOMIC CHARGES
----------------------
   0 C :   -0.049143
   1 C :   -0.068314
   2 H :    0.044441
   3 H :    0.043961
   4 C :    0.099406
   5 O :   -0.193556
   6 F :    0.043560
   7 H :    0.023811
   8 H :    0.029512
   9 H :    0.026321

  Mayer bond orders larger than 0.100000
B(  0-C ,  1-C ) :   1.0712 B(  0-C ,  7-H ) :   0.9727 B(  0-C ,  8-H ) :   0.9670
B(  0-C ,  9-H ) :   0.9797 B(  1-C ,  2-H ) :   0.9515 B(  1-C ,  3-H ) :   0.9315
B(  1-C ,  4-C ) :   1.0029 B(  4-C ,  5-O ) :   2.1110 B(  4-C ,  6-F ) :   1.2052

FINAL SINGLE POINT ENERGY      -292.054722068828

DIPOLE MOMENT
-------------
                                X             Y             Z
Electronic contribution:      0.71452      -4.40449      -6.66770
Nuclear contribution   :     -1.45527       4.68977       7.53208
                        -----------------------------------------
Total Dipole Moment    :     -0.74074       0.28528       0.86438
                        -----------------------------------------
Magnitude (a.u.)       :      1.17356
Magnitude (Debye)      :      2.98294

Rotational constants in cm-1:     0.298240     0.132464     0.099915
Rotational constants in MHz :  8940.998095  3971.171647  2995.369122

                             ****ORCA TERMINATED NORMALLY****
TOTAL RUN TIME: 0 days 0 hours 0 minutes 15 seconds 920 msec
