                         Program Version 5.0.0 -  RELEASE  -
|  1> !CAM-B3LYP RIJCOSX def2-SVP def2/J TightSCF
|  2> *xyz 0 1
|  3> C          2.23447       -2.98975       -2.39762
|  4> N          2.75680       -2.94555       -3.76503
|  5> C          1.98721       -2.59045       -4.81898
|  6> C          0.74322       -3.01749       -4.91352
|  7> N          2.49964       -1.84860       -5.80324
|  8> H          3.30978       -1.29282       -5.55895
|  9> H          1.80103       -1.30430       -6.28913
| 10> H          3.71612       -2.62880       -3.82953
| 11> H          0.39583       -3.62775       -4.18502
| 12> H          0.03920       -2.45438       -5.37137
| 13> C          2.19120       -1.61950       -1.71549
| 14> H          2.87278       -3.66637       -1.82801
| 15> H          1.24619       -3.44744       -2.40784
| 16> H          1.56387       -0.96046       -2.27853
| 17> H          3.18033       -1.21449       -1.66568
| 18> H          1.79916       -1.72608       -0.72562
| 19> *
| 20>
| 21> %MaxCore 64000
| 22>
| 23> %pal nprocs 4
| 24> end
| 25>
| 26> %scf
| 27>   MaxIter 150
| 28> end
| 29>
| 30>
| 31>                          ****END OF INPUT****

CARTESIAN COORDINATES (ANGSTROEM)
---------------------------------
  C      2.234470   -2.989750   -2.397620
  N      2.756800   -2.945550   -3.765030
  C      1.987210   -2.590450   -4.818980
  C      0.743220   -3.017490   -4.913520
  N      2.499640   -1.848600   -5.803240
  H      3.309780   -1.292820   -5.558950
  H      1.801030   -1.304300   -6.289130
  H      3.716120   -2.628800   -3.829530
  H      0.395830   -3.627750   -4.185020
  H      0.039200   -2.454380   -5.371370
  C      2.191200   -1.619500   -1.715490
  H      2.872780   -3.666370   -1.828010
  H      1.246190   -3.447440   -2.407840
  H      1.563870   -0.960460   -2.278530
  H      3.180330   -1.214490   -1.665680
  H      1.799160   -1.726080   -0.725620

 Total Charge           Charge          ....    0
 Multiplicity           Mult            ....    1
 Number of Electrons    NEL             ....   48
 Basis Dimension        Dim             ....  134

ORBITAL ENERGIES
----------------

  NO   OCC          E(Eh)            E(eV)
   0   2.0000     -14.396618      -391.7519
   1   2.0000     -14.396153      -391.7393
   2   2.0000     -10.298797      -280.2445
   3   2.0000     -10.287537      -279.9381
   4   2.0000     -10.247249      -278.8418
   5   2.0000     -10.169574      -276.7282
   6   2.0000      -1.036525       -28.2053
   7   2.0000      -0.955269       -25.9942
   8   2.0000      -0.826946       -22.5024
   9   2.0000      -0.782064       -21.2810
  10   2.0000      -0.709275       -19.3003
  11   2.0000      -0.627331       -17.0706
  12   2.0000      -0.609447       -16.5839
  13   2.0000      -0.576357       -15.6835
  14   2.0000      -0.527151       -14.3445
  15   2.0000      -0.512624       -13.9492
  16   2.0000      -0.480996       -13.0886
  17   2.0000      -0.460544       -12.5320
  18   2.0000      -0.456411       -12.4196
  19   2.0000      -0.432714       -11.7748
  20   2.0000      -0.419606       -11.4181
  21   2.0000      -0.409657       -11.1473
  22   2.0000      -0.309356        -8.4180
  23   2.0000      -0.225651        -6.1403
  24   0.0000       0.084043         2.2869
  25   0.0000       0.113949         3.1007
  26   0.0000       0.124280         3.3818
  27   0.0000       0.138854         3.7784
  28   0.0000       0.153665         4.1814

MULLIKEN ATOMIC CHARGES
-----------------------
   0 C :    0.088977
   1 N :   -0.163007
   2 C :   -0.040594
   3 C :   -0.086343
   4 N :   -0.045597
   5 H :    0.083447
   6 H :    0.114191
   7 H :    0.088893
   8 H :   -0.055393
   9 H :   -0.055918
  10 C :    0.017843
  11 H :    0.005167
  12 H :    0.026718
  13 H :    0.015919
  14 H :   -0.003368
  15 H :    0.009065
Sum of atomic charges:   -0.0000000

LOEWDIN ATOMIC CHARGES
----------------------
   0 C :    0.042051
   1 N :   -0.041566
   2 C :    0.034038
   3 C :   -0.232247
   4 N :   -0.026121
   5 H :    0.055879
   6 H :    0.080607
   7 H :    0.058588
   8 H :   -0.007712
   9 H :   -0.008169
  10 C :   -0.063922
  11 H :    0.017758
  12 H :    0.028385
  13 H :    0.023071
  14 H :    0.014823
  15 H :    0.024536

  Mayer bond orders larger than 0.100000
B(  0-C ,  1-N ) :   1.0096 B(  0-C , 10-C ) :   1.0980 B(  0-C , 11-H ) :   0.9580
B(  0-C , 12-H ) :   0.9532 B(  1-N ,  2-C ) :   1.1627 B(  1-N ,  7-H ) :   0.9390
B(  2-C ,  3-C ) :   1.7751 B(  2-C ,  4-N ) :   1.2144 B(  3-C ,  8-H ) :   0.9418
B(  3-C ,  9-H ) :   0.9459 B(  4-N ,  5-H ) :   0.9483 B(  4-N ,  6-H ) :   0.9479
B( 10-C , 13-H ) :   0.9692 B( 10-C , 14-H ) :   0.9698 B( 10-C , 15-H ) :   0.9632

FINAL SINGLE POINT ENERGY      -267.552825344137

DIPOLE MOMENT
-------------
                                X             Y             Z
Electronic contribution:      1.56515      -1.19780      -3.89276
Nuclear contribution   :     -0.86957       2.18853       4.41892
                        -----------------------------------------
Total Dipole Moment    :      0.69558       0.99073       0.52615
                        -----------------------------------------
Magnitude (a.u.)       :      1.31993
Magnitude (Debye)      :      3.35499

Rotational constants in cm-1:     0.214718     0.075736     0.068547
Rotational constants in MHz :  6437.075121  2270.519635  2054.974198

                             ****ORCA TERMINATED NORMALLY****
TOTAL RUN TIME: 0 days 0 hours 0 minutes 25 seconds 749 msec
