                         Program Version 5.0.0 -  RELEASE  -
|  1> !CAM-B3LYP RIJCOSX def2-SVP def2/J TightSCF
|  2> *xyz 0 1
|  3> C          2.23447       -2.98975       -2.39762
|  4> N          2.75680       -2.94555       -3.76503
|  5> C          1.98721       -2.59045       -4.81898
|  6> N          0.74322       -3.01749       -4.91352
|  7> C          2.49964       -1.84860       -5.80324
|  8> H          3.30978       -1.29282       -5.55895
|  9> H          1.80103       -1.30430       -6.28913
| 10> H          3.71612       -2.62880       -3.82953
| 11> H          0.39583       -3.62775       -4.18502
| 12> H          0.03920       -2.45438       -5.37137
| 13> C          2.19120       -1.61950       -1.71549
| 14> H          2.87278       -3.66637       -1.82801
| 15> H          1.24619       -3.44744       -2.40784
| 16> H          1.56387       -0.96046       -2.27853
| 17> H          3.18033       -1.21449       -1.66568
| 18> H          1.79916       -1.72608       -0.72562
| 19> *
| 20>
| 21> %MaxCore 64000
| 22>
| 23> %pal nprocs 4
| 24> end
| 25>
| 26> %scf
| 27>   MaxIter 150
| 28> end
| 29>
| 30>
| 31>                          ****END OF INPUT****

CARTESIAN COORDINATES (ANGSTROEM)
---------------------------------
  C      2.234470   -2.989750   -2.397620
  N      2.756800   -2.945550   -3.765030
  C      1.987210   -2.590450   -4.818980
  N      0.743220   -3.017490   -4.913520
  C      2.499640   -1.848600   -5.803240
  H      3.309780   -1.292820   -5.558950
  H      1.801030   -1.304300   -6.289130
  H      3.716120   -2.628800   -3.829530
  H      0.395830   -3.627750   -4.185020
  H      0.039200   -2.454380   -5.371370
  C      2.191200   -1.619500   -1.715490
  H      2.872780   -3.666370   -1.828010
  H      1.246190   -3.447440   -2.407840
  H      1.563870   -0.960460   -2.278530
  H      3.180330   -1.214490   -1.665680
  H      1.799160   -1.726080   -0.725620

 Total Charge           Charge          ....    0
 Multiplicity           Mult            ....    1
 Number of Electrons    NEL             ....   48
 Basis Dimension        Dim             ....  134

ORBITAL ENERGIES
----------------

  NO   OCC          E(Eh)            E(eV)
   0   2.0000     -14.399793      -391.8383
   1   2.0000     -14.395207      -391.7135
   2   2.0000     -10.302104      -280.3345
   3   2.0000     -10.296918      -280.1934
   4   2.0000     -10.251401      -278.9548
   5   2.0000     -10.164114      -276.5796
   6   2.0000      -1.038308       -28.2538
   7   2.0000      -0.954945       -25.9854
   8   2.0000      -0.839417       -22.8417
   9   2.0000      -0.775747       -21.1092
  10   2.0000      -0.698587       -19.0095
  11   2.0000      -0.667027       -18.1507
  12   2.0000      -0.604976       -16.4622
  13   2.0000      -0.556539       -15.1442
  14   2.0000      -0.554739       -15.0952
  15   2.0000      -0.504211       -13.7203
  16   2.0000      -0.493205       -13.4208
  17   2.0000      -0.465818       -12.6755
  18   2.0000      -0.439434       -11.9576
  19   2.0000      -0.428197       -11.6518
  20   2.0000      -0.426973       -11.6185
  21   2.0000      -0.416239       -11.3264
  22   2.0000      -0.311888        -8.4869
  23   2.0000      -0.220555        -6.0016
  24   0.0000       0.083422         2.2700
  25   0.0000       0.109682         2.9846
  26   0.0000       0.117242         3.1903
  27   0.0000       0.134358         3.6561
  28   0.0000       0.146505         3.9866

MULLIKEN ATOMIC CHARGES
-----------------------
   0 C :    0.061369
   1 N :   -0.148001
   2 C :   -0.071149
   3 N :   -0.067346
   4 C :   -0.035048
   5 H :   -0.074496
   6 H :   -0.070067
   7 H :    0.112114
   8 H :    0.098098
   9 H :    0.125560
  10 C :    0.029280
  11 H :    0.011358
  12 H :   -0.004386
  13 H :    0.016432
  14 H :    0.008757
  15 H :    0.007525
Sum of atomic charges:   -0.0000000

LOEWDIN ATOMIC CHARGES
----------------------
   0 C :    0.030786
   1 N :   -0.043075
   2 C :    0.040227
   3 N :   -0.009636
   4 C :   -0.256606
   5 H :   -0.014736
   6 H :   -0.010304
   7 H :    0.078281
   8 H :    0.063151
   9 H :    0.082984
  10 C :   -0.062589
  11 H :    0.020166
  12 H :    0.013259
  13 H :    0.023891
  14 H :    0.020906
  15 H :    0.023295

  Mayer bond orders larger than 0.100000
B(  0-C ,  1-N ) :   1.0284 B(  0-C , 10-C ) :   1.0818 B(  0-C , 11-H ) :   0.9574
B(  0-C , 12-H ) :   0.9548 B(  1-N ,  2-C ) :   1.1811 B(  1-N ,  7-H ) :   0.9328
B(  2-C ,  3-N ) :   1.2184 B(  2-C ,  4-C ) :   1.7716 B(  3-N ,  8-H ) :   0.9571
B(  3-N ,  9-H ) :   0.9490 B(  4-C ,  5-H ) :   0.9374 B(  4-C ,  6-H ) :   0.9424
B( 10-C , 13-H ) :   0.9701 B( 10-C , 14-H ) :   0.9703 B( 10-C , 15-H ) :   0.9626

FINAL SINGLE POINT ENERGY      -267.548118288243

DIPOLE MOMENT
-------------
                                X             Y             Z
Electronic contribution:     -0.16867      -2.43340      -2.96942
Nuclear contribution   :     -0.49695       2.43650       4.23017
                        -----------------------------------------
Total Dipole Moment    :     -0.66563       0.00310       1.26075
                        -----------------------------------------
Magnitude (a.u.)       :      1.42568
Magnitude (Debye)      :      3.62378

Rotational constants in cm-1:     0.211102     0.077011     0.069221
Rotational constants in MHz :  6328.667765  2308.731604  2075.192956

                             ****ORCA TERMINATED NORMALLY****
TOTAL RUN TIME: 0 days 0 hours 0 minutes 27 seconds 449 msec
