                         Program Version 5.0.0 -  RELEASE  -
|  1> !CAM-B3LYP RIJCOSX def2-TZVP def2/J TightSCF xyzfile
|  2>
|  3> *xyzfile 0 1 D1.xyz
|  4>
|  5> %MaxCore 64000
|  6>
|  7> %pal nprocs 18
|  8> end
|  9>
| 10> %scf
| 11>   MaxIter 150
| 12> end
| 13>
| 14>
| 15>                          ****END OF INPUT****

CARTESIAN COORDINATES (ANGSTROEM)
---------------------------------
  C      2.234473   -2.989754   -2.397622
  C      2.756799   -2.945553   -3.765029
  C     -1.104325    0.251374   -2.860056
  C     -0.711893    0.842517   -4.218344
  H      0.154626    1.499800   -4.130909
  H     -1.538134    1.459222   -4.582671
  C     -0.397624   -0.205875   -5.288018
  C      1.987208   -2.590451   -4.818975
  N      0.743221   -3.017493   -4.913524
  N      2.499636   -1.848598   -5.803241
  H      3.309780   -1.292818   -5.558947
  H      1.801025   -1.304298   -6.289129
  H      3.716116   -2.628797   -3.829533
  H      0.395828   -3.627747   -4.185024
  H      0.039201   -2.454383   -5.371367
  F      0.617165   -0.005348   -5.998273
  O     -1.133173   -1.221380   -5.341465
  C      2.191199   -1.619503   -1.715492
  H      2.872783   -3.666368   -1.828014
  H      1.246188   -3.447444   -2.407842
  C      1.298729   -0.554314   -2.359773
  H      1.872917   -1.787955   -0.681310
  H      3.216809   -1.238432   -1.654428
  C     -0.196255   -0.863365   -2.325763
  H      1.612531   -0.371346   -3.393065
  H      1.480944    0.388638   -1.834444
  H     -0.404105   -1.761825   -2.909448
  H     -0.490439   -1.087880   -1.294131
  H     -1.143842    1.066711   -2.129680
  H     -2.114401   -0.156834   -2.930323

 Total Charge           Charge          ....    0
 Multiplicity           Mult            ....    1
 Number of Electrons    NEL             ....  102
 Basis Dimension        Dim             ....  505

ORBITAL ENERGIES
----------------

  NO   OCC          E(Eh)            E(eV)
   0   2.0000     -24.863338      -676.5658
   1   2.0000     -19.237912      -523.4902
   2   2.0000     -14.375535      -391.1782
   3   2.0000     -14.365711      -390.9109
   4   2.0000     -10.457090      -284.5519
   5   2.0000     -10.289988      -280.0048
   6   2.0000     -10.281721      -279.7799
   7   2.0000     -10.263059      -279.2720
   8   2.0000     -10.241984      -278.6986
   9   2.0000     -10.238117      -278.5933
  10   2.0000     -10.225171      -278.2410
  11   2.0000     -10.214072      -277.9390
  12   2.0000     -10.154864      -276.3279
  13   2.0000      -1.441619       -39.2284
  14   2.0000      -1.155013       -31.4295
  15   2.0000      -1.041326       -28.3359
  16   2.0000      -0.946563       -25.7573
  17   2.0000      -0.915918       -24.9234
  18   2.0000      -0.874009       -23.7830
  19   2.0000      -0.836460       -22.7612
  20   2.0000      -0.791486       -21.5374
  21   2.0000      -0.769208       -20.9312
  22   2.0000      -0.732414       -19.9300
  23   2.0000      -0.692192       -18.8355
  24   2.0000      -0.668232       -18.1835
  25   2.0000      -0.657699       -17.8969
  26   2.0000      -0.646572       -17.5941
  27   2.0000      -0.626208       -17.0400
  28   2.0000      -0.618227       -16.8228
  29   2.0000      -0.590512       -16.0686
  30   2.0000      -0.565662       -15.3924
  31   2.0000      -0.554555       -15.0902
  32   2.0000      -0.547571       -14.9002
  33   2.0000      -0.526406       -14.3242
  34   2.0000      -0.515054       -14.0153
  35   2.0000      -0.508400       -13.8343
  36   2.0000      -0.492347       -13.3974
  37   2.0000      -0.478949       -13.0329
  38   2.0000      -0.463145       -12.6028
  39   2.0000      -0.455522       -12.3954
  40   2.0000      -0.444395       -12.0926
  41   2.0000      -0.435318       -11.8456
  42   2.0000      -0.424422       -11.5491
  43   2.0000      -0.412889       -11.2353
  44   2.0000      -0.402745       -10.9592
  45   2.0000      -0.393195       -10.6994
  46   2.0000      -0.381982       -10.3942
  47   2.0000      -0.375206       -10.2099
  48   2.0000      -0.368821       -10.0361
  49   2.0000      -0.322608        -8.7786
  50   2.0000      -0.206649        -5.6232
  51   0.0000      -0.010065        -0.2739
  52   0.0000       0.056694         1.5427
  53   0.0000       0.080417         2.1882
  54   0.0000       0.085860         2.3364
  55   0.0000       0.087439         2.3793

MULLIKEN ATOMIC CHARGES
-----------------------
   0 C :   -0.222487
   1 C :   -0.298382
   2 C :   -0.176991
   3 C :   -0.249560
   4 H :    0.139516
   5 H :    0.151496
   6 C :    0.376167
   7 C :    0.109943
   8 N :   -0.382214
   9 N :   -0.373198
  10 H :    0.228610
  11 H :    0.202701
  12 H :    0.062380
  13 H :    0.223472
  14 H :    0.232016
  15 F :   -0.118998
  16 O :   -0.334407
  17 C :   -0.148139
  18 H :    0.103016
  19 H :    0.072167
  20 C :   -0.175852
  21 H :    0.089564
  22 H :    0.091522
  23 C :   -0.246675
  24 H :    0.088839
  25 H :    0.099563
  26 H :    0.105757
  27 H :    0.109524
  28 H :    0.118263
  29 H :    0.122386
Sum of atomic charges:   -0.0000000

LOEWDIN ATOMIC CHARGES
----------------------
   0 C :   -0.293353
   1 C :   -0.287248
   2 C :   -0.254278
   3 C :   -0.232200
   4 H :    0.146806
   5 H :    0.160385
   6 C :   -0.486443
   7 C :   -0.479679
   8 N :    0.014659
   9 N :   -0.018432
  10 H :    0.170724
  11 H :    0.150339
  12 H :    0.114257
  13 H :    0.171720
  14 H :    0.144543
  15 F :    0.334185
  16 O :    0.077478
  17 C :   -0.259039
  18 H :    0.137987
  19 H :    0.126705
  20 C :   -0.266486
  21 H :    0.132065
  22 H :    0.134786
  23 C :   -0.268014
  24 H :    0.133247
  25 H :    0.135228
  26 H :    0.134625
  27 H :    0.139439
  28 H :    0.141531
  29 H :    0.144461

  Mayer bond orders larger than 0.100000
B(  0-C ,  1-C ) :   0.9733 B(  0-C , 17-C ) :   0.9281 B(  0-C , 18-H ) :   0.9935
B(  0-C , 19-H ) :   0.9894 B(  1-C ,  7-C ) :   1.6797 B(  1-C , 12-H ) :   1.0337
B(  2-C ,  3-C ) :   0.9363 B(  2-C , 23-C ) :   0.9528 B(  2-C , 28-H ) :   0.9740
B(  2-C , 29-H ) :   0.9750 B(  3-C ,  4-H ) :   0.9622 B(  3-C ,  5-H ) :   0.9462
B(  3-C ,  6-C ) :   0.9851 B(  6-C , 15-F ) :   1.1152 B(  6-C , 16-O ) :   1.9859
B(  7-C ,  8-N ) :   1.2140 B(  7-C ,  9-N ) :   1.1490 B(  8-N , 13-H ) :   0.9309
B(  8-N , 14-H ) :   0.8803 B(  9-N , 10-H ) :   0.9306 B(  9-N , 11-H ) :   0.9337
B( 17-C , 20-C ) :   0.9729 B( 17-C , 21-H ) :   0.9757 B( 17-C , 22-H ) :   0.9801
B( 20-C , 23-C ) :   0.9050 B( 20-C , 24-H ) :   0.9658 B( 20-C , 25-H ) :   0.9798
B( 23-C , 26-H ) :   0.9804 B( 23-C , 27-H ) :   0.9804

FINAL SINGLE POINT ENERGY      -637.661252130286

DIPOLE MOMENT
-------------
                                X             Y             Z
Electronic contribution:     -3.10922       2.27384     -14.54158
Nuclear contribution   :      2.31842      -0.27661      14.74721
                        -----------------------------------------
Total Dipole Moment    :     -0.79079       1.99723       0.20562
                        -----------------------------------------
Magnitude (a.u.)       :      2.15791
Magnitude (Debye)      :      5.48497

Rotational constants in cm-1:     0.032691     0.023990     0.017099
Rotational constants in MHz :   980.050971   719.190545   512.606858

                             ****ORCA TERMINATED NORMALLY****
TOTAL RUN TIME: 0 days 0 hours 1 minutes 16 seconds 562 msec
