                         Program Version 5.0.0 -  RELEASE  -
|  1> !CAM-B3LYP RIJCOSX def2-TZVP def2/J TightSCF xyzfile
|  2>
|  3> *xyzfile 0 1 D2.xyz
|  4>
|  5> %MaxCore 64000
|  6>
|  7> %pal nprocs 18
|  8> end
|  9>
| 10> %scf
| 11>   MaxIter 150
| 12> end
| 13>
| 14>
| 15>                          ****END OF INPUT****

CARTESIAN COORDINATES (ANGSTROEM)
---------------------------------
  C      2.234473   -2.989754   -2.397622
  N      2.756799   -2.945553   -3.765029
  C     -1.104325    0.251374   -2.860056
  C     -0.711893    0.842517   -4.218344
  H      0.154626    1.499800   -4.130909
  H     -1.538134    1.459222   -4.582671
  C     -0.397624   -0.205875   -5.288018
  C      1.987208   -2.590451   -4.818975
  C      0.743221   -3.017493   -4.913524
  N      2.499636   -1.848598   -5.803241
  H      3.309780   -1.292818   -5.558947
  H      1.801025   -1.304298   -6.289129
  H      3.716116   -2.628797   -3.829533
  H      0.395828   -3.627747   -4.185024
  H      0.039201   -2.454383   -5.371367
  F      0.617165   -0.005348   -5.998273
  O     -1.133173   -1.221380   -5.341465
  C      2.191199   -1.619503   -1.715492
  H      2.872783   -3.666368   -1.828014
  H      1.246188   -3.447444   -2.407842
  C      1.298729   -0.554314   -2.359773
  H      1.872917   -1.787955   -0.681310
  H      3.216809   -1.238432   -1.654428
  C     -0.196255   -0.863365   -2.325763
  H      1.612531   -0.371346   -3.393065
  H      1.480944    0.388638   -1.834444
  H     -0.404105   -1.761825   -2.909448
  H     -0.490439   -1.087880   -1.294131
  H     -1.143842    1.066711   -2.129680
  H     -2.114401   -0.156834   -2.930323

 Total Charge           Charge          ....    0
 Multiplicity           Mult            ....    1
 Number of Electrons    NEL             ....  102
 Basis Dimension        Dim             ....  505

ORBITAL ENERGIES
----------------

  NO   OCC          E(Eh)            E(eV)
   0   2.0000     -24.845817      -676.0891
   1   2.0000     -19.212661      -522.8031
   2   2.0000     -14.380029      -391.3005
   3   2.0000     -14.372719      -391.1016
   4   2.0000     -10.435316      -283.9594
   5   2.0000     -10.279287      -279.7136
   6   2.0000     -10.275397      -279.6078
   7   2.0000     -10.270685      -279.4795
   8   2.0000     -10.256595      -279.0961
   9   2.0000     -10.244839      -278.7762
  10   2.0000     -10.244097      -278.7560
  11   2.0000     -10.238085      -278.5925
  12   2.0000     -10.135516      -275.8014
  13   2.0000      -1.423994       -38.7489
  14   2.0000      -1.129951       -30.7475
  15   2.0000      -1.041699       -28.3461
  16   2.0000      -0.962414       -26.1886
  17   2.0000      -0.908233       -24.7143
  18   2.0000      -0.868575       -23.6351
  19   2.0000      -0.816630       -22.2216
  20   2.0000      -0.788995       -21.4697
  21   2.0000      -0.771157       -20.9842
  22   2.0000      -0.741801       -20.1854
  23   2.0000      -0.696944       -18.9648
  24   2.0000      -0.665044       -18.0968
  25   2.0000      -0.645259       -17.5584
  26   2.0000      -0.623308       -16.9611
  27   2.0000      -0.620813       -16.8932
  28   2.0000      -0.603829       -16.4310
  29   2.0000      -0.597210       -16.2509
  30   2.0000      -0.566385       -15.4121
  31   2.0000      -0.554078       -15.0772
  32   2.0000      -0.541511       -14.7353
  33   2.0000      -0.519351       -14.1323
  34   2.0000      -0.514155       -13.9909
  35   2.0000      -0.493959       -13.4413
  36   2.0000      -0.484549       -13.1852
  37   2.0000      -0.477103       -12.9826
  38   2.0000      -0.466192       -12.6857
  39   2.0000      -0.452412       -12.3108
  40   2.0000      -0.441923       -12.0253
  41   2.0000      -0.432637       -11.7727
  42   2.0000      -0.426949       -11.6179
  43   2.0000      -0.421358       -11.4657
  44   2.0000      -0.411153       -11.1881
  45   2.0000      -0.396124       -10.7791
  46   2.0000      -0.386264       -10.5108
  47   2.0000      -0.383271       -10.4293
  48   2.0000      -0.352496        -9.5919
  49   2.0000      -0.307034        -8.3548
  50   2.0000      -0.220000        -5.9865
  51   0.0000       0.009691         0.2637
  52   0.0000       0.055595         1.5128
  53   0.0000       0.072477         1.9722
  54   0.0000       0.082079         2.2335
  55   0.0000       0.094920         2.5829

MULLIKEN ATOMIC CHARGES
-----------------------
   0 C :   -0.150069
   1 N :   -0.272743
   2 C :   -0.178514
   3 C :   -0.252609
   4 H :    0.130514
   5 H :    0.146743
   6 C :    0.377585
   7 C :    0.196922
   8 C :   -0.493927
   9 N :   -0.390807
  10 H :    0.190595
  11 H :    0.225564
  12 H :    0.177304
  13 H :    0.071478
  14 H :    0.141725
  15 F :   -0.132679
  16 O :   -0.303742
  17 C :   -0.216667
  18 H :    0.126996
  19 H :    0.132625
  20 C :   -0.162262
  21 H :    0.098007
  22 H :    0.101742
  23 C :   -0.238986
  24 H :    0.089732
  25 H :    0.102542
  26 H :    0.146014
  27 H :    0.102410
  28 H :    0.113272
  29 H :    0.121235
Sum of atomic charges:    0.0000000

LOEWDIN ATOMIC CHARGES
----------------------
   0 C :   -0.278528
   1 N :    0.101897
   2 C :   -0.254389
   3 C :   -0.235132
   4 H :    0.143080
   5 H :    0.158350
   6 C :   -0.490947
   7 C :   -0.486121
   8 C :   -0.306793
   9 N :   -0.026424
  10 H :    0.150146
  11 H :    0.164002
  12 H :    0.170894
  13 H :    0.095647
  14 H :    0.095883
  15 F :    0.328758
  16 O :    0.095220
  17 C :   -0.270591
  18 H :    0.131564
  19 H :    0.138128
  20 C :   -0.266843
  21 H :    0.138445
  22 H :    0.132625
  23 C :   -0.266695
  24 H :    0.134408
  25 H :    0.135916
  26 H :    0.145816
  27 H :    0.137021
  28 H :    0.139202
  29 H :    0.145462

  Mayer bond orders larger than 0.100000
B(  0-C ,  1-N ) :   0.9165 B(  0-C , 17-C ) :   0.9544 B(  0-C , 18-H ) :   0.9899
B(  0-C , 19-H ) :   0.9835 B(  1-N ,  7-C ) :   1.1262 B(  1-N , 12-H ) :   0.9343
B(  2-C ,  3-C ) :   0.9407 B(  2-C , 23-C ) :   0.9588 B(  2-C , 28-H ) :   0.9761
B(  2-C , 29-H ) :   0.9721 B(  3-C ,  4-H ) :   0.9634 B(  3-C ,  5-H ) :   0.9503
B(  3-C ,  6-C ) :   0.9804 B(  6-C , 15-F ) :   1.0940 B(  6-C , 16-O ) :   2.0349
B(  7-C ,  8-C ) :   1.6095 B(  7-C ,  9-N ) :   1.1513 B(  8-C , 13-H ) :   1.0332
B(  8-C , 14-H ) :   0.9952 B(  9-N , 10-H ) :   0.9336 B(  9-N , 11-H ) :   0.9224
B( 17-C , 20-C ) :   0.9551 B( 17-C , 21-H ) :   0.9741 B( 17-C , 22-H ) :   0.9847
B( 20-C , 23-C ) :   0.9011 B( 20-C , 24-H ) :   0.9679 B( 20-C , 25-H ) :   0.9811
B( 23-C , 26-H ) :   0.9763 B( 23-C , 27-H ) :   0.9790

FINAL SINGLE POINT ENERGY      -637.642043006121

DIPOLE MOMENT
-------------
                                X             Y             Z
Electronic contribution:     -1.47423       2.20356     -13.53691
Nuclear contribution   :      2.00823      -0.28769      14.57028
                        -----------------------------------------
Total Dipole Moment    :      0.53400       1.91587       1.03337
                        -----------------------------------------
Magnitude (a.u.)       :      2.24133
Magnitude (Debye)      :      5.69701

Rotational constants in cm-1:     0.033070     0.023715     0.016943
Rotational constants in MHz :   991.423248   710.957140   507.940500

                             ****ORCA TERMINATED NORMALLY****
TOTAL RUN TIME: 0 days 0 hours 1 minutes 14 seconds 49 msec
