                         Program Version 5.0.0 -  RELEASE  -
|  1> !CAM-B3LYP RIJCOSX def2-TZVP def2/J TightSCF xyzfile
|  2>
|  3> *xyzfile 0 1 D3.xyz
|  4>
|  5> %MaxCore 64000
|  6>
|  7> %pal nprocs 18
|  8> end
|  9>
| 10> %scf
| 11>   MaxIter 150
| 12> end
| 13>
| 14>
| 15>                          ****END OF INPUT****

CARTESIAN COORDINATES (ANGSTROEM)
---------------------------------
  C      2.234473   -2.989754   -2.397622
  N      2.756799   -2.945553   -3.765029
  C     -1.104325    0.251374   -2.860056
  C     -0.711893    0.842517   -4.218344
  H      0.154626    1.499800   -4.130909
  H     -1.538134    1.459222   -4.582671
  C     -0.397624   -0.205875   -5.288018
  C      1.987208   -2.590451   -4.818975
  N      0.743221   -3.017493   -4.913524
  C      2.499636   -1.848598   -5.803241
  H      3.309780   -1.292818   -5.558947
  H      1.801025   -1.304298   -6.289129
  H      3.716116   -2.628797   -3.829533
  H      0.395828   -3.627747   -4.185024
  H      0.039201   -2.454383   -5.371367
  F      0.617165   -0.005348   -5.998273
  O     -1.133173   -1.221380   -5.341465
  C      2.191199   -1.619503   -1.715492
  H      2.872783   -3.666368   -1.828014
  H      1.246188   -3.447444   -2.407842
  C      1.298729   -0.554314   -2.359773
  H      1.872917   -1.787955   -0.681310
  H      3.216809   -1.238432   -1.654428
  C     -0.196255   -0.863365   -2.325763
  H      1.612531   -0.371346   -3.393065
  H      1.480944    0.388638   -1.834444
  H     -0.404105   -1.761825   -2.909448
  H     -0.490439   -1.087880   -1.294131
  H     -1.143842    1.066711   -2.129680
  H     -2.114401   -0.156834   -2.930323

 Total Charge           Charge          ....    0
 Multiplicity           Mult            ....    1
 Number of Electrons    NEL             ....  102
 Basis Dimension        Dim             ....  505

ORBITAL ENERGIES
----------------

  NO   OCC          E(Eh)            E(eV)
   0   2.0000     -24.839222      -675.9096
   1   2.0000     -19.226236      -523.1725
   2   2.0000     -14.380356      -391.3094
   3   2.0000     -14.362977      -390.8365
   4   2.0000     -10.446045      -284.2513
   5   2.0000     -10.284457      -279.8543
   6   2.0000     -10.281661      -279.7782
   7   2.0000     -10.278371      -279.6887
   8   2.0000     -10.263330      -279.2794
   9   2.0000     -10.247617      -278.8518
  10   2.0000     -10.247561      -278.8503
  11   2.0000     -10.247002      -278.8351
  12   2.0000     -10.139081      -275.8984
  13   2.0000      -1.418547       -38.6006
  14   2.0000      -1.143892       -31.1269
  15   2.0000      -1.041632       -28.3443
  16   2.0000      -0.957738       -26.0614
  17   2.0000      -0.914790       -24.8927
  18   2.0000      -0.874327       -23.7916
  19   2.0000      -0.827259       -22.5109
  20   2.0000      -0.791028       -21.5250
  21   2.0000      -0.768527       -20.9127
  22   2.0000      -0.732674       -19.9371
  23   2.0000      -0.696332       -18.9481
  24   2.0000      -0.671542       -18.2736
  25   2.0000      -0.656611       -17.8673
  26   2.0000      -0.636829       -17.3290
  27   2.0000      -0.619111       -16.8469
  28   2.0000      -0.606159       -16.4944
  29   2.0000      -0.597465       -16.2579
  30   2.0000      -0.565798       -15.3961
  31   2.0000      -0.552682       -15.0392
  32   2.0000      -0.544958       -14.8291
  33   2.0000      -0.533474       -14.5166
  34   2.0000      -0.519344       -14.1321
  35   2.0000      -0.505318       -13.7504
  36   2.0000      -0.484656       -13.1882
  37   2.0000      -0.479058       -13.0358
  38   2.0000      -0.459641       -12.5075
  39   2.0000      -0.449552       -12.2329
  40   2.0000      -0.445625       -12.1261
  41   2.0000      -0.436335       -11.8733
  42   2.0000      -0.429272       -11.6811
  43   2.0000      -0.424593       -11.5538
  44   2.0000      -0.412134       -11.2147
  45   2.0000      -0.400575       -10.9002
  46   2.0000      -0.397482       -10.8160
  47   2.0000      -0.389876       -10.6091
  48   2.0000      -0.377502       -10.2724
  49   2.0000      -0.304723        -8.2919
  50   2.0000      -0.217886        -5.9290
  51   0.0000       0.000833         0.0227
  52   0.0000       0.058182         1.5832
  53   0.0000       0.074442         2.0257
  54   0.0000       0.077646         2.1129
  55   0.0000       0.090835         2.4717

MULLIKEN ATOMIC CHARGES
-----------------------
   0 C :   -0.189946
   1 N :   -0.255502
   2 C :   -0.178104
   3 C :   -0.254827
   4 H :    0.140726
   5 H :    0.149158
   6 C :    0.391910
   7 C :    0.150678
   8 N :   -0.399360
   9 C :   -0.390408
  10 H :    0.058707
  11 H :    0.047933
  12 H :    0.205828
  13 H :    0.202776
  14 H :    0.251648
  15 F :   -0.087262
  16 O :   -0.351732
  17 C :   -0.191451
  18 H :    0.134144
  19 H :    0.110317
  20 C :   -0.197273
  21 H :    0.095745
  22 H :    0.108801
  23 C :   -0.239588
  24 H :    0.130958
  25 H :    0.105659
  26 H :    0.104534
  27 H :    0.106465
  28 H :    0.117376
  29 H :    0.122092
Sum of atomic charges:    0.0000000

LOEWDIN ATOMIC CHARGES
----------------------
   0 C :   -0.292390
   1 N :    0.105141
   2 C :   -0.254091
   3 C :   -0.231331
   4 H :    0.147249
   5 H :    0.159773
   6 C :   -0.480691
   7 C :   -0.479368
   8 N :    0.016688
   9 C :   -0.360770
  10 H :    0.091192
  11 H :    0.093231
  12 H :    0.187760
  13 H :    0.156752
  14 H :    0.156142
  15 F :    0.351399
  16 O :    0.068864
  17 C :   -0.269682
  18 H :    0.133002
  19 H :    0.126883
  20 C :   -0.266500
  21 H :    0.137699
  22 H :    0.136332
  23 C :   -0.270025
  24 H :    0.141781
  25 H :    0.137473
  26 H :    0.133905
  27 H :    0.137764
  28 H :    0.140894
  29 H :    0.144927

  Mayer bond orders larger than 0.100000
B(  0-C ,  1-N ) :   0.9425 B(  0-C , 17-C ) :   0.9388 B(  0-C , 18-H ) :   0.9916
B(  0-C , 19-H ) :   0.9937 B(  1-N ,  7-C ) :   1.1833 B(  1-N , 12-H ) :   0.9289
B(  2-C ,  3-C ) :   0.9367 B(  2-C , 23-C ) :   0.9599 B(  2-C , 28-H ) :   0.9750
B(  2-C , 29-H ) :   0.9739 B(  3-C ,  4-H ) :   0.9636 B(  3-C ,  5-H ) :   0.9476
B(  3-C ,  6-C ) :   0.9837 B(  6-C , 15-F ) :   1.1660 B(  6-C , 16-O ) :   1.9659
B(  7-C ,  8-N ) :   1.1580 B(  7-C ,  9-C ) :   1.6822 B(  8-N , 13-H ) :   0.9383
B(  8-N , 14-H ) :   0.8711 B(  9-C , 10-H ) :   1.0165 B(  9-C , 11-H ) :   1.0212
B( 17-C , 20-C ) :   0.9485 B( 17-C , 21-H ) :   0.9726 B( 17-C , 22-H ) :   0.9809
B( 20-C , 23-C ) :   0.9003 B( 20-C , 24-H ) :   0.9670 B( 20-C , 25-H ) :   0.9776
B( 23-C , 26-H ) :   0.9794 B( 23-C , 27-H ) :   0.9772

FINAL SINGLE POINT ENERGY      -637.647952461619

DIPOLE MOMENT
-------------
                                X             Y             Z
Electronic contribution:     -2.86901       1.35533     -12.72560
Nuclear contribution   :      2.27881      -0.10762      14.43322
                        -----------------------------------------
Total Dipole Moment    :     -0.59020       1.24771       1.70762
                        -----------------------------------------
Magnitude (a.u.)       :      2.19569
Magnitude (Debye)      :      5.58101

Rotational constants in cm-1:     0.033336     0.023673     0.017062
Rotational constants in MHz :   999.388459   709.685364   511.514310

                             ****ORCA TERMINATED NORMALLY****
TOTAL RUN TIME: 0 days 0 hours 1 minutes 28 seconds 279 msec
