                         Program Version 5.0.0 -  RELEASE  -
|  1> !CAM-B3LYP RIJCOSX def2-TZVP def2/J TightSCF xyzfile
|  2>
|  3> *xyzfile 0 1 D4.xyz
|  4>
|  5> %MaxCore 64000
|  6>
|  7> %pal nprocs 18
|  8> end
|  9>
| 10> %scf
| 11>   MaxIter 150
| 12> end
| 13>
| 14>
| 15>                          ****END OF INPUT****

CARTESIAN COORDINATES (ANGSTROEM)
---------------------------------
  C      2.234473   -2.989754   -2.397622
  C      2.756799   -2.945553   -3.765029
  C     -1.104325    0.251374   -2.860056
  C     -0.711893    0.842517   -4.218344
  H      0.154626    1.499800   -4.130909
  H     -1.538134    1.459222   -4.582671
  C     -0.397624   -0.205875   -5.288018
  C      1.987208   -2.590451   -4.818975
  N      0.743221   -3.017493   -4.913524
  N      2.499636   -1.848598   -5.803241
  H      3.309780   -1.292818   -5.558947
  H      1.801025   -1.304298   -6.289129
  H      3.716116   -2.628797   -3.829533
  H      0.395828   -3.627747   -4.185024
  H      0.039201   -2.454383   -5.371367
  O      0.617165   -0.005348   -5.998273
  F     -1.133173   -1.221380   -5.341465
  C      2.191199   -1.619503   -1.715492
  H      2.872783   -3.666368   -1.828014
  H      1.246188   -3.447444   -2.407842
  C      1.298729   -0.554314   -2.359773
  H      1.872917   -1.787955   -0.681310
  H      3.216809   -1.238432   -1.654428
  C     -0.196255   -0.863365   -2.325763
  H      1.612531   -0.371346   -3.393065
  H      1.480944    0.388638   -1.834444
  H     -0.404105   -1.761825   -2.909448
  H     -0.490439   -1.087880   -1.294131
  H     -1.143842    1.066711   -2.129680
  H     -2.114401   -0.156834   -2.930323

 Total Charge           Charge          ....    0
 Multiplicity           Mult            ....    1
 Number of Electrons    NEL             ....  102
 Basis Dimension        Dim             ....  505

ORBITAL ENERGIES
----------------

  NO   OCC          E(Eh)            E(eV)
   0   2.0000     -24.863787      -676.5780
   1   2.0000     -19.237503      -523.4791
   2   2.0000     -14.378127      -391.2487
   3   2.0000     -14.360314      -390.7640
   4   2.0000     -10.456000      -284.5222
   5   2.0000     -10.288819      -279.9730
   6   2.0000     -10.280165      -279.7375
   7   2.0000     -10.266819      -279.3743
   8   2.0000     -10.247691      -278.8538
   9   2.0000     -10.236482      -278.5488
  10   2.0000     -10.224611      -278.2258
  11   2.0000     -10.214298      -277.9452
  12   2.0000     -10.153468      -276.2899
  13   2.0000      -1.442929       -39.2641
  14   2.0000      -1.152549       -31.3625
  15   2.0000      -1.039460       -28.2851
  16   2.0000      -0.944254       -25.6945
  17   2.0000      -0.919757       -25.0279
  18   2.0000      -0.874171       -23.7874
  19   2.0000      -0.835546       -22.7363
  20   2.0000      -0.787521       -21.4295
  21   2.0000      -0.769449       -20.9378
  22   2.0000      -0.735786       -20.0218
  23   2.0000      -0.693560       -18.8727
  24   2.0000      -0.675882       -18.3917
  25   2.0000      -0.658740       -17.9252
  26   2.0000      -0.649010       -17.6605
  27   2.0000      -0.636188       -17.3116
  28   2.0000      -0.601891       -16.3783
  29   2.0000      -0.589663       -16.0456
  30   2.0000      -0.560528       -15.2528
  31   2.0000      -0.556591       -15.1456
  32   2.0000      -0.547368       -14.8946
  33   2.0000      -0.520406       -14.1610
  34   2.0000      -0.511896       -13.9294
  35   2.0000      -0.508257       -13.8304
  36   2.0000      -0.500205       -13.6113
  37   2.0000      -0.473311       -12.8794
  38   2.0000      -0.467222       -12.7138
  39   2.0000      -0.461411       -12.5556
  40   2.0000      -0.451899       -12.2968
  41   2.0000      -0.430754       -11.7214
  42   2.0000      -0.427546       -11.6341
  43   2.0000      -0.411950       -11.2097
  44   2.0000      -0.403954       -10.9921
  45   2.0000      -0.390981       -10.6391
  46   2.0000      -0.383039       -10.4230
  47   2.0000      -0.372107       -10.1256
  48   2.0000      -0.369594       -10.0572
  49   2.0000      -0.321878        -8.7587
  50   2.0000      -0.205216        -5.5842
  51   0.0000      -0.006594        -0.1794
  52   0.0000       0.053503         1.4559
  53   0.0000       0.079321         2.1584
  54   0.0000       0.085451         2.3252
  55   0.0000       0.090241         2.4556

MULLIKEN ATOMIC CHARGES
-----------------------
   0 C :   -0.222368
   1 C :   -0.299927
   2 C :   -0.208641
   3 C :   -0.237899
   4 H :    0.154791
   5 H :    0.147964
   6 C :    0.373354
   7 C :    0.117336
   8 N :   -0.392095
   9 N :   -0.364458
  10 H :    0.223065
  11 H :    0.224819
  12 H :    0.065335
  13 H :    0.228691
  14 H :    0.212006
  15 O :   -0.347856
  16 F :   -0.113307
  17 C :   -0.145193
  18 H :    0.103639
  19 H :    0.065963
  20 C :   -0.191328
  21 H :    0.087029
  22 H :    0.093635
  23 C :   -0.237270
  24 H :    0.122360
  25 H :    0.100240
  26 H :    0.083728
  27 H :    0.112498
  28 H :    0.121441
  29 H :    0.122447
Sum of atomic charges:   -0.0000000

LOEWDIN ATOMIC CHARGES
----------------------
   0 C :   -0.294946
   1 C :   -0.286362
   2 C :   -0.264083
   3 C :   -0.228048
   4 H :    0.158332
   5 H :    0.156813
   6 C :   -0.489227
   7 C :   -0.475977
   8 N :    0.009163
   9 N :   -0.011197
  10 H :    0.170279
  11 H :    0.151112
  12 H :    0.115480
  13 H :    0.171693
  14 H :    0.146353
  15 O :    0.072340
  16 F :    0.337989
  17 C :   -0.259454
  18 H :    0.137919
  19 H :    0.124676
  20 C :   -0.266168
  21 H :    0.131008
  22 H :    0.135735
  23 C :   -0.270617
  24 H :    0.140648
  25 H :    0.135746
  26 H :    0.128418
  27 H :    0.140030
  28 H :    0.142890
  29 H :    0.139457

  Mayer bond orders larger than 0.100000
B(  0-C ,  1-C ) :   0.9743 B(  0-C , 17-C ) :   0.9241 B(  0-C , 18-H ) :   0.9946
B(  0-C , 19-H ) :   0.9908 B(  1-C ,  7-C ) :   1.6801 B(  1-C , 12-H ) :   1.0329
B(  2-C ,  3-C ) :   0.9144 B(  2-C , 23-C ) :   0.9332 B(  2-C , 28-H ) :   0.9700
B(  2-C , 29-H ) :   0.9879 B(  3-C ,  4-H ) :   0.9678 B(  3-C ,  5-H ) :   0.9501
B(  3-C ,  6-C ) :   0.9865 B(  6-C , 15-O ) :   1.9804 B(  6-C , 16-F ) :   1.1188
B(  7-C ,  8-N ) :   1.1770 B(  7-C ,  9-N ) :   1.1855 B(  8-N , 13-H ) :   0.9282
B(  8-N , 14-H ) :   0.9132 B(  9-N , 10-H ) :   0.9328 B(  9-N , 11-H ) :   0.9080
B( 17-C , 20-C ) :   0.9679 B( 17-C , 21-H ) :   0.9757 B( 17-C , 22-H ) :   0.9798
B( 20-C , 23-C ) :   0.8948 B( 20-C , 24-H ) :   0.9650 B( 20-C , 25-H ) :   0.9795
B( 23-C , 26-H ) :   0.9890 B( 23-C , 27-H ) :   0.9798

FINAL SINGLE POINT ENERGY      -637.661198241162

DIPOLE MOMENT
-------------
                                X             Y             Z
Electronic contribution:     -6.03657       0.24977     -13.43288
Nuclear contribution   :      4.38568       1.15960      13.97148
                        -----------------------------------------
Total Dipole Moment    :     -1.65089       1.40937       0.53860
                        -----------------------------------------
Magnitude (a.u.)       :      2.23648
Magnitude (Debye)      :      5.68468

Rotational constants in cm-1:     0.032892     0.023844     0.017123
Rotational constants in MHz :   986.091711   714.821905   513.334630

                             ****ORCA TERMINATED NORMALLY****
TOTAL RUN TIME: 0 days 0 hours 1 minutes 21 seconds 413 msec
