                         Program Version 5.0.0 -  RELEASE  -
|  1> !B3LYP D3BJ RIJCOSX def2-SVP def2/J TightSCF
|  2> *xyz -1 1
|  3> C         -2.79070       -0.78527        5.70281
|  4> C         -2.45380        0.05510        6.94145
|  5> C         -2.07842        1.48042        6.56410
|  6> H         -1.62558       -0.38216        7.49891
|  7> H         -3.32527        0.08775        7.59917
|  8> O         -0.90125        1.85816        6.82810
|  9> O         -2.93658        2.17731        5.96415
| 10> H         -1.94052       -0.82114        5.05412
| 11> H         -3.61590       -0.34261        5.18514
| 12> H         -3.05063       -1.77815        6.00536
| 13> *
| 14> %MaxCore 64000
| 15>
| 16> %pal nprocs 4
| 17> end
| 18>
| 19> %scf
| 20>   MaxIter 150
| 21> end
| 22>
| 23>
| 24>                          ****END OF INPUT****

CARTESIAN COORDINATES (ANGSTROEM)
---------------------------------
  C     -2.790700   -0.785270    5.702810
  C     -2.453800    0.055100    6.941450
  C     -2.078420    1.480420    6.564100
  H     -1.625580   -0.382160    7.498910
  H     -3.325270    0.087750    7.599170
  O     -0.901250    1.858160    6.828100
  O     -2.936580    2.177310    5.964150
  H     -1.940520   -0.821140    5.054120
  H     -3.615900   -0.342610    5.185140
  H     -3.050630   -1.778150    6.005360

 Total Charge           Charge          ....   -1
 Multiplicity           Mult            ....    1
 Number of Electrons    NEL             ....   40
 Basis Dimension        Dim             ....   95

ORBITAL ENERGIES
----------------

  NO   OCC          E(Eh)            E(eV)
   0   2.0000     -18.830674      -512.4087
   1   2.0000     -18.828336      -512.3451
   2   2.0000     -10.031654      -272.9752
   3   2.0000     -10.012688      -272.4591
   4   2.0000      -9.990234      -271.8481
   5   2.0000      -0.768726       -20.9181
   6   2.0000      -0.674773       -18.3615
   7   2.0000      -0.583503       -15.8779
   8   2.0000      -0.452604       -12.3160
   9   2.0000      -0.298594        -8.1252
  10   2.0000      -0.277797        -7.5592
  11   2.0000      -0.234463        -6.3801
  12   2.0000      -0.209249        -5.6939
  13   2.0000      -0.193352        -5.2614
  14   2.0000      -0.179469        -4.8836
  15   2.0000      -0.146183        -3.9778
  16   2.0000      -0.132132        -3.5955
  17   2.0000      -0.008366        -0.2276
  18   2.0000      -0.006354        -0.1729
  19   2.0000       0.012283         0.3342
  20   0.0000       0.216119         5.8809
  21   0.0000       0.265729         7.2308
  22   0.0000       0.279345         7.6014
  23   0.0000       0.282881         7.6976
  24   0.0000       0.289315         7.8727

MULLIKEN ATOMIC CHARGES
-----------------------
   0 C :    0.044659
   1 C :    0.064286
   2 C :    0.006003
   3 H :   -0.073369
   4 H :   -0.061707
   5 O :   -0.436111
   6 O :   -0.436054
   7 H :   -0.025828
   8 H :   -0.019940
   9 H :   -0.061938
Sum of atomic charges:   -1.0000000

LOEWDIN ATOMIC CHARGES
----------------------
   0 C :   -0.052873
   1 C :   -0.080854
   2 C :   -0.053279
   3 H :   -0.009300
   4 H :   -0.003201
   5 O :   -0.401661
   6 O :   -0.400218
   7 H :    0.006542
   8 H :    0.006191
   9 H :   -0.011346

  Mayer bond orders larger than 0.100000
B(  0-C ,  1-C ) :   1.1020 B(  0-C ,  7-H ) :   0.9692 B(  0-C ,  8-H ) :   0.9596
B(  0-C ,  9-H ) :   0.9593 B(  1-C ,  2-C ) :   0.9249 B(  1-C ,  3-H ) :   0.9249
B(  1-C ,  4-H ) :   0.9226 B(  2-C ,  5-O ) :   1.8595 B(  2-C ,  6-O ) :   1.8346
B(  5-O ,  6-O ) :   0.1183

Dispersion correction           -0.010986427
FINAL SINGLE POINT ENERGY      -267.478364727874

DIPOLE MOMENT
-------------
                                X             Y             Z
Electronic contribution:      1.71177       5.78834       0.63243
Nuclear contribution   :     -2.24498      -7.51881      -0.57245
                        -----------------------------------------
Total Dipole Moment    :     -0.53321      -1.73047       0.05998
                        -----------------------------------------
Magnitude (a.u.)       :      1.81175
Magnitude (Debye)      :      4.60509

Rotational constants in cm-1:     0.305589     0.135336     0.107479
Rotational constants in MHz :  9161.317320  4057.276612  3222.126231

                             ****ORCA TERMINATED NORMALLY****
TOTAL RUN TIME: 0 days 0 hours 0 minutes 10 seconds 320 msec
