                         Program Version 5.0.0 -  RELEASE  -
|  1> !B3LYP D3BJ RIJCOSX def2-SVP def2/J TightSCF
|  2> *xyz 1 1
|  3> C         -0.69912        3.48945        3.75516
|  4> H         -0.96672        4.34901        3.14049
|  5> N         -1.08067        3.79296        5.15686
|  6> C          0.77696        3.13839        3.61741
|  7> H         -1.33146        2.65651        3.44632
|  8> H         -0.87449        4.76274        5.42734
|  9> H         -0.68079        3.13476        5.83900
| 10> H         -2.05755        3.53169        5.34620
| 11> H          0.99957        2.92898        2.59199
| 12> H          0.99576        2.27685        4.21303
| 13> H          1.37223        3.96279        3.95046
| 14> *
| 15> %MaxCore 64000
| 16>
| 17> %pal nprocs 4
| 18> end
| 19>
| 20> %scf
| 21>   MaxIter 150
| 22> end
| 23>
| 24>
| 25>                          ****END OF INPUT****

CARTESIAN COORDINATES (ANGSTROEM)
---------------------------------
  C     -0.699120    3.489450    3.755160
  H     -0.966720    4.349010    3.140490
  N     -1.080670    3.792960    5.156860
  C      0.776960    3.138390    3.617410
  H     -1.331460    2.656510    3.446320
  H     -0.874490    4.762740    5.427340
  H     -0.680790    3.134760    5.839000
  H     -2.057550    3.531690    5.346200
  H      0.999570    2.928980    2.591990
  H      0.995760    2.276850    4.213030
  H      1.372230    3.962790    3.950460

 Total Charge           Charge          ....    1
 Multiplicity           Mult            ....    1
 Number of Electrons    NEL             ....   26
 Basis Dimension        Dim             ....   82

ORBITAL ENERGIES
----------------

  NO   OCC          E(Eh)            E(eV)
   0   2.0000     -14.668217      -399.1425
   1   2.0000     -10.437444      -284.0173
   2   2.0000     -10.358623      -281.8725
   3   2.0000      -1.210891       -32.9500
   4   2.0000      -0.960189       -26.1281
   5   2.0000      -0.841548       -22.8997
   6   2.0000      -0.817741       -22.2519
   7   2.0000      -0.768906       -20.9230
   8   2.0000      -0.699686       -19.0394
   9   2.0000      -0.642685       -17.4883
  10   2.0000      -0.581314       -15.8184
  11   2.0000      -0.567325       -15.4377
  12   2.0000      -0.550123       -14.9696
  13   0.0000      -0.187988        -5.1154
  14   0.0000      -0.129332        -3.5193
  15   0.0000      -0.126138        -3.4324
  16   0.0000      -0.091098        -2.4789
  17   0.0000      -0.051097        -1.3904

MULLIKEN ATOMIC CHARGES
-----------------------
   0 C :   -0.018650
   1 H :    0.094445
   2 N :    0.030261
   3 C :    0.005998
   4 H :    0.084906
   5 H :    0.218815
   6 H :    0.194503
   7 H :    0.203648
   8 H :    0.085572
   9 H :    0.049406
  10 H :    0.051096
Sum of atomic charges:    1.0000000

LOEWDIN ATOMIC CHARGES
----------------------
   0 C :    0.055002
   1 H :    0.054662
   2 N :    0.293988
   3 C :   -0.031478
   4 H :    0.051197
   5 H :    0.147314
   6 H :    0.143255
   7 H :    0.149242
   8 H :    0.061644
   9 H :    0.036972
  10 H :    0.038202

  Mayer bond orders larger than 0.100000
B(  0-C ,  1-H ) :   0.9502 B(  0-C ,  2-N ) :   0.9286 B(  0-C ,  3-C ) :   1.1081
B(  0-C ,  4-H ) :   0.9528 B(  2-N ,  5-H ) :   0.9334 B(  2-N ,  6-H ) :   0.9330
B(  2-N ,  7-H ) :   0.9345 B(  3-C ,  8-H ) :   0.9567 B(  3-C ,  9-H ) :   0.9662
B(  3-C , 10-H ) :   0.9702

Dispersion correction           -0.009988775
FINAL SINGLE POINT ENERGY      -135.345246833100

DIPOLE MOMENT
-------------
                                X             Y             Z
Electronic contribution:     -1.35594       0.58635       1.14500
Nuclear contribution   :      0.33986      -0.24565       0.10678
                        -----------------------------------------
Total Dipole Moment    :     -1.01609       0.34070       1.25178
                        -----------------------------------------
Magnitude (a.u.)       :      1.64786
Magnitude (Debye)      :      4.18854

Rotational constants in cm-1:     1.016237     0.277523     0.247812
Rotational constants in MHz : 30466.024354  8319.937961  7429.230177

                             ****ORCA TERMINATED NORMALLY****
TOTAL RUN TIME: 0 days 0 hours 0 minutes 8 seconds 703 msec
