                         Program Version 5.0.0 -  RELEASE  -
|  1> !B3LYP D3BJ RIJCOSX def2-SVP def2/J TightSCF
|  2> *xyz 0 1
|  3> C         -0.69912        3.48945        3.75516
|  4> H         -0.96672        4.34901        3.14049
|  5> C         -1.08067        3.79296        5.15686
|  6> C          0.77696        3.13839        3.61741
|  7> H         -1.33146        2.65651        3.44632
|  8> H         -0.87449        4.76274        5.42734
|  9> H         -0.68079        3.13476        5.83900
| 10> H         -2.05755        3.53169        5.34620
| 11> H          0.99957        2.92898        2.59199
| 12> H          0.99576        2.27685        4.21303
| 13> H          1.37223        3.96279        3.95046
| 14> *
| 15> %MaxCore 64000
| 16>
| 17> %pal nprocs 4
| 18> end
| 19>
| 20> %scf
| 21>   MaxIter 150
| 22> end
| 23>
| 24>
| 25>                          ****END OF INPUT****

CARTESIAN COORDINATES (ANGSTROEM)
---------------------------------
  C     -0.699120    3.489450    3.755160
  H     -0.966720    4.349010    3.140490
  C     -1.080670    3.792960    5.156860
  C      0.776960    3.138390    3.617410
  H     -1.331460    2.656510    3.446320
  H     -0.874490    4.762740    5.427340
  H     -0.680790    3.134760    5.839000
  H     -2.057550    3.531690    5.346200
  H      0.999570    2.928980    2.591990
  H      0.995760    2.276850    4.213030
  H      1.372230    3.962790    3.950460

 Total Charge           Charge          ....    0
 Multiplicity           Mult            ....    1
 Number of Electrons    NEL             ....   26
 Basis Dimension        Dim             ....   82

ORBITAL ENERGIES
----------------

  NO   OCC          E(Eh)            E(eV)
   0   2.0000     -10.168122      -276.6887
   1   2.0000     -10.161330      -276.5039
   2   2.0000     -10.144702      -276.0514
   3   2.0000      -0.780540       -21.2396
   4   2.0000      -0.682029       -18.5590
   5   2.0000      -0.579721       -15.7750
   6   2.0000      -0.467994       -12.7348
   7   2.0000      -0.435377       -11.8472
   8   2.0000      -0.397112       -10.8060
   9   2.0000      -0.392934       -10.6923
  10   2.0000      -0.338031        -9.1983
  11   2.0000      -0.326763        -8.8917
  12   2.0000      -0.322811        -8.7841
  13   0.0000       0.064049         1.7429
  14   0.0000       0.110167         2.9978
  15   0.0000       0.114262         3.1092
  16   0.0000       0.116295         3.1645
  17   0.0000       0.146503         3.9866

MULLIKEN ATOMIC CHARGES
-----------------------
   0 C :   -0.045184
   1 H :   -0.003833
   2 C :    0.097703
   3 C :    0.040222
   4 H :   -0.009313
   5 H :   -0.008274
   6 H :   -0.035952
   7 H :   -0.031965
   8 H :   -0.001482
   9 H :   -0.001007
  10 H :   -0.000915
Sum of atomic charges:   -0.0000000

LOEWDIN ATOMIC CHARGES
----------------------
   0 C :   -0.034224
   1 H :    0.017082
   2 C :   -0.045174
   3 C :   -0.044565
   4 H :    0.016396
   5 H :    0.011441
   6 H :    0.012682
   7 H :    0.016155
   8 H :    0.016928
   9 H :    0.016564
  10 H :    0.016716

  Mayer bond orders larger than 0.100000
B(  0-C ,  1-H ) :   0.9526 B(  0-C ,  2-C ) :   1.1207 B(  0-C ,  3-C ) :   1.1105
B(  0-C ,  4-H ) :   0.9523 B(  2-C ,  5-H ) :   0.9716 B(  2-C ,  6-H ) :   0.9534
B(  2-C ,  7-H ) :   0.9515 B(  3-C ,  8-H ) :   0.9672 B(  3-C ,  9-H ) :   0.9711
B(  3-C , 10-H ) :   0.9741

Dispersion correction           -0.010066383
FINAL SINGLE POINT ENERGY      -118.949863858609

DIPOLE MOMENT
-------------
                                X             Y             Z
Electronic contribution:     -0.13197       0.12176      -0.39289
Nuclear contribution   :      0.10024      -0.14218       0.41628
                        -----------------------------------------
Total Dipole Moment    :     -0.03173      -0.02042       0.02340
                        -----------------------------------------
Magnitude (a.u.)       :      0.04440
Magnitude (Debye)      :      0.11284

Rotational constants in cm-1:     1.024179     0.291605     0.259489
Rotational constants in MHz : 30704.103454  8742.106283  7779.285909

                             ****ORCA TERMINATED NORMALLY****
TOTAL RUN TIME: 0 days 0 hours 0 minutes 8 seconds 463 msec
