                         Program Version 5.0.0 -  RELEASE  -
|  1> !B3LYP D3BJ RIJCOSX def2-SVP def2/J TightSCF
|  2> *xyz 0 1
|  3> C         -2.79070       -0.78527        5.70281
|  4> C         -2.45380        0.05510        6.94145
|  5> C         -2.07842        1.48042        6.56410
|  6> H         -1.62558       -0.38216        7.49891
|  7> H         -3.32527        0.08775        7.59917
|  8> O         -0.90125        1.85816        6.82810
|  9> F         -2.93658        2.17731        5.96415
| 10> H         -1.94052       -0.82114        5.05412
| 11> H         -3.61590       -0.34261        5.18514
| 12> H         -3.05063       -1.77815        6.00536
| 13> *
| 14> %MaxCore 64000
| 15>
| 16> %pal nprocs 4
| 17> end
| 18>
| 19> %scf
| 20>   MaxIter 150
| 21> end
| 22>
| 23>
| 24>                          ****END OF INPUT****

CARTESIAN COORDINATES (ANGSTROEM)
---------------------------------
  C     -2.790700   -0.785270    5.702810
  C     -2.453800    0.055100    6.941450
  C     -2.078420    1.480420    6.564100
  H     -1.625580   -0.382160    7.498910
  H     -3.325270    0.087750    7.599170
  O     -0.901250    1.858160    6.828100
  F     -2.936580    2.177310    5.964150
  H     -1.940520   -0.821140    5.054120
  H     -3.615900   -0.342610    5.185140
  H     -3.050630   -1.778150    6.005360

 Total Charge           Charge          ....    0
 Multiplicity           Mult            ....    1
 Number of Electrons    NEL             ....   40
 Basis Dimension        Dim             ....   95

ORBITAL ENERGIES
----------------

  NO   OCC          E(Eh)            E(eV)
   0   2.0000     -24.750923      -673.5068
   1   2.0000     -19.129939      -520.5521
   2   2.0000     -10.351456      -281.6774
   3   2.0000     -10.210186      -277.8333
   4   2.0000     -10.193241      -277.3722
   5   2.0000      -1.292822       -35.1795
   6   2.0000      -1.006883       -27.3987
   7   2.0000      -0.793844       -21.6016
   8   2.0000      -0.675381       -18.3780
   9   2.0000      -0.633373       -17.2350
  10   2.0000      -0.542461       -14.7611
  11   2.0000      -0.530105       -14.4249
  12   2.0000      -0.491882       -13.3848
  13   2.0000      -0.460579       -12.5330
  14   2.0000      -0.430010       -11.7012
  15   2.0000      -0.398168       -10.8347
  16   2.0000      -0.378552       -10.3009
  17   2.0000      -0.374573       -10.1927
  18   2.0000      -0.340541        -9.2666
  19   2.0000      -0.278325        -7.5736
  20   0.0000      -0.020806        -0.5662
  21   0.0000       0.057450         1.5633
  22   0.0000       0.101424         2.7599
  23   0.0000       0.110334         3.0024
  24   0.0000       0.131044         3.5659

MULLIKEN ATOMIC CHARGES
-----------------------
   0 C :    0.007346
   1 C :   -0.019003
   2 C :    0.213473
   3 H :    0.036988
   4 H :    0.028080
   5 O :   -0.256006
   6 F :   -0.076273
   7 H :    0.025007
   8 H :    0.019338
   9 H :    0.021049
Sum of atomic charges:   -0.0000000

LOEWDIN ATOMIC CHARGES
----------------------
   0 C :   -0.036767
   1 C :   -0.058681
   2 C :    0.102623
   3 H :    0.040924
   4 H :    0.035639
   5 O :   -0.199715
   6 F :    0.040708
   7 H :    0.025670
   8 H :    0.022084
   9 H :    0.027516

  Mayer bond orders larger than 0.100000
B(  0-C ,  1-C ) :   1.0817 B(  0-C ,  7-H ) :   0.9753 B(  0-C ,  8-H ) :   0.9725
B(  0-C ,  9-H ) :   0.9667 B(  1-C ,  2-C ) :   1.0135 B(  1-C ,  3-H ) :   0.9458
B(  1-C ,  4-H ) :   0.9248 B(  2-C ,  5-O ) :   2.0817 B(  2-C ,  6-F ) :   1.1921

Dispersion correction           -0.010351990
FINAL SINGLE POINT ENERGY      -292.032944091135

DIPOLE MOMENT
-------------
                                X             Y             Z
Electronic contribution:      0.63175       8.02457       0.04522
Nuclear contribution   :     -1.47571      -8.84360      -0.10748
                        -----------------------------------------
Total Dipole Moment    :     -0.84397      -0.81904      -0.06226
                        -----------------------------------------
Magnitude (a.u.)       :      1.17770
Magnitude (Debye)      :      2.99347

Rotational constants in cm-1:     0.283081     0.133379     0.103386
Rotational constants in MHz :  8486.545774  3998.599544  3099.448040

                             ****ORCA TERMINATED NORMALLY****
TOTAL RUN TIME: 0 days 0 hours 0 minutes 9 seconds 800 msec
