                         Program Version 5.0.0 -  RELEASE  -
|  1> !LC-PBE RIJCOSX def2-TZVPD def2/J TightSCF
|  2> *xyz -1 1
|  3> C          3.80351        1.37472       -3.26081
|  4> C          3.93993        0.32036       -4.36773
|  5> H          4.10504       -0.65508       -3.90773
|  6> H          3.02280        0.28052       -4.95712
|  7> C          5.10585        0.66802       -5.30546
|  8> O          4.80913        1.15019       -6.41436
|  9> O          6.26737        0.56500       -4.81948
| 10> H          3.64113        2.33595       -3.70189
| 11> H          4.69995        1.39701       -2.67703
| 12> H          2.97435        1.12625       -2.63180
| 13> *
| 14>
| 15> %MaxCore 64000
| 16>
| 17> %pal nprocs 4
| 18> end
| 19>
| 20> %scf
| 21>   MaxIter 150
| 22> end
| 23>
| 24>
| 25>                          ****END OF INPUT****

CARTESIAN COORDINATES (ANGSTROEM)
---------------------------------
  C      3.803510    1.374720   -3.260810
  C      3.939930    0.320360   -4.367730
  H      4.105040   -0.655080   -3.907730
  H      3.022800    0.280520   -4.957120
  C      5.105850    0.668020   -5.305460
  O      4.809130    1.150190   -6.414360
  O      6.267370    0.565000   -4.819480
  H      3.641130    2.335950   -3.701890
  H      4.699950    1.397010   -2.677030
  H      2.974350    1.126250   -2.631800

 Total Charge           Charge          ....   -1
 Multiplicity           Mult            ....    1
 Number of Electrons    NEL             ....   40
 Basis Dimension        Dim             ....  236

ORBITAL ENERGIES
----------------

  NO   OCC          E(Eh)            E(eV)
   0   2.0000     -18.711566      -509.1676
   1   2.0000     -18.707484      -509.0565
   2   2.0000     -10.002237      -272.1747
   3   2.0000      -9.950607      -270.7698
   4   2.0000      -9.940221      -270.4872
   5   2.0000      -0.989408       -26.9232
   6   2.0000      -0.887636       -24.1538
   7   2.0000      -0.782694       -21.2982
   8   2.0000      -0.636901       -17.3310
   9   2.0000      -0.471881       -12.8405
  10   2.0000      -0.437149       -11.8954
  11   2.0000      -0.404572       -11.0090
  12   2.0000      -0.374743       -10.1973
  13   2.0000      -0.352741        -9.5986
  14   2.0000      -0.348312        -9.4781
  15   2.0000      -0.311127        -8.4662
  16   2.0000      -0.302936        -8.2433
  17   2.0000      -0.178186        -4.8487
  18   2.0000      -0.170136        -4.6296
  19   2.0000      -0.164232        -4.4690
  20   0.0000       0.189122         5.1463
  21   0.0000       0.209840         5.7100
  22   0.0000       0.215624         5.8674
  23   0.0000       0.227442         6.1890
  24   0.0000       0.261254         7.1091

MULLIKEN ATOMIC CHARGES
-----------------------
   0 C :   -1.144584
   1 C :   -0.410012
   2 H :    0.293582
   3 H :    0.287286
   4 C :    0.382509
   5 O :   -0.683668
   6 O :   -0.704374
   7 H :    0.339487
   8 H :    0.322919
   9 H :    0.316855
Sum of atomic charges:   -1.0000000

LOEWDIN ATOMIC CHARGES
----------------------
   0 C :   -0.149362
   1 C :   -0.230056
   2 H :    0.100004
   3 H :    0.096682
   4 C :   -0.797094
   5 O :   -0.095285
   6 O :   -0.115016
   7 H :    0.071727
   8 H :    0.066380
   9 H :    0.052020

  Mayer bond orders larger than 0.100000
B(  0-C ,  1-C ) :   0.5530 B(  0-C ,  7-H ) :   0.9419 B(  0-C ,  8-H ) :   0.9767
B(  0-C ,  9-H ) :   0.9209 B(  1-C ,  2-H ) :   0.9462 B(  1-C ,  3-H ) :   0.9640
B(  1-C ,  4-C ) :   0.9310 B(  4-C ,  5-O ) :   1.4824 B(  4-C ,  6-O ) :   1.4647

FINAL SINGLE POINT ENERGY      -267.157159271463

DIPOLE MOMENT
-------------
                                X             Y             Z
Electronic contribution:      3.65513      -0.50758      -4.44017
Nuclear contribution   :     -5.15232       0.33441       5.87398
                        -----------------------------------------
Total Dipole Moment    :     -1.49720      -0.17317       1.43381
                        -----------------------------------------
Magnitude (a.u.)       :      2.08024
Magnitude (Debye)      :      5.28754

Rotational constants in cm-1:     0.295355     0.137164     0.110193
Rotational constants in MHz :  8854.523706  4112.077980  3303.490503

                             ****ORCA TERMINATED NORMALLY****
TOTAL RUN TIME: 0 days 0 hours 0 minutes 31 seconds 898 msec
