                         Program Version 5.0.0 -  RELEASE  -
|  1> !LC-PBE RIJCOSX def2-TZVPD def2/J TightSCF
|  2> *xyz 1 1
|  3> C          3.90595        2.81985       -3.75292
|  4> N          5.29562        3.13151       -4.10533
|  5> C          3.80351        1.37472       -3.26081
|  6> C          5.70862        3.46889       -5.32419
|  7> N          6.90470        3.03895       -5.71708
|  8> N          4.98188        4.29357       -6.09746
|  9> H          5.00055        4.10131       -7.08776
| 10> H          4.08469        4.59690       -5.73965
| 11> H          5.96336        2.52611       -3.64239
| 12> H          7.04716        2.06686       -5.47360
| 13> H          7.19815        3.30799       -6.64523
| 14> H          3.28202        2.94919       -4.64026
| 15> H          3.56525        3.51457       -2.98252
| 16> H          4.14157        0.71142       -4.02935
| 17> H          2.78528        1.15146       -3.01944
| 18> H          4.41205        1.25066       -2.38949
| 19> *
| 20>
| 21> %MaxCore 64000
| 22>
| 23> %pal nprocs 4
| 24> end
| 25>
| 26> %scf
| 27>   MaxIter 150
| 28> end
| 29>
| 30>
| 31>                          ****END OF INPUT****

CARTESIAN COORDINATES (ANGSTROEM)
---------------------------------
  C      3.905950    2.819850   -3.752920
  N      5.295620    3.131510   -4.105330
  C      3.803510    1.374720   -3.260810
  C      5.708620    3.468890   -5.324190
  N      6.904700    3.038950   -5.717080
  N      4.981880    4.293570   -6.097460
  H      5.000550    4.101310   -7.087760
  H      4.084690    4.596900   -5.739650
  H      5.963360    2.526110   -3.642390
  H      7.047160    2.066860   -5.473600
  H      7.198150    3.307990   -6.645230
  H      3.282020    2.949190   -4.640260
  H      3.565250    3.514570   -2.982520
  H      4.141570    0.711420   -4.029350
  H      2.785280    1.151460   -3.019440
  H      4.412050    1.250660   -2.389490

 Total Charge           Charge          ....    1
 Multiplicity           Mult            ....    1
 Number of Electrons    NEL             ....   48
 Basis Dimension        Dim             ....  312

ORBITAL ENERGIES
----------------

  NO   OCC          E(Eh)            E(eV)
   0   2.0000     -14.443829      -393.0366
   1   2.0000     -14.442154      -392.9910
   2   2.0000     -14.441153      -392.9638
   3   2.0000     -10.462836      -284.7082
   4   2.0000     -10.326821      -281.0071
   5   2.0000     -10.256495      -279.0934
   6   2.0000      -1.403424       -38.1891
   7   2.0000      -1.282254       -34.8919
   8   2.0000      -1.271677       -34.6041
   9   2.0000      -1.109239       -30.1839
  10   2.0000      -0.994898       -27.0726
  11   2.0000      -0.969076       -26.3699
  12   2.0000      -0.929780       -25.3006
  13   2.0000      -0.895924       -24.3793
  14   2.0000      -0.849627       -23.1195
  15   2.0000      -0.829005       -22.5584
  16   2.0000      -0.798213       -21.7205
  17   2.0000      -0.768628       -20.9154
  18   2.0000      -0.741546       -20.1785
  19   2.0000      -0.698093       -18.9961
  20   2.0000      -0.670345       -18.2410
  21   2.0000      -0.653577       -17.7847
  22   2.0000      -0.624449       -16.9921
  23   2.0000      -0.587518       -15.9872
  24   0.0000      -0.103612        -2.8194
  25   0.0000      -0.090561        -2.4643
  26   0.0000      -0.059396        -1.6163
  27   0.0000      -0.048905        -1.3308
  28   0.0000      -0.029997        -0.8163

MULLIKEN ATOMIC CHARGES
-----------------------
   0 C :   -0.445284
   1 N :   -0.238000
   2 C :   -1.452722
   3 C :    0.617347
   4 N :   -0.465947
   5 N :   -0.464825
   6 H :    0.268131
   7 H :    0.319240
   8 H :    0.277725
   9 H :    0.291736
  10 H :    0.288472
  11 H :    0.399467
  12 H :    0.358428
  13 H :    0.411052
  14 H :    0.393340
  15 H :    0.441841
Sum of atomic charges:    1.0000000

LOEWDIN ATOMIC CHARGES
----------------------
   0 C :   -0.219889
   1 N :    0.083430
   2 C :   -0.083359
   3 C :   -0.446328
   4 N :    0.199446
   5 N :    0.208935
   6 H :    0.144109
   7 H :    0.134742
   8 H :    0.161547
   9 H :    0.146573
  10 H :    0.142909
  11 H :    0.125112
  12 H :    0.136510
  13 H :    0.085733
  14 H :    0.092634
  15 H :    0.087896

  Mayer bond orders larger than 0.100000
B(  0-C ,  1-N ) :   0.7536 B(  0-C ,  2-C ) :   0.5741 B(  0-C , 11-H ) :   0.8141
B(  0-C , 12-H ) :   0.9409 B(  1-N ,  3-C ) :   1.2638 B(  1-N ,  8-H ) :   0.9038
B(  2-C , 13-H ) :   0.9083 B(  2-C , 14-H ) :   0.9168 B(  2-C , 15-H ) :   0.8888
B(  3-C ,  4-N ) :   1.1186 B(  3-C ,  5-N ) :   1.0795 B(  4-N ,  9-H ) :   0.9211
B(  4-N , 10-H ) :   0.8974 B(  5-N ,  6-H ) :   0.9416 B(  5-N ,  7-H ) :   0.8806

FINAL SINGLE POINT ENERGY      -283.590978267439

DIPOLE MOMENT
-------------
                                X             Y             Z
Electronic contribution:      3.50991       3.38812      -2.67499
Nuclear contribution   :     -3.31456      -3.64300       1.57303
                        -----------------------------------------
Total Dipole Moment    :      0.19535      -0.25488      -1.10196
                        -----------------------------------------
Magnitude (a.u.)       :      1.14780
Magnitude (Debye)      :      2.91746

Rotational constants in cm-1:     0.229487     0.071000     0.059428
Rotational constants in MHz :  6879.840828  2128.520047  1781.605314

                             ****ORCA TERMINATED NORMALLY****
TOTAL RUN TIME: 0 days 0 hours 1 minutes 3 seconds 450 msec
