                         Program Version 5.0.0 -  RELEASE  -
|  1> !LC-PBE RIJCOSX def2-TZVPD def2/J TightSCF xyzfile
|  2>
|  3> *xyzfile 0 1 B.xyz
|  4>
|  5> %MaxCore 64000
|  6>
|  7> %pal nprocs 4
|  8> end
|  9>
| 10> %scf
| 11>   MaxIter 150
| 12> end
| 13>
| 14>
| 15>                          ****END OF INPUT****

CARTESIAN COORDINATES (ANGSTROEM)
---------------------------------
  C      3.905947    2.819855   -3.752920
  N      5.295615    3.131515   -4.105334
  C      3.803511    1.374716   -3.260807
  C      3.939934    0.320362   -4.367729
  H      4.105043   -0.655085   -3.907733
  H      3.022801    0.280517   -4.957117
  C      5.105846    0.668022   -5.305463
  C      5.708619    3.468885   -5.324190
  N      6.904696    3.038954   -5.717084
  N      4.981884    4.293570   -6.097457
  H      5.000546    4.101311   -7.087761
  H      4.084693    4.596899   -5.739652
  H      5.963358    2.526112   -3.642391
  H      7.047164    2.066861   -5.473604
  H      7.198145    3.307994   -6.645225
  H      3.282025    2.949187   -4.640259
  H      3.565254    3.514574   -2.982523
  H      4.574833    1.215157   -2.500443
  H      2.843514    1.260845   -2.751465
  O      4.809132    1.150187   -6.414361
  O      6.267366    0.564999   -4.819481

 Total Charge           Charge          ....    0
 Multiplicity           Mult            ....    1
 Number of Electrons    NEL             ....   78
 Basis Dimension        Dim             ....  475

ORBITAL ENERGIES
----------------

  NO   OCC          E(Eh)            E(eV)
   0   2.0000     -18.892885      -514.1015
   1   2.0000     -18.890716      -514.0425
   2   2.0000     -14.280197      -388.5839
   3   2.0000     -14.273874      -388.4119
   4   2.0000     -14.249009      -387.7353
   5   2.0000     -10.292366      -280.0695
   6   2.0000     -10.180126      -277.0153
   7   2.0000     -10.178892      -276.9817
   8   2.0000     -10.128982      -275.6236
   9   2.0000     -10.095397      -274.7097
  10   2.0000      -1.233078       -33.5538
  11   2.0000      -1.173923       -31.9441
  12   2.0000      -1.116692       -30.3867
  13   2.0000      -1.096167       -29.8282
  14   2.0000      -1.072214       -29.1764
  15   2.0000      -0.974456       -26.5163
  16   2.0000      -0.884905       -24.0795
  17   2.0000      -0.814759       -22.1707
  18   2.0000      -0.786987       -21.4150
  19   2.0000      -0.761236       -20.7143
  20   2.0000      -0.725479       -19.7413
  21   2.0000      -0.686249       -18.6738
  22   2.0000      -0.660341       -17.9688
  23   2.0000      -0.648710       -17.6523
  24   2.0000      -0.623398       -16.9635
  25   2.0000      -0.620766       -16.8919
  26   2.0000      -0.577114       -15.7041
  27   2.0000      -0.570155       -15.5147
  28   2.0000      -0.553222       -15.0539
  29   2.0000      -0.532879       -14.5004
  30   2.0000      -0.521778       -14.1983
  31   2.0000      -0.515740       -14.0340
  32   2.0000      -0.477898       -13.0043
  33   2.0000      -0.468125       -12.7383
  34   2.0000      -0.451568       -12.2878
  35   2.0000      -0.420790       -11.4503
  36   2.0000      -0.363800        -9.8995
  37   2.0000      -0.351489        -9.5645
  38   2.0000      -0.343131        -9.3371
  39   0.0000       0.045753         1.2450
  40   0.0000       0.060988         1.6596
  41   0.0000       0.068046         1.8516
  42   0.0000       0.076462         2.0806
  43   0.0000       0.092235         2.5098

MULLIKEN ATOMIC CHARGES
-----------------------
   0 C :   -0.562988
   1 N :   -0.271757
   2 C :   -0.921214
   3 C :   -0.541473
   4 H :    0.346852
   5 H :    0.351816
   6 C :    0.601888
   7 C :    0.541726
   8 N :   -0.456087
   9 N :   -0.541841
  10 H :    0.250367
  11 H :    0.302974
  12 H :    0.354876
  13 H :    0.350133
  14 H :    0.251656
  15 H :    0.386814
  16 H :    0.287133
  17 H :    0.365450
  18 H :    0.348207
  19 O :   -0.662339
  20 O :   -0.782192
Sum of atomic charges:    0.0000000

LOEWDIN ATOMIC CHARGES
----------------------
   0 C :   -0.179066
   1 N :    0.086127
   2 C :   -0.196942
   3 C :   -0.135462
   4 H :    0.122585
   5 H :    0.119546
   6 C :   -0.728918
   7 C :   -0.480457
   8 N :    0.193711
   9 N :    0.189130
  10 H :    0.133114
  11 H :    0.121321
  12 H :    0.150137
  13 H :    0.079218
  14 H :    0.133905
  15 H :    0.130345
  16 H :    0.125160
  17 H :    0.125661
  18 H :    0.120143
  19 O :   -0.032834
  20 O :   -0.076426

  Mayer bond orders larger than 0.100000
B(  0-C ,  1-N ) :   0.7464 B(  0-C ,  2-C ) :   0.7546 B(  0-C , 15-H ) :   0.8138
B(  0-C , 16-H ) :   1.0431 B(  1-N ,  7-C ) :   1.2138 B(  1-N , 12-H ) :   0.8136
B(  2-C ,  3-C ) :   0.7411 B(  2-C , 17-H ) :   0.9218 B(  2-C , 18-H ) :   0.9434
B(  3-C ,  4-H ) :   0.9360 B(  3-C ,  5-H ) :   0.9643 B(  3-C ,  6-C ) :   0.8724
B(  6-C , 19-O ) :   1.3978 B(  6-C , 20-O ) :   1.2113 B(  7-C ,  8-N ) :   1.0429
B(  7-C ,  9-N ) :   0.8707 B(  7-C , 19-O ) :   0.1684 B(  7-C , 20-O ) :   0.1133
B(  8-N , 13-H ) :   0.7734 B(  8-N , 14-H ) :   0.9031 B(  9-N , 10-H ) :   0.9429
B(  9-N , 11-H ) :   0.8772 B( 13-H , 20-O ) :   0.1240

FINAL SINGLE POINT ENERGY      -510.554150156385

DIPOLE MOMENT
-------------
                                X             Y             Z
Electronic contribution:      4.11185       0.41565      -3.40202
Nuclear contribution   :     -4.94498       2.03334       3.78956
                        -----------------------------------------
Total Dipole Moment    :     -0.83313       2.44899       0.38754
                        -----------------------------------------
Magnitude (a.u.)       :      2.61569
Magnitude (Debye)      :      6.64856

Rotational constants in cm-1:     0.062533     0.042832     0.033687
Rotational constants in MHz :  1874.701390  1284.063603  1009.911042

                             ****ORCA TERMINATED NORMALLY****
TOTAL RUN TIME: 0 days 0 hours 2 minutes 35 seconds 744 msec
