                         Program Version 5.0.0 -  RELEASE  -
|  1> !LC-PBE RIJCOSX def2-TZVPD def2/J TightSCF
|  2> *xyz 0 1
|  3> C          3.80351        1.37472       -3.26081
|  4> C          3.93993        0.32036       -4.36773
|  5> H          4.10504       -0.65508       -3.90773
|  6> H          3.02280        0.28052       -4.95712
|  7> C          5.10585        0.66802       -5.30546
|  8> F          4.80913        1.15019       -6.41436
|  9> O          6.26737        0.56500       -4.81948
| 10> H          3.64113        2.33595       -3.70189
| 11> H          4.69995        1.39701       -2.67703
| 12> H          2.97435        1.12625       -2.63180
| 13> *
| 14>
| 15> %MaxCore 64000
| 16>
| 17> %pal nprocs 4
| 18> end
| 19>
| 20> %scf
| 21>   MaxIter 150
| 22> end
| 23>
| 24>
| 25>                          ****END OF INPUT****

CARTESIAN COORDINATES (ANGSTROEM)
---------------------------------
  C      3.803510    1.374720   -3.260810
  C      3.939930    0.320360   -4.367730
  H      4.105040   -0.655080   -3.907730
  H      3.022800    0.280520   -4.957120
  C      5.105850    0.668020   -5.305460
  F      4.809130    1.150190   -6.414360
  O      6.267370    0.565000   -4.819480
  H      3.641130    2.335950   -3.701890
  H      4.699950    1.397010   -2.677030
  H      2.974350    1.126250   -2.631800

 Total Charge           Charge          ....    0
 Multiplicity           Mult            ....    1
 Number of Electrons    NEL             ....   40
 Basis Dimension        Dim             ....  236

ORBITAL ENERGIES
----------------

  NO   OCC          E(Eh)            E(eV)
   0   2.0000     -24.567994      -668.5291
   1   2.0000     -18.984487      -516.5941
   2   2.0000     -10.304147      -280.3901
   3   2.0000     -10.149173      -276.1730
   4   2.0000     -10.120558      -275.3944
   5   2.0000      -1.488040       -40.4916
   6   2.0000      -1.196326       -32.5537
   7   2.0000      -0.981062       -26.6960
   8   2.0000      -0.855604       -23.2822
   9   2.0000      -0.803451       -21.8630
  10   2.0000      -0.712870       -19.3982
  11   2.0000      -0.695989       -18.9388
  12   2.0000      -0.659811       -17.9544
  13   2.0000      -0.611538       -16.6408
  14   2.0000      -0.578825       -15.7506
  15   2.0000      -0.538571       -14.6553
  16   2.0000      -0.515705       -14.0331
  17   2.0000      -0.506613       -13.7856
  18   2.0000      -0.481730       -13.1085
  19   2.0000      -0.428436       -11.6583
  20   0.0000       0.057135         1.5547
  21   0.0000       0.064320         1.7502
  22   0.0000       0.084762         2.3065
  23   0.0000       0.091656         2.4941
  24   0.0000       0.098134         2.6704

MULLIKEN ATOMIC CHARGES
-----------------------
   0 C :   -1.200761
   1 C :   -0.452286
   2 H :    0.317325
   3 H :    0.336660
   4 C :    0.539644
   5 F :   -0.151277
   6 O :   -0.472711
   7 H :    0.378128
   8 H :    0.364361
   9 H :    0.340917
Sum of atomic charges:    0.0000000

LOEWDIN ATOMIC CHARGES
----------------------
   0 C :   -0.109802
   1 C :   -0.173495
   2 H :    0.127082
   3 H :    0.116314
   4 C :   -0.506653
   5 F :    0.231706
   6 O :    0.072046
   7 H :    0.082964
   8 H :    0.082391
   9 H :    0.077447

  Mayer bond orders larger than 0.100000
B(  0-C ,  1-C ) :   0.6079 B(  0-C ,  7-H ) :   0.8897 B(  0-C ,  8-H ) :   0.9513
B(  0-C ,  9-H ) :   0.9324 B(  1-C ,  2-H ) :   0.9435 B(  1-C ,  3-H ) :   0.9150
B(  1-C ,  4-C ) :   0.8983 B(  4-C ,  5-F ) :   1.0519 B(  4-C ,  6-O ) :   1.7380

FINAL SINGLE POINT ENERGY      -291.692045966364

DIPOLE MOMENT
-------------
                                X             Y             Z
Electronic contribution:      3.94732      -0.01906      -7.42992
Nuclear contribution   :     -5.17129      -0.01923       7.59895
                        -----------------------------------------
Total Dipole Moment    :     -1.22398      -0.03829       0.16902
                        -----------------------------------------
Magnitude (a.u.)       :      1.23619
Magnitude (Debye)      :      3.14214

Rotational constants in cm-1:     0.282073     0.131822     0.105134
Rotational constants in MHz :  8456.328792  3951.925810  3151.840112

                             ****ORCA TERMINATED NORMALLY****
TOTAL RUN TIME: 0 days 0 hours 0 minutes 31 seconds 264 msec
