                         Program Version 5.0.0 -  RELEASE  -
|  1> !LC-PBE RIJCOSX def2-TZVPD def2/J TightSCF
|  2> *xyz 0 1
|  3> C          3.90595        2.81985       -3.75292
|  4> C          5.29562        3.13151       -4.10533
|  5> C          3.80351        1.37472       -3.26081
|  6> C          5.70862        3.46889       -5.32419
|  7> N          6.90470        3.03895       -5.71708
|  8> N          4.98188        4.29357       -6.09746
|  9> H          5.00055        4.10131       -7.08776
| 10> H          4.08469        4.59690       -5.73965
| 11> H          5.96336        2.52611       -3.64239
| 12> H          7.04716        2.06686       -5.47360
| 13> H          7.19815        3.30799       -6.64523
| 14> H          3.28202        2.94919       -4.64026
| 15> H          3.56525        3.51457       -2.98252
| 16> H          4.14157        0.71142       -4.02935
| 17> H          2.78528        1.15146       -3.01944
| 18> H          4.41205        1.25066       -2.38949
| 19> *
| 20>
| 21> %MaxCore 64000
| 22>
| 23> %pal nprocs 4
| 24> end
| 25>
| 26> %scf
| 27>   MaxIter 150
| 28> end
| 29>
| 30>
| 31>                          ****END OF INPUT****

CARTESIAN COORDINATES (ANGSTROEM)
---------------------------------
  C      3.905950    2.819850   -3.752920
  C      5.295620    3.131510   -4.105330
  C      3.803510    1.374720   -3.260810
  C      5.708620    3.468890   -5.324190
  N      6.904700    3.038950   -5.717080
  N      4.981880    4.293570   -6.097460
  H      5.000550    4.101310   -7.087760
  H      4.084690    4.596900   -5.739650
  H      5.963360    2.526110   -3.642390
  H      7.047160    2.066860   -5.473600
  H      7.198150    3.307990   -6.645230
  H      3.282020    2.949190   -4.640260
  H      3.565250    3.514570   -2.982520
  H      4.141570    0.711420   -4.029350
  H      2.785280    1.151460   -3.019440
  H      4.412050    1.250660   -2.389490

 Total Charge           Charge          ....    0
 Multiplicity           Mult            ....    1
 Number of Electrons    NEL             ....   48
 Basis Dimension        Dim             ....  312

ORBITAL ENERGIES
----------------

  NO   OCC          E(Eh)            E(eV)
   0   2.0000     -14.217471      -386.8770
   1   2.0000     -14.213968      -386.7817
   2   2.0000     -10.163116      -276.5524
   3   2.0000     -10.093162      -274.6489
   4   2.0000     -10.083416      -274.3837
   5   2.0000     -10.040551      -273.2173
   6   2.0000      -1.143975       -31.1291
   7   2.0000      -1.046125       -28.4665
   8   2.0000      -0.957196       -26.0466
   9   2.0000      -0.865166       -23.5424
  10   2.0000      -0.774528       -21.0760
  11   2.0000      -0.731012       -19.8919
  12   2.0000      -0.683781       -18.6066
  13   2.0000      -0.658729       -17.9249
  14   2.0000      -0.619738       -16.8639
  15   2.0000      -0.592125       -16.1126
  16   2.0000      -0.563004       -15.3201
  17   2.0000      -0.531086       -14.4516
  18   2.0000      -0.508987       -13.8502
  19   2.0000      -0.484985       -13.1971
  20   2.0000      -0.456611       -12.4250
  21   2.0000      -0.453241       -12.3333
  22   2.0000      -0.409545       -11.1443
  23   2.0000      -0.287017        -7.8101
  24   0.0000       0.060339         1.6419
  25   0.0000       0.084967         2.3121
  26   0.0000       0.086466         2.3529
  27   0.0000       0.102601         2.7919
  28   0.0000       0.114834         3.1248

MULLIKEN ATOMIC CHARGES
-----------------------
   0 C :   -0.266856
   1 C :   -0.753372
   2 C :   -1.416454
   3 C :    0.283718
   4 N :   -0.533800
   5 N :   -0.545031
   6 H :    0.210401
   7 H :    0.269196
   8 H :    0.417775
   9 H :    0.250216
  10 H :    0.258183
  11 H :    0.381511
  12 H :    0.297078
  13 H :    0.381969
  14 H :    0.373152
  15 H :    0.392314
Sum of atomic charges:    0.0000000

LOEWDIN ATOMIC CHARGES
----------------------
   0 C :   -0.302614
   1 C :   -0.153464
   2 C :   -0.132687
   3 C :   -0.565346
   4 N :    0.100871
   5 N :    0.113253
   6 H :    0.104754
   7 H :    0.107558
   8 H :    0.072721
   9 H :    0.116355
  10 H :    0.104632
  11 H :    0.104690
  12 H :    0.109301
  13 H :    0.076594
  14 H :    0.068288
  15 H :    0.075094

  Mayer bond orders larger than 0.100000
B(  0-C ,  1-C ) :   0.5187 B(  0-C ,  2-C ) :   0.4931 B(  0-C , 11-H ) :   0.8153
B(  0-C , 12-H ) :   0.9984 B(  1-C ,  2-C ) :   0.1391 B(  1-C ,  3-C ) :   1.5940
B(  1-C ,  5-N ) :   0.1303 B(  1-C ,  8-H ) :   0.9316 B(  2-C , 13-H ) :   0.9503
B(  2-C , 14-H ) :   0.9406 B(  2-C , 15-H ) :   0.9355 B(  3-C ,  4-N ) :   0.9184
B(  3-C ,  5-N ) :   0.8048 B(  4-N ,  9-H ) :   0.9591 B(  4-N , 10-H ) :   0.9115
B(  5-N ,  6-H ) :   1.0083 B(  5-N ,  7-H ) :   0.8944

FINAL SINGLE POINT ENERGY      -267.128476793319

DIPOLE MOMENT
-------------
                                X             Y             Z
Electronic contribution:      3.13800       3.22650      -2.83743
Nuclear contribution   :     -3.27358      -3.61654       1.70633
                        -----------------------------------------
Total Dipole Moment    :     -0.13558      -0.39004      -1.13110
                        -----------------------------------------
Magnitude (a.u.)       :      1.20412
Magnitude (Debye)      :      3.06063

Rotational constants in cm-1:     0.231961     0.071249     0.059473
Rotational constants in MHz :  6954.024434  2135.976855  1782.962814

                             ****ORCA TERMINATED NORMALLY****
TOTAL RUN TIME: 0 days 0 hours 1 minutes 6 seconds 669 msec
