                         Program Version 5.0.0 -  RELEASE  -
|  1> !LC-PBE RIJCOSX def2-TZVPD def2/J TightSCF
|  2> *xyz 0 1
|  3> C          3.80351        1.37472       -3.26081
|  4> C          3.93993        0.32036       -4.36773
|  5> H          4.10504       -0.65508       -3.90773
|  6> H          3.02280        0.28052       -4.95712
|  7> C          5.10585        0.66802       -5.30546
|  8> O          4.80913        1.15019       -6.41436
|  9> F          6.26737        0.56500       -4.81948
| 10> H          3.64113        2.33595       -3.70189
| 11> H          4.69995        1.39701       -2.67703
| 12> H          2.97435        1.12625       -2.63180
| 13> *
| 14>
| 15> %MaxCore 64000
| 16>
| 17> %pal nprocs 4
| 18> end
| 19>
| 20> %scf
| 21>   MaxIter 150
| 22> end
| 23>
| 24>
| 25>                          ****END OF INPUT****

CARTESIAN COORDINATES (ANGSTROEM)
---------------------------------
  C      3.803510    1.374720   -3.260810
  C      3.939930    0.320360   -4.367730
  H      4.105040   -0.655080   -3.907730
  H      3.022800    0.280520   -4.957120
  C      5.105850    0.668020   -5.305460
  O      4.809130    1.150190   -6.414360
  F      6.267370    0.565000   -4.819480
  H      3.641130    2.335950   -3.701890
  H      4.699950    1.397010   -2.677030
  H      2.974350    1.126250   -2.631800

 Total Charge           Charge          ....    0
 Multiplicity           Mult            ....    1
 Number of Electrons    NEL             ....   40
 Basis Dimension        Dim             ....  236

ORBITAL ENERGIES
----------------

  NO   OCC          E(Eh)            E(eV)
   0   2.0000     -24.560937      -668.3371
   1   2.0000     -18.987510      -516.6764
   2   2.0000     -10.301998      -280.3316
   3   2.0000     -10.148644      -276.1586
   4   2.0000     -10.123369      -275.4709
   5   2.0000      -1.474409       -40.1207
   6   2.0000      -1.207148       -32.8482
   7   2.0000      -0.983146       -26.7528
   8   2.0000      -0.850336       -23.1388
   9   2.0000      -0.801213       -21.8021
  10   2.0000      -0.706937       -19.2367
  11   2.0000      -0.691804       -18.8249
  12   2.0000      -0.656075       -17.8527
  13   2.0000      -0.611525       -16.6404
  14   2.0000      -0.579485       -15.7686
  15   2.0000      -0.543290       -14.7837
  16   2.0000      -0.522053       -14.2058
  17   2.0000      -0.506754       -13.7895
  18   2.0000      -0.491276       -13.3683
  19   2.0000      -0.428484       -11.6596
  20   0.0000       0.057904         1.5757
  21   0.0000       0.067354         1.8328
  22   0.0000       0.084044         2.2870
  23   0.0000       0.091880         2.5002
  24   0.0000       0.098395         2.6775

MULLIKEN ATOMIC CHARGES
-----------------------
   0 C :   -1.202740
   1 C :   -0.453709
   2 H :    0.348200
   3 H :    0.307664
   4 C :    0.541792
   5 O :   -0.461015
   6 F :   -0.164690
   7 H :    0.381325
   8 H :    0.367023
   9 H :    0.336150
Sum of atomic charges:    0.0000000

LOEWDIN ATOMIC CHARGES
----------------------
   0 C :   -0.111096
   1 C :   -0.171827
   2 H :    0.121704
   3 H :    0.124641
   4 C :   -0.507119
   5 O :    0.090144
   6 F :    0.211409
   7 H :    0.085374
   8 H :    0.078887
   9 H :    0.077882

  Mayer bond orders larger than 0.100000
B(  0-C ,  1-C ) :   0.5768 B(  0-C ,  7-H ) :   0.9209 B(  0-C ,  8-H ) :   0.9128
B(  0-C ,  9-H ) :   0.9399 B(  1-C ,  2-H ) :   0.9151 B(  1-C ,  3-H ) :   0.9496
B(  1-C ,  4-C ) :   0.9022 B(  4-C ,  5-O ) :   1.7479 B(  4-C ,  6-F ) :   1.0165

FINAL SINGLE POINT ENERGY      -291.697722656614

DIPOLE MOMENT
-------------
                                X             Y             Z
Electronic contribution:      6.39222      -1.00645      -4.73205
Nuclear contribution   :     -6.76123       0.61881       5.86003
                        -----------------------------------------
Total Dipole Moment    :     -0.36901      -0.38764       1.12798
                        -----------------------------------------
Magnitude (a.u.)       :      1.24851
Magnitude (Debye)      :      3.17345

Rotational constants in cm-1:     0.275298     0.134631     0.105723
Rotational constants in MHz :  8253.224169  4036.137572  3169.487264

                             ****ORCA TERMINATED NORMALLY****
TOTAL RUN TIME: 0 days 0 hours 0 minutes 31 seconds 777 msec
