                         Program Version 5.0.0 -  RELEASE  -
|  1> !LC-PBE RIJCOSX def2-TZVPD def2/J TightSCF
|  2> *xyz 0 1
|  3> C          3.90595        2.81985       -3.75292
|  4> N          5.29562        3.13151       -4.10533
|  5> C          3.80351        1.37472       -3.26081
|  6> C          5.70862        3.46889       -5.32419
|  7> C          6.90470        3.03895       -5.71708
|  8> N          4.98188        4.29357       -6.09746
|  9> H          5.00055        4.10131       -7.08776
| 10> H          4.08469        4.59690       -5.73965
| 11> H          5.96336        2.52611       -3.64239
| 12> H          7.04716        2.06686       -5.47360
| 13> H          7.19815        3.30799       -6.64523
| 14> H          3.28202        2.94919       -4.64026
| 15> H          3.56525        3.51457       -2.98252
| 16> H          4.14157        0.71142       -4.02935
| 17> H          2.78528        1.15146       -3.01944
| 18> H          4.41205        1.25066       -2.38949
| 19> *
| 20>
| 21> %MaxCore 64000
| 22>
| 23> %pal nprocs 4
| 24> end
| 25>
| 26> %scf
| 27>   MaxIter 150
| 28> end
| 29>
| 30>
| 31>                          ****END OF INPUT****

CARTESIAN COORDINATES (ANGSTROEM)
---------------------------------
  C      3.905950    2.819850   -3.752920
  N      5.295620    3.131510   -4.105330
  C      3.803510    1.374720   -3.260810
  C      5.708620    3.468890   -5.324190
  C      6.904700    3.038950   -5.717080
  N      4.981880    4.293570   -6.097460
  H      5.000550    4.101310   -7.087760
  H      4.084690    4.596900   -5.739650
  H      5.963360    2.526110   -3.642390
  H      7.047160    2.066860   -5.473600
  H      7.198150    3.307990   -6.645230
  H      3.282020    2.949190   -4.640260
  H      3.565250    3.514570   -2.982520
  H      4.141570    0.711420   -4.029350
  H      2.785280    1.151460   -3.019440
  H      4.412050    1.250660   -2.389490

 Total Charge           Charge          ....    0
 Multiplicity           Mult            ....    1
 Number of Electrons    NEL             ....   48
 Basis Dimension        Dim             ....  312

ORBITAL ENERGIES
----------------

  NO   OCC          E(Eh)            E(eV)
   0   2.0000     -14.217746      -386.8845
   1   2.0000     -14.217620      -386.8811
   2   2.0000     -10.169346      -276.7220
   3   2.0000     -10.156928      -276.3841
   4   2.0000     -10.112637      -275.1788
   5   2.0000     -10.023870      -272.7634
   6   2.0000      -1.150406       -31.3042
   7   2.0000      -1.060764       -28.8649
   8   2.0000      -0.950347       -25.8603
   9   2.0000      -0.877571       -23.8799
  10   2.0000      -0.793442       -21.5907
  11   2.0000      -0.752234       -20.4693
  12   2.0000      -0.683880       -18.6093
  13   2.0000      -0.640395       -17.4260
  14   2.0000      -0.634240       -17.2586
  15   2.0000      -0.593728       -16.1562
  16   2.0000      -0.565224       -15.3805
  17   2.0000      -0.542902       -14.7731
  18   2.0000      -0.516539       -14.0557
  19   2.0000      -0.507751       -13.8166
  20   2.0000      -0.503987       -13.7142
  21   2.0000      -0.473508       -12.8848
  22   2.0000      -0.392880       -10.6908
  23   2.0000      -0.293231        -7.9792
  24   0.0000       0.059476         1.6184
  25   0.0000       0.077829         2.1178
  26   0.0000       0.088228         2.4008
  27   0.0000       0.102961         2.8017
  28   0.0000       0.119896         3.2625

MULLIKEN ATOMIC CHARGES
-----------------------
   0 C :   -0.444521
   1 N :   -0.344818
   2 C :   -1.399085
   3 C :    0.556984
   4 C :   -1.147184
   5 N :   -0.523935
   6 H :    0.235162
   7 H :    0.283973
   8 H :    0.252414
   9 H :    0.331729
  10 H :    0.335201
  11 H :    0.374497
  12 H :    0.316150
  13 H :    0.387768
  14 H :    0.386395
  15 H :    0.399270
Sum of atomic charges:   -0.0000000

LOEWDIN ATOMIC CHARGES
----------------------
   0 C :   -0.255561
   1 N :    0.008146
   2 C :   -0.110122
   3 C :   -0.579651
   4 C :   -0.027999
   5 N :    0.115710
   6 H :    0.115438
   7 H :    0.100021
   8 H :    0.136112
   9 H :    0.021532
  10 H :    0.015446
  11 H :    0.113820
  12 H :    0.116288
  13 H :    0.080557
  14 H :    0.074161
  15 H :    0.076102

  Mayer bond orders larger than 0.100000
B(  0-C ,  1-N ) :   0.7008 B(  0-C ,  2-C ) :   0.5337 B(  0-C ,  3-C ) :  -0.1171
B(  0-C , 11-H ) :   0.8611 B(  0-C , 12-H ) :   0.9754 B(  1-N ,  3-C ) :   1.0837
B(  1-N ,  4-C ) :   0.1253 B(  1-N ,  8-H ) :   0.9133 B(  2-C , 13-H ) :   0.9525
B(  2-C , 14-H ) :   0.9180 B(  2-C , 15-H ) :   0.9166 B(  3-C ,  4-C ) :   1.2464
B(  3-C ,  5-N ) :   0.8854 B(  4-C ,  9-H ) :   0.9636 B(  4-C , 10-H ) :   1.0674
B(  5-N ,  6-H ) :   0.9657 B(  5-N ,  7-H ) :   0.8957

FINAL SINGLE POINT ENERGY      -267.115564421171

DIPOLE MOMENT
-------------
                                X             Y             Z
Electronic contribution:      1.49024       3.20856      -1.27332
Nuclear contribution   :     -2.93222      -3.63618       1.36440
                        -----------------------------------------
Total Dipole Moment    :     -1.44198      -0.42761       0.09108
                        -----------------------------------------
Magnitude (a.u.)       :      1.50680
Magnitude (Debye)      :      3.82998

Rotational constants in cm-1:     0.237993     0.072843     0.061284
Rotational constants in MHz :  7134.860770  2183.763760  1837.240960

                             ****ORCA TERMINATED NORMALLY****
TOTAL RUN TIME: 0 days 0 hours 1 minutes 1 seconds 972 msec
