                         Program Version 5.0.0 -  RELEASE  -
|  1> !LC-PBE RIJCOSX def2-TZVPD def2/J TightSCF
|  2> *xyz 0 1
|  3> C          3.90595        2.81985       -3.75292
|  4> N          5.29562        3.13151       -4.10533
|  5> C          3.80351        1.37472       -3.26081
|  6> C          5.70862        3.46889       -5.32419
|  7> N          6.90470        3.03895       -5.71708
|  8> C          4.98188        4.29357       -6.09746
|  9> H          5.00055        4.10131       -7.08776
| 10> H          4.08469        4.59690       -5.73965
| 11> H          5.96336        2.52611       -3.64239
| 12> H          7.04716        2.06686       -5.47360
| 13> H          7.19815        3.30799       -6.64523
| 14> H          3.28202        2.94919       -4.64026
| 15> H          3.56525        3.51457       -2.98252
| 16> H          4.14157        0.71142       -4.02935
| 17> H          2.78528        1.15146       -3.01944
| 18> H          4.41205        1.25066       -2.38949
| 19> *
| 20>
| 21> %MaxCore 64000
| 22>
| 23> %pal nprocs 4
| 24> end
| 25>
| 26> %scf
| 27>   MaxIter 150
| 28> end
| 29>
| 30>
| 31>                          ****END OF INPUT****

CARTESIAN COORDINATES (ANGSTROEM)
---------------------------------
  C      3.905950    2.819850   -3.752920
  N      5.295620    3.131510   -4.105330
  C      3.803510    1.374720   -3.260810
  C      5.708620    3.468890   -5.324190
  N      6.904700    3.038950   -5.717080
  C      4.981880    4.293570   -6.097460
  H      5.000550    4.101310   -7.087760
  H      4.084690    4.596900   -5.739650
  H      5.963360    2.526110   -3.642390
  H      7.047160    2.066860   -5.473600
  H      7.198150    3.307990   -6.645230
  H      3.282020    2.949190   -4.640260
  H      3.565250    3.514570   -2.982520
  H      4.141570    0.711420   -4.029350
  H      2.785280    1.151460   -3.019440
  H      4.412050    1.250660   -2.389490

 Total Charge           Charge          ....    0
 Multiplicity           Mult            ....    1
 Number of Electrons    NEL             ....   48
 Basis Dimension        Dim             ....  312

ORBITAL ENERGIES
----------------

  NO   OCC          E(Eh)            E(eV)
   0   2.0000     -14.219867      -386.9422
   1   2.0000     -14.216921      -386.8621
   2   2.0000     -10.168149      -276.6894
   3   2.0000     -10.150624      -276.2125
   4   2.0000     -10.110335      -275.1162
   5   2.0000     -10.029039      -272.9040
   6   2.0000      -1.155030       -31.4300
   7   2.0000      -1.063282       -28.9334
   8   2.0000      -0.937846       -25.5201
   9   2.0000      -0.879159       -23.9231
  10   2.0000      -0.807859       -21.9830
  11   2.0000      -0.721134       -19.6230
  12   2.0000      -0.687006       -18.6944
  13   2.0000      -0.664356       -18.0780
  14   2.0000      -0.621822       -16.9207
  15   2.0000      -0.599543       -16.3144
  16   2.0000      -0.548511       -14.9257
  17   2.0000      -0.539137       -14.6707
  18   2.0000      -0.530086       -14.4244
  19   2.0000      -0.506748       -13.7893
  20   2.0000      -0.496487       -13.5101
  21   2.0000      -0.473989       -12.8979
  22   2.0000      -0.390145       -10.6164
  23   2.0000      -0.296010        -8.0548
  24   0.0000       0.060350         1.6422
  25   0.0000       0.081545         2.2189
  26   0.0000       0.087620         2.3843
  27   0.0000       0.104296         2.8380
  28   0.0000       0.114056         3.1036

MULLIKEN ATOMIC CHARGES
-----------------------
   0 C :   -0.387156
   1 N :   -0.333524
   2 C :   -1.396610
   3 C :    0.506220
   4 N :   -0.551317
   5 C :   -1.188697
   6 H :    0.293813
   7 H :    0.434210
   8 H :    0.273633
   9 H :    0.236673
  10 H :    0.260987
  11 H :    0.384770
  12 H :    0.300303
  13 H :    0.386179
  14 H :    0.386677
  15 H :    0.393839
Sum of atomic charges:   -0.0000000

LOEWDIN ATOMIC CHARGES
----------------------
   0 C :   -0.249411
   1 N :    0.009291
   2 C :   -0.112768
   3 C :   -0.587392
   4 N :    0.105035
   5 C :   -0.013702
   6 H :    0.018662
   7 H :    0.012476
   8 H :    0.132785
   9 H :    0.108818
  10 H :    0.113430
  11 H :    0.117264
  12 H :    0.120164
  13 H :    0.077283
  14 H :    0.074624
  15 H :    0.073441

  Mayer bond orders larger than 0.100000
B(  0-C ,  1-N ) :   0.7244 B(  0-C ,  2-C ) :   0.4614 B(  0-C , 11-H ) :   0.8609
B(  0-C , 12-H ) :   0.9842 B(  1-N ,  3-C ) :   0.9920 B(  1-N ,  8-H ) :   0.9113
B(  2-C , 13-H ) :   0.9556 B(  2-C , 14-H ) :   0.9172 B(  2-C , 15-H ) :   0.9276
B(  3-C ,  4-N ) :   0.9214 B(  3-C ,  5-C ) :   1.3291 B(  3-C ,  6-H ) :  -0.1071
B(  4-N ,  5-C ) :   0.1067 B(  4-N ,  9-H ) :   0.9714 B(  4-N , 10-H ) :   0.9089
B(  5-C ,  6-H ) :   1.0959 B(  5-C ,  7-H ) :   0.8352

FINAL SINGLE POINT ENERGY      -267.119893939947

DIPOLE MOMENT
-------------
                                X             Y             Z
Electronic contribution:      3.37313       2.02743      -0.98841
Nuclear contribution   :     -3.34013      -3.37002       1.28371
                        -----------------------------------------
Total Dipole Moment    :      0.03299      -1.34258       0.29529
                        -----------------------------------------
Magnitude (a.u.)       :      1.37507
Magnitude (Debye)      :      3.49515

Rotational constants in cm-1:     0.239537     0.072280     0.060961
Rotational constants in MHz :  7181.153552  2166.902802  1827.551447

                             ****ORCA TERMINATED NORMALLY****
TOTAL RUN TIME: 0 days 0 hours 1 minutes 4 seconds 726 msec
