                         Program Version 5.0.0 -  RELEASE  -
|  1> !LC-PBE RIJCOSX def2-TZVPD def2/J TightSCF xyzfile
|  2>
|  3> *xyzfile 0 1 D1.xyz
|  4>
|  5> %MaxCore 64000
|  6>
|  7> %pal nprocs 4
|  8> end
|  9>
| 10> %scf
| 11>   MaxIter 150
| 12> end
| 13>
| 14>
| 15>                          ****END OF INPUT****

CARTESIAN COORDINATES (ANGSTROEM)
---------------------------------
  C      3.905947    2.819855   -3.752920
  C      5.295615    3.131515   -4.105334
  C      3.803511    1.374716   -3.260807
  C      3.939934    0.320362   -4.367729
  H      4.105043   -0.655085   -3.907733
  H      3.022801    0.280517   -4.957117
  C      5.105846    0.668022   -5.305463
  C      5.708619    3.468885   -5.324190
  N      6.904696    3.038954   -5.717084
  N      4.981884    4.293570   -6.097457
  H      5.000546    4.101311   -7.087761
  H      4.084693    4.596899   -5.739652
  H      5.963358    2.526112   -3.642391
  H      7.047164    2.066861   -5.473604
  H      7.198145    3.307994   -6.645225
  H      3.282025    2.949187   -4.640259
  H      3.565254    3.514574   -2.982523
  H      4.574833    1.215157   -2.500443
  H      2.843514    1.260845   -2.751465
  F      4.809132    1.150187   -6.414361
  O      6.267366    0.564999   -4.819481

 Total Charge           Charge          ....    0
 Multiplicity           Mult            ....    1
 Number of Electrons    NEL             ....   78
 Basis Dimension        Dim             ....  475

ORBITAL ENERGIES
----------------

  NO   OCC          E(Eh)            E(eV)
   0   2.0000     -24.573184      -668.6703
   1   2.0000     -18.989051      -516.7184
   2   2.0000     -14.216185      -386.8421
   3   2.0000     -14.194228      -386.2446
   4   2.0000     -10.312368      -280.6138
   5   2.0000     -10.161267      -276.5021
   6   2.0000     -10.146361      -276.0965
   7   2.0000     -10.124179      -275.4929
   8   2.0000     -10.105276      -274.9786
   9   2.0000     -10.039994      -273.2021
  10   2.0000      -1.493970       -40.6530
  11   2.0000      -1.208380       -32.8817
  12   2.0000      -1.137774       -30.9604
  13   2.0000      -1.038717       -28.2649
  14   2.0000      -1.001169       -27.2432
  15   2.0000      -0.926965       -25.2240
  16   2.0000      -0.862264       -23.4634
  17   2.0000      -0.822288       -22.3756
  18   2.0000      -0.770336       -20.9619
  19   2.0000      -0.735807       -20.0223
  20   2.0000      -0.718302       -19.5460
  21   2.0000      -0.699103       -19.0236
  22   2.0000      -0.686325       -18.6759
  23   2.0000      -0.669479       -18.2174
  24   2.0000      -0.649043       -17.6614
  25   2.0000      -0.612110       -16.6564
  26   2.0000      -0.604793       -16.4573
  27   2.0000      -0.584339       -15.9007
  28   2.0000      -0.573303       -15.6004
  29   2.0000      -0.539174       -14.6717
  30   2.0000      -0.529611       -14.4114
  31   2.0000      -0.504404       -13.7255
  32   2.0000      -0.500953       -13.6316
  33   2.0000      -0.479536       -13.0488
  34   2.0000      -0.465633       -12.6705
  35   2.0000      -0.451740       -12.2925
  36   2.0000      -0.436384       -11.8746
  37   2.0000      -0.398354       -10.8398
  38   2.0000      -0.286631        -7.7996
  39   0.0000       0.053772         1.4632
  40   0.0000       0.057213         1.5568
  41   0.0000       0.074646         2.0312
  42   0.0000       0.081074         2.2061
  43   0.0000       0.086831         2.3628

MULLIKEN ATOMIC CHARGES
-----------------------
   0 C :   -0.395010
   1 C :   -0.869463
   2 C :   -0.861395
   3 C :   -0.631793
   4 H :    0.356338
   5 H :    0.380219
   6 C :    0.767009
   7 C :   -0.095566
   8 N :   -0.480940
   9 N :   -0.564407
  10 H :    0.202179
  11 H :    0.284650
  12 H :    0.676010
  13 H :    0.353487
  14 H :    0.234375
  15 H :    0.445066
  16 H :    0.235453
  17 H :    0.381364
  18 H :    0.369537
  19 F :   -0.215644
  20 O :   -0.571469
Sum of atomic charges:   -0.0000000

LOEWDIN ATOMIC CHARGES
----------------------
   0 C :   -0.237326
   1 C :   -0.146851
   2 C :   -0.205616
   3 C :   -0.102219
   4 H :    0.132377
   5 H :    0.124910
   6 C :   -0.484494
   7 C :   -0.580284
   8 N :    0.123969
   9 N :    0.124910
  10 H :    0.106147
  11 H :    0.108159
  12 H :    0.079751
  13 H :    0.068204
  14 H :    0.112594
  15 H :    0.116142
  16 H :    0.115831
  17 H :    0.129834
  18 H :    0.119677
  19 F :    0.243196
  20 O :    0.051090

  Mayer bond orders larger than 0.100000
B(  0-C ,  1-C ) :   0.3327 B(  0-C ,  2-C ) :   0.6651 B(  0-C , 15-H ) :   0.7488
B(  0-C , 16-H ) :   1.1294 B(  1-C ,  7-C ) :   1.6124 B(  1-C , 12-H ) :   0.7421
B(  2-C ,  3-C ) :   0.7574 B(  2-C , 17-H ) :   0.9024 B(  2-C , 18-H ) :   0.9491
B(  3-C ,  4-H ) :   0.9156 B(  3-C ,  5-H ) :   0.9381 B(  3-C ,  6-C ) :   0.8627
B(  6-C , 19-F ) :   0.9538 B(  6-C , 20-O ) :   1.5370 B(  7-C ,  8-N ) :   0.8042
B(  7-C ,  9-N ) :   0.6959 B(  8-N , 13-H ) :   0.7827 B(  8-N , 14-H ) :   0.9135
B(  9-N , 10-H ) :   0.9858 B(  9-N , 11-H ) :   0.8850 B( 15-H , 16-H ) :   0.1015

FINAL SINGLE POINT ENERGY      -518.448058316014

DIPOLE MOMENT
-------------
                                X             Y             Z
Electronic contribution:      3.32218      -3.68709      -6.46505
Nuclear contribution   :     -4.60158       3.22721       5.56005
                        -----------------------------------------
Total Dipole Moment    :     -1.27940      -0.45987      -0.90500
                        -----------------------------------------
Magnitude (a.u.)       :      1.63321
Magnitude (Debye)      :      4.15129

Rotational constants in cm-1:     0.061224     0.042534     0.033552
Rotational constants in MHz :  1835.464095  1275.135177  1005.856966

                             ****ORCA TERMINATED NORMALLY****
TOTAL RUN TIME: 0 days 0 hours 3 minutes 8 seconds 87 msec
