                         Program Version 5.0.0 -  RELEASE  -
|  1> !LC-PBE RIJCOSX def2-TZVPD def2/J TightSCF xyzfile
|  2>
|  3> *xyzfile 0 1 D2.xyz
|  4>
|  5> %MaxCore 64000
|  6>
|  7> %pal nprocs 4
|  8> end
|  9>
| 10> %scf
| 11>   MaxIter 150
| 12> end
| 13>
| 14>
| 15>                          ****END OF INPUT****

CARTESIAN COORDINATES (ANGSTROEM)
---------------------------------
  C      3.905947    2.819855   -3.752920
  N      5.295615    3.131515   -4.105334
  C      3.803511    1.374716   -3.260807
  C      3.939934    0.320362   -4.367729
  H      4.105043   -0.655085   -3.907733
  H      3.022801    0.280517   -4.957117
  C      5.105846    0.668022   -5.305463
  C      5.708619    3.468885   -5.324190
  C      6.904696    3.038954   -5.717084
  N      4.981884    4.293570   -6.097457
  H      5.000546    4.101311   -7.087761
  H      4.084693    4.596899   -5.739652
  H      5.963358    2.526112   -3.642391
  H      7.047164    2.066861   -5.473604
  H      7.198145    3.307994   -6.645225
  H      3.282025    2.949187   -4.640259
  H      3.565254    3.514574   -2.982523
  H      4.574833    1.215157   -2.500443
  H      2.843514    1.260845   -2.751465
  F      4.809132    1.150187   -6.414361
  O      6.267366    0.564999   -4.819481

 Total Charge           Charge          ....    0
 Multiplicity           Mult            ....    1
 Number of Electrons    NEL             ....   78
 Basis Dimension        Dim             ....  475

ORBITAL ENERGIES
----------------

  NO   OCC          E(Eh)            E(eV)
   0   2.0000     -24.571914      -668.6358
   1   2.0000     -18.987670      -516.6808
   2   2.0000     -14.217025      -386.8649
   3   2.0000     -14.212765      -386.7490
   4   2.0000     -10.312322      -280.6126
   5   2.0000     -10.165473      -276.6166
   6   2.0000     -10.159198      -276.4458
   7   2.0000     -10.158146      -276.4172
   8   2.0000     -10.148328      -276.1500
   9   2.0000     -10.006959      -272.3032
  10   2.0000      -1.492628       -40.6165
  11   2.0000      -1.207633       -32.8614
  12   2.0000      -1.149009       -31.2661
  13   2.0000      -1.062335       -28.9076
  14   2.0000      -0.999528       -27.1985
  15   2.0000      -0.917186       -24.9579
  16   2.0000      -0.869667       -23.6648
  17   2.0000      -0.826221       -22.4826
  18   2.0000      -0.783356       -21.3162
  19   2.0000      -0.751237       -20.4422
  20   2.0000      -0.723268       -19.6811
  21   2.0000      -0.704065       -19.1586
  22   2.0000      -0.688569       -18.7369
  23   2.0000      -0.660838       -17.9823
  24   2.0000      -0.644296       -17.5322
  25   2.0000      -0.631676       -17.1888
  26   2.0000      -0.611515       -16.6402
  27   2.0000      -0.585588       -15.9347
  28   2.0000      -0.558856       -15.2072
  29   2.0000      -0.547554       -14.8997
  30   2.0000      -0.536290       -14.5932
  31   2.0000      -0.529510       -14.4087
  32   2.0000      -0.502924       -13.6853
  33   2.0000      -0.497544       -13.5389
  34   2.0000      -0.481022       -13.0893
  35   2.0000      -0.473282       -12.8787
  36   2.0000      -0.417654       -11.3649
  37   2.0000      -0.389384       -10.5957
  38   2.0000      -0.284265        -7.7353
  39   0.0000       0.047068         1.2808
  40   0.0000       0.056474         1.5367
  41   0.0000       0.069800         1.8994
  42   0.0000       0.075389         2.0514
  43   0.0000       0.084271         2.2931

MULLIKEN ATOMIC CHARGES
-----------------------
   0 C :   -0.694368
   1 N :   -0.340420
   2 C :   -0.846277
   3 C :   -0.559549
   4 H :    0.348274
   5 H :    0.380360
   6 C :    0.680309
   7 C :    0.178250
   8 C :   -1.048517
   9 N :   -0.583745
  10 H :    0.230604
  11 H :    0.283698
  12 H :    0.341335
  13 H :    0.596466
  14 H :    0.322142
  15 H :    0.390988
  16 H :    0.305695
  17 H :    0.371065
  18 H :    0.363791
  19 F :   -0.196553
  20 O :   -0.523549
Sum of atomic charges:   -0.0000000

LOEWDIN ATOMIC CHARGES
----------------------
   0 C :   -0.197370
   1 N :    0.028825
   2 C :   -0.191972
   3 C :   -0.103227
   4 H :    0.133283
   5 H :    0.125453
   6 C :   -0.487135
   7 C :   -0.596870
   8 C :   -0.014009
   9 N :    0.122439
  10 H :    0.114800
  11 H :    0.099554
  12 H :    0.137892
  13 H :   -0.004212
  14 H :    0.030666
  15 H :    0.124412
  16 H :    0.122803
  17 H :    0.129886
  18 H :    0.122817
  19 F :    0.247591
  20 O :    0.054374

  Mayer bond orders larger than 0.100000
B(  0-C ,  1-N ) :   0.6682 B(  0-C ,  2-C ) :   0.7340 B(  0-C ,  7-C ) :  -0.1587
B(  0-C ,  9-N ) :   0.1045 B(  0-C , 15-H ) :   0.8840 B(  0-C , 16-H ) :   1.0389
B(  1-N ,  7-C ) :   0.8871 B(  1-N , 12-H ) :   0.8258 B(  2-C ,  3-C ) :   0.7330
B(  2-C , 17-H ) :   0.9270 B(  2-C , 18-H ) :   0.9544 B(  3-C ,  4-H ) :   0.9334
B(  3-C ,  5-H ) :   0.9377 B(  3-C ,  6-C ) :   0.8597 B(  6-C , 19-F ) :   0.9729
B(  6-C , 20-O ) :   1.6520 B(  7-C ,  8-C ) :   1.5071 B(  7-C ,  9-N ) :   0.7024
B(  7-C , 14-H ) :  -0.1354 B(  8-C , 13-H ) :   0.6348 B(  8-C , 14-H ) :   1.2356
B(  9-N , 10-H ) :   0.9543 B(  9-N , 11-H ) :   0.8912 B( 13-H , 20-O ) :  -0.1215

FINAL SINGLE POINT ENERGY      -518.417427047908

DIPOLE MOMENT
-------------
                                X             Y             Z
Electronic contribution:      1.99978      -3.81244      -5.17200
Nuclear contribution   :     -4.40347       3.21582       5.36161
                        -----------------------------------------
Total Dipole Moment    :     -2.40369      -0.59662       0.18961
                        -----------------------------------------
Magnitude (a.u.)       :      2.48388
Magnitude (Debye)      :      6.31351

Rotational constants in cm-1:     0.061226     0.043199     0.033926
Rotational constants in MHz :  1835.503528  1295.087558  1017.061512

                             ****ORCA TERMINATED NORMALLY****
TOTAL RUN TIME: 0 days 0 hours 3 minutes 12 seconds 178 msec
