                         Program Version 5.0.0 -  RELEASE  -
|  1> !LC-PBE RIJCOSX def2-TZVPD def2/J TightSCF xyzfile
|  2>
|  3> *xyzfile 0 1 D3.xyz
|  4>
|  5> %MaxCore 64000
|  6>
|  7> %pal nprocs 4
|  8> end
|  9>
| 10> %scf
| 11>   MaxIter 150
| 12> end
| 13>
| 14>
| 15>                          ****END OF INPUT****

CARTESIAN COORDINATES (ANGSTROEM)
---------------------------------
  C      3.905947    2.819855   -3.752920
  N      5.295615    3.131515   -4.105334
  C      3.803511    1.374716   -3.260807
  C      3.939934    0.320362   -4.367729
  H      4.105043   -0.655085   -3.907733
  H      3.022801    0.280517   -4.957117
  C      5.105846    0.668022   -5.305463
  C      5.708619    3.468885   -5.324190
  N      6.904696    3.038954   -5.717084
  C      4.981884    4.293570   -6.097457
  H      5.000546    4.101311   -7.087761
  H      4.084693    4.596899   -5.739652
  H      5.963358    2.526112   -3.642391
  H      7.047164    2.066861   -5.473604
  H      7.198145    3.307994   -6.645225
  H      3.282025    2.949187   -4.640259
  H      3.565254    3.514574   -2.982523
  H      4.574833    1.215157   -2.500443
  H      2.843514    1.260845   -2.751465
  F      4.809132    1.150187   -6.414361
  O      6.267366    0.564999   -4.819481

 Total Charge           Charge          ....    0
 Multiplicity           Mult            ....    1
 Number of Electrons    NEL             ....   78
 Basis Dimension        Dim             ....  475

ORBITAL ENERGIES
----------------

  NO   OCC          E(Eh)            E(eV)
   0   2.0000     -24.583155      -668.9417
   1   2.0000     -19.006344      -517.1889
   2   2.0000     -14.219491      -386.9320
   3   2.0000     -14.194099      -386.2411
   4   2.0000     -10.328539      -281.0538
   5   2.0000     -10.163837      -276.5721
   6   2.0000     -10.162398      -276.5329
   7   2.0000     -10.161623      -276.5118
   8   2.0000     -10.149545      -276.1832
   9   2.0000     -10.023639      -272.7571
  10   2.0000      -1.503799       -40.9204
  11   2.0000      -1.226657       -33.3790
  12   2.0000      -1.150097       -31.2957
  13   2.0000      -1.062094       -28.9010
  14   2.0000      -0.997695       -27.1487
  15   2.0000      -0.910803       -24.7842
  16   2.0000      -0.874195       -23.7881
  17   2.0000      -0.840675       -22.8759
  18   2.0000      -0.796451       -21.6725
  19   2.0000      -0.734797       -19.9948
  20   2.0000      -0.723601       -19.6902
  21   2.0000      -0.714306       -19.4372
  22   2.0000      -0.696187       -18.9442
  23   2.0000      -0.663505       -18.0549
  24   2.0000      -0.652378       -17.7521
  25   2.0000      -0.631567       -17.1858
  26   2.0000      -0.619509       -16.8577
  27   2.0000      -0.578196       -15.7335
  28   2.0000      -0.569878       -15.5072
  29   2.0000      -0.551730       -15.0133
  30   2.0000      -0.532341       -14.4857
  31   2.0000      -0.527213       -14.3462
  32   2.0000      -0.511867       -13.9286
  33   2.0000      -0.505171       -13.7464
  34   2.0000      -0.490454       -13.3459
  35   2.0000      -0.469133       -12.7657
  36   2.0000      -0.450320       -12.2538
  37   2.0000      -0.383137       -10.4257
  38   2.0000      -0.290165        -7.8958
  39   0.0000       0.038673         1.0524
  40   0.0000       0.055474         1.5095
  41   0.0000       0.073241         1.9930
  42   0.0000       0.075057         2.0424
  43   0.0000       0.082009         2.2316

MULLIKEN ATOMIC CHARGES
-----------------------
   0 C :   -0.675925
   1 N :   -0.321507
   2 C :   -0.856761
   3 C :   -0.570700
   4 H :    0.352751
   5 H :    0.384309
   6 C :    0.748411
   7 C :    0.118423
   8 N :   -0.490699
   9 C :   -1.253367
  10 H :    0.371373
  11 H :    0.477405
  12 H :    0.373789
  13 H :    0.387875
  14 H :    0.254180
  15 H :    0.423876
  16 H :    0.298596
  17 H :    0.369937
  18 H :    0.358769
  19 F :   -0.168106
  20 O :   -0.582629
Sum of atomic charges:   -0.0000000

LOEWDIN ATOMIC CHARGES
----------------------
   0 C :   -0.189871
   1 N :    0.029742
   2 C :   -0.190589
   3 C :   -0.100760
   4 H :    0.134010
   5 H :    0.127971
   6 C :   -0.479100
   7 C :   -0.605842
   8 N :    0.124270
   9 C :   -0.016777
  10 H :    0.020815
  11 H :    0.012778
  12 H :    0.134629
  13 H :    0.061847
  14 H :    0.120022
  15 H :    0.128097
  16 H :    0.126976
  17 H :    0.128230
  18 H :    0.124409
  19 F :    0.257555
  20 O :    0.051587

  Mayer bond orders larger than 0.100000
B(  0-C ,  1-N ) :   0.7029 B(  0-C ,  2-C ) :   0.7142 B(  0-C ,  9-C ) :   0.1202
B(  0-C , 15-H ) :   0.8800 B(  0-C , 16-H ) :   1.0166 B(  1-N ,  7-C ) :   0.9081
B(  1-N , 12-H ) :   0.7673 B(  2-C ,  3-C ) :   0.7315 B(  2-C , 17-H ) :   0.9282
B(  2-C , 18-H ) :   0.9518 B(  3-C ,  4-H ) :   0.9294 B(  3-C ,  5-H ) :   0.9344
B(  3-C ,  6-C ) :   0.8721 B(  6-C , 19-F ) :   1.0147 B(  6-C , 20-O ) :   1.4913
B(  7-C ,  8-N ) :   0.7451 B(  7-C ,  9-C ) :   1.5639 B(  7-C , 20-O ) :   0.1362
B(  8-N ,  9-C ) :   0.1089 B(  8-N , 13-H ) :   0.7576 B(  8-N , 14-H ) :   0.9017
B(  9-C , 10-H ) :   0.9469 B(  9-C , 11-H ) :   0.8356

FINAL SINGLE POINT ENERGY      -518.436274389802

DIPOLE MOMENT
-------------
                                X             Y             Z
Electronic contribution:      3.50623      -4.90899      -4.87029
Nuclear contribution   :     -4.64021       3.37029       5.31478
                        -----------------------------------------
Total Dipole Moment    :     -1.13398      -1.53870       0.44449
                        -----------------------------------------
Magnitude (a.u.)       :      1.96241
Magnitude (Debye)      :      4.98806

Rotational constants in cm-1:     0.061077     0.043622     0.034103
Rotational constants in MHz :  1831.041375  1307.759852  1022.388536

                             ****ORCA TERMINATED NORMALLY****
TOTAL RUN TIME: 0 days 0 hours 3 minutes 8 seconds 609 msec
