                         Program Version 5.0.0 -  RELEASE  -
|  1> !LC-PBE RIJCOSX def2-TZVPD def2/J TightSCF xyzfile
|  2>
|  3> *xyzfile 0 1 D4.xyz
|  4>
|  5> %MaxCore 64000
|  6>
|  7> %pal nprocs 4
|  8> end
|  9>
| 10> %scf
| 11>   MaxIter 150
| 12> end
| 13>
| 14>
| 15>                          ****END OF INPUT****

CARTESIAN COORDINATES (ANGSTROEM)
---------------------------------
  C      3.905947    2.819855   -3.752920
  C      5.295615    3.131515   -4.105334
  C      3.803511    1.374716   -3.260807
  C      3.939934    0.320362   -4.367729
  H      4.105043   -0.655085   -3.907733
  H      3.022801    0.280517   -4.957117
  C      5.105846    0.668022   -5.305463
  C      5.708619    3.468885   -5.324190
  N      6.904696    3.038954   -5.717084
  N      4.981884    4.293570   -6.097457
  H      5.000546    4.101311   -7.087761
  H      4.084693    4.596899   -5.739652
  H      5.963358    2.526112   -3.642391
  H      7.047164    2.066861   -5.473604
  H      7.198145    3.307994   -6.645225
  H      3.282025    2.949187   -4.640259
  H      3.565254    3.514574   -2.982523
  H      4.574833    1.215157   -2.500443
  H      2.843514    1.260845   -2.751465
  O      4.809132    1.150187   -6.414361
  F      6.267366    0.564999   -4.819481

 Total Charge           Charge          ....    0
 Multiplicity           Mult            ....    1
 Number of Electrons    NEL             ....   78
 Basis Dimension        Dim             ....  475

ORBITAL ENERGIES
----------------

  NO   OCC          E(Eh)            E(eV)
   0   2.0000     -24.570145      -668.5876
   1   2.0000     -18.986989      -516.6622
   2   2.0000     -14.213693      -386.7742
   3   2.0000     -14.203074      -386.4853
   4   2.0000     -10.305452      -280.4256
   5   2.0000     -10.164507      -276.5903
   6   2.0000     -10.143559      -276.0203
   7   2.0000     -10.124557      -275.5032
   8   2.0000     -10.102563      -274.9047
   9   2.0000     -10.041022      -273.2301
  10   2.0000      -1.486574       -40.4517
  11   2.0000      -1.210331       -32.9348
  12   2.0000      -1.139139       -30.9975
  13   2.0000      -1.041098       -28.3297
  14   2.0000      -1.000846       -27.2344
  15   2.0000      -0.925731       -25.1904
  16   2.0000      -0.861315       -23.4376
  17   2.0000      -0.820158       -22.3176
  18   2.0000      -0.770215       -20.9586
  19   2.0000      -0.747319       -20.3356
  20   2.0000      -0.714223       -19.4350
  21   2.0000      -0.698931       -19.0189
  22   2.0000      -0.676220       -18.4009
  23   2.0000      -0.657230       -17.8841
  24   2.0000      -0.652160       -17.7462
  25   2.0000      -0.612369       -16.6634
  26   2.0000      -0.610661       -16.6169
  27   2.0000      -0.584983       -15.9182
  28   2.0000      -0.571989       -15.5646
  29   2.0000      -0.538419       -14.6511
  30   2.0000      -0.527192       -14.3456
  31   2.0000      -0.510262       -13.8849
  32   2.0000      -0.497965       -13.5503
  33   2.0000      -0.478188       -13.0122
  34   2.0000      -0.470535       -12.8039
  35   2.0000      -0.456907       -12.4331
  36   2.0000      -0.427090       -11.6217
  37   2.0000      -0.399146       -10.8613
  38   2.0000      -0.289058        -7.8657
  39   0.0000       0.058553         1.5933
  40   0.0000       0.063615         1.7311
  41   0.0000       0.074370         2.0237
  42   0.0000       0.082837         2.2541
  43   0.0000       0.086458         2.3526

MULLIKEN ATOMIC CHARGES
-----------------------
   0 C :   -0.321438
   1 C :   -0.990516
   2 C :   -0.941782
   3 C :   -0.610912
   4 H :    0.389554
   5 H :    0.346716
   6 C :    0.695733
   7 C :    0.012321
   8 N :   -0.469055
   9 N :   -0.562127
  10 H :    0.203372
  11 H :    0.286116
  12 H :    0.707685
  13 H :    0.321291
  14 H :    0.231893
  15 H :    0.435127
  16 H :    0.240736
  17 H :    0.389085
  18 H :    0.364797
  19 O :   -0.496815
  20 F :   -0.231781
Sum of atomic charges:   -0.0000000

LOEWDIN ATOMIC CHARGES
----------------------
   0 C :   -0.236934
   1 C :   -0.155837
   2 C :   -0.209724
   3 C :   -0.103246
   4 H :    0.126406
   5 H :    0.132185
   6 C :   -0.498916
   7 C :   -0.577241
   8 N :    0.126711
   9 N :    0.137105
  10 H :    0.110475
  11 H :    0.110470
  12 H :    0.076509
  13 H :    0.083743
  14 H :    0.116186
  15 H :    0.119341
  16 H :    0.115181
  17 H :    0.125667
  18 H :    0.119827
  19 O :    0.091415
  20 F :    0.190678

  Mayer bond orders larger than 0.100000
B(  0-C ,  1-C ) :   0.3400 B(  0-C ,  2-C ) :   0.6288 B(  0-C , 15-H ) :   0.7373
B(  0-C , 16-H ) :   1.1314 B(  1-C ,  2-C ) :   0.1476 B(  1-C ,  7-C ) :   1.5456
B(  1-C ,  9-N ) :   0.1065 B(  1-C , 12-H ) :   0.6694 B(  2-C ,  3-C ) :   0.7453
B(  2-C , 17-H ) :   0.9100 B(  2-C , 18-H ) :   0.9497 B(  3-C ,  4-H ) :   0.9088
B(  3-C ,  5-H ) :   0.9631 B(  3-C ,  6-C ) :   0.8563 B(  6-C , 19-O ) :   1.6794
B(  6-C , 20-F ) :   0.8419 B(  7-C ,  8-N ) :   0.8279 B(  7-C ,  9-N ) :   0.7104
B(  8-N , 13-H ) :   0.8300 B(  8-N , 14-H ) :   0.9009 B(  9-N , 10-H ) :   0.9800
B(  9-N , 11-H ) :   0.8842 B( 15-H , 16-H ) :   0.1027

FINAL SINGLE POINT ENERGY      -518.449224333195

DIPOLE MOMENT
-------------
                                X             Y             Z
Electronic contribution:      5.77103      -4.58184      -3.89435
Nuclear contribution   :     -6.25608       3.89116       3.75052
                        -----------------------------------------
Total Dipole Moment    :     -0.48505      -0.69068      -0.14383
                        -----------------------------------------
Magnitude (a.u.)       :      0.85616
Magnitude (Debye)      :      2.17617

Rotational constants in cm-1:     0.061229     0.042568     0.033282
Rotational constants in MHz :  1835.590871  1276.154029   997.769927

                             ****ORCA TERMINATED NORMALLY****
TOTAL RUN TIME: 0 days 0 hours 3 minutes 17 seconds 216 msec
