                         Program Version 5.0.0 -  RELEASE  -
|  1> !LC-PBE RIJCOSX def2-TZVPD def2/J TightSCF xyzfile
|  2>
|  3> *xyzfile 0 1 D5.xyz
|  4>
|  5> %MaxCore 64000
|  6>
|  7> %pal nprocs 4
|  8> end
|  9>
| 10> %scf
| 11>   MaxIter 150
| 12> end
| 13>
| 14>
| 15>                          ****END OF INPUT****

CARTESIAN COORDINATES (ANGSTROEM)
---------------------------------
  C      3.905947    2.819855   -3.752920
  N      5.295615    3.131515   -4.105334
  C      3.803511    1.374716   -3.260807
  C      3.939934    0.320362   -4.367729
  H      4.105043   -0.655085   -3.907733
  H      3.022801    0.280517   -4.957117
  C      5.105846    0.668022   -5.305463
  C      5.708619    3.468885   -5.324190
  C      6.904696    3.038954   -5.717084
  N      4.981884    4.293570   -6.097457
  H      5.000546    4.101311   -7.087761
  H      4.084693    4.596899   -5.739652
  H      5.963358    2.526112   -3.642391
  H      7.047164    2.066861   -5.473604
  H      7.198145    3.307994   -6.645225
  H      3.282025    2.949187   -4.640259
  H      3.565254    3.514574   -2.982523
  H      4.574833    1.215157   -2.500443
  H      2.843514    1.260845   -2.751465
  O      4.809132    1.150187   -6.414361
  F      6.267366    0.564999   -4.819481

 Total Charge           Charge          ....    0
 Multiplicity           Mult            ....    1
 Number of Electrons    NEL             ....   78
 Basis Dimension        Dim             ....  475

ORBITAL ENERGIES
----------------

  NO   OCC          E(Eh)            E(eV)
   0   2.0000     -24.565628      -668.4647
   1   2.0000     -18.989976      -516.7435
   2   2.0000     -14.222315      -387.0089
   3   2.0000     -14.209481      -386.6596
   4   2.0000     -10.307013      -280.4681
   5   2.0000     -10.164683      -276.5951
   6   2.0000     -10.161437      -276.5067
   7   2.0000     -10.156606      -276.3753
   8   2.0000     -10.150176      -276.2003
   9   2.0000     -10.011728      -272.4330
  10   2.0000      -1.482913       -40.3521
  11   2.0000      -1.212356       -32.9899
  12   2.0000      -1.150513       -31.3070
  13   2.0000      -1.061904       -28.8959
  14   2.0000      -0.999915       -27.2091
  15   2.0000      -0.917358       -24.9626
  16   2.0000      -0.870868       -23.6975
  17   2.0000      -0.820819       -22.3356
  18   2.0000      -0.785056       -21.3625
  19   2.0000      -0.756203       -20.5773
  20   2.0000      -0.716631       -19.5005
  21   2.0000      -0.711579       -19.3630
  22   2.0000      -0.670761       -18.2523
  23   2.0000      -0.659405       -17.9433
  24   2.0000      -0.646360       -17.5883
  25   2.0000      -0.636211       -17.3122
  26   2.0000      -0.609017       -16.5722
  27   2.0000      -0.584175       -15.8962
  28   2.0000      -0.563598       -15.3363
  29   2.0000      -0.546930       -14.8827
  30   2.0000      -0.531560       -14.4645
  31   2.0000      -0.523259       -14.2386
  32   2.0000      -0.508234       -13.8297
  33   2.0000      -0.497969       -13.5504
  34   2.0000      -0.494299       -13.4506
  35   2.0000      -0.459571       -12.5056
  36   2.0000      -0.431202       -11.7336
  37   2.0000      -0.392732       -10.6868
  38   2.0000      -0.284746        -7.7483
  39   0.0000       0.050531         1.3750
  40   0.0000       0.063346         1.7237
  41   0.0000       0.069387         1.8881
  42   0.0000       0.074601         2.0300
  43   0.0000       0.086593         2.3563

MULLIKEN ATOMIC CHARGES
-----------------------
   0 C :   -0.615034
   1 N :   -0.358468
   2 C :   -0.931536
   3 C :   -0.545074
   4 H :    0.383055
   5 H :    0.349139
   6 C :    0.623422
   7 C :    0.216312
   8 C :   -0.924834
   9 N :   -0.583586
  10 H :    0.229755
  11 H :    0.280234
  12 H :    0.316607
  13 H :    0.466956
  14 H :    0.320480
  15 H :    0.381705
  16 H :    0.310796
  17 H :    0.379872
  18 H :    0.360932
  19 O :   -0.453074
  20 F :   -0.207658
Sum of atomic charges:    0.0000000

LOEWDIN ATOMIC CHARGES
----------------------
   0 C :   -0.195939
   1 N :    0.029101
   2 C :   -0.195166
   3 C :   -0.103402
   4 H :    0.128066
   5 H :    0.132724
   6 C :   -0.500262
   7 C :   -0.594391
   8 C :   -0.019537
   9 N :    0.132418
  10 H :    0.118403
  11 H :    0.101513
  12 H :    0.135988
  13 H :    0.006262
  14 H :    0.032467
  15 H :    0.127704
  16 H :    0.122856
  17 H :    0.126311
  18 H :    0.123161
  19 O :    0.104553
  20 F :    0.187171

  Mayer bond orders larger than 0.100000
B(  0-C ,  1-N ) :   0.6989 B(  0-C ,  2-C ) :   0.7086 B(  0-C ,  7-C ) :  -0.1349
B(  0-C ,  9-N ) :   0.1010 B(  0-C , 15-H ) :   0.8710 B(  0-C , 16-H ) :   1.0382
B(  1-N ,  7-C ) :   0.8656 B(  1-N , 12-H ) :   0.8360 B(  2-C ,  3-C ) :   0.7100
B(  2-C , 17-H ) :   0.9325 B(  2-C , 18-H ) :   0.9554 B(  3-C ,  4-H ) :   0.9281
B(  3-C ,  5-H ) :   0.9632 B(  3-C ,  6-C ) :   0.8542 B(  6-C , 19-O ) :   1.7152
B(  6-C , 20-F ) :   0.8912 B(  7-C ,  8-C ) :   1.5291 B(  7-C ,  9-N ) :   0.7176
B(  7-C , 14-H ) :  -0.1286 B(  8-C , 13-H ) :   0.7102 B(  8-C , 14-H ) :   1.1902
B(  9-N , 10-H ) :   0.9467 B(  9-N , 11-H ) :   0.8908

FINAL SINGLE POINT ENERGY      -518.422750323536

DIPOLE MOMENT
-------------
                                X             Y             Z
Electronic contribution:      4.35671      -4.72057      -2.56832
Nuclear contribution   :     -6.05797       3.87976       3.55209
                        -----------------------------------------
Total Dipole Moment    :     -1.70125      -0.84081       0.98377
                        -----------------------------------------
Magnitude (a.u.)       :      2.13753
Magnitude (Debye)      :      5.43316

Rotational constants in cm-1:     0.061282     0.043164     0.033679
Rotational constants in MHz :  1837.191639  1294.028651  1009.659886

                             ****ORCA TERMINATED NORMALLY****
TOTAL RUN TIME: 0 days 0 hours 3 minutes 8 seconds 315 msec
