                         Program Version 5.0.0 -  RELEASE  -
|  1> !LC-PBE RIJCOSX def2-TZVPD def2/J TightSCF xyzfile
|  2>
|  3> *xyzfile 0 1 D6.xyz
|  4>
|  5> %MaxCore 64000
|  6>
|  7> %pal nprocs 4
|  8> end
|  9>
| 10> %scf
| 11>   MaxIter 150
| 12> end
| 13>
| 14>
| 15>                          ****END OF INPUT****

CARTESIAN COORDINATES (ANGSTROEM)
---------------------------------
  C      3.905947    2.819855   -3.752920
  N      5.295615    3.131515   -4.105334
  C      3.803511    1.374716   -3.260807
  C      3.939934    0.320362   -4.367729
  H      4.105043   -0.655085   -3.907733
  H      3.022801    0.280517   -4.957117
  C      5.105846    0.668022   -5.305463
  C      5.708619    3.468885   -5.324190
  N      6.904696    3.038954   -5.717084
  C      4.981884    4.293570   -6.097457
  H      5.000546    4.101311   -7.087761
  H      4.084693    4.596899   -5.739652
  H      5.963358    2.526112   -3.642391
  H      7.047164    2.066861   -5.473604
  H      7.198145    3.307994   -6.645225
  H      3.282025    2.949187   -4.640259
  H      3.565254    3.514574   -2.982523
  H      4.574833    1.215157   -2.500443
  H      2.843514    1.260845   -2.751465
  O      4.809132    1.150187   -6.414361
  F      6.267366    0.564999   -4.819481

 Total Charge           Charge          ....    0
 Multiplicity           Mult            ....    1
 Number of Electrons    NEL             ....   78
 Basis Dimension        Dim             ....  475

ORBITAL ENERGIES
----------------

  NO   OCC          E(Eh)            E(eV)
   0   2.0000     -24.584638      -668.9820
   1   2.0000     -18.999943      -517.0147
   2   2.0000     -14.224488      -387.0680
   3   2.0000     -14.201758      -386.4495
   4   2.0000     -10.315090      -280.6879
   5   2.0000     -10.161745      -276.5151
   6   2.0000     -10.160079      -276.4698
   7   2.0000     -10.159832      -276.4631
   8   2.0000     -10.149571      -276.1839
   9   2.0000     -10.021711      -272.7046
  10   2.0000      -1.501545       -40.8591
  11   2.0000      -1.221409       -33.2362
  12   2.0000      -1.153995       -31.4018
  13   2.0000      -1.065133       -28.9838
  14   2.0000      -0.997046       -27.1310
  15   2.0000      -0.910004       -24.7625
  16   2.0000      -0.873186       -23.7606
  17   2.0000      -0.842298       -22.9201
  18   2.0000      -0.797993       -21.7145
  19   2.0000      -0.739586       -20.1252
  20   2.0000      -0.731452       -19.9038
  21   2.0000      -0.718568       -19.5532
  22   2.0000      -0.674194       -18.3458
  23   2.0000      -0.661476       -17.9997
  24   2.0000      -0.649470       -17.6730
  25   2.0000      -0.632981       -17.2243
  26   2.0000      -0.626948       -17.0601
  27   2.0000      -0.573407       -15.6032
  28   2.0000      -0.568042       -15.4572
  29   2.0000      -0.546797       -14.8791
  30   2.0000      -0.533958       -14.5297
  31   2.0000      -0.525974       -14.3125
  32   2.0000      -0.516737       -14.0611
  33   2.0000      -0.500802       -13.6275
  34   2.0000      -0.492275       -13.3955
  35   2.0000      -0.468294       -12.7429
  36   2.0000      -0.437127       -11.8948
  37   2.0000      -0.387787       -10.5522
  38   2.0000      -0.289742        -7.8843
  39   0.0000       0.048353         1.3158
  40   0.0000       0.057232         1.5574
  41   0.0000       0.073125         1.9898
  42   0.0000       0.076549         2.0830
  43   0.0000       0.083424         2.2701

MULLIKEN ATOMIC CHARGES
-----------------------
   0 C :   -0.593176
   1 N :   -0.333729
   2 C :   -0.947270
   3 C :   -0.553337
   4 H :    0.386561
   5 H :    0.348929
   6 C :    0.647912
   7 C :    0.227324
   8 N :   -0.477459
   9 C :   -1.246352
  10 H :    0.361261
  11 H :    0.471931
  12 H :    0.335635
  13 H :    0.340703
  14 H :    0.255899
  15 H :    0.404865
  16 H :    0.303159
  17 H :    0.384347
  18 H :    0.353415
  19 O :   -0.430627
  20 F :   -0.239991
Sum of atomic charges:    0.0000000

LOEWDIN ATOMIC CHARGES
----------------------
   0 C :   -0.188195
   1 N :    0.028809
   2 C :   -0.194910
   3 C :   -0.102791
   4 H :    0.127787
   5 H :    0.134711
   6 C :   -0.499625
   7 C :   -0.606494
   8 N :    0.124948
   9 C :   -0.006430
  10 H :    0.026336
  11 H :    0.015853
  12 H :    0.132806
  13 H :    0.076258
  14 H :    0.122709
  15 H :    0.131699
  16 H :    0.126779
  17 H :    0.124178
  18 H :    0.124262
  19 O :    0.114767
  20 F :    0.186545

  Mayer bond orders larger than 0.100000
B(  0-C ,  1-N ) :   0.7356 B(  0-C ,  2-C ) :   0.6962 B(  0-C ,  3-C ) :  -0.1164
B(  0-C ,  9-C ) :   0.1199 B(  0-C , 15-H ) :   0.8691 B(  0-C , 16-H ) :   1.0164
B(  1-N ,  7-C ) :   0.9097 B(  1-N , 12-H ) :   0.7658 B(  2-C ,  3-C ) :   0.7115
B(  2-C , 17-H ) :   0.9255 B(  2-C , 18-H ) :   0.9594 B(  3-C ,  4-H ) :   0.9267
B(  3-C ,  5-H ) :   0.9586 B(  3-C ,  6-C ) :   0.8624 B(  6-C , 19-O ) :   1.7342
B(  6-C , 20-F ) :   0.8241 B(  7-C ,  8-N ) :   0.7286 B(  7-C ,  9-C ) :   1.5282
B(  8-N ,  9-C ) :   0.1206 B(  8-N , 13-H ) :   0.7972 B(  8-N , 14-H ) :   0.8866
B(  9-C , 10-H ) :   0.9553 B(  9-C , 11-H ) :   0.8361

FINAL SINGLE POINT ENERGY      -518.432632655541

DIPOLE MOMENT
-------------
                                X             Y             Z
Electronic contribution:      5.91841      -5.75982      -2.30230
Nuclear contribution   :     -6.29470       4.03423       3.50525
                        -----------------------------------------
Total Dipole Moment    :     -0.37630      -1.72559       1.20295
                        -----------------------------------------
Magnitude (a.u.)       :      2.13690
Magnitude (Debye)      :      5.43157

Rotational constants in cm-1:     0.061094     0.043661     0.033867
Rotational constants in MHz :  1831.559881  1308.929520  1015.295167

                             ****ORCA TERMINATED NORMALLY****
TOTAL RUN TIME: 0 days 0 hours 3 minutes 7 seconds 609 msec
