                         Program Version 5.0.0 -  RELEASE  -
|  1> !wB97X-D3 RIJCOSX def2-SVP def2/J TightSCF
|  2> *xyz -1 1
|  3> C         -1.36646        2.47911       -4.31393
|  4> C         -2.35773        2.30686       -3.13675
|  5> O         -3.44376        2.84652       -3.25274
|  6> O         -1.97092        1.58304       -2.15123
|  7> H         -1.80853        3.10058       -5.06443
|  8> H         -1.13980        1.52081       -4.73248
|  9> H         -0.46612        2.93495       -3.95827
| 10> *
| 11> %MaxCore 64000
| 12>
| 13> %pal nprocs 18
| 14> end
| 15>
| 16> %scf
| 17>   MaxIter 150
| 18> end
| 19>
| 20>
| 21>                          ****END OF INPUT****

CARTESIAN COORDINATES (ANGSTROEM)
---------------------------------
  C     -1.366460    2.479110   -4.313930
  C     -2.357730    2.306860   -3.136750
  O     -3.443760    2.846520   -3.252740
  O     -1.970920    1.583040   -2.151230
  H     -1.808530    3.100580   -5.064430
  H     -1.139800    1.520810   -4.732480
  H     -0.466120    2.934950   -3.958270

 Total Charge           Charge          ....   -1
 Multiplicity           Mult            ....    1
 Number of Electrons    NEL             ....   32
 Basis Dimension        Dim             ....   71

ORBITAL ENERGIES
----------------

  NO   OCC          E(Eh)            E(eV)
   0   2.0000     -18.938902      -515.3537
   1   2.0000     -18.924002      -514.9483
   2   2.0000     -10.139928      -275.9215
   3   2.0000     -10.082630      -274.3623
   4   2.0000      -0.893182       -24.3047
   5   2.0000      -0.787515       -21.4294
   6   2.0000      -0.630593       -17.1593
   7   2.0000      -0.376569       -10.2470
   8   2.0000      -0.340436        -9.2637
   9   2.0000      -0.325207        -8.8493
  10   2.0000      -0.293513        -7.9869
  11   2.0000      -0.249232        -6.7820
  12   2.0000      -0.238118        -6.4795
  13   2.0000      -0.099460        -2.7064
  14   2.0000      -0.099017        -2.6944
  15   2.0000      -0.082534        -2.2459
  16   0.0000       0.331180         9.0119
  17   0.0000       0.361945         9.8490
  18   0.0000       0.394094        10.7238
  19   0.0000       0.426009        11.5923
  20   0.0000       0.512741        13.9524

MULLIKEN ATOMIC CHARGES
-----------------------
   0 C :   -0.026486
   1 C :    0.029420
   2 O :   -0.409216
   3 O :   -0.506763
   4 H :   -0.040985
   5 H :   -0.021752
   6 H :   -0.024219
Sum of atomic charges:   -1.0000000

LOEWDIN ATOMIC CHARGES
----------------------
   0 C :   -0.130442
   1 C :   -0.048656
   2 O :   -0.366355
   3 O :   -0.456342
   4 H :   -0.006005
   5 H :    0.004468
   6 H :    0.003331

  Mayer bond orders larger than 0.100000
B(  0-C ,  1-C ) :   0.9310 B(  0-C ,  4-H ) :   0.9656 B(  0-C ,  5-H ) :   0.9691
B(  0-C ,  6-H ) :   0.9679 B(  1-C ,  2-O ) :   1.9026 B(  1-C ,  3-O ) :   1.8000
B(  2-O ,  3-O ) :   0.1080

Dispersion correction           -0.000909507
FINAL SINGLE POINT ENERGY      -228.263060321476

DIPOLE MOMENT
-------------
                                X             Y             Z
Electronic contribution:     -2.50292      -0.38193       2.84811
Nuclear contribution   :      3.20990       0.60513      -3.84153
                        -----------------------------------------
Total Dipole Moment    :      0.70699       0.22320      -0.99341
                        -----------------------------------------
Magnitude (a.u.)       :      1.23957
Magnitude (Debye)      :      3.15072

Rotational constants in cm-1:     0.394521     0.330294     0.185888
Rotational constants in MHz : 11827.441786  9901.964904  5572.768963

                             ****ORCA TERMINATED NORMALLY****
TOTAL RUN TIME: 0 days 0 hours 0 minutes 4 seconds 710 msec
