                         Program Version 5.0.0 -  RELEASE  -
|  1> !wB97X-D3 RIJCOSX def2-SVP def2/J TightSCF
|  2> *xyz 1 1
|  3> C          0.64866        1.00359       -3.64560
|  4> N          0.28128        0.67645       -2.24018
|  5> H          0.39079       -0.31925       -2.02649
|  6> H         -0.69269        0.99010       -2.13812
|  7> H          0.85421        1.21221       -1.57528
|  8> H          0.03905        0.43387       -4.31545
|  9> H          1.67860        0.76457       -3.80989
| 10> H          0.49232        2.04741       -3.82138
| 11> *
| 12> %MaxCore 64000
| 13>
| 14> %pal nprocs 18
| 15> end
| 16>
| 17> %scf
| 18>   MaxIter 150
| 19> end
| 20>
| 21>
| 22>                          ****END OF INPUT****

CARTESIAN COORDINATES (ANGSTROEM)
---------------------------------
  C      0.648660    1.003590   -3.645600
  N      0.281280    0.676450   -2.240180
  H      0.390790   -0.319250   -2.026490
  H     -0.692690    0.990100   -2.138120
  H      0.854210    1.212210   -1.575280
  H      0.039050    0.433870   -4.315450
  H      1.678600    0.764570   -3.809890
  H      0.492320    2.047410   -3.821380

 Total Charge           Charge          ....    1
 Multiplicity           Mult            ....    1
 Number of Electrons    NEL             ....   18
 Basis Dimension        Dim             ....   58

ORBITAL ENERGIES
----------------

  NO   OCC          E(Eh)            E(eV)
   0   2.0000     -14.789309      -402.4376
   1   2.0000     -10.547330      -287.0074
   2   2.0000      -1.337270       -36.3890
   3   2.0000      -1.045779       -28.4571
   4   2.0000      -0.921515       -25.0757
   5   2.0000      -0.912005       -24.8169
   6   2.0000      -0.812944       -22.1213
   7   2.0000      -0.725732       -19.7482
   8   2.0000      -0.723423       -19.6853
   9   0.0000      -0.102891        -2.7998
  10   0.0000      -0.033477        -0.9109
  11   0.0000      -0.031632        -0.8607
  12   0.0000      -0.001465        -0.0399
  13   0.0000       0.040010         1.0887

MULLIKEN ATOMIC CHARGES
-----------------------
   0 C :   -0.016131
   1 N :   -0.053734
   2 H :    0.234813
   3 H :    0.233669
   4 H :    0.231417
   5 H :    0.124193
   6 H :    0.123274
   7 H :    0.122499
Sum of atomic charges:    1.0000000

LOEWDIN ATOMIC CHARGES
----------------------
   0 C :    0.067824
   1 N :    0.294115
   2 H :    0.150979
   3 H :    0.153454
   4 H :    0.152156
   5 H :    0.060905
   6 H :    0.059900
   7 H :    0.060666

  Mayer bond orders larger than 0.100000
B(  0-C ,  1-N ) :   0.9363 B(  0-C ,  5-H ) :   0.9724 B(  0-C ,  6-H ) :   0.9740
B(  0-C ,  7-H ) :   0.9724 B(  1-N ,  2-H ) :   0.9300 B(  1-N ,  3-H ) :   0.9343
B(  1-N ,  4-H ) :   0.9320

Dispersion correction           -0.000495160
FINAL SINGLE POINT ENERGY       -96.117529019105

DIPOLE MOMENT
-------------
                                X             Y             Z
Electronic contribution:     -0.27072      -0.28099       1.08587
Nuclear contribution   :      0.04246       0.12404      -0.26487
                        -----------------------------------------
Total Dipole Moment    :     -0.22827      -0.15695       0.82100
                        -----------------------------------------
Magnitude (a.u.)       :      0.86648
Magnitude (Debye)      :      2.20241

Rotational constants in cm-1:     2.856727     0.687609     0.685111
Rotational constants in MHz : 85642.512409 20614.005719 20539.101620

                             ****ORCA TERMINATED NORMALLY****
TOTAL RUN TIME: 0 days 0 hours 0 minutes 3 seconds 521 msec
