                         Program Version 5.0.0 -  RELEASE  -
|  1> !wB97X-D3 RIJCOSX def2-SVP def2/J TightSCF xyzfile
|  2>
|  3> *xyzfile 0 1 B.xyz
|  4>
|  5> %MaxCore 64000
|  6>
|  7> %pal nprocs 18
|  8> end
|  9>
| 10> %scf
| 11>   MaxIter 150
| 12> end
| 13>
| 14>
| 15>                          ****END OF INPUT****

CARTESIAN COORDINATES (ANGSTROEM)
---------------------------------
  C      0.648656    1.003595   -3.645601
  N      0.281280    0.676454   -2.240179
  C      0.132968    2.385869   -4.024618
  C     -1.366462    2.479106   -4.313932
  C     -2.357732    2.306858   -3.136753
  H     -1.636802    1.727095   -5.063993
  H     -1.582347    3.445605   -4.768687
  H      0.390790   -0.319253   -2.026495
  H     -0.692686    0.990104   -2.138123
  H      0.854206    1.212214   -1.575279
  O     -3.443763    2.846518   -3.252744
  O     -1.970922    1.583042   -2.151229
  H      0.190993    0.239655   -4.275752
  H      1.731572    0.931729   -3.750751
  H      0.414839    3.102847   -3.245165
  H      0.683167    2.687560   -4.919721

 Total Charge           Charge          ....    0
 Multiplicity           Mult            ....    1
 Number of Electrons    NEL             ....   56
 Basis Dimension        Dim             ....  143

ORBITAL ENERGIES
----------------

  NO   OCC          E(Eh)            E(eV)
   0   2.0000     -19.146684      -521.0078
   1   2.0000     -19.126192      -520.4501
   2   2.0000     -14.547516      -395.8580
   3   2.0000     -10.377678      -282.3910
   4   2.0000     -10.336611      -281.2735
   5   2.0000     -10.315367      -280.6954
   6   2.0000     -10.271743      -279.5083
   7   2.0000      -1.128214       -30.7003
   8   2.0000      -1.091059       -29.6892
   9   2.0000      -1.003737       -27.3131
  10   2.0000      -0.920424       -25.0460
  11   2.0000      -0.821534       -22.3551
  12   2.0000      -0.740855       -20.1597
  13   2.0000      -0.707898       -19.2629
  14   2.0000      -0.697329       -18.9753
  15   2.0000      -0.623911       -16.9775
  16   2.0000      -0.577743       -15.7212
  17   2.0000      -0.575288       -15.6544
  18   2.0000      -0.532598       -14.4927
  19   2.0000      -0.512427       -13.9438
  20   2.0000      -0.479467       -13.0470
  21   2.0000      -0.475242       -12.9320
  22   2.0000      -0.466356       -12.6902
  23   2.0000      -0.442831       -12.0500
  24   2.0000      -0.421178       -11.4608
  25   2.0000      -0.311018        -8.4632
  26   2.0000      -0.307277        -8.3614
  27   2.0000      -0.279778        -7.6131
  28   0.0000       0.079159         2.1540
  29   0.0000       0.125046         3.4027
  30   0.0000       0.135597         3.6898
  31   0.0000       0.163640         4.4529
  32   0.0000       0.178040         4.8447

MULLIKEN ATOMIC CHARGES
-----------------------
   0 C :    0.015065
   1 N :   -0.006316
   2 C :   -0.086630
   3 C :   -0.085573
   4 C :    0.162938
   5 H :    0.035545
   6 H :    0.045270
   7 H :    0.173955
   8 H :    0.143081
   9 H :    0.174509
  10 O :   -0.316228
  11 O :   -0.465380
  12 H :    0.066206
  13 H :    0.058950
  14 H :    0.039041
  15 H :    0.045569
Sum of atomic charges:    0.0000000

LOEWDIN ATOMIC CHARGES
----------------------
   0 C :    0.045609
   1 N :    0.270418
   2 C :   -0.052189
   3 C :   -0.094500
   4 C :    0.008295
   5 H :    0.031672
   6 H :    0.037077
   7 H :    0.112221
   8 H :   -0.008270
   9 H :    0.115587
  10 O :   -0.271266
  11 O :   -0.328515
  12 H :    0.038598
  13 H :    0.028733
  14 H :    0.028591
  15 H :    0.037937

  Mayer bond orders larger than 0.100000
B(  0-C ,  1-N ) :   0.9629 B(  0-C ,  2-C ) :   1.0551 B(  0-C , 12-H ) :   0.9545
B(  0-C , 13-H ) :   0.9646 B(  1-N ,  7-H ) :   0.9449 B(  1-N ,  8-H ) :   0.7426
B(  1-N ,  9-H ) :   0.9460 B(  2-C ,  3-C ) :   1.0259 B(  2-C , 14-H ) :   0.9550
B(  2-C , 15-H ) :   0.9446 B(  3-C ,  4-C ) :   0.9247 B(  3-C ,  5-H ) :   0.9447
B(  3-C ,  6-H ) :   0.9455 B(  4-C , 10-O ) :   2.0160 B(  4-C , 11-O ) :   1.4752
B(  8-H , 11-O ) :   0.3723

Dispersion correction           -0.004907460
FINAL SINGLE POINT ENERGY      -362.669743423321

DIPOLE MOMENT
-------------
                                X             Y             Z
Electronic contribution:     -5.82543       0.88249       2.60311
Nuclear contribution   :      9.92875      -2.62114      -2.63866
                        -----------------------------------------
Total Dipole Moment    :      4.10332      -1.73865      -0.03554
                        -----------------------------------------
Magnitude (a.u.)       :      4.45661
Magnitude (Debye)      :     11.32781

Rotational constants in cm-1:     0.159108     0.062474     0.047603
Rotational constants in MHz :  4769.938632  1872.932224  1427.103830

                             ****ORCA TERMINATED NORMALLY****
TOTAL RUN TIME: 0 days 0 hours 0 minutes 12 seconds 323 msec
