                         Program Version 5.0.0 -  RELEASE  -
|  1> !wB97X-D3 RIJCOSX def2-SVP def2/J TightSCF
|  2> *xyz 0 1
|  3> C         -1.36646        2.47911       -4.31393
|  4> C         -2.35773        2.30686       -3.13675
|  5> O         -3.44376        2.84652       -3.25274
|  6> F         -1.97092        1.58304       -2.15123
|  7> H         -1.80853        3.10058       -5.06443
|  8> H         -1.13980        1.52081       -4.73248
|  9> H         -0.46612        2.93495       -3.95827
| 10> *
| 11> %MaxCore 64000
| 12>
| 13> %pal nprocs 18
| 14> end
| 15>
| 16> %scf
| 17>   MaxIter 150
| 18> end
| 19>
| 20>
| 21>                          ****END OF INPUT****

CARTESIAN COORDINATES (ANGSTROEM)
---------------------------------
  C     -1.366460    2.479110   -4.313930
  C     -2.357730    2.306860   -3.136750
  O     -3.443760    2.846520   -3.252740
  F     -1.970920    1.583040   -2.151230
  H     -1.808530    3.100580   -5.064430
  H     -1.139800    1.520810   -4.732480
  H     -0.466120    2.934950   -3.958270

 Total Charge           Charge          ....    0
 Multiplicity           Mult            ....    1
 Number of Electrons    NEL             ....   32
 Basis Dimension        Dim             ....   71

ORBITAL ENERGIES
----------------

  NO   OCC          E(Eh)            E(eV)
   0   2.0000     -24.849889      -676.1998
   1   2.0000     -19.246652      -523.7280
   2   2.0000     -10.464842      -284.7628
   3   2.0000     -10.311597      -280.5928
   4   2.0000      -1.395682       -37.9784
   5   2.0000      -1.156742       -31.4765
   6   2.0000      -0.872929       -23.7536
   7   2.0000      -0.747425       -20.3385
   8   2.0000      -0.639073       -17.3901
   9   2.0000      -0.637282       -17.3413
  10   2.0000      -0.598464       -16.2850
  11   2.0000      -0.538585       -14.6556
  12   2.0000      -0.530234       -14.4284
  13   2.0000      -0.498441       -13.5633
  14   2.0000      -0.459106       -12.4929
  15   2.0000      -0.389504       -10.5989
  16   0.0000       0.074710         2.0330
  17   0.0000       0.151903         4.1335
  18   0.0000       0.211890         5.7658
  19   0.0000       0.216507         5.8915
  20   0.0000       0.254438         6.9236

MULLIKEN ATOMIC CHARGES
-----------------------
   0 C :   -0.075990
   1 C :    0.225454
   2 O :   -0.230759
   3 F :   -0.118540
   4 H :    0.070633
   5 H :    0.065672
   6 H :    0.063531
Sum of atomic charges:   -0.0000000

LOEWDIN ATOMIC CHARGES
----------------------
   0 C :   -0.081747
   1 C :    0.111095
   2 O :   -0.164779
   3 F :    0.003246
   4 H :    0.046107
   5 H :    0.043620
   6 H :    0.042458

  Mayer bond orders larger than 0.100000
B(  0-C ,  1-C ) :   1.0204 B(  0-C ,  4-H ) :   0.9726 B(  0-C ,  5-H ) :   0.9590
B(  0-C ,  6-H ) :   0.9587 B(  1-C ,  2-O ) :   2.1244 B(  1-C ,  3-F ) :   1.1443

Dispersion correction           -0.000897233
FINAL SINGLE POINT ENERGY      -252.826261809131

DIPOLE MOMENT
-------------
                                X             Y             Z
Electronic contribution:     -1.94197      -1.54640       4.52694
Nuclear contribution   :      2.88734       1.34891      -4.94049
                        -----------------------------------------
Total Dipole Moment    :      0.94538      -0.19749      -0.41355
                        -----------------------------------------
Magnitude (a.u.)       :      1.05060
Magnitude (Debye)      :      2.67042

Rotational constants in cm-1:     0.375207     0.313199     0.176202
Rotational constants in MHz : 11248.433436  9389.476975  5282.390844

                             ****ORCA TERMINATED NORMALLY****
TOTAL RUN TIME: 0 days 0 hours 0 minutes 3 seconds 883 msec
