                         Program Version 5.0.0 -  RELEASE  -
|  1> !wB97X-D3 RIJCOSX def2-SVP def2/J TightSCF xyzfile
|  2>
|  3> *xyzfile 0 1 D1.xyz
|  4>
|  5> %MaxCore 64000
|  6>
|  7> %pal nprocs 18
|  8> end
|  9>
| 10> %scf
| 11>   MaxIter 150
| 12> end
| 13>
| 14>
| 15>                          ****END OF INPUT****

CARTESIAN COORDINATES (ANGSTROEM)
---------------------------------
  C      0.648656    1.003595   -3.645601
  C      0.281280    0.676454   -2.240179
  C      0.132968    2.385869   -4.024618
  C     -1.366462    2.479106   -4.313932
  C     -2.357732    2.306858   -3.136753
  H     -1.636802    1.727095   -5.063993
  H     -1.582347    3.445605   -4.768687
  H      0.390790   -0.319253   -2.026495
  H     -0.692686    0.990104   -2.138123
  H      0.854206    1.212214   -1.575279
  F     -3.443763    2.846518   -3.252744
  O     -1.970922    1.583042   -2.151229
  H      0.190993    0.239655   -4.275752
  H      1.731572    0.931729   -3.750751
  H      0.414839    3.102847   -3.245165
  H      0.683167    2.687560   -4.919721

 Total Charge           Charge          ....    0
 Multiplicity           Mult            ....    1
 Number of Electrons    NEL             ....   56
 Basis Dimension        Dim             ....  143

ORBITAL ENERGIES
----------------

  NO   OCC          E(Eh)            E(eV)
   0   2.0000     -24.887739      -677.2298
   1   2.0000     -19.246697      -523.7292
   2   2.0000     -10.485891      -285.3356
   3   2.0000     -10.325776      -280.9787
   4   2.0000     -10.295878      -280.1651
   5   2.0000     -10.266899      -279.3765
   6   2.0000     -10.195033      -277.4210
   7   2.0000      -1.458209       -39.6799
   8   2.0000      -1.142630       -31.0925
   9   2.0000      -0.926166       -25.2023
  10   2.0000      -0.864702       -23.5297
  11   2.0000      -0.793921       -21.6037
  12   2.0000      -0.763419       -20.7737
  13   2.0000      -0.686830       -18.6896
  14   2.0000      -0.676162       -18.3993
  15   2.0000      -0.661321       -17.9955
  16   2.0000      -0.625538       -17.0217
  17   2.0000      -0.582592       -15.8531
  18   2.0000      -0.549535       -14.9536
  19   2.0000      -0.533503       -14.5174
  20   2.0000      -0.506533       -13.7835
  21   2.0000      -0.477604       -12.9963
  22   2.0000      -0.471493       -12.8300
  23   2.0000      -0.448308       -12.1991
  24   2.0000      -0.434769       -11.8307
  25   2.0000      -0.411166       -11.1884
  26   2.0000      -0.402141       -10.9428
  27   2.0000      -0.335511        -9.1297
  28   0.0000       0.048141         1.3100
  29   0.0000       0.139651         3.8001
  30   0.0000       0.173405         4.7186
  31   0.0000       0.186261         5.0684
  32   0.0000       0.199975         5.4416

MULLIKEN ATOMIC CHARGES
-----------------------
   0 C :   -0.079763
   1 C :    0.026840
   2 C :   -0.050600
   3 C :   -0.118258
   4 C :    0.302778
   5 H :    0.075437
   6 H :    0.055281
   7 H :   -0.018485
   8 H :    0.028503
   9 H :   -0.024436
  10 F :   -0.026154
  11 O :   -0.259918
  12 H :    0.006155
  13 H :    0.019790
  14 H :    0.032775
  15 H :    0.030055
Sum of atomic charges:    0.0000000

LOEWDIN ATOMIC CHARGES
----------------------
   0 C :   -0.039873
   1 C :   -0.072306
   2 C :   -0.034631
   3 C :   -0.076411
   4 C :    0.135449
   5 H :    0.053036
   6 H :    0.037767
   7 H :    0.002216
   8 H :   -0.047346
   9 H :    0.002216
  10 F :    0.096373
  11 O :   -0.148318
  12 H :    0.015639
  13 H :    0.018125
  14 H :    0.027880
  15 H :    0.030183

  Mayer bond orders larger than 0.100000
B(  0-C ,  1-C ) :   1.0790 B(  0-C ,  2-C ) :   1.0614 B(  0-C , 12-H ) :   0.9565
B(  0-C , 13-H ) :   0.9573 B(  1-C ,  7-H ) :   0.9533 B(  1-C ,  8-H ) :   0.9133
B(  1-C ,  9-H ) :   0.9545 B(  2-C ,  3-C ) :   1.0577 B(  2-C , 14-H ) :   0.9593
B(  2-C , 15-H ) :   0.9467 B(  3-C ,  4-C ) :   0.9902 B(  3-C ,  5-H ) :   0.9216
B(  3-C ,  6-H ) :   0.9426 B(  4-C , 10-F ) :   1.2513 B(  4-C , 11-O ) :   1.9145
B(  8-H , 11-O ) :   0.1908

Dispersion correction           -0.004674879
FINAL SINGLE POINT ENERGY      -370.579982889934

DIPOLE MOMENT
-------------
                                X             Y             Z
Electronic contribution:    -13.09404       4.59971       1.43908
Nuclear contribution   :     12.79331      -3.91961      -2.45895
                        -----------------------------------------
Total Dipole Moment    :     -0.30072       0.68010      -1.01987
                        -----------------------------------------
Magnitude (a.u.)       :      1.26218
Magnitude (Debye)      :      3.20820

Rotational constants in cm-1:     0.162888     0.059977     0.046450
Rotational constants in MHz :  4883.250030  1798.063289  1392.548669

                             ****ORCA TERMINATED NORMALLY****
TOTAL RUN TIME: 0 days 0 hours 0 minutes 10 seconds 4 msec
