                         Program Version 5.0.0 -  RELEASE  -
|  1> !DLPNO-CCSD(T) aug-cc-pVTZ aug-cc-pVTZ/C TightSCF TightPNO RIJCOSX def2/J
|  2> *xyz -1 1
|  3> C         -0.77455        2.78833       -0.54394
|  4> C          0.69721        3.22791       -0.52513
|  5> O          1.48929        2.37470        0.19919
|  6> H          0.71600        4.26403       -0.13077
|  7> H          1.03615        3.33092       -1.58367
|  8> H         -1.34746        3.48478       -1.11982
|  9> H         -1.15078        2.75876        0.45729
| 10> H         -0.85058        1.81526       -0.98241
| 11> *
| 12>
| 13> %MaxCore 64000
| 14> %pal nprocs 18
| 15> end
| 16>
| 17> %scf
| 18>   MaxIter 150
| 19> end
| 20>
| 21>
| 22>                          ****END OF INPUT****

CARTESIAN COORDINATES (ANGSTROEM)
---------------------------------
  C     -0.774550    2.788330   -0.543940
  C      0.697210    3.227910   -0.525130
  O      1.489290    2.374700    0.199190
  H      0.716000    4.264030   -0.130770
  H      1.036150    3.330920   -1.583670
  H     -1.347460    3.484780   -1.119820
  H     -1.150780    2.758760    0.457290
  H     -0.850580    1.815260   -0.982410

 Total Charge           Charge          ....   -1
 Multiplicity           Mult            ....    1
 Number of Electrons    NEL             ....   26
 Basis Dimension        Dim             ....  253

ORBITAL ENERGIES
----------------

  NO   OCC          E(Eh)            E(eV)
   0   2.0000     -20.203877      -549.7754
   1   2.0000     -11.037192      -300.3373
   2   2.0000     -11.011948      -299.6504
   3   2.0000      -0.992401       -27.0046
   4   2.0000      -0.784078       -21.3359
   5   2.0000      -0.587881       -15.9971
   6   2.0000      -0.412727       -11.2309
   7   2.0000      -0.387021       -10.5314
   8   2.0000      -0.320249        -8.7144
   9   2.0000      -0.304028        -8.2730
  10   2.0000      -0.258323        -7.0293
  11   2.0000      -0.111246        -3.0272
  12   2.0000      -0.109925        -2.9912
  13   0.0000       0.133104         3.6220
  14   0.0000       0.141938         3.8623
  15   0.0000       0.143433         3.9030
  16   0.0000       0.154366         4.2005
  17   0.0000       0.167247         4.5510

MULLIKEN ATOMIC CHARGES
-----------------------
   0 C :   -0.914296
   1 C :   -0.147334
   2 O :   -1.118783
   3 H :    0.196196
   4 H :    0.182951
   5 H :    0.268610
   6 H :    0.266650
   7 H :    0.266007
Sum of atomic charges:   -1.0000000

LOEWDIN ATOMIC CHARGES
----------------------
   0 C :    0.489188
   1 C :   -0.422067
   2 O :    0.091820
   3 H :   -0.239897
   4 H :   -0.231287
   5 H :   -0.238841
   6 H :   -0.224130
   7 H :   -0.224785

  Mayer bond orders larger than 0.100000
B(  0-C ,  1-C ) :   0.8655 B(  0-C ,  5-H ) :   0.9243 B(  0-C ,  6-H ) :   0.9220
B(  0-C ,  7-H ) :   0.9242 B(  1-C ,  2-O ) :   1.1188 B(  1-C ,  3-H ) :   0.9820
B(  1-C ,  4-H ) :   0.9880

E(0)                                       ...   -153.509743863
E(0)                                       ...   -153.509743863
E(CORR)(strong-pairs)                      ...     -0.651443407
E(CORR)(weak-pairs)                        ...     -0.000422360
E(CORR)(corrected)                         ...     -0.651865766
E(TOT)                                     ...   -154.161609629
E(CCSD(T))                                 ...   -154.188021743
FINAL SINGLE POINT ENERGY      -154.188021743392

DIPOLE MOMENT
-------------
                                X             Y             Z
Electronic contribution:      2.25999      -0.95546       1.09776
Nuclear contribution   :     -3.69910       1.55962      -1.78699
                        -----------------------------------------
Total Dipole Moment    :     -1.43910       0.60416      -0.68923
                        -----------------------------------------
Magnitude (a.u.)       :      1.70618
Magnitude (Debye)      :      4.33677

Rotational constants in cm-1:     1.268893     0.327436     0.287754
Rotational constants in MHz : 38040.440181  9816.269339  8626.646564

                             ****ORCA TERMINATED NORMALLY****
TOTAL RUN TIME: 0 days 0 hours 2 minutes 6 seconds 885 msec
