                         Program Version 5.0.0 -  RELEASE  -
|  1> !DLPNO-CCSD(T) aug-cc-pVTZ aug-cc-pVTZ/C TightSCF TightPNO RIJCOSX def2/J
|  2> *xyz 1 1
|  3> C          3.95643        0.50147       -0.37910
|  4> H          3.16840        0.02920        0.20738
|  5> N          3.80389        1.96157       -0.15675
|  6> C          3.84232        0.14849       -1.85406
|  7> H          4.92323        0.17798        0.00937
|  8> H          4.20643        2.24441        0.74536
|  9> H          2.80827        2.21132       -0.09610
| 10> H          4.28076        2.50155       -0.89104
| 11> H          4.62951        0.62800       -2.39748
| 12> H          2.89665        0.48102       -2.22825
| 13> H          3.92053       -0.91187       -1.97413
| 14> *
| 15>
| 16> %MaxCore 64000
| 17> %pal nprocs 18
| 18> end
| 19>
| 20> %scf
| 21>   MaxIter 150
| 22> end
| 23>
| 24>
| 25>                          ****END OF INPUT****

CARTESIAN COORDINATES (ANGSTROEM)
---------------------------------
  C      3.956430    0.501470   -0.379100
  H      3.168400    0.029200    0.207380
  N      3.803890    1.961570   -0.156750
  C      3.842320    0.148490   -1.854060
  H      4.923230    0.177980    0.009370
  H      4.206430    2.244410    0.745360
  H      2.808270    2.211320   -0.096100
  H      4.280760    2.501550   -0.891040
  H      4.629510    0.628000   -2.397480
  H      2.896650    0.481020   -2.228250
  H      3.920530   -0.911870   -1.974130

 Total Charge           Charge          ....    1
 Multiplicity           Mult            ....    1
 Number of Electrons    NEL             ....   26
 Basis Dimension        Dim             ....  322

ORBITAL ENERGIES
----------------

  NO   OCC          E(Eh)            E(eV)
   0   2.0000     -15.901851      -432.7114
   1   2.0000     -11.480426      -312.3983
   2   2.0000     -11.396751      -310.1214
   3   2.0000      -1.522139       -41.4195
   4   2.0000      -1.226736       -33.3812
   5   2.0000      -1.067287       -29.0424
   6   2.0000      -0.984919       -26.8010
   7   2.0000      -0.965014       -26.2594
   8   2.0000      -0.861062       -23.4307
   9   2.0000      -0.806623       -21.9493
  10   2.0000      -0.733991       -19.9729
  11   2.0000      -0.714675       -19.4473
  12   2.0000      -0.699688       -19.0395
  13   0.0000      -0.119482        -3.2513
  14   0.0000      -0.083774        -2.2796
  15   0.0000      -0.082358        -2.2411
  16   0.0000      -0.074613        -2.0303
  17   0.0000      -0.047632        -1.2961

MULLIKEN ATOMIC CHARGES
-----------------------
   0 C :   -0.352424
   1 H :    0.357542
   2 N :    0.087052
   3 C :   -0.913790
   4 H :    0.352287
   5 H :    0.133624
   6 H :    0.176671
   7 H :    0.155487
   8 H :    0.328532
   9 H :    0.325831
  10 H :    0.349189
Sum of atomic charges:    1.0000000

LOEWDIN ATOMIC CHARGES
----------------------
   0 C :    0.323449
   1 H :   -0.112259
   2 N :    1.097594
   3 C :    0.662903
   4 H :   -0.108959
   5 H :   -0.124859
   6 H :   -0.123138
   7 H :   -0.127992
   8 H :   -0.167474
   9 H :   -0.166754
  10 H :   -0.152512

  Mayer bond orders larger than 0.100000
B(  0-C ,  1-H ) :   0.8767 B(  0-C ,  2-N ) :   0.7992 B(  0-C ,  3-C ) :   0.8671
B(  0-C ,  4-H ) :   0.8753 B(  2-N ,  5-H ) :   1.0307 B(  2-N ,  6-H ) :   0.9869
B(  2-N ,  7-H ) :   0.9820 B(  3-C ,  8-H ) :   0.8996 B(  3-C ,  9-H ) :   0.9149
B(  3-C , 10-H ) :   0.9112

E(0)                                       ...   -134.671283440
E(0)                                       ...   -134.671283440
E(CORR)(strong-pairs)                      ...     -0.615479296
E(CORR)(weak-pairs)                        ...     -0.000454308
E(CORR)(corrected)                         ...     -0.615933604
E(TOT)                                     ...   -135.287217044
E(CCSD(T))                                 ...   -135.308088665
FINAL SINGLE POINT ENERGY      -135.308088665259

DIPOLE MOMENT
-------------
                                X             Y             Z
Electronic contribution:     -0.01045       1.34323       1.26237
Nuclear contribution   :     -0.06214      -0.04120      -0.39947
                        -----------------------------------------
Total Dipole Moment    :     -0.07259       1.30202       0.86290
                        -----------------------------------------
Magnitude (a.u.)       :      1.56369
Magnitude (Debye)      :      3.97459

Rotational constants in cm-1:     1.011771     0.281435     0.249812
Rotational constants in MHz : 30332.138762  8437.210602  7489.166323

                             ****ORCA TERMINATED NORMALLY****
TOTAL RUN TIME: 0 days 0 hours 1 minutes 46 seconds 955 msec
