                         Program Version 5.0.0 -  RELEASE  -
|  1> !DLPNO-CCSD(T) aug-cc-pVTZ aug-cc-pVTZ/C TightSCF TightPNO RIJCOSX def2/J
|  2>
|  3> *xyzfile 0 1 B.xyz
|  4>
|  5> %MaxCore 64000
|  6>
|  7> %pal nprocs 18
|  8> end
|  9>
| 10> %scf
| 11>   MaxIter 150
| 12> end
| 13>
| 14>
| 15>                          ****END OF INPUT****

CARTESIAN COORDINATES (ANGSTROEM)
---------------------------------
  C      3.956426    0.501466   -0.379100
  H      3.168398    0.029201    0.207383
  N      3.803893    1.961572   -0.156747
  C      3.842322    0.148490   -1.854058
  H      4.923231    0.177982    0.009371
  H      4.620021    0.694502   -2.402150
  H      4.096015   -0.910930   -1.955103
  C      2.475619    0.412708   -2.485377
  H      2.174689    1.445076   -2.287971
  C      1.383931   -0.532740   -1.995203
  H      2.575613    0.318574   -3.571460
  H      1.264698   -0.412309   -0.915491
  H      1.705223   -1.566885   -2.164984
  C      0.031398   -0.317260   -2.677791
  C     -0.587292    1.060853   -2.436460
  H     -0.662815   -1.089530   -2.329985
  H      0.149465   -0.478040   -3.755648
  H      0.104376    1.828590   -2.793130
  C     -0.951213    1.334978   -0.972500
  H     -1.478832    1.161355   -3.062484
  H     -0.317007    0.741648   -0.311389
  H     -1.980916    1.012842   -0.788958
  C     -0.774550    2.788332   -0.543943
  H     -1.352609    3.459372   -1.192585
  H     -1.171014    2.902331    0.469968
  C      0.697208    3.227911   -0.525126
  O      1.489294    2.374703    0.199189
  H      0.715998    4.264030   -0.130774
  H      1.036148    3.330920   -1.583669
  H      4.206425    2.244406    0.745359
  H      2.808269    2.211323   -0.096097
  H      4.280757    2.501552   -0.891037

 Total Charge           Charge          ....    0
 Multiplicity           Mult            ....    1
 Number of Electrons    NEL             ....   90
 Basis Dimension        Dim             ....  989

ORBITAL ENERGIES
----------------

  NO   OCC          E(Eh)            E(eV)
   0   2.0000     -20.409664      -555.3752
   1   2.0000     -15.645060      -425.7237
   2   2.0000     -11.294942      -307.3510
   3   2.0000     -11.246769      -306.0401
   4   2.0000     -11.219961      -305.3107
   5   2.0000     -11.207271      -304.9654
   6   2.0000     -11.206030      -304.9316
   7   2.0000     -11.201764      -304.8155
   8   2.0000     -11.188541      -304.4557
   9   2.0000     -11.174502      -304.0737
  10   2.0000     -11.167427      -303.8811
  11   2.0000      -1.297654       -35.3110
  12   2.0000      -1.211646       -32.9706
  13   2.0000      -1.095495       -29.8099
  14   2.0000      -1.050466       -28.5846
  15   2.0000      -1.004652       -27.3380
  16   2.0000      -0.947769       -25.7901
  17   2.0000      -0.899951       -24.4889
  18   2.0000      -0.847674       -23.0664
  19   2.0000      -0.812420       -22.1071
  20   2.0000      -0.768900       -20.9228
  21   2.0000      -0.750300       -20.4167
  22   2.0000      -0.745999       -20.2997
  23   2.0000      -0.710977       -19.3467
  24   2.0000      -0.655770       -17.8444
  25   2.0000      -0.635427       -17.2908
  26   2.0000      -0.632484       -17.2108
  27   2.0000      -0.601201       -16.3595
  28   2.0000      -0.581117       -15.8130
  29   2.0000      -0.576593       -15.6899
  30   2.0000      -0.554882       -15.0991
  31   2.0000      -0.544570       -14.8185
  32   2.0000      -0.530499       -14.4356
  33   2.0000      -0.512259       -13.9393
  34   2.0000      -0.502372       -13.6702
  35   2.0000      -0.489267       -13.3136
  36   2.0000      -0.482942       -13.1415
  37   2.0000      -0.466669       -12.6987
  38   2.0000      -0.452149       -12.3036
  39   2.0000      -0.448977       -12.2173
  40   2.0000      -0.426466       -11.6047
  41   2.0000      -0.417455       -11.3595
  42   2.0000      -0.414023       -11.2661
  43   2.0000      -0.324938        -8.8420
  44   2.0000      -0.322706        -8.7813
  45   0.0000       0.011963         0.3255
  46   0.0000       0.027834         0.7574
  47   0.0000       0.028534         0.7765
  48   0.0000       0.036763         1.0004
  49   0.0000       0.044687         1.2160

MULLIKEN ATOMIC CHARGES
-----------------------
   0 C :   -0.448600
   1 H :    0.223496
   2 N :    0.126847
   3 C :   -0.525766
   4 H :    0.360567
   5 H :    0.222177
   6 H :    0.272111
   7 C :   -0.457287
   8 H :    0.399295
   9 C :   -0.314501
  10 H :    0.276236
  11 H :    0.226782
  12 H :    0.336430
  13 C :   -0.640452
  14 C :   -0.282036
  15 H :    0.191556
  16 H :    0.135053
  17 H :   -0.012117
  18 C :   -0.420892
  19 H :    0.466117
  20 H :    0.374704
  21 H :    0.206712
  22 C :   -0.707540
  23 H :    0.187564
  24 H :    0.196937
  25 C :   -0.174646
  26 O :   -1.007746
  27 H :    0.431447
  28 H :    0.131389
  29 H :    0.011035
  30 H :    0.228482
  31 H :   -0.013352
Sum of atomic charges:    0.0000000

LOEWDIN ATOMIC CHARGES
----------------------
   0 C :    0.320098
   1 H :   -0.124669
   2 N :    1.047466
   3 C :    0.318136
   4 H :   -0.123915
   5 H :   -0.138866
   6 H :   -0.137269
   7 C :    0.297673
   8 H :   -0.183383
   9 C :    0.292081
  10 H :   -0.128551
  11 H :   -0.170054
  12 H :   -0.135257
  13 C :    0.301145
  14 C :    0.292357
  15 H :   -0.138016
  16 H :   -0.143776
  17 H :   -0.185747
  18 C :    0.278881
  19 H :   -0.138862
  20 H :   -0.194119
  21 H :   -0.142433
  22 C :    0.259398
  23 H :   -0.149877
  24 H :   -0.155357
  25 C :   -0.158936
  26 O :    0.546298
  27 H :   -0.178984
  28 H :   -0.190756
  29 H :   -0.127900
  30 H :   -0.769556
  31 H :   -0.137249

  Mayer bond orders larger than 0.100000
B(  0-C ,  1-H ) :   1.0147 B(  0-C ,  2-N ) :   0.8413 B(  0-C ,  3-C ) :   0.8349
B(  0-C ,  4-H ) :   0.8820 B(  2-N , 29-H ) :   1.0806 B(  2-N , 30-H ) :   0.7319
B(  2-N , 31-H ) :   1.0829 B(  3-C ,  5-H ) :   1.0348 B(  3-C ,  6-H ) :   0.9653
B(  3-C ,  7-C ) :   0.8752 B(  7-C ,  8-H ) :   0.9257 B(  7-C ,  9-C ) :   0.8510
B(  7-C , 10-H ) :   0.9835 B(  8-H ,  9-C ) :   0.1058 B(  9-C , 11-H ) :   1.0399
B(  9-C , 12-H ) :   0.8549 B(  9-C , 13-C ) :   0.8616 B( 13-C , 14-C ) :   0.8521
B( 13-C , 15-H ) :   1.0576 B( 13-C , 16-H ) :   1.0646 B( 14-C , 17-H ) :   1.2037
B( 14-C , 18-C ) :   0.7282 B( 14-C , 19-H ) :   0.8010 B( 17-H , 18-C ) :   0.1429
B( 18-C , 19-H ) :  -0.1103 B( 18-C , 20-H ) :   0.9428 B( 18-C , 21-H ) :   1.0617
B( 18-C , 22-C ) :   0.9012 B( 18-C , 26-O ) :  -0.1028 B( 22-C , 23-H ) :   1.0506
B( 22-C , 24-H ) :   1.0345 B( 22-C , 25-C ) :   0.8464 B( 22-C , 26-O ) :   0.1074
B( 25-C , 26-O ) :   0.9420 B( 25-C , 27-H ) :   0.8142 B( 25-C , 28-H ) :   1.1126
B( 26-O , 30-H ) :   0.3747

E(0)                                       ...   -482.457031516
E(0)                                       ...   -482.457031516
E(CORR)(strong-pairs)                      ...     -2.183793071
E(CORR)(weak-pairs)                        ...     -0.003425507
E(CORR)(corrected)                         ...     -2.187218577
E(TOT)                                     ...   -484.644250094
E(CCSD(T))                                 ...   -484.732770510
FINAL SINGLE POINT ENERGY      -484.732770509612

DIPOLE MOMENT
-------------
                                X             Y             Z
Electronic contribution:      2.20494       0.88785       2.52466
Nuclear contribution   :      0.61785      -1.47632      -2.91844
                        -----------------------------------------
Total Dipole Moment    :      2.82279      -0.58848      -0.39378
                        -----------------------------------------
Magnitude (a.u.)       :      2.91024
Magnitude (Debye)      :      7.39724

Rotational constants in cm-1:     0.040993     0.027400     0.018162
Rotational constants in MHz :  1228.944366   821.418004   544.476857

                             ****ORCA TERMINATED NORMALLY****
TOTAL RUN TIME: 0 days 2 hours 39 minutes 51 seconds 740 msec
