                         Program Version 5.0.0 -  RELEASE  -
|  1> !DLPNO-CCSD(T) aug-cc-pVTZ aug-cc-pVTZ/C TightSCF TightPNO RIJCOSX def2/J
|  2> *xyz 0 1
|  3> C         -0.77455        2.78833       -0.54394
|  4> C          0.69721        3.22791       -0.52513
|  5> F          1.48929        2.37470        0.19919
|  6> H          0.71600        4.26403       -0.13077
|  7> H          1.03615        3.33092       -1.58367
|  8> H         -1.34746        3.48478       -1.11982
|  9> H         -1.15078        2.75876        0.45729
| 10> H         -0.85058        1.81526       -0.98241
| 11> *
| 12>
| 13> %MaxCore 64000
| 14> %pal nprocs 18
| 15> end
| 16>
| 17> %scf
| 18>   MaxIter 150
| 19> end
| 20>
| 21>
| 22>                          ****END OF INPUT****

CARTESIAN COORDINATES (ANGSTROEM)
---------------------------------
  C     -0.774550    2.788330   -0.543940
  C      0.697210    3.227910   -0.525130
  F      1.489290    2.374700    0.199190
  H      0.716000    4.264030   -0.130770
  H      1.036150    3.330920   -1.583670
  H     -1.347460    3.484780   -1.119820
  H     -1.150780    2.758760    0.457290
  H     -0.850580    1.815260   -0.982410

 Total Charge           Charge          ....    0
 Multiplicity           Mult            ....    1
 Number of Electrons    NEL             ....   26
 Basis Dimension        Dim             ....  253

ORBITAL ENERGIES
----------------

  NO   OCC          E(Eh)            E(eV)
   0   2.0000     -26.283738      -715.2169
   1   2.0000     -11.312014      -307.8155
   2   2.0000     -11.219505      -305.2983
   3   2.0000      -1.595043       -43.4033
   4   2.0000      -1.032640       -28.0996
   5   2.0000      -0.863458       -23.4959
   6   2.0000      -0.703020       -19.1302
   7   2.0000      -0.701711       -19.0945
   8   2.0000      -0.662955       -18.0399
   9   2.0000      -0.585224       -15.9248
  10   2.0000      -0.560305       -15.2467
  11   2.0000      -0.496031       -13.4977
  12   2.0000      -0.489650       -13.3241
  13   0.0000       0.030215         0.8222
  14   0.0000       0.041306         1.1240
  15   0.0000       0.041921         1.1407
  16   0.0000       0.049168         1.3379
  17   0.0000       0.067080         1.8253

MULLIKEN ATOMIC CHARGES
-----------------------
   0 C :   -0.952981
   1 C :   -0.062896
   2 F :   -0.484204
   3 H :    0.287706
   4 H :    0.281173
   5 H :    0.329917
   6 H :    0.300590
   7 H :    0.300695
Sum of atomic charges:   -0.0000000

LOEWDIN ATOMIC CHARGES
----------------------
   0 C :    0.585182
   1 C :   -0.116995
   2 F :    0.450911
   3 H :   -0.172137
   4 H :   -0.162887
   5 H :   -0.192890
   6 H :   -0.195303
   7 H :   -0.195881

  Mayer bond orders larger than 0.100000
B(  0-C ,  1-C ) :   0.9144 B(  0-C ,  5-H ) :   0.8975 B(  0-C ,  6-H ) :   0.9069
B(  0-C ,  7-H ) :   0.9072 B(  1-C ,  2-F ) :   0.6205 B(  1-C ,  3-H ) :   0.9264
B(  1-C ,  4-H ) :   0.9321

E(0)                                       ...   -178.147678037
E(0)                                       ...   -178.147678037
E(CORR)(strong-pairs)                      ...     -0.645197801
E(CORR)(weak-pairs)                        ...     -0.000408304
E(CORR)(corrected)                         ...     -0.645606104
E(TOT)                                     ...   -178.793284142
E(CCSD(T))                                 ...   -178.814520631
FINAL SINGLE POINT ENERGY      -178.814520631016

DIPOLE MOMENT
-------------
                                X             Y             Z
Electronic contribution:      4.37049      -1.60590       1.96082
Nuclear contribution   :     -4.89513       2.05627      -2.36166
                        -----------------------------------------
Total Dipole Moment    :     -0.52464       0.45037      -0.40085
                        -----------------------------------------
Magnitude (a.u.)       :      0.79923
Magnitude (Debye)      :      2.03147

Rotational constants in cm-1:     1.247826     0.304622     0.269019
Rotational constants in MHz : 37408.889506  9132.346906  8064.979146

                             ****ORCA TERMINATED NORMALLY****
TOTAL RUN TIME: 0 days 0 hours 1 minutes 14 seconds 557 msec
