                         Program Version 5.0.0 -  RELEASE  -
|  1> !DLPNO-CCSD(T) aug-cc-pVTZ aug-cc-pVTZ/C TightSCF TightPNO RIJCOSX def2/J
|  2> *xyz 0 1
|  3> C          3.95643        0.50147       -0.37910
|  4> H          3.16840        0.02920        0.20738
|  5> C          3.80389        1.96157       -0.15675
|  6> C          3.84232        0.14849       -1.85406
|  7> H          4.92323        0.17798        0.00937
|  8> H          4.20643        2.24441        0.74536
|  9> H          2.80827        2.21132       -0.09610
| 10> H          4.28076        2.50155       -0.89104
| 11> H          4.62951        0.62800       -2.39748
| 12> H          2.89665        0.48102       -2.22825
| 13> H          3.92053       -0.91187       -1.97413
| 14> *
| 15>
| 16> %MaxCore 64000
| 17> %pal nprocs 18
| 18> end
| 19>
| 20> %scf
| 21>   MaxIter 150
| 22> end
| 23>
| 24>
| 25>                          ****END OF INPUT****

CARTESIAN COORDINATES (ANGSTROEM)
---------------------------------
  C      3.956430    0.501470   -0.379100
  H      3.168400    0.029200    0.207380
  C      3.803890    1.961570   -0.156750
  C      3.842320    0.148490   -1.854060
  H      4.923230    0.177980    0.009370
  H      4.206430    2.244410    0.745360
  H      2.808270    2.211320   -0.096100
  H      4.280760    2.501550   -0.891040
  H      4.629510    0.628000   -2.397480
  H      2.896650    0.481020   -2.228250
  H      3.920530   -0.911870   -1.974130

 Total Charge           Charge          ....    0
 Multiplicity           Mult            ....    1
 Number of Electrons    NEL             ....   26
 Basis Dimension        Dim             ....  322

ORBITAL ENERGIES
----------------

  NO   OCC          E(Eh)            E(eV)
   0   2.0000     -11.206958      -304.9568
   1   2.0000     -11.199105      -304.7431
   2   2.0000     -11.178015      -304.1692
   3   2.0000      -1.067806       -29.0565
   4   2.0000      -0.939649       -25.5691
   5   2.0000      -0.803309       -21.8592
   6   2.0000      -0.639091       -17.3905
   7   2.0000      -0.610183       -16.6039
   8   2.0000      -0.557016       -15.1572
   9   2.0000      -0.546262       -14.8646
  10   2.0000      -0.477617       -12.9966
  11   2.0000      -0.475514       -12.9394
  12   2.0000      -0.467036       -12.7087
  13   0.0000       0.033149         0.9020
  14   0.0000       0.040739         1.1086
  15   0.0000       0.042009         1.1431
  16   0.0000       0.042730         1.1628
  17   0.0000       0.063765         1.7351

MULLIKEN ATOMIC CHARGES
-----------------------
   0 C :   -0.359425
   1 H :    0.273295
   2 C :   -1.027069
   3 C :   -0.933909
   4 H :    0.252177
   5 H :    0.281087
   6 H :    0.299922
   7 H :    0.332113
   8 H :    0.291641
   9 H :    0.296112
  10 H :    0.294057
Sum of atomic charges:   -0.0000000

LOEWDIN ATOMIC CHARGES
----------------------
   0 C :    0.251007
   1 H :   -0.145756
   2 C :    0.603405
   3 C :    0.598561
   4 H :   -0.142929
   5 H :   -0.207994
   6 H :   -0.203249
   7 H :   -0.205253
   8 H :   -0.182702
   9 H :   -0.179531
  10 H :   -0.185559

  Mayer bond orders larger than 0.100000
B(  0-C ,  1-H ) :   0.9423 B(  0-C ,  2-C ) :   0.7657 B(  0-C ,  3-C ) :   0.8284
B(  0-C ,  4-H ) :   0.9635 B(  2-C ,  5-H ) :   0.9847 B(  2-C ,  6-H ) :   0.9604
B(  2-C ,  7-H ) :   0.9072 B(  3-C ,  8-H ) :   0.9358 B(  3-C ,  9-H ) :   0.9308
B(  3-C , 10-H ) :   0.9602

E(0)                                       ...   -118.296471502
E(0)                                       ...   -118.296471502
E(CORR)(strong-pairs)                      ...     -0.590269506
E(CORR)(weak-pairs)                        ...     -0.000448999
E(CORR)(corrected)                         ...     -0.590718506
E(TOT)                                     ...   -118.887190007
E(CCSD(T))                                 ...   -118.907662374
FINAL SINGLE POINT ENERGY      -118.907662373673

DIPOLE MOMENT
-------------
                                X             Y             Z
Electronic contribution:      0.08128      -0.29284       0.22824
Nuclear contribution   :     -0.08172       0.30475      -0.19303
                        -----------------------------------------
Total Dipole Moment    :     -0.00043       0.01191       0.03521
                        -----------------------------------------
Magnitude (a.u.)       :      0.03717
Magnitude (Debye)      :      0.09448

Rotational constants in cm-1:     1.020248     0.295755     0.261591
Rotational constants in MHz : 30586.266829  8866.511639  7842.297953

                             ****ORCA TERMINATED NORMALLY****
TOTAL RUN TIME: 0 days 0 hours 1 minutes 45 seconds 19 msec
