                         Program Version 5.0.0 -  RELEASE  -
|  1> !DLPNO-CCSD(T) aug-cc-pVTZ aug-cc-pVTZ/C TightSCF TightPNO RIJCOSX def2/J
|  2>
|  3> *xyzfile 0 1 D.xyz
|  4>
|  5> %MaxCore 64000
|  6>
|  7> %pal nprocs 18
|  8> end
|  9>
| 10> %scf
| 11>   MaxIter 150
| 12> end
| 13>
| 14>
| 15>                          ****END OF INPUT****

CARTESIAN COORDINATES (ANGSTROEM)
---------------------------------
  C      3.956426    0.501466   -0.379100
  H      3.168398    0.029201    0.207383
  C      3.803893    1.961572   -0.156747
  C      3.842322    0.148490   -1.854058
  H      4.923231    0.177982    0.009371
  H      4.620021    0.694502   -2.402150
  H      4.096015   -0.910930   -1.955103
  C      2.475619    0.412708   -2.485377
  H      2.174689    1.445076   -2.287971
  C      1.383931   -0.532740   -1.995203
  H      2.575613    0.318574   -3.571460
  H      1.264698   -0.412309   -0.915491
  H      1.705223   -1.566885   -2.164984
  C      0.031398   -0.317260   -2.677791
  C     -0.587292    1.060853   -2.436460
  H     -0.662815   -1.089530   -2.329985
  H      0.149465   -0.478040   -3.755648
  H      0.104376    1.828590   -2.793130
  C     -0.951213    1.334978   -0.972500
  H     -1.478832    1.161355   -3.062484
  H     -0.317007    0.741648   -0.311389
  H     -1.980916    1.012842   -0.788958
  C     -0.774550    2.788332   -0.543943
  H     -1.352609    3.459372   -1.192585
  H     -1.171014    2.902331    0.469968
  C      0.697208    3.227911   -0.525126
  F      1.489294    2.374703    0.199189
  H      0.715998    4.264030   -0.130774
  H      1.036148    3.330920   -1.583669
  H      4.206425    2.244406    0.745359
  H      2.808269    2.211323   -0.096097
  H      4.280757    2.501552   -0.891037

 Total Charge           Charge          ....    0
 Multiplicity           Mult            ....    1
 Number of Electrons    NEL             ....   90
 Basis Dimension        Dim             ....  989

ORBITAL ENERGIES
----------------

  NO   OCC          E(Eh)            E(eV)
   0   2.0000     -26.301850      -715.7097
   1   2.0000     -11.320094      -308.0354
   2   2.0000     -11.235379      -305.7302
   3   2.0000     -11.220172      -305.3164
   4   2.0000     -11.216886      -305.2270
   5   2.0000     -11.213622      -305.1382
   6   2.0000     -11.207074      -304.9600
   7   2.0000     -11.204952      -304.9022
   8   2.0000     -11.198625      -304.7301
   9   2.0000     -11.186090      -304.3890
  10   2.0000     -11.127237      -302.7875
  11   2.0000      -1.631932       -44.4071
  12   2.0000      -1.101672       -29.9780
  13   2.0000      -1.078912       -29.3587
  14   2.0000      -1.038396       -28.2562
  15   2.0000      -0.999203       -27.1897
  16   2.0000      -0.939594       -25.5676
  17   2.0000      -0.905233       -24.6327
  18   2.0000      -0.853627       -23.2284
  19   2.0000      -0.819086       -22.2885
  20   2.0000      -0.776324       -21.1248
  21   2.0000      -0.760542       -20.6954
  22   2.0000      -0.734938       -19.9987
  23   2.0000      -0.724502       -19.7147
  24   2.0000      -0.688061       -18.7231
  25   2.0000      -0.641464       -17.4551
  26   2.0000      -0.631129       -17.1739
  27   2.0000      -0.614910       -16.7325
  28   2.0000      -0.596153       -16.2222
  29   2.0000      -0.590002       -16.0548
  30   2.0000      -0.569410       -15.4944
  31   2.0000      -0.549402       -14.9500
  32   2.0000      -0.542311       -14.7570
  33   2.0000      -0.522184       -14.2094
  34   2.0000      -0.515626       -14.0309
  35   2.0000      -0.509024       -13.8512
  36   2.0000      -0.492943       -13.4137
  37   2.0000      -0.485259       -13.2046
  38   2.0000      -0.464142       -12.6299
  39   2.0000      -0.457100       -12.4383
  40   2.0000      -0.449688       -12.2366
  41   2.0000      -0.446407       -12.1474
  42   2.0000      -0.430633       -11.7181
  43   2.0000      -0.429810       -11.6957
  44   2.0000      -0.416148       -11.3240
  45   0.0000       0.025636         0.6976
  46   0.0000       0.031921         0.8686
  47   0.0000       0.033212         0.9038
  48   0.0000       0.035171         0.9571
  49   0.0000       0.044381         1.2077

MULLIKEN ATOMIC CHARGES
-----------------------
   0 C :   -0.299737
   1 H :    0.078638
   2 C :   -1.240121
   3 C :   -0.602216
   4 H :    0.379863
   5 H :    0.129305
   6 H :    0.228323
   7 C :   -0.465205
   8 H :    0.291401
   9 C :   -0.264736
  10 H :    0.288345
  11 H :    0.159285
  12 H :    0.325891
  13 C :   -0.615027
  14 C :   -0.286683
  15 H :    0.209199
  16 H :    0.135820
  17 H :   -0.025489
  18 C :   -0.430726
  19 H :    0.461285
  20 H :    0.365492
  21 H :    0.204831
  22 C :   -0.705224
  23 H :    0.202377
  24 H :    0.252088
  25 C :   -0.185204
  26 F :   -0.665387
  27 H :    0.468508
  28 H :    0.274362
  29 H :    0.086233
  30 H :    0.968644
  31 H :    0.275864
Sum of atomic charges:   -0.0000000

LOEWDIN ATOMIC CHARGES
----------------------
   0 C :    0.284696
   1 H :   -0.147396
   2 C :    0.592163
   3 C :    0.297115
   4 H :   -0.136248
   5 H :   -0.138305
   6 H :   -0.147203
   7 C :    0.293408
   8 H :   -0.182546
   9 C :    0.291098
  10 H :   -0.130356
  11 H :   -0.170928
  12 H :   -0.130166
  13 C :    0.302324
  14 C :    0.296026
  15 H :   -0.138245
  16 H :   -0.140203
  17 H :   -0.184155
  18 C :    0.292416
  19 H :   -0.136064
  20 H :   -0.180862
  21 H :   -0.133054
  22 C :    0.292495
  23 H :   -0.132853
  24 H :   -0.149271
  25 C :    0.014624
  26 F :    0.757409
  27 H :   -0.139928
  28 H :   -0.151166
  29 H :   -0.187804
  30 H :   -0.665075
  31 H :   -0.191946

  Mayer bond orders larger than 0.100000
B(  0-C ,  1-H ) :   1.1189 B(  0-C ,  2-C ) :   0.7385 B(  0-C ,  3-C ) :   0.7836
B(  0-C ,  4-H ) :   0.8819 B(  1-H ,  2-C ) :   0.1193 B(  1-H ,  3-C ) :   0.1020
B(  2-C , 29-H ) :   1.2310 B(  2-C , 30-H ) :   0.4701 B(  2-C , 31-H ) :   1.0385
B(  3-C ,  5-H ) :   1.1126 B(  3-C ,  6-H ) :   1.0087 B(  3-C ,  7-C ) :   0.9138
B(  7-C ,  8-H ) :   0.9635 B(  7-C ,  9-C ) :   0.8329 B(  7-C , 10-H ) :   0.9755
B(  9-C , 11-H ) :   1.0969 B(  9-C , 12-H ) :   0.8630 B(  9-C , 13-C ) :   0.8592
B( 13-C , 14-C ) :   0.8593 B( 13-C , 15-H ) :   1.0400 B( 13-C , 16-H ) :   1.0695
B( 14-C , 17-H ) :   1.2002 B( 14-C , 18-C ) :   0.7159 B( 14-C , 19-H ) :   0.8095
B( 17-H , 18-C ) :   0.1406 B( 18-C , 19-H ) :  -0.1116 B( 18-C , 20-H ) :   0.9557
B( 18-C , 21-H ) :   1.0602 B( 18-C , 22-C ) :   0.9268 B( 18-C , 26-F ) :  -0.1200
B( 22-C , 23-H ) :   1.0480 B( 22-C , 24-H ) :   0.9883 B( 22-C , 25-C ) :   0.8914
B( 22-C , 26-F ) :   0.1393 B( 25-C , 26-F ) :   0.7078 B( 25-C , 27-H ) :   0.8021
B( 25-C , 28-H ) :   1.0012 B( 26-F , 30-H ) :  -0.2708

E(0)                                       ...   -490.450799138
E(0)                                       ...   -490.450799138
E(CORR)(strong-pairs)                      ...     -2.154963226
E(CORR)(weak-pairs)                        ...     -0.003376592
E(CORR)(corrected)                         ...     -2.158339819
E(TOT)                                     ...   -492.609138957
E(CCSD(T))                                 ...   -492.692719716
FINAL SINGLE POINT ENERGY      -492.692719716462

DIPOLE MOMENT
-------------
                                X             Y             Z
Electronic contribution:     -2.01042       3.33591       4.24850
Nuclear contribution   :      1.09293      -2.80761      -4.51228
                        -----------------------------------------
Total Dipole Moment    :     -0.91749       0.52830      -0.26378
                        -----------------------------------------
Magnitude (a.u.)       :      1.09109
Magnitude (Debye)      :      2.77333

Rotational constants in cm-1:     0.040502     0.027818     0.018259
Rotational constants in MHz :  1214.218058   833.972871   547.398614

                             ****ORCA TERMINATED NORMALLY****
TOTAL RUN TIME: 0 days 3 hours 7 minutes 4 seconds 608 msec
