                         Program Version 5.0.0 -  RELEASE  -
|  1> !LC-BLYP RIJCOSX def2-SVP def2/J TightSCF
|  2> *xyz -1 1
|  3> C         -0.77455        2.78833       -0.54394
|  4> C          0.69721        3.22791       -0.52513
|  5> O          1.48929        2.37470        0.19919
|  6> H          0.71600        4.26403       -0.13077
|  7> H          1.03615        3.33092       -1.58367
|  8> H         -1.34746        3.48478       -1.11982
|  9> H         -1.15078        2.75876        0.45729
| 10> H         -0.85058        1.81526       -0.98241
| 11> *
| 12>
| 13> %MaxCore 64000
| 14> %pal nprocs 4
| 15> end
| 16>
| 17> %scf
| 18>   MaxIter 150
| 19> end
| 20>
| 21>
| 22>                          ****END OF INPUT****

CARTESIAN COORDINATES (ANGSTROEM)
---------------------------------
  C     -0.774550    2.788330   -0.543940
  C      0.697210    3.227910   -0.525130
  O      1.489290    2.374700    0.199190
  H      0.716000    4.264030   -0.130770
  H      1.036150    3.330920   -1.583670
  H     -1.347460    3.484780   -1.119820
  H     -1.150780    2.758760    0.457290
  H     -0.850580    1.815260   -0.982410

 Total Charge           Charge          ....   -1
 Multiplicity           Mult            ....    1
 Number of Electrons    NEL             ....   26
 Basis Dimension        Dim             ....   67

ORBITAL ENERGIES
----------------

  NO   OCC          E(Eh)            E(eV)
   0   2.0000     -18.553797      -504.8745
   1   2.0000      -9.871350      -268.6131
   2   2.0000      -9.859864      -268.3005
   3   2.0000      -0.718263       -19.5449
   4   2.0000      -0.602417       -16.3926
   5   2.0000      -0.448440       -12.2027
   6   2.0000      -0.336382        -9.1534
   7   2.0000      -0.311140        -8.4666
   8   2.0000      -0.253129        -6.8880
   9   2.0000      -0.232381        -6.3234
  10   2.0000      -0.160765        -4.3746
  11   2.0000      -0.012084        -0.3288
  12   2.0000      -0.009376        -0.2551
  13   0.0000       0.325369         8.8537
  14   0.0000       0.371448        10.1076
  15   0.0000       0.385428        10.4880
  16   0.0000       0.393554        10.7091
  17   0.0000       0.439106        11.9487

MULLIKEN ATOMIC CHARGES
-----------------------
   0 C :    0.064734
   1 C :    0.224328
   2 O :   -0.661207
   3 H :   -0.183869
   4 H :   -0.184112
   5 H :   -0.121574
   6 H :   -0.068684
   7 H :   -0.069615
Sum of atomic charges:   -1.0000000

LOEWDIN ATOMIC CHARGES
----------------------
   0 C :   -0.121797
   1 C :   -0.010635
   2 O :   -0.652756
   3 H :   -0.080975
   4 H :   -0.081732
   5 H :   -0.030279
   6 H :   -0.010629
   7 H :   -0.011198

  Mayer bond orders larger than 0.100000
B(  0-C ,  1-C ) :   1.0069 B(  0-C ,  5-H ) :   0.9171 B(  0-C ,  6-H ) :   0.9541
B(  0-C ,  7-H ) :   0.9534 B(  1-C ,  2-O ) :   1.5683 B(  1-C ,  3-H ) :   0.8628
B(  1-C ,  4-H ) :   0.8623

FINAL SINGLE POINT ENERGY      -153.885731139782

DIPOLE MOMENT
-------------
                                X             Y             Z
Electronic contribution:      2.58222      -1.25111       1.35820
Nuclear contribution   :     -3.69910       1.55962      -1.78699
                        -----------------------------------------
Total Dipole Moment    :     -1.11687       0.30851      -0.42879
                        -----------------------------------------
Magnitude (a.u.)       :      1.23550
Magnitude (Debye)      :      3.14038

Rotational constants in cm-1:     1.268893     0.327436     0.287754
Rotational constants in MHz : 38040.440181  9816.269339  8626.646564

                             ****ORCA TERMINATED NORMALLY****
TOTAL RUN TIME: 0 days 0 hours 0 minutes 7 seconds 801 msec
