                         Program Version 5.0.0 -  RELEASE  -
|  1> !LC-BLYP RIJCOSX def2-SVP def2/J TightSCF
|  2> *xyz 1 1
|  3> C          3.95643        0.50147       -0.37910
|  4> H          3.16840        0.02920        0.20738
|  5> N          3.80389        1.96157       -0.15675
|  6> C          3.84232        0.14849       -1.85406
|  7> H          4.92323        0.17798        0.00937
|  8> H          4.20643        2.24441        0.74536
|  9> H          2.80827        2.21132       -0.09610
| 10> H          4.28076        2.50155       -0.89104
| 11> H          4.62951        0.62800       -2.39748
| 12> H          2.89665        0.48102       -2.22825
| 13> H          3.92053       -0.91187       -1.97413
| 14> *
| 15>
| 16> %MaxCore 64000
| 17> %pal nprocs 4
| 18> end
| 19>
| 20> %scf
| 21>   MaxIter 150
| 22> end
| 23>
| 24>
| 25>                          ****END OF INPUT****

CARTESIAN COORDINATES (ANGSTROEM)
---------------------------------
  C      3.956430    0.501470   -0.379100
  H      3.168400    0.029200    0.207380
  N      3.803890    1.961570   -0.156750
  C      3.842320    0.148490   -1.854060
  H      4.923230    0.177980    0.009370
  H      4.206430    2.244410    0.745360
  H      2.808270    2.211320   -0.096100
  H      4.280760    2.501550   -0.891040
  H      4.629510    0.628000   -2.397480
  H      2.896650    0.481020   -2.228250
  H      3.920530   -0.911870   -1.974130

 Total Charge           Charge          ....    1
 Multiplicity           Mult            ....    1
 Number of Electrons    NEL             ....   26
 Basis Dimension        Dim             ....   82

ORBITAL ENERGIES
----------------

  NO   OCC          E(Eh)            E(eV)
   0   2.0000     -14.524441      -395.2301
   1   2.0000     -10.337764      -281.3049
   2   2.0000     -10.259771      -279.1826
   3   2.0000      -1.311539       -35.6888
   4   2.0000      -1.068715       -29.0812
   5   2.0000      -0.948744       -25.8167
   6   2.0000      -0.909869       -24.7588
   7   2.0000      -0.890542       -24.2329
   8   2.0000      -0.800569       -21.7846
   9   2.0000      -0.745550       -20.2874
  10   2.0000      -0.682213       -18.5640
  11   2.0000      -0.666801       -18.1446
  12   2.0000      -0.647111       -17.6088
  13   0.0000      -0.113094        -3.0774
  14   0.0000      -0.052888        -1.4392
  15   0.0000      -0.047030        -1.2797
  16   0.0000      -0.017715        -0.4821
  17   0.0000       0.026190         0.7127

MULLIKEN ATOMIC CHARGES
-----------------------
   0 C :   -0.063365
   1 H :    0.099955
   2 N :    0.011087
   3 C :   -0.030492
   4 H :    0.106961
   5 H :    0.220362
   6 H :    0.222771
   7 H :    0.217559
   8 H :    0.061460
   9 H :    0.056878
  10 H :    0.096824
Sum of atomic charges:    1.0000000

LOEWDIN ATOMIC CHARGES
----------------------
   0 C :    0.035310
   1 H :    0.058553
   2 N :    0.290117
   3 C :   -0.054937
   4 H :    0.060619
   5 H :    0.152904
   6 H :    0.152504
   7 H :    0.148097
   8 H :    0.044267
   9 H :    0.043467
  10 H :    0.069098

  Mayer bond orders larger than 0.100000
B(  0-C ,  1-H ) :   0.9522 B(  0-C ,  2-N ) :   0.9421 B(  0-C ,  3-C ) :   1.1075
B(  0-C ,  4-H ) :   0.9533 B(  2-N ,  5-H ) :   0.9316 B(  2-N ,  6-H ) :   0.9340
B(  2-N ,  7-H ) :   0.9304 B(  3-C ,  8-H ) :   0.9650 B(  3-C ,  9-H ) :   0.9697
B(  3-C , 10-H ) :   0.9542

FINAL SINGLE POINT ENERGY      -135.033139436194

DIPOLE MOMENT
-------------
                                X             Y             Z
Electronic contribution:     -0.01592       1.40617       1.28830
Nuclear contribution   :     -0.06214      -0.04120      -0.39947
                        -----------------------------------------
Total Dipole Moment    :     -0.07806       1.36497       0.88882
                        -----------------------------------------
Magnitude (a.u.)       :      1.63072
Magnitude (Debye)      :      4.14495

Rotational constants in cm-1:     1.011771     0.281435     0.249812
Rotational constants in MHz : 30332.138762  8437.210602  7489.166323

                             ****ORCA TERMINATED NORMALLY****
TOTAL RUN TIME: 0 days 0 hours 0 minutes 9 seconds 502 msec
