                         Program Version 5.0.0 -  RELEASE  -
|  1> !LC-BLYP RIJCOSX def2-TZVP def2/J TightSCF xyzfile
|  2>
|  3> *xyzfile 0 1 B.xyz
|  4>
|  5> %MaxCore 64000
|  6>
|  7> %pal nprocs 18
|  8> end
|  9>
| 10> %scf
| 11>   MaxIter 150
| 12> end
| 13>
| 14>
| 15>                          ****END OF INPUT****

CARTESIAN COORDINATES (ANGSTROEM)
---------------------------------
  C      3.956426    0.501466   -0.379100
  H      3.168398    0.029201    0.207383
  N      3.803893    1.961572   -0.156747
  C      3.842322    0.148490   -1.854058
  H      4.923231    0.177982    0.009371
  H      4.620021    0.694502   -2.402150
  H      4.096015   -0.910930   -1.955103
  C      2.475619    0.412708   -2.485377
  H      2.174689    1.445076   -2.287971
  C      1.383931   -0.532740   -1.995203
  H      2.575613    0.318574   -3.571460
  H      1.264698   -0.412309   -0.915491
  H      1.705223   -1.566885   -2.164984
  C      0.031398   -0.317260   -2.677791
  C     -0.587292    1.060853   -2.436460
  H     -0.662815   -1.089530   -2.329985
  H      0.149465   -0.478040   -3.755648
  H      0.104376    1.828590   -2.793130
  C     -0.951213    1.334978   -0.972500
  H     -1.478832    1.161355   -3.062484
  H     -0.317007    0.741648   -0.311389
  H     -1.980916    1.012842   -0.788958
  C     -0.774550    2.788332   -0.543943
  H     -1.352609    3.459372   -1.192585
  H     -1.171014    2.902331    0.469968
  C      0.697208    3.227911   -0.525126
  O      1.489294    2.374703    0.199189
  H      0.715998    4.264030   -0.130774
  H      1.036148    3.330920   -1.583669
  H      4.206425    2.244406    0.745359
  H      2.808269    2.211323   -0.096097
  H      4.280757    2.501552   -0.891037

 Total Charge           Charge          ....    0
 Multiplicity           Mult            ....    1
 Number of Electrons    NEL             ....   90
 Basis Dimension        Dim             ....  467

ORBITAL ENERGIES
----------------

  NO   OCC          E(Eh)            E(eV)
   0   2.0000     -18.802453      -511.6408
   1   2.0000     -14.248141      -387.7116
   2   2.0000     -10.135194      -275.7927
   3   2.0000     -10.091182      -274.5950
   4   2.0000     -10.064812      -273.8774
   5   2.0000     -10.052333      -273.5379
   6   2.0000     -10.049604      -273.4636
   7   2.0000     -10.046922      -273.3906
   8   2.0000     -10.034304      -273.0473
   9   2.0000     -10.020975      -272.6846
  10   2.0000     -10.014237      -272.5013
  11   2.0000      -1.090856       -29.6837
  12   2.0000      -0.982902       -26.7461
  13   2.0000      -0.927791       -25.2465
  14   2.0000      -0.888184       -24.1687
  15   2.0000      -0.849499       -23.1160
  16   2.0000      -0.806512       -21.9463
  17   2.0000      -0.768900       -20.9228
  18   2.0000      -0.730147       -19.8683
  19   2.0000      -0.703133       -19.1332
  20   2.0000      -0.676486       -18.4081
  21   2.0000      -0.673780       -18.3345
  22   2.0000      -0.654389       -17.8068
  23   2.0000      -0.615407       -16.7461
  24   2.0000      -0.595698       -16.2098
  25   2.0000      -0.574751       -15.6398
  26   2.0000      -0.572626       -15.5819
  27   2.0000      -0.542410       -14.7597
  28   2.0000      -0.526971       -14.3396
  29   2.0000      -0.522694       -14.2232
  30   2.0000      -0.501949       -13.6587
  31   2.0000      -0.492272       -13.3954
  32   2.0000      -0.482261       -13.1230
  33   2.0000      -0.463069       -12.6008
  34   2.0000      -0.454841       -12.3769
  35   2.0000      -0.442503       -12.0411
  36   2.0000      -0.434118       -11.8130
  37   2.0000      -0.421734       -11.4760
  38   2.0000      -0.411689       -11.2026
  39   2.0000      -0.405550       -11.0356
  40   2.0000      -0.384556       -10.4643
  41   2.0000      -0.379590       -10.3292
  42   2.0000      -0.374637       -10.1944
  43   2.0000      -0.276080        -7.5125
  44   2.0000      -0.269229        -7.3261
  45   0.0000       0.055973         1.5231
  46   0.0000       0.097511         2.6534
  47   0.0000       0.102640         2.7930
  48   0.0000       0.117460         3.1962
  49   0.0000       0.130590         3.5535

MULLIKEN ATOMIC CHARGES
-----------------------
   0 C :   -0.227066
   1 H :    0.195225
   2 N :   -0.293417
   3 C :   -0.311399
   4 H :    0.158080
   5 H :    0.150007
   6 H :    0.144691
   7 C :   -0.243269
   8 H :    0.129387
   9 C :   -0.249354
  10 H :    0.131175
  11 H :    0.144146
  12 H :    0.116147
  13 C :   -0.237524
  14 C :   -0.288871
  15 H :    0.123150
  16 H :    0.119057
  17 H :    0.130472
  18 C :   -0.197498
  19 H :    0.116636
  20 H :    0.116167
  21 H :    0.106161
  22 C :   -0.173225
  23 H :    0.085456
  24 H :    0.095900
  25 C :   -0.088590
  26 O :   -0.667805
  27 H :    0.061093
  28 H :    0.038427
  29 H :    0.272096
  30 H :    0.282506
  31 H :    0.262040
Sum of atomic charges:    0.0000000

LOEWDIN ATOMIC CHARGES
----------------------
   0 C :   -0.289532
   1 H :    0.151785
   2 N :    0.136132
   3 C :   -0.285034
   4 H :    0.134834
   5 H :    0.140215
   6 H :    0.151459
   7 C :   -0.276041
   8 H :    0.144944
   9 C :   -0.279880
  10 H :    0.142572
  11 H :    0.141114
  12 H :    0.136753
  13 C :   -0.279316
  14 C :   -0.274819
  15 H :    0.140665
  16 H :    0.136457
  17 H :    0.135722
  18 C :   -0.282281
  19 H :    0.135657
  20 H :    0.141496
  21 H :    0.131631
  22 C :   -0.294002
  23 H :    0.129775
  24 H :    0.134725
  25 C :   -0.490261
  26 O :   -0.269035
  27 H :    0.100844
  28 H :    0.085604
  29 H :    0.195713
  30 H :    0.081747
  31 H :    0.190357

  Mayer bond orders larger than 0.100000
B(  0-C ,  1-H ) :   0.9753 B(  0-C ,  2-N ) :   0.8547 B(  0-C ,  3-C ) :   0.9338
B(  0-C ,  4-H ) :   0.9805 B(  2-N , 29-H ) :   0.9141 B(  2-N , 30-H ) :   0.6278
B(  2-N , 31-H ) :   0.9047 B(  3-C ,  5-H ) :   0.9954 B(  3-C ,  6-H ) :   0.9779
B(  3-C ,  7-C ) :   0.9203 B(  7-C ,  8-H ) :   0.9886 B(  7-C ,  9-C ) :   0.8680
B(  7-C , 10-H ) :   0.9782 B(  9-C , 11-H ) :   0.9816 B(  9-C , 12-H ) :   0.9766
B(  9-C , 13-C ) :   0.9532 B( 13-C , 14-C ) :   0.9234 B( 13-C , 15-H ) :   0.9858
B( 13-C , 16-H ) :   0.9918 B( 14-C , 17-H ) :   1.0001 B( 14-C , 18-C ) :   0.8842
B( 14-C , 19-H ) :   0.9809 B( 18-C , 20-H ) :   0.9737 B( 18-C , 21-H ) :   0.9779
B( 18-C , 22-C ) :   0.9558 B( 22-C , 23-H ) :   0.9708 B( 22-C , 24-H ) :   0.9720
B( 22-C , 25-C ) :   0.9344 B( 25-C , 26-O ) :   1.2068 B( 25-C , 27-H ) :   0.9747
B( 25-C , 28-H ) :   0.9656 B( 26-O , 30-H ) :   0.4436

FINAL SINGLE POINT ENERGY      -484.388374452884

DIPOLE MOMENT
-------------
                                X             Y             Z
Electronic contribution:      2.13601       0.92278       2.58180
Nuclear contribution   :      0.61785      -1.47632      -2.91844
                        -----------------------------------------
Total Dipole Moment    :      2.75385      -0.55354      -0.33664
                        -----------------------------------------
Magnitude (a.u.)       :      2.82904
Magnitude (Debye)      :      7.19084

Rotational constants in cm-1:     0.040993     0.027400     0.018162
Rotational constants in MHz :  1228.944366   821.418004   544.476857

                             ****ORCA TERMINATED NORMALLY****
TOTAL RUN TIME: 0 days 0 hours 1 minutes 8 seconds 662 msec
