                         Program Version 5.0.0 -  RELEASE  -
|  1> !LC-BLYP RIJCOSX def2-SVP def2/J TightSCF
|  2> *xyz 0 1
|  3> C         -0.77455        2.78833       -0.54394
|  4> C          0.69721        3.22791       -0.52513
|  5> F          1.48929        2.37470        0.19919
|  6> H          0.71600        4.26403       -0.13077
|  7> H          1.03615        3.33092       -1.58367
|  8> H         -1.34746        3.48478       -1.11982
|  9> H         -1.15078        2.75876        0.45729
| 10> H         -0.85058        1.81526       -0.98241
| 11> *
| 12>
| 13> %MaxCore 64000
| 14> %pal nprocs 4
| 15> end
| 16>
| 17> %scf
| 18>   MaxIter 150
| 19> end
| 20>
| 21>
| 22>                          ****END OF INPUT****

CARTESIAN COORDINATES (ANGSTROEM)
---------------------------------
  C     -0.774550    2.788330   -0.543940
  C      0.697210    3.227910   -0.525130
  F      1.489290    2.374700    0.199190
  H      0.716000    4.264030   -0.130770
  H      1.036150    3.330920   -1.583670
  H     -1.347460    3.484780   -1.119820
  H     -1.150780    2.758760    0.457290
  H     -0.850580    1.815260   -0.982410

 Total Charge           Charge          ....    0
 Multiplicity           Mult            ....    1
 Number of Electrons    NEL             ....   26
 Basis Dimension        Dim             ....   67

ORBITAL ENERGIES
----------------

  NO   OCC          E(Eh)            E(eV)
   0   2.0000     -24.435240      -664.9167
   1   2.0000     -10.157279      -276.3936
   2   2.0000     -10.078237      -274.2428
   3   2.0000      -1.242907       -33.8212
   4   2.0000      -0.861734       -23.4490
   5   2.0000      -0.724921       -19.7261
   6   2.0000      -0.600022       -16.3274
   7   2.0000      -0.592594       -16.1253
   8   2.0000      -0.549058       -14.9406
   9   2.0000      -0.495954       -13.4956
  10   2.0000      -0.495833       -13.4923
  11   2.0000      -0.423294       -11.5184
  12   2.0000      -0.416829       -11.3425
  13   0.0000       0.135837         3.6963
  14   0.0000       0.183014         4.9801
  15   0.0000       0.192182         5.2295
  16   0.0000       0.211250         5.7484
  17   0.0000       0.230541         6.2733

MULLIKEN ATOMIC CHARGES
-----------------------
   0 C :   -0.040116
   1 C :    0.180427
   2 F :   -0.225976
   3 H :    0.008039
   4 H :    0.009787
   5 H :    0.015212
   6 H :    0.026424
   7 H :    0.026204
Sum of atomic charges:   -0.0000000

LOEWDIN ATOMIC CHARGES
----------------------
   0 C :   -0.087319
   1 C :    0.085508
   2 F :   -0.118725
   3 H :    0.013334
   4 H :    0.014413
   5 H :    0.033809
   6 H :    0.029632
   7 H :    0.029348

  Mayer bond orders larger than 0.100000
B(  0-C ,  1-C ) :   1.0999 B(  0-C ,  5-H ) :   0.9584 B(  0-C ,  6-H ) :   0.9695
B(  0-C ,  7-H ) :   0.9696 B(  1-C ,  2-F ) :   1.0563 B(  1-C ,  3-H ) :   0.9564
B(  1-C ,  4-H ) :   0.9564

FINAL SINGLE POINT ENERGY      -178.518288694061

DIPOLE MOMENT
-------------
                                X             Y             Z
Electronic contribution:      4.45802      -1.68071       2.02751
Nuclear contribution   :     -4.89513       2.05627      -2.36166
                        -----------------------------------------
Total Dipole Moment    :     -0.43712       0.37556      -0.33415
                        -----------------------------------------
Magnitude (a.u.)       :      0.66617
Magnitude (Debye)      :      1.69326

Rotational constants in cm-1:     1.247826     0.304622     0.269019
Rotational constants in MHz : 37408.889506  9132.346906  8064.979146

                             ****ORCA TERMINATED NORMALLY****
TOTAL RUN TIME: 0 days 0 hours 0 minutes 8 seconds 154 msec
