                         Program Version 5.0.0 -  RELEASE  -
|  1> !LC-BLYP RIJCOSX def2-SVP def2/J TightSCF
|  2> *xyz 0 1
|  3> C          3.95643        0.50147       -0.37910
|  4> H          3.16840        0.02920        0.20738
|  5> C          3.80389        1.96157       -0.15675
|  6> C          3.84232        0.14849       -1.85406
|  7> H          4.92323        0.17798        0.00937
|  8> H          4.20643        2.24441        0.74536
|  9> H          2.80827        2.21132       -0.09610
| 10> H          4.28076        2.50155       -0.89104
| 11> H          4.62951        0.62800       -2.39748
| 12> H          2.89665        0.48102       -2.22825
| 13> H          3.92053       -0.91187       -1.97413
| 14> *
| 15>
| 16> %MaxCore 64000
| 17> %pal nprocs 4
| 18> end
| 19>
| 20> %scf
| 21>   MaxIter 150
| 22> end
| 23>
| 24>
| 25>                          ****END OF INPUT****

CARTESIAN COORDINATES (ANGSTROEM)
---------------------------------
  C      3.956430    0.501470   -0.379100
  H      3.168400    0.029200    0.207380
  C      3.803890    1.961570   -0.156750
  C      3.842320    0.148490   -1.854060
  H      4.923230    0.177980    0.009370
  H      4.206430    2.244410    0.745360
  H      2.808270    2.211320   -0.096100
  H      4.280760    2.501550   -0.891040
  H      4.629510    0.628000   -2.397480
  H      2.896650    0.481020   -2.228250
  H      3.920530   -0.911870   -1.974130

 Total Charge           Charge          ....    0
 Multiplicity           Mult            ....    1
 Number of Electrons    NEL             ....   26
 Basis Dimension        Dim             ....   82

ORBITAL ENERGIES
----------------

  NO   OCC          E(Eh)            E(eV)
   0   2.0000     -10.069383      -274.0018
   1   2.0000     -10.062393      -273.8116
   2   2.0000     -10.046507      -273.3793
   3   2.0000      -0.893143       -24.3037
   4   2.0000      -0.789766       -21.4906
   5   2.0000      -0.684849       -18.6357
   6   2.0000      -0.573535       -15.6067
   7   2.0000      -0.548730       -14.9317
   8   2.0000      -0.501746       -13.6532
   9   2.0000      -0.488576       -13.2948
  10   2.0000      -0.433611       -11.7992
  11   2.0000      -0.430602       -11.7173
  12   2.0000      -0.419428       -11.4132
  13   0.0000       0.134663         3.6644
  14   0.0000       0.183526         4.9940
  15   0.0000       0.187034         5.0895
  16   0.0000       0.190183         5.1752
  17   0.0000       0.221009         6.0140

MULLIKEN ATOMIC CHARGES
-----------------------
   0 C :   -0.057545
   1 H :    0.000950
   2 C :    0.066962
   3 C :    0.009478
   4 H :    0.002153
   5 H :   -0.016638
   6 H :   -0.010311
   7 H :   -0.014733
   8 H :    0.007751
   9 H :    0.005214
  10 H :    0.006720
Sum of atomic charges:    0.0000000

LOEWDIN ATOMIC CHARGES
----------------------
   0 C :   -0.047021
   1 H :    0.023549
   2 C :   -0.058869
   3 C :   -0.065026
   4 H :    0.021725
   5 H :    0.020092
   6 H :    0.019101
   7 H :    0.016004
   8 H :    0.023163
   9 H :    0.023103
  10 H :    0.024180

  Mayer bond orders larger than 0.100000
B(  0-C ,  1-H ) :   0.9550 B(  0-C ,  2-C ) :   1.1136 B(  0-C ,  3-C ) :   1.1102
B(  0-C ,  4-H ) :   0.9569 B(  2-C ,  5-H ) :   0.9552 B(  2-C ,  6-H ) :   0.9647
B(  2-C ,  7-H ) :   0.9662 B(  3-C ,  8-H ) :   0.9709 B(  3-C ,  9-H ) :   0.9739
B(  3-C , 10-H ) :   0.9679

FINAL SINGLE POINT ENERGY      -118.641567932851

DIPOLE MOMENT
-------------
                                X             Y             Z
Electronic contribution:      0.07895      -0.29267       0.22687
Nuclear contribution   :     -0.08172       0.30475      -0.19303
                        -----------------------------------------
Total Dipole Moment    :     -0.00277       0.01208       0.03384
                        -----------------------------------------
Magnitude (a.u.)       :      0.03604
Magnitude (Debye)      :      0.09161

Rotational constants in cm-1:     1.020248     0.295755     0.261591
Rotational constants in MHz : 30586.266829  8866.511639  7842.297953

                             ****ORCA TERMINATED NORMALLY****
TOTAL RUN TIME: 0 days 0 hours 0 minutes 9 seconds 740 msec
