                         Program Version 5.0.0 -  RELEASE  -
|  1> !wB97X-D3 RIJCOSX def2-TZVP def2/J TightSCF
|  2> *xyz -1 1
|  3> C          2.09343        1.86104       -4.65684
|  4> S          1.87964        0.07859       -4.46297
|  5> O          3.20757       -0.46611       -4.42026
|  6> O          1.07506       -0.05616       -3.26876
|  7> O          1.13166       -0.31996       -5.67903
|  8> H          2.68437        2.05681       -5.52711
|  9> H          2.58708        2.25699       -3.79404
| 10> H          1.13553        2.32556       -4.76426
| 11> *
| 12>
| 13> %MaxCore 64000
| 14>
| 15> %pal nprocs 8
| 16> end
| 17>
| 18> %scf
| 19>   MaxIter 150
| 20> end
| 21>
| 22>
| 23>                          ****END OF INPUT****

CARTESIAN COORDINATES (ANGSTROEM)
---------------------------------
  C      2.093430    1.861040   -4.656840
  S      1.879640    0.078590   -4.462970
  O      3.207570   -0.466110   -4.420260
  O      1.075060   -0.056160   -3.268760
  O      1.131660   -0.319960   -5.679030
  H      2.684370    2.056810   -5.527110
  H      2.587080    2.256990   -3.794040
  H      1.135530    2.325560   -4.764260

 Total Charge           Charge          ....   -1
 Multiplicity           Mult            ....    1
 Number of Electrons    NEL             ....   50
 Basis Dimension        Dim             ....  179

ORBITAL ENERGIES
----------------

  NO   OCC          E(Eh)            E(eV)
   0   2.0000     -88.928079     -2419.8561
   1   2.0000     -19.003443      -517.1100
   2   2.0000     -18.999020      -516.9896
   3   2.0000     -18.986991      -516.6623
   4   2.0000     -10.115864      -275.2666
   5   2.0000      -7.990286      -217.4267
   6   2.0000      -5.944909      -161.7692
   7   2.0000      -5.943175      -161.7220
   8   2.0000      -5.942914      -161.7149
   9   2.0000      -1.033601       -28.1257
  10   2.0000      -0.903136       -24.5756
  11   2.0000      -0.877607       -23.8809
  12   2.0000      -0.687267       -18.7015
  13   2.0000      -0.484899       -13.1948
  14   2.0000      -0.394150       -10.7254
  15   2.0000      -0.381548       -10.3825
  16   2.0000      -0.380850       -10.3634
  17   2.0000      -0.339034        -9.2256
  18   2.0000      -0.336457        -9.1555
  19   2.0000      -0.243251        -6.6192
  20   2.0000      -0.242324        -6.5940
  21   2.0000      -0.205812        -5.6004
  22   2.0000      -0.196430        -5.3451
  23   2.0000      -0.187496        -5.1020
  24   2.0000      -0.151348        -4.1184
  25   0.0000       0.278957         7.5908
  26   0.0000       0.336321         9.1518
  27   0.0000       0.338113         9.2005
  28   0.0000       0.349030         9.4976
  29   0.0000       0.413855        11.2616

MULLIKEN ATOMIC CHARGES
-----------------------
   0 C :   -0.392363
   1 S :    0.851817
   2 O :   -0.556936
   3 O :   -0.569522
   4 O :   -0.609077
   5 H :    0.092647
   6 H :    0.087405
   7 H :    0.096028
Sum of atomic charges:   -1.0000000

LOEWDIN ATOMIC CHARGES
----------------------
   0 C :   -0.463786
   1 S :    0.389740
   2 O :   -0.378187
   3 O :   -0.392113
   4 O :   -0.439390
   5 H :    0.094738
   6 H :    0.092838
   7 H :    0.096159

  Mayer bond orders larger than 0.100000
B(  0-C ,  1-S ) :   0.8732 B(  0-C ,  5-H ) :   0.9701 B(  0-C ,  6-H ) :   0.9672
B(  0-C ,  7-H ) :   0.9714 B(  1-S ,  2-O ) :   1.8078 B(  1-S ,  3-O ) :   1.7941
B(  1-S ,  4-O ) :   1.7516

Dispersion correction           -0.001526375
FINAL SINGLE POINT ENERGY      -663.900314290774

DIPOLE MOMENT
-------------
                                X             Y             Z
Electronic contribution:     -0.43320      -4.34705       0.57022
Nuclear contribution   :      0.72475       5.67579      -0.57287
                        -----------------------------------------
Total Dipole Moment    :      0.29155       1.32875      -0.00266
                        -----------------------------------------
Magnitude (a.u.)       :      1.36036
Magnitude (Debye)      :      3.45776

Rotational constants in cm-1:     0.171646     0.157781     0.155534
Rotational constants in MHz :  5145.813281  4730.160232  4662.792719

                             ****ORCA TERMINATED NORMALLY****
TOTAL RUN TIME: 0 days 0 hours 0 minutes 12 seconds 235 msec
