                         Program Version 5.0.0 -  RELEASE  -
|  1> !wB97X-D3 RIJCOSX def2-TZVP def2/J TightSCF
|  2> *xyz 1 1
|  3> C         -0.46129        2.23469       -4.98962
|  4> C         -0.42384        2.39877       -6.47432
|  5> N         -0.95947        3.49265       -7.00740
|  6> N          0.14558        1.48689       -7.20399
|  7> H          0.56537        0.69681       -6.72386
|  8> H          0.22068        1.58177       -8.20752
|  9> H         -1.40624        4.18151       -6.40326
| 10> H         -0.93421        3.68160       -7.99947
| 11> H          0.00645        1.31059       -4.72100
| 12> H         -1.47822        2.22967       -4.65687
| 13> H          0.06109        3.04632       -4.52779
| 14> *
| 15>
| 16> %MaxCore 64000
| 17>
| 18> %pal nprocs 8
| 19> end
| 20>
| 21> %scf
| 22>   MaxIter 150
| 23> end
| 24>
| 25>
| 26>                          ****END OF INPUT****

CARTESIAN COORDINATES (ANGSTROEM)
---------------------------------
  C     -0.461290    2.234690   -4.989620
  C     -0.423840    2.398770   -6.474320
  N     -0.959470    3.492650   -7.007400
  N      0.145580    1.486890   -7.203990
  H      0.565370    0.696810   -6.723860
  H      0.220680    1.581770   -8.207520
  H     -1.406240    4.181510   -6.403260
  H     -0.934210    3.681600   -7.999470
  H      0.006450    1.310590   -4.721000
  H     -1.478220    2.229670   -4.656870
  H      0.061090    3.046320   -4.527790

 Total Charge           Charge          ....    1
 Multiplicity           Mult            ....    1
 Number of Electrons    NEL             ....   32
 Basis Dimension        Dim             ....  166

ORBITAL ENERGIES
----------------

  NO   OCC          E(Eh)            E(eV)
   0   2.0000     -14.675757      -399.3477
   1   2.0000     -14.668506      -399.1503
   2   2.0000     -10.609754      -288.7061
   3   2.0000     -10.472302      -284.9658
   4   2.0000      -1.328638       -36.1541
   5   2.0000      -1.230349       -33.4795
   6   2.0000      -1.071843       -29.1663
   7   2.0000      -0.951042       -25.8792
   8   2.0000      -0.887099       -24.1392
   9   2.0000      -0.873273       -23.7630
  10   2.0000      -0.804296       -21.8860
  11   2.0000      -0.765790       -20.8382
  12   2.0000      -0.714880       -19.4529
  13   2.0000      -0.701633       -19.0924
  14   2.0000      -0.675144       -18.3716
  15   2.0000      -0.591625       -16.0989
  16   0.0000      -0.127482        -3.4690
  17   0.0000      -0.078384        -2.1329
  18   0.0000      -0.031626        -0.8606
  19   0.0000      -0.027136        -0.7384
  20   0.0000      -0.004676        -0.1272

MULLIKEN ATOMIC CHARGES
-----------------------
   0 C :   -0.340931
   1 C :    0.341378
   2 N :   -0.406011
   3 N :   -0.366557
   4 H :    0.315462
   5 H :    0.302050
   6 H :    0.321153
   7 H :    0.300588
   8 H :    0.142310
   9 H :    0.194605
  10 H :    0.195952
Sum of atomic charges:    1.0000000

LOEWDIN ATOMIC CHARGES
----------------------
   0 C :   -0.199942
   1 C :   -0.304746
   2 N :    0.093769
   3 N :    0.123708
   4 H :    0.215477
   5 H :    0.204503
   6 H :    0.213304
   7 H :    0.198378
   8 H :    0.143719
   9 H :    0.155762
  10 H :    0.156068

  Mayer bond orders larger than 0.100000
B(  0-C ,  1-C ) :   0.9873 B(  0-C ,  8-H ) :   0.9684 B(  0-C ,  9-H ) :   0.9392
B(  0-C , 10-H ) :   0.9390 B(  1-C ,  2-N ) :   1.4299 B(  1-C ,  3-N ) :   1.4927
B(  2-N ,  6-H ) :   0.8816 B(  2-N ,  7-H ) :   0.8865 B(  3-N ,  4-H ) :   0.8763
B(  3-N ,  5-H ) :   0.8839

Dispersion correction           -0.001673264
FINAL SINGLE POINT ENERGY      -189.738814683961

DIPOLE MOMENT
-------------
                                X             Y             Z
Electronic contribution:      0.06409       0.17695      -2.17248
Nuclear contribution   :     -0.00094      -0.11553       1.69525
                        -----------------------------------------
Total Dipole Moment    :      0.06315       0.06142      -0.47722
                        -----------------------------------------
Magnitude (a.u.)       :      0.48528
Magnitude (Debye)      :      1.23350

Rotational constants in cm-1:     0.329971     0.303414     0.162776
Rotational constants in MHz :  9892.292308  9096.128349  4879.901854

                             ****ORCA TERMINATED NORMALLY****
TOTAL RUN TIME: 0 days 0 hours 0 minutes 11 seconds 984 msec
