                         Program Version 5.0.0 -  RELEASE  -
|  1> !wB97X-D3 RIJCOSX def2-TZVP def2/J TightSCF
|  2> *xyz 0 1
|  3> C          2.09343        1.86104       -4.65684
|  4> S          1.87964        0.07859       -4.46297
|  5> F          3.20757       -0.46611       -4.42026
|  6> O          1.07506       -0.05616       -3.26876
|  7> O          1.13166       -0.31996       -5.67903
|  8> H          2.68437        2.05681       -5.52711
|  9> H          2.58708        2.25699       -3.79404
| 10> H          1.13553        2.32556       -4.76426
| 11> *
| 12>
| 13> %MaxCore 64000
| 14>
| 15> %pal nprocs 8
| 16> end
| 17>
| 18> %scf
| 19>   MaxIter 150
| 20> end
| 21>
| 22>
| 23>                          ****END OF INPUT****

CARTESIAN COORDINATES (ANGSTROEM)
---------------------------------
  C      2.093430    1.861040   -4.656840
  S      1.879640    0.078590   -4.462970
  F      3.207570   -0.466110   -4.420260
  O      1.075060   -0.056160   -3.268760
  O      1.131660   -0.319960   -5.679030
  H      2.684370    2.056810   -5.527110
  H      2.587080    2.256990   -3.794040
  H      1.135530    2.325560   -4.764260

 Total Charge           Charge          ....    0
 Multiplicity           Mult            ....    1
 Number of Electrons    NEL             ....   50
 Basis Dimension        Dim             ....  179

ORBITAL ENERGIES
----------------

  NO   OCC          E(Eh)            E(eV)
   0   2.0000     -89.202058     -2427.3114
   1   2.0000     -24.915230      -677.9779
   2   2.0000     -19.244910      -523.6806
   3   2.0000     -19.233101      -523.3593
   4   2.0000     -10.328655      -281.0570
   5   2.0000      -8.264746      -224.8952
   6   2.0000      -6.222093      -169.3118
   7   2.0000      -6.216070      -169.1479
   8   2.0000      -6.215214      -169.1246
   9   2.0000      -1.510906       -41.1138
  10   2.0000      -1.222119       -33.2556
  11   2.0000      -1.120994       -30.5038
  12   2.0000      -0.912805       -24.8387
  13   2.0000      -0.832007       -22.6401
  14   2.0000      -0.713166       -19.4062
  15   2.0000      -0.700608       -19.0645
  16   2.0000      -0.661032       -17.9876
  17   2.0000      -0.576565       -15.6891
  18   2.0000      -0.574982       -15.6460
  19   2.0000      -0.563138       -15.3238
  20   2.0000      -0.535115       -14.5612
  21   2.0000      -0.486551       -13.2397
  22   2.0000      -0.432952       -11.7812
  23   2.0000      -0.421722       -11.4756
  24   2.0000      -0.403761       -10.9869
  25   0.0000       0.100891         2.7454
  26   0.0000       0.132568         3.6073
  27   0.0000       0.137731         3.7479
  28   0.0000       0.158856         4.3227
  29   0.0000       0.170518         4.6400

MULLIKEN ATOMIC CHARGES
-----------------------
   0 C :   -0.391642
   1 S :    0.868067
   2 F :   -0.090422
   3 O :   -0.416681
   4 O :   -0.454888
   5 H :    0.154334
   6 H :    0.153154
   7 H :    0.178077
Sum of atomic charges:   -0.0000000

LOEWDIN ATOMIC CHARGES
----------------------
   0 C :   -0.399254
   1 S :    0.514012
   2 F :    0.106613
   3 O :   -0.270915
   4 O :   -0.315758
   5 H :    0.117405
   6 H :    0.116680
   7 H :    0.131218

  Mayer bond orders larger than 0.100000
B(  0-C ,  1-S ) :   0.9258 B(  0-C ,  5-H ) :   0.9487 B(  0-C ,  6-H ) :   0.9472
B(  0-C ,  7-H ) :   0.9502 B(  1-S ,  2-F ) :   1.1562 B(  1-S ,  3-O ) :   1.9326
B(  1-S ,  4-O ) :   1.8876

Dispersion correction           -0.001536585
FINAL SINGLE POINT ENERGY      -688.416260174668

DIPOLE MOMENT
-------------
                                X             Y             Z
Electronic contribution:      1.82831      -5.21643       0.66285
Nuclear contribution   :     -0.60459       6.33153      -0.64388
                        -----------------------------------------
Total Dipole Moment    :      1.22372       1.11510       0.01897
                        -----------------------------------------
Magnitude (a.u.)       :      1.65568
Magnitude (Debye)      :      4.20841

Rotational constants in cm-1:     0.163601     0.155191     0.147098
Rotational constants in MHz :  4904.622287  4652.507792  4409.891356

                             ****ORCA TERMINATED NORMALLY****
TOTAL RUN TIME: 0 days 0 hours 0 minutes 12 seconds 604 msec
