                         Program Version 5.0.0 -  RELEASE  -
|  1> !wB97X-D3 RIJCOSX def2-TZVP def2/J TightSCF
|  2> *xyz 0 1
|  3> C         -0.46129        2.23469       -4.98962
|  4> C         -0.42384        2.39877       -6.47432
|  5> C         -0.95947        3.49265       -7.00740
|  6> N          0.14558        1.48689       -7.20399
|  7> H          0.56537        0.69681       -6.72386
|  8> H          0.22068        1.58177       -8.20752
|  9> H         -1.40624        4.18151       -6.40326
| 10> H         -0.93421        3.68160       -7.99947
| 11> H          0.00645        1.31059       -4.72100
| 12> H         -1.47822        2.22967       -4.65687
| 13> H          0.06109        3.04632       -4.52779
| 14> *
| 15>
| 16> %MaxCore 64000
| 17>
| 18> %pal nprocs 8
| 19> end
| 20>
| 21> %scf
| 22>   MaxIter 150
| 23> end
| 24>
| 25>
| 26>                          ****END OF INPUT****

CARTESIAN COORDINATES (ANGSTROEM)
---------------------------------
  C     -0.461290    2.234690   -4.989620
  C     -0.423840    2.398770   -6.474320
  C     -0.959470    3.492650   -7.007400
  N      0.145580    1.486890   -7.203990
  H      0.565370    0.696810   -6.723860
  H      0.220680    1.581770   -8.207520
  H     -1.406240    4.181510   -6.403260
  H     -0.934210    3.681600   -7.999470
  H      0.006450    1.310590   -4.721000
  H     -1.478220    2.229670   -4.656870
  H      0.061090    3.046320   -4.527790

 Total Charge           Charge          ....    0
 Multiplicity           Mult            ....    1
 Number of Electrons    NEL             ....   32
 Basis Dimension        Dim             ....  166

ORBITAL ENERGIES
----------------

  NO   OCC          E(Eh)            E(eV)
   0   2.0000     -14.422833      -392.4652
   1   2.0000     -10.296866      -280.1920
   2   2.0000     -10.263426      -279.2820
   3   2.0000     -10.197294      -277.4825
   4   2.0000      -1.052646       -28.6439
   5   2.0000      -0.871702       -23.7202
   6   2.0000      -0.798901       -21.7392
   7   2.0000      -0.679863       -18.5000
   8   2.0000      -0.633030       -17.2256
   9   2.0000      -0.574148       -15.6234
  10   2.0000      -0.533055       -14.5052
  11   2.0000      -0.494498       -13.4560
  12   2.0000      -0.484290       -13.1782
  13   2.0000      -0.447006       -12.1637
  14   2.0000      -0.437041       -11.8925
  15   2.0000      -0.270574        -7.3627
  16   0.0000       0.110364         3.0032
  17   0.0000       0.129583         3.5261
  18   0.0000       0.152487         4.1494
  19   0.0000       0.160291         4.3617
  20   0.0000       0.200800         5.4641

MULLIKEN ATOMIC CHARGES
-----------------------
   0 C :   -0.323201
   1 C :    0.210820
   2 C :   -0.458692
   3 N :   -0.475740
   4 H :    0.236665
   5 H :    0.246434
   6 H :    0.106503
   7 H :    0.099250
   8 H :    0.083404
   9 H :    0.137112
  10 H :    0.137446
Sum of atomic charges:   -0.0000000

LOEWDIN ATOMIC CHARGES
----------------------
   0 C :   -0.241489
   1 C :   -0.394876
   2 C :   -0.296211
   3 N :    0.005473
   4 H :    0.172924
   5 H :    0.176997
   6 H :    0.104754
   7 H :    0.093857
   8 H :    0.114689
   9 H :    0.132027
  10 H :    0.131855

  Mayer bond orders larger than 0.100000
B(  0-C ,  1-C ) :   0.9225 B(  0-C ,  8-H ) :   0.9876 B(  0-C ,  9-H ) :   0.9788
B(  0-C , 10-H ) :   0.9757 B(  1-C ,  2-C ) :   1.7441 B(  1-C ,  3-N ) :   1.1910
B(  2-C ,  6-H ) :   1.0032 B(  2-C ,  7-H ) :   0.9960 B(  3-N ,  4-H ) :   0.9202
B(  3-N ,  5-H ) :   0.9156

Dispersion correction           -0.001670730
FINAL SINGLE POINT ENERGY      -173.265486606099

DIPOLE MOMENT
-------------
                                X             Y             Z
Electronic contribution:      0.56418      -0.85996      -1.51559
Nuclear contribution   :     -0.12116       0.12783       1.56719
                        -----------------------------------------
Total Dipole Moment    :      0.44302      -0.73213       0.05160
                        -----------------------------------------
Magnitude (a.u.)       :      0.85729
Magnitude (Debye)      :      2.17905

Rotational constants in cm-1:     0.350065     0.307664     0.168807
Rotational constants in MHz : 10494.676477  9223.531181  5060.697310

                             ****ORCA TERMINATED NORMALLY****
TOTAL RUN TIME: 0 days 0 hours 0 minutes 12 seconds 644 msec
