                         Program Version 5.0.0 -  RELEASE  -
|  1> !wB97X-D3 RIJCOSX def2-TZVP def2/J TightSCF
|  2> *xyz 0 1
|  3> C          2.09343        1.86104       -4.65684
|  4> S          1.87964        0.07859       -4.46297
|  5> O          3.20757       -0.46611       -4.42026
|  6> F          1.07506       -0.05616       -3.26876
|  7> O          1.13166       -0.31996       -5.67903
|  8> H          2.68437        2.05681       -5.52711
|  9> H          2.58708        2.25699       -3.79404
| 10> H          1.13553        2.32556       -4.76426
| 11> *
| 12>
| 13> %MaxCore 64000
| 14>
| 15> %pal nprocs 8
| 16> end
| 17>
| 18> %scf
| 19>   MaxIter 150
| 20> end
| 21>
| 22>
| 23>                          ****END OF INPUT****

CARTESIAN COORDINATES (ANGSTROEM)
---------------------------------
  C      2.093430    1.861040   -4.656840
  S      1.879640    0.078590   -4.462970
  O      3.207570   -0.466110   -4.420260
  F      1.075060   -0.056160   -3.268760
  O      1.131660   -0.319960   -5.679030
  H      2.684370    2.056810   -5.527110
  H      2.587080    2.256990   -3.794040
  H      1.135530    2.325560   -4.764260

 Total Charge           Charge          ....    0
 Multiplicity           Mult            ....    1
 Number of Electrons    NEL             ....   50
 Basis Dimension        Dim             ....  179

ORBITAL ENERGIES
----------------

  NO   OCC          E(Eh)            E(eV)
   0   2.0000     -89.201516     -2427.2967
   1   2.0000     -24.909170      -677.8130
   2   2.0000     -19.249114      -523.7950
   3   2.0000     -19.232930      -523.3546
   4   2.0000     -10.328554      -281.0542
   5   2.0000      -8.264212      -224.8806
   6   2.0000      -6.221592      -169.2981
   7   2.0000      -6.215552      -169.1338
   8   2.0000      -6.214674      -169.1099
   9   2.0000      -1.501572       -40.8598
  10   2.0000      -1.226915       -33.3861
  11   2.0000      -1.124364       -30.5955
  12   2.0000      -0.912751       -24.8372
  13   2.0000      -0.827060       -22.5055
  14   2.0000      -0.707853       -19.2617
  15   2.0000      -0.693966       -18.8838
  16   2.0000      -0.660648       -17.9771
  17   2.0000      -0.577192       -15.7062
  18   2.0000      -0.576328       -15.6827
  19   2.0000      -0.562360       -15.3026
  20   2.0000      -0.537301       -14.6207
  21   2.0000      -0.489348       -13.3158
  22   2.0000      -0.437639       -11.9088
  23   2.0000      -0.422194       -11.4885
  24   2.0000      -0.406577       -11.0635
  25   0.0000       0.101965         2.7746
  26   0.0000       0.134142         3.6502
  27   0.0000       0.137346         3.7374
  28   0.0000       0.160184         4.3588
  29   0.0000       0.169327         4.6076

MULLIKEN ATOMIC CHARGES
-----------------------
   0 C :   -0.392871
   1 S :    0.869262
   2 O :   -0.406706
   3 F :   -0.098713
   4 O :   -0.456958
   5 H :    0.176153
   6 H :    0.151841
   7 H :    0.157991
Sum of atomic charges:    0.0000000

LOEWDIN ATOMIC CHARGES
----------------------
   0 C :   -0.399236
   1 S :    0.515686
   2 O :   -0.258683
   3 F :    0.093689
   4 O :   -0.316795
   5 H :    0.130304
   6 H :    0.116138
   7 H :    0.118898

  Mayer bond orders larger than 0.100000
B(  0-C ,  1-S ) :   0.9252 B(  0-C ,  5-H ) :   0.9503 B(  0-C ,  6-H ) :   0.9472
B(  0-C ,  7-H ) :   0.9488 B(  1-S ,  2-O ) :   1.9465 B(  1-S ,  3-F ) :   1.1453
B(  1-S ,  4-O ) :   1.8876

Dispersion correction           -0.001537547
FINAL SINGLE POINT ENERGY      -688.421389462415

DIPOLE MOMENT
-------------
                                X             Y             Z
Electronic contribution:     -1.75574      -4.52828       2.60228
Nuclear contribution   :      1.52593       5.92196      -1.79430
                        -----------------------------------------
Total Dipole Moment    :     -0.22981       1.39369       0.80798
                        -----------------------------------------
Magnitude (a.u.)       :      1.62727
Magnitude (Debye)      :      4.13619

Rotational constants in cm-1:     0.162837     0.155564     0.147443
Rotational constants in MHz :  4881.731197  4663.686927  4420.233103

                             ****ORCA TERMINATED NORMALLY****
TOTAL RUN TIME: 0 days 0 hours 0 minutes 12 seconds 354 msec
