                         Program Version 5.0.0 -  RELEASE  -
|  1> !wB97X-D3 RIJCOSX def2-TZVP def2/J TightSCF
|  2> *xyz 0 1
|  3> C         -0.46129        2.23469       -4.98962
|  4> C         -0.42384        2.39877       -6.47432
|  5> N         -0.95947        3.49265       -7.00740
|  6> C          0.14558        1.48689       -7.20399
|  7> H          0.56537        0.69681       -6.72386
|  8> H          0.22068        1.58177       -8.20752
|  9> H         -1.40624        4.18151       -6.40326
| 10> H         -0.93421        3.68160       -7.99947
| 11> H          0.00645        1.31059       -4.72100
| 12> H         -1.47822        2.22967       -4.65687
| 13> H          0.06109        3.04632       -4.52779
| 14> *
| 15>
| 16> %MaxCore 64000
| 17>
| 18> %pal nprocs 8
| 19> end
| 20>
| 21> %scf
| 22>   MaxIter 150
| 23> end
| 24>
| 25>
| 26>                          ****END OF INPUT****

CARTESIAN COORDINATES (ANGSTROEM)
---------------------------------
  C     -0.461290    2.234690   -4.989620
  C     -0.423840    2.398770   -6.474320
  N     -0.959470    3.492650   -7.007400
  C      0.145580    1.486890   -7.203990
  H      0.565370    0.696810   -6.723860
  H      0.220680    1.581770   -8.207520
  H     -1.406240    4.181510   -6.403260
  H     -0.934210    3.681600   -7.999470
  H      0.006450    1.310590   -4.721000
  H     -1.478220    2.229670   -4.656870
  H      0.061090    3.046320   -4.527790

 Total Charge           Charge          ....    0
 Multiplicity           Mult            ....    1
 Number of Electrons    NEL             ....   32
 Basis Dimension        Dim             ....  166

ORBITAL ENERGIES
----------------

  NO   OCC          E(Eh)            E(eV)
   0   2.0000     -14.417984      -392.3333
   1   2.0000     -10.294899      -280.1384
   2   2.0000     -10.261844      -279.2390
   3   2.0000     -10.201479      -277.5964
   4   2.0000      -1.039514       -28.2866
   5   2.0000      -0.875593       -23.8261
   6   2.0000      -0.802973       -21.8500
   7   2.0000      -0.675646       -18.3853
   8   2.0000      -0.622621       -16.9424
   9   2.0000      -0.576960       -15.6999
  10   2.0000      -0.532805       -14.4983
  11   2.0000      -0.491991       -13.3878
  12   2.0000      -0.490281       -13.3412
  13   2.0000      -0.447292       -12.1714
  14   2.0000      -0.428996       -11.6736
  15   2.0000      -0.280625        -7.6362
  16   0.0000       0.111255         3.0274
  17   0.0000       0.136490         3.7141
  18   0.0000       0.154329         4.1995
  19   0.0000       0.169464         4.6114
  20   0.0000       0.184579         5.0226

MULLIKEN ATOMIC CHARGES
-----------------------
   0 C :   -0.340936
   1 C :    0.245905
   2 N :   -0.518204
   3 C :   -0.428536
   4 H :    0.099974
   5 H :    0.099283
   6 H :    0.243431
   7 H :    0.243948
   8 H :    0.116249
   9 H :    0.118573
  10 H :    0.120314
Sum of atomic charges:   -0.0000000

LOEWDIN ATOMIC CHARGES
----------------------
   0 C :   -0.243026
   1 C :   -0.386201
   2 N :   -0.020729
   3 C :   -0.273202
   4 H :    0.107952
   5 H :    0.098747
   6 H :    0.171320
   7 H :    0.170607
   8 H :    0.130485
   9 H :    0.121835
  10 H :    0.122212

  Mayer bond orders larger than 0.100000
B(  0-C ,  1-C ) :   0.9436 B(  0-C ,  8-H ) :   0.9904 B(  0-C ,  9-H ) :   0.9723
B(  0-C , 10-H ) :   0.9726 B(  1-C ,  2-N ) :   1.1419 B(  1-C ,  3-C ) :   1.7729
B(  2-N ,  6-H ) :   0.9246 B(  2-N ,  7-H ) :   0.9205 B(  3-C ,  4-H ) :   0.9957
B(  3-C ,  5-H ) :   1.0010

Dispersion correction           -0.001683463
FINAL SINGLE POINT ENERGY      -173.269685814383

DIPOLE MOMENT
-------------
                                X             Y             Z
Electronic contribution:     -0.46317       0.98988      -1.38042
Nuclear contribution   :      0.12666      -0.32199       1.52310
                        -----------------------------------------
Total Dipole Moment    :     -0.33650       0.66788       0.14268
                        -----------------------------------------
Magnitude (a.u.)       :      0.76135
Magnitude (Debye)      :      1.93521

Rotational constants in cm-1:     0.352483     0.305471     0.168700
Rotational constants in MHz : 10567.165953  9157.779739  5057.501411

                             ****ORCA TERMINATED NORMALLY****
TOTAL RUN TIME: 0 days 0 hours 0 minutes 12 seconds 533 msec
