                         Program Version 5.0.0 -  RELEASE  -
|  1> !wB97X-D3 RIJCOSX def2-TZVP def2/J TightSCF
|  2> *xyz 0 1
|  3> C          2.09343        1.86104       -4.65684
|  4> S          1.87964        0.07859       -4.46297
|  5> O          3.20757       -0.46611       -4.42026
|  6> O          1.07506       -0.05616       -3.26876
|  7> F          1.13166       -0.31996       -5.67903
|  8> H          2.68437        2.05681       -5.52711
|  9> H          2.58708        2.25699       -3.79404
| 10> H          1.13553        2.32556       -4.76426
| 11> *
| 12>
| 13> %MaxCore 64000
| 14>
| 15> %pal nprocs 8
| 16> end
| 17>
| 18> %scf
| 19>   MaxIter 150
| 20> end
| 21>
| 22>
| 23>                          ****END OF INPUT****

CARTESIAN COORDINATES (ANGSTROEM)
---------------------------------
  C      2.093430    1.861040   -4.656840
  S      1.879640    0.078590   -4.462970
  O      3.207570   -0.466110   -4.420260
  O      1.075060   -0.056160   -3.268760
  F      1.131660   -0.319960   -5.679030
  H      2.684370    2.056810   -5.527110
  H      2.587080    2.256990   -3.794040
  H      1.135530    2.325560   -4.764260

 Total Charge           Charge          ....    0
 Multiplicity           Mult            ....    1
 Number of Electrons    NEL             ....   50
 Basis Dimension        Dim             ....  179

ORBITAL ENERGIES
----------------

  NO   OCC          E(Eh)            E(eV)
   0   2.0000     -89.199639     -2427.2456
   1   2.0000     -24.891027      -677.3193
   2   2.0000     -19.248860      -523.7881
   3   2.0000     -19.244434      -523.6677
   4   2.0000     -10.327858      -281.0353
   5   2.0000      -8.262348      -224.8299
   6   2.0000      -6.219754      -169.2481
   7   2.0000      -6.213864      -169.0878
   8   2.0000      -6.212717      -169.0566
   9   2.0000      -1.471922       -40.0530
  10   2.0000      -1.235088       -33.6085
  11   2.0000      -1.142818       -31.0977
  12   2.0000      -0.910615       -24.7791
  13   2.0000      -0.812078       -22.0978
  14   2.0000      -0.692956       -18.8563
  15   2.0000      -0.673121       -18.3165
  16   2.0000      -0.657923       -17.9030
  17   2.0000      -0.578885       -15.7523
  18   2.0000      -0.576676       -15.6922
  19   2.0000      -0.561285       -15.2733
  20   2.0000      -0.542818       -14.7708
  21   2.0000      -0.494139       -13.4462
  22   2.0000      -0.441979       -12.0269
  23   2.0000      -0.433280       -11.7902
  24   2.0000      -0.420092       -11.4313
  25   0.0000       0.103753         2.8233
  26   0.0000       0.132945         3.6176
  27   0.0000       0.138389         3.7658
  28   0.0000       0.165431         4.5016
  29   0.0000       0.168068         4.5734

MULLIKEN ATOMIC CHARGES
-----------------------
   0 C :   -0.394160
   1 S :    0.873986
   2 O :   -0.413803
   3 O :   -0.426001
   4 F :   -0.125425
   5 H :    0.155566
   6 H :    0.173443
   7 H :    0.156394
Sum of atomic charges:   -0.0000000

LOEWDIN ATOMIC CHARGES
----------------------
   0 C :   -0.398898
   1 S :    0.520688
   2 O :   -0.261771
   3 O :   -0.275180
   4 F :    0.050053
   5 H :    0.117665
   6 H :    0.129128
   7 H :    0.118315

  Mayer bond orders larger than 0.100000
B(  0-C ,  1-S ) :   0.9253 B(  0-C ,  5-H ) :   0.9488 B(  0-C ,  6-H ) :   0.9496
B(  0-C ,  7-H ) :   0.9492 B(  1-S ,  2-O ) :   1.9450 B(  1-S ,  3-O ) :   1.9304
B(  1-S ,  4-F ) :   1.1113

Dispersion correction           -0.001535974
FINAL SINGLE POINT ENERGY      -688.436110911326

DIPOLE MOMENT
-------------
                                X             Y             Z
Electronic contribution:     -1.67002      -4.97379      -1.47326
Nuclear contribution   :      1.46938       6.18552       0.61372
                        -----------------------------------------
Total Dipole Moment    :     -0.20064       1.21173      -0.85955
                        -----------------------------------------
Magnitude (a.u.)       :      1.49912
Magnitude (Debye)      :      3.81045

Rotational constants in cm-1:     0.163578     0.153284     0.148718
Rotational constants in MHz :  4903.939615  4595.352658  4458.447794

                             ****ORCA TERMINATED NORMALLY****
TOTAL RUN TIME: 0 days 0 hours 0 minutes 12 seconds 572 msec
