                         Program Version 5.0.0 -  RELEASE  -
|  1> !wB97X-D3 RIJCOSX def2-TZVP def2/J TightSCF xyzfile
|  2>
|  3> *xyzfile 0 1 D1.xyz
|  4>
|  5> %MaxCore 64000
|  6>
|  7> %pal nprocs 18
|  8> end
|  9>
| 10> %scf
| 11>   MaxIter 150
| 12> end
| 13>
| 14>
| 15>                          ****END OF INPUT****

CARTESIAN COORDINATES (ANGSTROEM)
---------------------------------
  C     -0.461293    2.234686   -4.989619
  C      0.848883    2.667967   -4.302351
  C      2.093434    1.861037   -4.656845
  H      2.444814    2.041567   -5.674990
  H      2.901748    2.137864   -3.980338
  S      1.879644    0.078594   -4.462965
  C     -0.423841    2.398772   -6.474317
  C     -0.959467    3.492647   -7.007401
  N      0.145585    1.486891   -7.203987
  H      0.565371    0.696807   -6.723858
  H      0.220682    1.581768   -8.207520
  H     -1.406243    4.181507   -6.403261
  H     -0.934215    3.681601   -7.999468
  F      3.207574   -0.466111   -4.420259
  O      1.075064   -0.056160   -3.268758
  O      1.131661   -0.319960   -5.679031
  H      0.668432    2.559427   -3.232850
  H      1.034074    3.729426   -4.497081
  H     -1.288884    2.826737   -4.594997
  H     -0.651696    1.186343   -4.756552

 Total Charge           Charge          ....    0
 Multiplicity           Mult            ....    1
 Number of Electrons    NEL             ....   88
 Basis Dimension        Dim             ....  376

ORBITAL ENERGIES
----------------

  NO   OCC          E(Eh)            E(eV)
   0   2.0000     -89.215737     -2427.6836
   1   2.0000     -24.928303      -678.3336
   2   2.0000     -19.260292      -524.0992
   3   2.0000     -19.256482      -523.9955
   4   2.0000     -14.392747      -391.6466
   5   2.0000     -10.341480      -281.4060
   6   2.0000     -10.303140      -280.3627
   7   2.0000     -10.287601      -279.9399
   8   2.0000     -10.275645      -279.6145
   9   2.0000     -10.194073      -277.3948
  10   2.0000      -8.279309      -225.2914
  11   2.0000      -6.236396      -169.7009
  12   2.0000      -6.230398      -169.5378
  13   2.0000      -6.230018      -169.5274
  14   2.0000      -1.523819       -41.4652
  15   2.0000      -1.242636       -33.8138
  16   2.0000      -1.146729       -31.2041
  17   2.0000      -1.036491       -28.2044
  18   2.0000      -0.951679       -25.8965
  19   2.0000      -0.884348       -24.0643
  20   2.0000      -0.850603       -23.1461
  21   2.0000      -0.806085       -21.9347
  22   2.0000      -0.756070       -20.5737
  23   2.0000      -0.716559       -19.4986
  24   2.0000      -0.706022       -19.2118
  25   2.0000      -0.684894       -18.6369
  26   2.0000      -0.662516       -18.0280
  27   2.0000      -0.628730       -17.1086
  28   2.0000      -0.605207       -16.4685
  29   2.0000      -0.592371       -16.1192
  30   2.0000      -0.574681       -15.6379
  31   2.0000      -0.555531       -15.1168
  32   2.0000      -0.545650       -14.8479
  33   2.0000      -0.512895       -13.9566
  34   2.0000      -0.495306       -13.4780
  35   2.0000      -0.490001       -13.3336
  36   2.0000      -0.476978       -12.9792
  37   2.0000      -0.459056       -12.4915
  38   2.0000      -0.446495       -12.1497
  39   2.0000      -0.439583       -11.9617
  40   2.0000      -0.426215       -11.5979
  41   2.0000      -0.420861       -11.4522
  42   2.0000      -0.412548       -11.2260
  43   2.0000      -0.263081        -7.1588
  44   0.0000       0.090634         2.4663
  45   0.0000       0.107569         2.9271
  46   0.0000       0.125932         3.4268
  47   0.0000       0.132292         3.5998
  48   0.0000       0.139108         3.7853

MULLIKEN ATOMIC CHARGES
-----------------------
   0 C :   -0.298794
   1 C :   -0.176683
   2 C :   -0.333617
   3 H :    0.176379
   4 H :    0.154587
   5 S :    0.911414
   6 C :    0.234082
   7 C :   -0.470895
   8 N :   -0.492107
   9 H :    0.270197
  10 H :    0.226890
  11 H :    0.097165
  12 H :    0.096525
  13 F :   -0.087646
  14 O :   -0.405481
  15 O :   -0.470721
  16 H :    0.131776
  17 H :    0.136306
  18 H :    0.131340
  19 H :    0.169283
Sum of atomic charges:   -0.0000000

LOEWDIN ATOMIC CHARGES
----------------------
   0 C :   -0.213174
   1 C :   -0.264938
   2 C :   -0.366630
   3 H :    0.143921
   4 H :    0.138768
   5 S :    0.555002
   6 C :   -0.377622
   7 C :   -0.295196
   8 N :    0.009222
   9 H :    0.137615
  10 H :    0.169914
  11 H :    0.102172
  12 H :    0.093203
  13 F :    0.113895
  14 O :   -0.250791
  15 O :   -0.290172
  16 H :    0.146154
  17 H :    0.150175
  18 H :    0.152971
  19 H :    0.145514

  Mayer bond orders larger than 0.100000
B(  0-C ,  1-C ) :   0.9487 B(  0-C ,  6-C ) :   0.9100 B(  0-C , 18-H ) :   0.9831
B(  0-C , 19-H ) :   0.9961 B(  1-C ,  2-C ) :   0.9903 B(  1-C , 16-H ) :   0.9676
B(  1-C , 17-H ) :   0.9470 B(  2-C ,  3-H ) :   0.9300 B(  2-C ,  4-H ) :   0.9438
B(  2-C ,  5-S ) :   0.9355 B(  5-S , 13-F ) :   1.1693 B(  5-S , 14-O ) :   1.9172
B(  5-S , 15-O ) :   1.7463 B(  6-C ,  7-C ) :   1.7180 B(  6-C ,  8-N ) :   1.2152
B(  7-C , 11-H ) :   1.0000 B(  7-C , 12-H ) :   0.9988 B(  8-N ,  9-H ) :   0.8502
B(  8-N , 10-H ) :   0.9244 B(  9-H , 15-O ) :   0.1044

Dispersion correction           -0.008655788
FINAL SINGLE POINT ENERGY      -899.800389373597

DIPOLE MOMENT
-------------
                                X             Y             Z
Electronic contribution:     10.21403     -13.96631       5.47791
Nuclear contribution   :     -8.53047      14.15581      -5.17613
                        -----------------------------------------
Total Dipole Moment    :      1.68356       0.18950       0.30178
                        -----------------------------------------
Magnitude (a.u.)       :      1.72086
Magnitude (Debye)      :      4.37408

Rotational constants in cm-1:     0.081196     0.024861     0.022477
Rotational constants in MHz :  2434.181666   745.320670   673.846846

                             ****ORCA TERMINATED NORMALLY****
TOTAL RUN TIME: 0 days 0 hours 0 minutes 46 seconds 38 msec
