                         Program Version 5.0.0 -  RELEASE  -
|  1> !wB97X-D3 RIJCOSX def2-TZVP def2/J TightSCF xyzfile
|  2>
|  3> *xyzfile 0 1 D2.xyz
|  4>
|  5> %MaxCore 64000
|  6>
|  7> %pal nprocs 18
|  8> end
|  9>
| 10> %scf
| 11>   MaxIter 150
| 12> end
| 13>
| 14>
| 15>                          ****END OF INPUT****

CARTESIAN COORDINATES (ANGSTROEM)
---------------------------------
  C     -0.461293    2.234686   -4.989619
  C      0.848883    2.667967   -4.302351
  C      2.093434    1.861037   -4.656845
  H      2.444814    2.041567   -5.674990
  H      2.901748    2.137864   -3.980338
  S      1.879644    0.078594   -4.462965
  C     -0.423841    2.398772   -6.474317
  N     -0.959467    3.492647   -7.007401
  C      0.145585    1.486891   -7.203987
  H      0.565371    0.696807   -6.723858
  H      0.220682    1.581768   -8.207520
  H     -1.406243    4.181507   -6.403261
  H     -0.934215    3.681601   -7.999468
  F      3.207574   -0.466111   -4.420259
  O      1.075064   -0.056160   -3.268758
  O      1.131661   -0.319960   -5.679031
  H      0.668432    2.559427   -3.232850
  H      1.034074    3.729426   -4.497081
  H     -1.288884    2.826737   -4.594997
  H     -0.651696    1.186343   -4.756552

 Total Charge           Charge          ....    0
 Multiplicity           Mult            ....    1
 Number of Electrons    NEL             ....   88
 Basis Dimension        Dim             ....  376

ORBITAL ENERGIES
----------------

  NO   OCC          E(Eh)            E(eV)
   0   2.0000     -89.197574     -2427.1894
   1   2.0000     -24.912712      -677.9093
   2   2.0000     -19.244739      -523.6760
   3   2.0000     -19.233029      -523.3573
   4   2.0000     -14.411787      -392.1647
   5   2.0000     -10.330151      -281.0977
   6   2.0000     -10.300304      -280.2855
   7   2.0000     -10.282731      -279.8073
   8   2.0000     -10.275359      -279.6067
   9   2.0000     -10.176697      -276.9220
  10   2.0000      -8.261194      -224.7985
  11   2.0000      -6.218393      -169.2111
  12   2.0000      -6.212144      -169.0410
  13   2.0000      -6.211932      -169.0353
  14   2.0000      -1.508385       -41.0452
  15   2.0000      -1.224671       -33.3250
  16   2.0000      -1.126524       -30.6543
  17   2.0000      -1.034058       -28.1382
  18   2.0000      -0.944285       -25.6953
  19   2.0000      -0.881361       -23.9831
  20   2.0000      -0.836286       -22.7565
  21   2.0000      -0.812188       -22.1008
  22   2.0000      -0.747479       -20.3399
  23   2.0000      -0.701222       -19.0812
  24   2.0000      -0.694537       -18.8993
  25   2.0000      -0.666565       -18.1381
  26   2.0000      -0.665082       -18.0978
  27   2.0000      -0.614573       -16.7234
  28   2.0000      -0.597360       -16.2550
  29   2.0000      -0.587428       -15.9847
  30   2.0000      -0.572555       -15.5800
  31   2.0000      -0.555169       -15.1069
  32   2.0000      -0.538202       -14.6452
  33   2.0000      -0.503553       -13.7024
  34   2.0000      -0.495672       -13.4879
  35   2.0000      -0.484236       -13.1767
  36   2.0000      -0.468683       -12.7535
  37   2.0000      -0.454962       -12.3802
  38   2.0000      -0.431921       -11.7532
  39   2.0000      -0.430157       -11.7052
  40   2.0000      -0.414314       -11.2741
  41   2.0000      -0.409605       -11.1459
  42   2.0000      -0.386382       -10.5140
  43   2.0000      -0.268638        -7.3100
  44   0.0000       0.102362         2.7854
  45   0.0000       0.109053         2.9675
  46   0.0000       0.127974         3.4823
  47   0.0000       0.129738         3.5303
  48   0.0000       0.146754         3.9934

MULLIKEN ATOMIC CHARGES
-----------------------
   0 C :   -0.290423
   1 C :   -0.170204
   2 C :   -0.330461
   3 H :    0.180316
   4 H :    0.149560
   5 S :    0.887955
   6 C :    0.240449
   7 N :   -0.517889
   8 C :   -0.484984
   9 H :    0.177779
  10 H :    0.084627
  11 H :    0.230791
  12 H :    0.240251
  13 F :   -0.093655
  14 O :   -0.418785
  15 O :   -0.431533
  16 H :    0.134060
  17 H :    0.124556
  18 H :    0.103684
  19 H :    0.183905
Sum of atomic charges:    0.0000000

LOEWDIN ATOMIC CHARGES
----------------------
   0 C :   -0.214097
   1 C :   -0.266307
   2 C :   -0.365332
   3 H :    0.145343
   4 H :    0.136365
   5 S :    0.544731
   6 C :   -0.377444
   7 N :   -0.022796
   8 C :   -0.261630
   9 H :    0.090588
  10 H :    0.095080
  11 H :    0.166251
  12 H :    0.168892
  13 F :    0.108653
  14 O :   -0.262731
  15 O :   -0.271289
  16 H :    0.145994
  17 H :    0.145477
  18 H :    0.138236
  19 H :    0.156017

  Mayer bond orders larger than 0.100000
B(  0-C ,  1-C ) :   0.9496 B(  0-C ,  6-C ) :   0.9039 B(  0-C , 18-H ) :   0.9857
B(  0-C , 19-H ) :   1.0016 B(  1-C ,  2-C ) :   0.9888 B(  1-C , 16-H ) :   0.9702
B(  1-C , 17-H ) :   0.9491 B(  2-C ,  3-H ) :   0.9338 B(  2-C ,  4-H ) :   0.9465
B(  2-C ,  5-S ) :   0.9321 B(  5-S , 13-F ) :   1.1593 B(  5-S , 14-O ) :   1.8994
B(  5-S , 15-O ) :   1.8049 B(  6-C ,  7-N ) :   1.1130 B(  6-C ,  8-C ) :   1.7456
B(  7-N , 11-H ) :   0.9239 B(  7-N , 12-H ) :   0.9209 B(  8-C ,  9-H ) :   0.9772
B(  8-C , 10-H ) :   1.0023

Dispersion correction           -0.008590975
FINAL SINGLE POINT ENERGY      -899.780520320311

DIPOLE MOMENT
-------------
                                X             Y             Z
Electronic contribution:      9.28538     -12.45096       5.41998
Nuclear contribution   :     -8.42493      13.96425      -5.19491
                        -----------------------------------------
Total Dipole Moment    :      0.86045       1.51329       0.22507
                        -----------------------------------------
Magnitude (a.u.)       :      1.75530
Magnitude (Debye)      :      4.46162

Rotational constants in cm-1:     0.082815     0.024151     0.022015
Rotational constants in MHz :  2482.732265   724.035221   660.002136

                             ****ORCA TERMINATED NORMALLY****
TOTAL RUN TIME: 0 days 0 hours 0 minutes 50 seconds 724 msec
