                         Program Version 5.0.0 -  RELEASE  -
|  1> !wB97X-D3 RIJCOSX def2-TZVP def2/J TightSCF xyzfile
|  2>
|  3> *xyzfile 0 1 D3.xyz
|  4>
|  5> %MaxCore 64000
|  6>
|  7> %pal nprocs 18
|  8> end
|  9>
| 10> %scf
| 11>   MaxIter 150
| 12> end
| 13>
| 14>
| 15>                          ****END OF INPUT****

CARTESIAN COORDINATES (ANGSTROEM)
---------------------------------
  C     -0.461293    2.234686   -4.989619
  C      0.848883    2.667967   -4.302351
  C      2.093434    1.861037   -4.656845
  H      2.444814    2.041567   -5.674990
  H      2.901748    2.137864   -3.980338
  S      1.879644    0.078594   -4.462965
  C     -0.423841    2.398772   -6.474317
  C     -0.959467    3.492647   -7.007401
  N      0.145585    1.486891   -7.203987
  H      0.565371    0.696807   -6.723858
  H      0.220682    1.581768   -8.207520
  H     -1.406243    4.181507   -6.403261
  H     -0.934215    3.681601   -7.999468
  O      3.207574   -0.466111   -4.420259
  F      1.075064   -0.056160   -3.268758
  O      1.131661   -0.319960   -5.679031
  H      0.668432    2.559427   -3.232850
  H      1.034074    3.729426   -4.497081
  H     -1.288884    2.826737   -4.594997
  H     -0.651696    1.186343   -4.756552

 Total Charge           Charge          ....    0
 Multiplicity           Mult            ....    1
 Number of Electrons    NEL             ....   88
 Basis Dimension        Dim             ....  376

ORBITAL ENERGIES
----------------

  NO   OCC          E(Eh)            E(eV)
   0   2.0000     -89.214754     -2427.6569
   1   2.0000     -24.922258      -678.1691
   2   2.0000     -19.263205      -524.1785
   3   2.0000     -19.255374      -523.9654
   4   2.0000     -14.395615      -391.7246
   5   2.0000     -10.341102      -281.3957
   6   2.0000     -10.309062      -280.5239
   7   2.0000     -10.293416      -280.0981
   8   2.0000     -10.286731      -279.9162
   9   2.0000     -10.199092      -277.5314
  10   2.0000      -8.278298      -225.2639
  11   2.0000      -6.235684      -169.6816
  12   2.0000      -6.229463      -169.5123
  13   2.0000      -6.228680      -169.4910
  14   2.0000      -1.514797       -41.2197
  15   2.0000      -1.245176       -33.8830
  16   2.0000      -1.149857       -31.2892
  17   2.0000      -1.040454       -28.3122
  18   2.0000      -0.958033       -26.0694
  19   2.0000      -0.883785       -24.0490
  20   2.0000      -0.849368       -23.1125
  21   2.0000      -0.811211       -22.0742
  22   2.0000      -0.757752       -20.6195
  23   2.0000      -0.715267       -19.4634
  24   2.0000      -0.711008       -19.3475
  25   2.0000      -0.679631       -18.4937
  26   2.0000      -0.668190       -18.1824
  27   2.0000      -0.623279       -16.9603
  28   2.0000      -0.603848       -16.4315
  29   2.0000      -0.596118       -16.2212
  30   2.0000      -0.575976       -15.6731
  31   2.0000      -0.559676       -15.2296
  32   2.0000      -0.552103       -15.0235
  33   2.0000      -0.520824       -14.1724
  34   2.0000      -0.503117       -13.6905
  35   2.0000      -0.496628       -13.5139
  36   2.0000      -0.479937       -13.0597
  37   2.0000      -0.474914       -12.9231
  38   2.0000      -0.443892       -12.0789
  39   2.0000      -0.440040       -11.9741
  40   2.0000      -0.433979       -11.8092
  41   2.0000      -0.423944       -11.5361
  42   2.0000      -0.415130       -11.2963
  43   2.0000      -0.267279        -7.2730
  44   0.0000       0.085223         2.3190
  45   0.0000       0.114006         3.1023
  46   0.0000       0.122888         3.3440
  47   0.0000       0.125527         3.4158
  48   0.0000       0.139432         3.7942

MULLIKEN ATOMIC CHARGES
-----------------------
   0 C :   -0.292375
   1 C :   -0.208009
   2 C :   -0.322572
   3 H :    0.189080
   4 H :    0.164944
   5 S :    0.914302
   6 C :    0.242089
   7 C :   -0.469690
   8 N :   -0.491923
   9 H :    0.276056
  10 H :    0.229114
  11 H :    0.097292
  12 H :    0.099989
  13 O :   -0.402808
  14 F :   -0.092738
  15 O :   -0.471848
  16 H :    0.124305
  17 H :    0.137812
  18 H :    0.135755
  19 H :    0.141222
Sum of atomic charges:    0.0000000

LOEWDIN ATOMIC CHARGES
----------------------
   0 C :   -0.218615
   1 C :   -0.277386
   2 C :   -0.357773
   3 H :    0.153557
   4 H :    0.143333
   5 S :    0.557969
   6 C :   -0.377775
   7 C :   -0.292125
   8 N :    0.011604
   9 H :    0.138275
  10 H :    0.171124
  11 H :    0.102295
  12 H :    0.094420
  13 O :   -0.245557
  14 F :    0.107618
  15 O :   -0.289961
  16 H :    0.138529
  17 H :    0.150244
  18 H :    0.153422
  19 H :    0.136801

  Mayer bond orders larger than 0.100000
B(  0-C ,  1-C ) :   0.9309 B(  0-C ,  6-C ) :   0.8990 B(  0-C , 18-H ) :   0.9825
B(  0-C , 19-H ) :   1.0105 B(  1-C ,  2-C ) :   0.9831 B(  1-C , 16-H ) :   0.9789
B(  1-C , 17-H ) :   0.9478 B(  2-C ,  3-H ) :   0.9299 B(  2-C ,  4-H ) :   0.9506
B(  2-C ,  5-S ) :   0.9299 B(  5-S , 13-O ) :   1.9755 B(  5-S , 14-F ) :   1.1447
B(  5-S , 15-O ) :   1.7350 B(  6-C ,  7-C ) :   1.7199 B(  6-C ,  8-N ) :   1.2229
B(  7-C , 11-H ) :   0.9985 B(  7-C , 12-H ) :   1.0008 B(  8-N ,  9-H ) :   0.8493
B(  8-N , 10-H ) :   0.9234 B(  9-H , 15-O ) :   0.1008

Dispersion correction           -0.008640544
FINAL SINGLE POINT ENERGY      -899.804709680011

DIPOLE MOMENT
-------------
                                X             Y             Z
Electronic contribution:      6.48771     -13.18688       7.40872
Nuclear contribution   :     -6.19944      13.70770      -6.43483
                        -----------------------------------------
Total Dipole Moment    :      0.28827       0.52081       0.97389
                        -----------------------------------------
Magnitude (a.u.)       :      1.14140
Magnitude (Debye)      :      2.90121

Rotational constants in cm-1:     0.079903     0.025241     0.022805
Rotational constants in MHz :  2395.439281   756.708181   683.680583

                             ****ORCA TERMINATED NORMALLY****
TOTAL RUN TIME: 0 days 0 hours 0 minutes 35 seconds 124 msec
