                         Program Version 5.0.0 -  RELEASE  -
|  1> !wB97X-D3 RIJCOSX def2-TZVP def2/J TightSCF xyzfile
|  2>
|  3> *xyzfile 0 1 D6.xyz
|  4>
|  5> %MaxCore 64000
|  6>
|  7> %pal nprocs 18
|  8> end
|  9>
| 10> %scf
| 11>   MaxIter 150
| 12> end
| 13>
| 14>
| 15>                          ****END OF INPUT****

CARTESIAN COORDINATES (ANGSTROEM)
---------------------------------
  C     -0.461293    2.234686   -4.989619
  C      0.848883    2.667967   -4.302351
  C      2.093434    1.861037   -4.656845
  H      2.444814    2.041567   -5.674990
  H      2.901748    2.137864   -3.980338
  S      1.879644    0.078594   -4.462965
  C     -0.423841    2.398772   -6.474317
  N     -0.959467    3.492647   -7.007401
  C      0.145585    1.486891   -7.203987
  H      0.565371    0.696807   -6.723858
  H      0.220682    1.581768   -8.207520
  H     -1.406243    4.181507   -6.403261
  H     -0.934215    3.681601   -7.999468
  O      3.207574   -0.466111   -4.420259
  O      1.075064   -0.056160   -3.268758
  F      1.131661   -0.319960   -5.679031
  H      0.668432    2.559427   -3.232850
  H      1.034074    3.729426   -4.497081
  H     -1.288884    2.826737   -4.594997
  H     -0.651696    1.186343   -4.756552

 Total Charge           Charge          ....    0
 Multiplicity           Mult            ....    1
 Number of Electrons    NEL             ....   88
 Basis Dimension        Dim             ....  376

ORBITAL ENERGIES
----------------

  NO   OCC          E(Eh)            E(eV)
   0   2.0000     -89.192163     -2427.0421
   1   2.0000     -24.887834      -677.2324
   2   2.0000     -19.244850      -523.6790
   3   2.0000     -19.242108      -523.6044
   4   2.0000     -14.428823      -392.6282
   5   2.0000     -10.327629      -281.0291
   6   2.0000     -10.304098      -280.3888
   7   2.0000     -10.302240      -280.3382
   8   2.0000     -10.290167      -280.0097
   9   2.0000     -10.203792      -277.6593
  10   2.0000      -8.255800      -224.6517
  11   2.0000      -6.213348      -169.0738
  12   2.0000      -6.206919      -168.8988
  13   2.0000      -6.206127      -168.8773
  14   2.0000      -1.474468       -40.1223
  15   2.0000      -1.232630       -33.5416
  16   2.0000      -1.140154       -31.0252
  17   2.0000      -1.051466       -28.6119
  18   2.0000      -0.949391       -25.8342
  19   2.0000      -0.886365       -24.1192
  20   2.0000      -0.837923       -22.8010
  21   2.0000      -0.822322       -22.3765
  22   2.0000      -0.748555       -20.3692
  23   2.0000      -0.708088       -19.2680
  24   2.0000      -0.674929       -18.3657
  25   2.0000      -0.662567       -18.0294
  26   2.0000      -0.653788       -17.7905
  27   2.0000      -0.634545       -17.2668
  28   2.0000      -0.602235       -16.3877
  29   2.0000      -0.589437       -16.0394
  30   2.0000      -0.570447       -15.5227
  31   2.0000      -0.557108       -15.1597
  32   2.0000      -0.547965       -14.9109
  33   2.0000      -0.510277       -13.8853
  34   2.0000      -0.500953       -13.6316
  35   2.0000      -0.491810       -13.3828
  36   2.0000      -0.477150       -12.9839
  37   2.0000      -0.469235       -12.7685
  38   2.0000      -0.442666       -12.0456
  39   2.0000      -0.435063       -11.8387
  40   2.0000      -0.431712       -11.7475
  41   2.0000      -0.419399       -11.4124
  42   2.0000      -0.416757       -11.3405
  43   2.0000      -0.289664        -7.8822
  44   0.0000       0.094887         2.5820
  45   0.0000       0.110411         3.0044
  46   0.0000       0.118502         3.2246
  47   0.0000       0.132178         3.5968
  48   0.0000       0.140765         3.8304

MULLIKEN ATOMIC CHARGES
-----------------------
   0 C :   -0.312002
   1 C :   -0.145516
   2 C :   -0.357516
   3 H :    0.181738
   4 H :    0.171769
   5 S :    0.893685
   6 C :    0.268668
   7 N :   -0.511427
   8 C :   -0.482136
   9 H :    0.126656
  10 H :    0.098410
  11 H :    0.238081
  12 H :    0.244594
  13 O :   -0.422436
  14 O :   -0.427923
  15 F :   -0.106775
  16 H :    0.139904
  17 H :    0.120546
  18 H :    0.112158
  19 H :    0.169522
Sum of atomic charges:   -0.0000000

LOEWDIN ATOMIC CHARGES
----------------------
   0 C :   -0.216050
   1 C :   -0.271984
   2 C :   -0.360980
   3 H :    0.142802
   4 H :    0.149776
   5 S :    0.549495
   6 C :   -0.369704
   7 N :   -0.012523
   8 C :   -0.274470
   9 H :    0.089268
  10 H :    0.099055
  11 H :    0.170344
  12 H :    0.171501
  13 O :   -0.258352
  14 O :   -0.266537
  15 F :    0.076162
  16 H :    0.147415
  17 H :    0.143537
  18 H :    0.141339
  19 H :    0.149906

  Mayer bond orders larger than 0.100000
B(  0-C ,  1-C ) :   0.9414 B(  0-C ,  6-C ) :   0.8946 B(  0-C , 18-H ) :   0.9844
B(  0-C , 19-H ) :   1.0105 B(  1-C ,  2-C ) :   0.9718 B(  1-C , 16-H ) :   0.9694
B(  1-C , 17-H ) :   0.9464 B(  2-C ,  3-H ) :   0.9411 B(  2-C ,  4-H ) :   0.9474
B(  2-C ,  5-S ) :   0.9223 B(  5-S , 13-O ) :   1.9588 B(  5-S , 14-O ) :   1.8868
B(  5-S , 15-F ) :   1.0741 B(  6-C ,  7-N ) :   1.1393 B(  6-C ,  8-C ) :   1.7232
B(  7-N , 11-H ) :   0.9204 B(  7-N , 12-H ) :   0.9192 B(  8-C ,  9-H ) :   1.0143
B(  8-C , 10-H ) :   0.9974

Dispersion correction           -0.008588891
FINAL SINGLE POINT ENERGY      -899.800345482638

DIPOLE MOMENT
-------------
                                X             Y             Z
Electronic contribution:      5.53990     -11.96436       3.17200
Nuclear contribution   :     -6.15577      13.80449      -3.81895
                        -----------------------------------------
Total Dipole Moment    :     -0.61587       1.84013      -0.64695
                        -----------------------------------------
Magnitude (a.u.)       :      2.04546
Magnitude (Debye)      :      5.19915

Rotational constants in cm-1:     0.081431     0.024887     0.022470
Rotational constants in MHz :  2441.231544   746.086417   673.646914

                             ****ORCA TERMINATED NORMALLY****
TOTAL RUN TIME: 0 days 0 hours 0 minutes 39 seconds 673 msec
