                         Program Version 5.0.0 -  RELEASE  -
|  1> !wB97X-D3 RIJCOSX def2-SVPD def2/J TightSCF
|  2> *xyz -1 1
|  3> C         -0.47749        0.60819       -4.10105
|  4> C          0.18467       -0.50664       -4.91676
|  5> O         -0.15869       -1.70109       -4.65798
|  6> O          1.05594       -0.17441       -5.74037
|  7> H         -0.09903        1.55672       -4.42038
|  8> H         -0.25931        0.46828       -3.06292
|  9> H         -1.53664        0.57826       -4.25010
| 10> *
| 11>
| 12> %MaxCore 64000
| 13>
| 14> %pal nprocs 18
| 15> end
| 16>
| 17> %scf
| 18>   MaxIter 150
| 19> end
| 20>
| 21>
| 22>                          ****END OF INPUT****

CARTESIAN COORDINATES (ANGSTROEM)
---------------------------------
  C     -0.477490    0.608190   -4.101050
  C      0.184670   -0.506640   -4.916760
  O     -0.158690   -1.701090   -4.657980
  O      1.055940   -0.174410   -5.740370
  H     -0.099030    1.556720   -4.420380
  H     -0.259310    0.468280   -3.062920
  H     -1.536640    0.578260   -4.250100

 Total Charge           Charge          ....   -1
 Multiplicity           Mult            ....    1
 Number of Electrons    NEL             ....   32
 Basis Dimension        Dim             ....  110

ORBITAL ENERGIES
----------------

  NO   OCC          E(Eh)            E(eV)
   0   2.0000     -18.980988      -516.4990
   1   2.0000     -18.975485      -516.3492
   2   2.0000     -10.176308      -276.9114
   3   2.0000     -10.102458      -274.9019
   4   2.0000      -0.924935       -25.1688
   5   2.0000      -0.827244       -22.5105
   6   2.0000      -0.652983       -17.7686
   7   2.0000      -0.405866       -11.0442
   8   2.0000      -0.361276        -9.8308
   9   2.0000      -0.346253        -9.4220
  10   2.0000      -0.326902        -8.8955
  11   2.0000      -0.282981        -7.7003
  12   2.0000      -0.264707        -7.2030
  13   2.0000      -0.140010        -3.8099
  14   2.0000      -0.136193        -3.7060
  15   2.0000      -0.121189        -3.2977
  16   0.0000       0.239349         6.5130
  17   0.0000       0.273893         7.4530
  18   0.0000       0.297646         8.0994
  19   0.0000       0.309578         8.4240
  20   0.0000       0.334783         9.1099

MULLIKEN ATOMIC CHARGES
-----------------------
   0 C :    0.427881
   1 C :    0.042284
   2 O :   -0.694702
   3 O :   -0.627557
   4 H :   -0.063437
   5 H :   -0.042653
   6 H :   -0.041815
Sum of atomic charges:   -1.0000000

LOEWDIN ATOMIC CHARGES
----------------------
   0 C :    0.137350
   1 C :   -0.331922
   2 O :   -0.359164
   3 O :   -0.335902
   4 H :   -0.041652
   5 H :   -0.033469
   6 H :   -0.035241

  Mayer bond orders larger than 0.100000
B(  0-C ,  1-C ) :   1.2043 B(  0-C ,  4-H ) :   0.8781 B(  0-C ,  5-H ) :   0.8332
B(  0-C ,  6-H ) :   0.8254 B(  1-C ,  2-O ) :   1.5061 B(  1-C ,  3-O ) :   1.5480
B(  1-C ,  4-H ) :   0.2318 B(  1-C ,  5-H ) :   0.1504 B(  1-C ,  6-H ) :   0.1574

Dispersion correction           -0.000907159
FINAL SINGLE POINT ENERGY      -228.305297524263

DIPOLE MOMENT
-------------
                                X             Y             Z
Electronic contribution:      1.58069      -2.54594      -1.91505
Nuclear contribution   :     -2.19461       3.67480       2.63888
                        -----------------------------------------
Total Dipole Moment    :     -0.61392       1.12886       0.72383
                        -----------------------------------------
Magnitude (a.u.)       :      1.47484
Magnitude (Debye)      :      3.74874

Rotational constants in cm-1:     0.393152     0.332423     0.186264
Rotational constants in MHz : 11786.395082  9965.786704  5584.045355

                             ****ORCA TERMINATED NORMALLY****
TOTAL RUN TIME: 0 days 0 hours 0 minutes 5 seconds 313 msec
