                         Program Version 5.0.0 -  RELEASE  -
|  1> !wB97X-D3 RIJCOSX def2-SVPD def2/J TightSCF
|  2> *xyz 1 1
|  3> C          2.48645       -2.67712       -2.56345
|  4> C          3.03764       -2.36672       -3.92351
|  5> N          2.28036       -2.45441       -4.96769
|  6> N          4.32174       -2.01793       -4.01664
|  7> H          4.87994       -1.91167       -3.17382
|  8> H          4.71015       -1.67088       -4.88356
|  9> H          1.27042       -2.41265       -4.86614
| 10> H          2.58183       -2.05528       -5.84688
| 11> H          1.45238       -2.93848       -2.64882
| 12> H          2.58636       -1.81799       -1.93352
| 13> H          3.02742       -3.49632       -2.13781
| 14> *
| 15>
| 16> %MaxCore 64000
| 17>
| 18> %pal nprocs 18
| 19> end
| 20>
| 21> %scf
| 22>   MaxIter 150
| 23> end
| 24>
| 25>
| 26>                          ****END OF INPUT****

CARTESIAN COORDINATES (ANGSTROEM)
---------------------------------
  C      2.486450   -2.677120   -2.563450
  C      3.037640   -2.366720   -3.923510
  N      2.280360   -2.454410   -4.967690
  N      4.321740   -2.017930   -4.016640
  H      4.879940   -1.911670   -3.173820
  H      4.710150   -1.670880   -4.883560
  H      1.270420   -2.412650   -4.866140
  H      2.581830   -2.055280   -5.846880
  H      1.452380   -2.938480   -2.648820
  H      2.586360   -1.817990   -1.933520
  H      3.027420   -3.496320   -2.137810

 Total Charge           Charge          ....    1
 Multiplicity           Mult            ....    1
 Number of Electrons    NEL             ....   32
 Basis Dimension        Dim             ....  136

ORBITAL ENERGIES
----------------

  NO   OCC          E(Eh)            E(eV)
   0   2.0000     -14.693952      -399.8428
   1   2.0000     -14.688531      -399.6952
   2   2.0000     -10.629144      -289.2337
   3   2.0000     -10.489513      -285.4342
   4   2.0000      -1.325944       -36.0808
   5   2.0000      -1.225720       -33.3535
   6   2.0000      -1.066982       -29.0341
   7   2.0000      -0.954534       -25.9742
   8   2.0000      -0.887781       -24.1578
   9   2.0000      -0.873034       -23.7565
  10   2.0000      -0.808032       -21.9877
  11   2.0000      -0.767604       -20.8876
  12   2.0000      -0.715337       -19.4653
  13   2.0000      -0.701254       -19.0821
  14   2.0000      -0.678101       -18.4521
  15   2.0000      -0.598229       -16.2786
  16   0.0000      -0.139703        -3.8015
  17   0.0000      -0.085000        -2.3130
  18   0.0000      -0.040116        -1.0916
  19   0.0000      -0.037497        -1.0204
  20   0.0000      -0.016095        -0.4380

MULLIKEN ATOMIC CHARGES
-----------------------
   0 C :    0.456657
   1 C :    0.299399
   2 N :    0.063740
   3 N :    0.029345
   4 H :    0.038365
   5 H :   -0.095116
   6 H :    0.048744
   7 H :   -0.051933
   8 H :    0.075651
   9 H :    0.063408
  10 H :    0.071741
Sum of atomic charges:    1.0000000

LOEWDIN ATOMIC CHARGES
----------------------
   0 C :    0.229927
   1 C :   -0.055690
   2 N :    0.271817
   3 N :    0.270468
   4 H :    0.059200
   5 H :    0.047182
   6 H :    0.063327
   7 H :    0.054632
   8 H :    0.009278
   9 H :    0.024049
  10 H :    0.025809

  Mayer bond orders larger than 0.100000
B(  0-C ,  1-C ) :   1.2937 B(  0-C ,  8-H ) :   0.7983 B(  0-C ,  9-H ) :   0.8104
B(  0-C , 10-H ) :   0.7640 B(  1-C ,  2-N ) :   1.1151 B(  1-C ,  3-N ) :   1.1060
B(  1-C ,  5-H ) :  -0.1338 B(  1-C ,  7-H ) :  -0.1148 B(  1-C ,  8-H ) :   0.2245
B(  1-C ,  9-H ) :   0.1474 B(  1-C , 10-H ) :   0.1723 B(  2-N ,  3-N ) :   0.1382
B(  2-N ,  6-H ) :   1.0505 B(  2-N ,  7-H ) :   1.1832 B(  3-N ,  4-H ) :   1.1084
B(  3-N ,  5-H ) :   1.2322 B(  4-H ,  5-H ) :  -0.1474 B(  6-H ,  7-H ) :  -0.1176
B(  9-H , 10-H ) :   0.1017

Dispersion correction           -0.001683817
FINAL SINGLE POINT ENERGY      -189.537566691870

DIPOLE MOMENT
-------------
                                X             Y             Z
Electronic contribution:      0.78941       0.25257      -1.97144
Nuclear contribution   :     -0.70516       0.22720       1.57908
                        -----------------------------------------
Total Dipole Moment    :      0.08425       0.47977      -0.39236
                        -----------------------------------------
Magnitude (a.u.)       :      0.62548
Magnitude (Debye)      :      1.58985

Rotational constants in cm-1:     0.330529     0.301293     0.162717
Rotational constants in MHz :  9909.000224  9032.538169  4878.126278

                             ****ORCA TERMINATED NORMALLY****
TOTAL RUN TIME: 0 days 0 hours 0 minutes 6 seconds 130 msec
