                         Program Version 5.0.0 -  RELEASE  -
|  1> !wB97X-D3 RIJCOSX def2-SVPD def2/J TightSCF
|  2> *xyz 0 1
|  3> C         -0.47749        0.60819       -4.10105
|  4> C          0.18467       -0.50664       -4.91676
|  5> F         -0.15869       -1.70109       -4.65798
|  6> O          1.05594       -0.17441       -5.74037
|  7> H         -0.09903        1.55672       -4.42038
|  8> H         -0.25931        0.46828       -3.06292
|  9> H         -1.53664        0.57826       -4.25010
| 10> *
| 11>
| 12> %MaxCore 64000
| 13>
| 14> %pal nprocs 18
| 15> end
| 16>
| 17> %scf
| 18>   MaxIter 150
| 19> end
| 20>
| 21>
| 22>                          ****END OF INPUT****

CARTESIAN COORDINATES (ANGSTROEM)
---------------------------------
  C     -0.477490    0.608190   -4.101050
  C      0.184670   -0.506640   -4.916760
  F     -0.158690   -1.701090   -4.657980
  O      1.055940   -0.174410   -5.740370
  H     -0.099030    1.556720   -4.420380
  H     -0.259310    0.468280   -3.062920
  H     -1.536640    0.578260   -4.250100

 Total Charge           Charge          ....    0
 Multiplicity           Mult            ....    1
 Number of Electrons    NEL             ....   32
 Basis Dimension        Dim             ....  110

ORBITAL ENERGIES
----------------

  NO   OCC          E(Eh)            E(eV)
   0   2.0000     -24.873217      -676.8346
   1   2.0000     -19.259750      -524.0844
   2   2.0000     -10.480600      -285.1916
   3   2.0000     -10.319006      -280.7944
   4   2.0000      -1.417958       -38.5846
   5   2.0000      -1.152046       -31.3488
   6   2.0000      -0.884241       -24.0614
   7   2.0000      -0.764947       -20.8153
   8   2.0000      -0.655479       -17.8365
   9   2.0000      -0.651070       -17.7165
  10   2.0000      -0.609771       -16.5927
  11   2.0000      -0.546863       -14.8809
  12   2.0000      -0.535949       -14.5839
  13   2.0000      -0.507854       -13.8194
  14   2.0000      -0.461744       -12.5647
  15   2.0000      -0.398039       -10.8312
  16   0.0000       0.054246         1.4761
  17   0.0000       0.082564         2.2467
  18   0.0000       0.123650         3.3647
  19   0.0000       0.156732         4.2649
  20   0.0000       0.163881         4.4594

MULLIKEN ATOMIC CHARGES
-----------------------
   0 C :    0.292886
   1 C :    0.438911
   2 F :   -0.385075
   3 O :   -0.449091
   4 H :   -0.012304
   5 H :    0.058755
   6 H :    0.055917
Sum of atomic charges:   -0.0000000

LOEWDIN ATOMIC CHARGES
----------------------
   0 C :    0.209372
   1 C :   -0.021147
   2 F :   -0.050895
   3 O :   -0.138626
   4 H :    0.000879
   5 H :    0.001223
   6 H :   -0.000806

  Mayer bond orders larger than 0.100000
B(  0-C ,  1-C ) :   1.2281 B(  0-C ,  4-H ) :   0.9126 B(  0-C ,  5-H ) :   0.8279
B(  0-C ,  6-H ) :   0.8244 B(  1-C ,  2-F ) :   0.7540 B(  1-C ,  3-O ) :   1.8699
B(  1-C ,  4-H ) :   0.1894 B(  1-C ,  5-H ) :   0.1090 B(  1-C ,  6-H ) :   0.1128

Dispersion correction           -0.000898239
FINAL SINGLE POINT ENERGY      -252.841931043670

DIPOLE MOMENT
-------------
                                X             Y             Z
Electronic contribution:      1.07434      -4.66357      -1.60752
Nuclear contribution   :     -1.87439       4.97468       2.43802
                        -----------------------------------------
Total Dipole Moment    :     -0.80005       0.31112       0.83050
                        -----------------------------------------
Magnitude (a.u.)       :      1.19441
Magnitude (Debye)      :      3.03594

Rotational constants in cm-1:     0.370842     0.317886     0.176700
Rotational constants in MHz : 11117.569466  9529.969862  5297.328364

                             ****ORCA TERMINATED NORMALLY****
TOTAL RUN TIME: 0 days 0 hours 0 minutes 4 seconds 954 msec
