                         Program Version 5.0.0 -  RELEASE  -
|  1> !wB97X-D3 RIJCOSX def2-SVPD def2/J TightSCF
|  2> *xyz 0 1
|  3> C          2.48645       -2.67712       -2.56345
|  4> C          3.03764       -2.36672       -3.92351
|  5> C          2.28036       -2.45441       -4.96769
|  6> N          4.32174       -2.01793       -4.01664
|  7> H          4.87994       -1.91167       -3.17382
|  8> H          4.71015       -1.67088       -4.88356
|  9> H          1.27042       -2.41265       -4.86614
| 10> H          2.58183       -2.05528       -5.84688
| 11> H          1.45238       -2.93848       -2.64882
| 12> H          2.58636       -1.81799       -1.93352
| 13> H          3.02742       -3.49632       -2.13781
| 14> *
| 15>
| 16> %MaxCore 64000
| 17>
| 18> %pal nprocs 18
| 19> end
| 20>
| 21> %scf
| 22>   MaxIter 150
| 23> end
| 24>
| 25>
| 26>                          ****END OF INPUT****

CARTESIAN COORDINATES (ANGSTROEM)
---------------------------------
  C      2.486450   -2.677120   -2.563450
  C      3.037640   -2.366720   -3.923510
  C      2.280360   -2.454410   -4.967690
  N      4.321740   -2.017930   -4.016640
  H      4.879940   -1.911670   -3.173820
  H      4.710150   -1.670880   -4.883560
  H      1.270420   -2.412650   -4.866140
  H      2.581830   -2.055280   -5.846880
  H      1.452380   -2.938480   -2.648820
  H      2.586360   -1.817990   -1.933520
  H      3.027420   -3.496320   -2.137810

 Total Charge           Charge          ....    0
 Multiplicity           Mult            ....    1
 Number of Electrons    NEL             ....   32
 Basis Dimension        Dim             ....  136

ORBITAL ENERGIES
----------------

  NO   OCC          E(Eh)            E(eV)
   0   2.0000     -14.438788      -392.8994
   1   2.0000     -10.314675      -280.6766
   2   2.0000     -10.280233      -279.7394
   3   2.0000     -10.219144      -278.0770
   4   2.0000      -1.034558       -28.1518
   5   2.0000      -0.870301       -23.6821
   6   2.0000      -0.801790       -21.8178
   7   2.0000      -0.675874       -18.3915
   8   2.0000      -0.626099       -17.0370
   9   2.0000      -0.578256       -15.7351
  10   2.0000      -0.534934       -14.5563
  11   2.0000      -0.494178       -13.4473
  12   2.0000      -0.492082       -13.3902
  13   2.0000      -0.443166       -12.0592
  14   2.0000      -0.431637       -11.7454
  15   2.0000      -0.286847        -7.8055
  16   0.0000       0.091238         2.4827
  17   0.0000       0.122113         3.3229
  18   0.0000       0.128105         3.4859
  19   0.0000       0.133920         3.6441
  20   0.0000       0.167396         4.5551

MULLIKEN ATOMIC CHARGES
-----------------------
   0 C :    0.703986
   1 C :   -0.459120
   2 C :    0.338533
   3 N :    0.149099
   4 H :   -0.152844
   5 H :   -0.154072
   6 H :   -0.094547
   7 H :   -0.353914
   8 H :    0.053276
   9 H :   -0.031797
  10 H :    0.001400
Sum of atomic charges:    0.0000000

LOEWDIN ATOMIC CHARGES
----------------------
   0 C :    0.160988
   1 C :   -0.288507
   2 C :    0.148939
   3 N :    0.158226
   4 H :    0.002728
   5 H :    0.005283
   6 H :   -0.074936
   7 H :   -0.081345
   8 H :   -0.011555
   9 H :   -0.010407
  10 H :   -0.009414

  Mayer bond orders larger than 0.100000
B(  0-C ,  1-C ) :   1.3262 B(  0-C ,  8-H ) :   0.8037 B(  0-C ,  9-H ) :   0.6516
B(  0-C , 10-H ) :   0.7265 B(  1-C ,  2-C ) :   2.0018 B(  1-C ,  3-N ) :   1.1116
B(  1-C ,  7-H ) :   0.2235 B(  1-C ,  8-H ) :   0.2163 B(  1-C ,  9-H ) :   0.3070
B(  1-C , 10-H ) :   0.2201 B(  2-C ,  3-N ) :   0.2513 B(  2-C ,  6-H ) :   0.8508
B(  2-C ,  7-H ) :   0.7252 B(  3-N ,  4-H ) :   1.1777 B(  3-N ,  5-H ) :   1.1835
B(  4-H ,  5-H ) :  -0.1316 B(  6-H ,  7-H ) :   0.1964

Dispersion correction           -0.001693990
FINAL SINGLE POINT ENERGY      -173.081784371405

DIPOLE MOMENT
-------------
                                X             Y             Z
Electronic contribution:      1.43080       0.18614      -0.90306
Nuclear contribution   :     -0.87498       0.20680       1.33581
                        -----------------------------------------
Total Dipole Moment    :      0.55582       0.39294       0.43275
                        -----------------------------------------
Magnitude (a.u.)       :      0.80661
Magnitude (Debye)      :      2.05023

Rotational constants in cm-1:     0.351941     0.304186     0.168624
Rotational constants in MHz : 10550.928440  9119.266441  5055.221775

                             ****ORCA TERMINATED NORMALLY****
TOTAL RUN TIME: 0 days 0 hours 0 minutes 6 seconds 81 msec
