                         Program Version 5.0.0 -  RELEASE  -
|  1> !wB97X-D3 RIJCOSX def2-SVPD def2/J TightSCF
|  2> *xyz 0 1
|  3> C         -0.47749        0.60819       -4.10105
|  4> C          0.18467       -0.50664       -4.91676
|  5> O         -0.15869       -1.70109       -4.65798
|  6> F          1.05594       -0.17441       -5.74037
|  7> H         -0.09903        1.55672       -4.42038
|  8> H         -0.25931        0.46828       -3.06292
|  9> H         -1.53664        0.57826       -4.25010
| 10> *
| 11>
| 12> %MaxCore 64000
| 13>
| 14> %pal nprocs 18
| 15> end
| 16>
| 17> %scf
| 18>   MaxIter 150
| 19> end
| 20>
| 21>
| 22>                          ****END OF INPUT****

CARTESIAN COORDINATES (ANGSTROEM)
---------------------------------
  C     -0.477490    0.608190   -4.101050
  C      0.184670   -0.506640   -4.916760
  O     -0.158690   -1.701090   -4.657980
  F      1.055940   -0.174410   -5.740370
  H     -0.099030    1.556720   -4.420380
  H     -0.259310    0.468280   -3.062920
  H     -1.536640    0.578260   -4.250100

 Total Charge           Charge          ....    0
 Multiplicity           Mult            ....    1
 Number of Electrons    NEL             ....   32
 Basis Dimension        Dim             ....  110

ORBITAL ENERGIES
----------------

  NO   OCC          E(Eh)            E(eV)
   0   2.0000     -24.882380      -677.0840
   1   2.0000     -19.255641      -523.9726
   2   2.0000     -10.482876      -285.2536
   3   2.0000     -10.319418      -280.8056
   4   2.0000      -1.437181       -39.1077
   5   2.0000      -1.135885       -30.9090
   6   2.0000      -0.885451       -24.0943
   7   2.0000      -0.775372       -21.0989
   8   2.0000      -0.665868       -18.1192
   9   2.0000      -0.660347       -17.9689
  10   2.0000      -0.609595       -16.5879
  11   2.0000      -0.548242       -14.9184
  12   2.0000      -0.534707       -14.5501
  13   2.0000      -0.503959       -13.7134
  14   2.0000      -0.449946       -12.2437
  15   2.0000      -0.394529       -10.7357
  16   0.0000       0.048490         1.3195
  17   0.0000       0.082161         2.2357
  18   0.0000       0.123304         3.3553
  19   0.0000       0.159531         4.3410
  20   0.0000       0.161534         4.3956

MULLIKEN ATOMIC CHARGES
-----------------------
   0 C :    0.278012
   1 C :    0.433216
   2 O :   -0.501393
   3 F :   -0.335303
   4 H :    0.008633
   5 H :    0.060367
   6 H :    0.056468
Sum of atomic charges:    0.0000000

LOEWDIN ATOMIC CHARGES
----------------------
   0 C :    0.209386
   1 C :   -0.021015
   2 O :   -0.155591
   3 F :   -0.034070
   4 H :   -0.011387
   5 H :    0.006834
   6 H :    0.005844

  Mayer bond orders larger than 0.100000
B(  0-C ,  1-C ) :   1.2498 B(  0-C ,  4-H ) :   0.8982 B(  0-C ,  5-H ) :   0.8317
B(  0-C ,  6-H ) :   0.8256 B(  1-C ,  2-O ) :   1.8138 B(  1-C ,  3-F ) :   0.8224
B(  1-C ,  4-H ) :   0.1350 B(  1-C ,  5-H ) :   0.1229 B(  1-C ,  6-H ) :   0.1320

Dispersion correction           -0.000911729
FINAL SINGLE POINT ENERGY      -252.834325274544

DIPOLE MOMENT
-------------
                                X             Y             Z
Electronic contribution:      3.06652      -2.16251      -3.38310
Nuclear contribution   :     -3.12947       3.39716       3.55645
                        -----------------------------------------
Total Dipole Moment    :     -0.06294       1.23465       0.17335
                        -----------------------------------------
Magnitude (a.u.)       :      1.24835
Magnitude (Debye)      :      3.17306

Rotational constants in cm-1:     0.366922     0.321471     0.176896
Rotational constants in MHz : 11000.056350  9637.461211  5303.212706

                             ****ORCA TERMINATED NORMALLY****
TOTAL RUN TIME: 0 days 0 hours 0 minutes 4 seconds 905 msec
