                         Program Version 5.0.0 -  RELEASE  -
|  1> !wB97X-D3 RIJCOSX def2-SVPD def2/J TightSCF
|  2> *xyz 0 1
|  3> C          2.48645       -2.67712       -2.56345
|  4> C          3.03764       -2.36672       -3.92351
|  5> N          2.28036       -2.45441       -4.96769
|  6> C          4.32174       -2.01793       -4.01664
|  7> H          4.87994       -1.91167       -3.17382
|  8> H          4.71015       -1.67088       -4.88356
|  9> H          1.27042       -2.41265       -4.86614
| 10> H          2.58183       -2.05528       -5.84688
| 11> H          1.45238       -2.93848       -2.64882
| 12> H          2.58636       -1.81799       -1.93352
| 13> H          3.02742       -3.49632       -2.13781
| 14> *
| 15>
| 16> %MaxCore 64000
| 17>
| 18> %pal nprocs 18
| 19> end
| 20>
| 21> %scf
| 22>   MaxIter 150
| 23> end
| 24>
| 25>
| 26>                          ****END OF INPUT****

CARTESIAN COORDINATES (ANGSTROEM)
---------------------------------
  C      2.486450   -2.677120   -2.563450
  C      3.037640   -2.366720   -3.923510
  N      2.280360   -2.454410   -4.967690
  C      4.321740   -2.017930   -4.016640
  H      4.879940   -1.911670   -3.173820
  H      4.710150   -1.670880   -4.883560
  H      1.270420   -2.412650   -4.866140
  H      2.581830   -2.055280   -5.846880
  H      1.452380   -2.938480   -2.648820
  H      2.586360   -1.817990   -1.933520
  H      3.027420   -3.496320   -2.137810

 Total Charge           Charge          ....    0
 Multiplicity           Mult            ....    1
 Number of Electrons    NEL             ....   32
 Basis Dimension        Dim             ....  136

ORBITAL ENERGIES
----------------

  NO   OCC          E(Eh)            E(eV)
   0   2.0000     -14.442434      -392.9986
   1   2.0000     -10.314459      -280.6707
   2   2.0000     -10.280494      -279.7465
   3   2.0000     -10.218877      -278.0698
   4   2.0000      -1.050282       -28.5796
   5   2.0000      -0.866952       -23.5910
   6   2.0000      -0.794385       -21.6163
   7   2.0000      -0.685035       -18.6408
   8   2.0000      -0.626517       -17.0484
   9   2.0000      -0.575485       -15.6597
  10   2.0000      -0.533767       -14.5245
  11   2.0000      -0.494257       -13.4494
  12   2.0000      -0.488083       -13.2814
  13   2.0000      -0.448289       -12.1986
  14   2.0000      -0.440911       -11.9978
  15   2.0000      -0.276276        -7.5179
  16   0.0000       0.090891         2.4733
  17   0.0000       0.118893         3.2352
  18   0.0000       0.127438         3.4678
  19   0.0000       0.131432         3.5765
  20   0.0000       0.161780         4.4023

MULLIKEN ATOMIC CHARGES
-----------------------
   0 C :    0.713525
   1 C :   -0.430889
   2 N :    0.132986
   3 C :    0.368369
   4 H :   -0.201986
   5 H :   -0.392284
   6 H :   -0.065643
   7 H :   -0.090682
   8 H :   -0.085426
   9 H :    0.024249
  10 H :    0.027781
Sum of atomic charges:    0.0000000

LOEWDIN ATOMIC CHARGES
----------------------
   0 C :    0.162681
   1 C :   -0.291230
   2 N :    0.152925
   3 C :    0.159231
   4 H :   -0.078944
   5 H :   -0.090645
   6 H :    0.006653
   7 H :    0.012987
   8 H :   -0.024907
   9 H :   -0.004876
  10 H :   -0.003876

  Mayer bond orders larger than 0.100000
B(  0-C ,  1-C ) :   1.1249 B(  0-C ,  8-H ) :   0.7365 B(  0-C ,  9-H ) :   0.7752
B(  0-C , 10-H ) :   0.7375 B(  1-C ,  2-N ) :   1.0627 B(  1-C ,  3-C ) :   1.8411
B(  1-C ,  4-H ) :   0.1139 B(  1-C ,  5-H ) :   0.1291 B(  1-C ,  8-H ) :   0.2857
B(  1-C ,  9-H ) :   0.1688 B(  1-C , 10-H ) :   0.1916 B(  2-N ,  3-C ) :   0.2208
B(  2-N ,  6-H ) :   1.0404 B(  2-N ,  7-H ) :   1.1238 B(  3-C ,  4-H ) :   0.8527
B(  3-C ,  5-H ) :   0.8676 B(  6-H ,  7-H ) :  -0.1042

Dispersion correction           -0.001681278
FINAL SINGLE POINT ENERGY      -173.081998007187

DIPOLE MOMENT
-------------
                                X             Y             Z
Electronic contribution:     -0.38304      -0.12739      -1.72844
Nuclear contribution   :     -0.41717       0.30469       1.54910
                        -----------------------------------------
Total Dipole Moment    :     -0.80021       0.17730      -0.17934
                        -----------------------------------------
Magnitude (a.u.)       :      0.83901
Magnitude (Debye)      :      2.13259

Rotational constants in cm-1:     0.351587     0.304754     0.168726
Rotational constants in MHz : 10540.302868  9136.286689  5058.281984

                             ****ORCA TERMINATED NORMALLY****
TOTAL RUN TIME: 0 days 0 hours 0 minutes 6 seconds 311 msec
