                         Program Version 5.0.0 -  RELEASE  -
|  1> !wB97X-D3 RIJCOSX def2-SVPD def2/J TightSCF xyzfile
|  2>
|  3> *xyzfile 0 1 D3.xyz
|  4>
|  5> %MaxCore 64000
|  6>
|  7> %pal nprocs 18
|  8> end
|  9>
| 10> %scf
| 11>   MaxIter 150
| 12> end
| 13>
| 14>
| 15>                          ****END OF INPUT****

CARTESIAN COORDINATES (ANGSTROEM)
---------------------------------
  C      2.486452   -2.677121   -2.563447
  C     -0.870963    0.248043   -2.662804
  C     -0.477492    0.608191   -4.101052
  H      0.206773    1.458299   -4.118748
  H     -1.368442    0.929419   -4.647855
  C      0.184673   -0.506640   -4.916760
  C      3.037640   -2.366715   -3.923509
  C      2.280360   -2.454408   -4.967692
  N      4.321736   -2.017932   -4.016641
  H      4.879940   -1.911668   -3.173823
  H      4.710148   -1.670882   -4.883561
  H      1.270423   -2.412650   -4.866143
  H      2.581829   -2.055282   -5.846878
  O     -0.158685   -1.701088   -4.657981
  F      1.055938   -0.174410   -5.740373
  C      2.497991   -1.469464   -1.610303
  C      1.582841   -0.321986   -2.042619
  H      2.193083   -1.833912   -0.625420
  H      3.523356   -1.103982   -1.490392
  C      0.100160   -0.673551   -1.915815
  H      1.822311   -0.040361   -3.072834
  H      1.813180    0.557019   -1.433266
  H     -0.063284   -1.679120   -2.301112
  H     -0.168820   -0.691680   -0.853831
  H     -1.001048    1.181040   -2.104071
  H     -1.844645   -0.246592   -2.663281
  H      1.472592   -3.051527   -2.694366
  H      3.083201   -3.490638   -2.141472

 Total Charge           Charge          ....    0
 Multiplicity           Mult            ....    1
 Number of Electrons    NEL             ....   94
 Basis Dimension        Dim             ....  374

ORBITAL ENERGIES
----------------

  NO   OCC          E(Eh)            E(eV)
   0   2.0000     -24.880022      -677.0198
   1   2.0000     -19.252010      -523.8738
   2   2.0000     -14.425543      -392.5390
   3   2.0000     -10.479333      -285.1572
   4   2.0000     -10.322923      -280.9010
   5   2.0000     -10.301896      -280.3288
   6   2.0000     -10.293778      -280.1079
   7   2.0000     -10.286949      -279.9221
   8   2.0000     -10.286709      -279.9156
   9   2.0000     -10.283707      -279.8339
  10   2.0000     -10.278048      -279.6799
  11   2.0000     -10.189979      -277.2834
  12   2.0000      -1.434195       -39.0264
  13   2.0000      -1.142656       -31.0933
  14   2.0000      -1.021765       -27.8036
  15   2.0000      -0.934686       -25.4341
  16   2.0000      -0.901458       -24.5299
  17   2.0000      -0.851916       -23.1818
  18   2.0000      -0.828541       -22.5457
  19   2.0000      -0.788301       -21.4508
  20   2.0000      -0.762397       -20.7459
  21   2.0000      -0.721240       -19.6259
  22   2.0000      -0.682551       -18.5732
  23   2.0000      -0.671573       -18.2744
  24   2.0000      -0.657165       -17.8824
  25   2.0000      -0.636561       -17.3217
  26   2.0000      -0.623739       -16.9728
  27   2.0000      -0.610391       -16.6096
  28   2.0000      -0.581658       -15.8277
  29   2.0000      -0.573160       -15.5965
  30   2.0000      -0.555631       -15.1195
  31   2.0000      -0.540823       -14.7165
  32   2.0000      -0.534185       -14.5359
  33   2.0000      -0.503051       -13.6887
  34   2.0000      -0.497144       -13.5280
  35   2.0000      -0.494334       -13.4515
  36   2.0000      -0.475516       -12.9394
  37   2.0000      -0.463411       -12.6100
  38   2.0000      -0.453553       -12.3418
  39   2.0000      -0.451333       -12.2814
  40   2.0000      -0.431039       -11.7292
  41   2.0000      -0.424186       -11.5427
  42   2.0000      -0.410509       -11.1705
  43   2.0000      -0.405233       -11.0270
  44   2.0000      -0.403449       -10.9784
  45   2.0000      -0.363162        -9.8822
  46   2.0000      -0.269580        -7.3356
  47   0.0000       0.047122         1.2823
  48   0.0000       0.084372         2.2959
  49   0.0000       0.096706         2.6315
  50   0.0000       0.103695         2.8217
  51   0.0000       0.111482         3.0336

MULLIKEN ATOMIC CHARGES
-----------------------
   0 C :    0.208540
   1 C :    0.457100
   2 C :    0.152523
   3 H :    0.221927
   4 H :   -0.207654
   5 C :    0.564732
   6 C :   -0.212839
   7 C :    1.025838
   8 N :    0.153352
   9 H :   -0.083254
  10 H :   -0.163748
  11 H :   -0.416804
  12 H :   -0.397251
  13 O :   -0.707594
  14 F :   -0.401281
  15 C :    0.283371
  16 C :    0.118730
  17 H :   -0.075122
  18 H :   -0.082089
  19 C :   -0.019720
  20 H :   -0.092610
  21 H :   -0.164414
  22 H :    0.006346
  23 H :   -0.175509
  24 H :   -0.083234
  25 H :    0.079390
  26 H :    0.151725
  27 H :   -0.140449
Sum of atomic charges:    0.0000000

LOEWDIN ATOMIC CHARGES
----------------------
   0 C :    0.025565
   1 C :   -0.008121
   2 C :    0.050612
   3 H :    0.028792
   4 H :    0.040524
   5 C :    0.032593
   6 C :   -0.241961
   7 C :    0.173007
   8 N :    0.166981
   9 H :   -0.007232
  10 H :    0.003652
  11 H :   -0.166545
  12 H :   -0.069030
  13 O :   -0.139235
  14 F :   -0.014530
  15 C :   -0.020162
  16 C :   -0.016402
  17 H :    0.022983
  18 H :    0.010186
  19 C :   -0.024191
  20 H :    0.005651
  21 H :    0.025360
  22 H :   -0.005341
  23 H :    0.028682
  24 H :    0.026068
  25 H :    0.029000
  26 H :    0.016210
  27 H :    0.026883

  Mayer bond orders larger than 0.100000
B(  0-C ,  6-C ) :   1.1958 B(  0-C ,  7-C ) :   0.1328 B(  0-C ,  8-N ) :   0.1192
B(  0-C , 15-C ) :   1.1282 B(  0-C , 17-H ) :   0.1802 B(  0-C , 18-H ) :   0.2097
B(  0-C , 26-H ) :   0.7529 B(  0-C , 27-H ) :   0.8462 B(  1-C ,  2-C ) :   1.2049
B(  1-C ,  4-H ) :   0.1356 B(  1-C , 19-C ) :   1.2970 B(  1-C , 24-H ) :   0.7811
B(  1-C , 25-H ) :   0.6824 B(  2-C ,  3-H ) :   0.7915 B(  2-C ,  4-H ) :   0.7472
B(  2-C ,  5-C ) :   1.2185 B(  2-C , 24-H ) :   0.1345 B(  3-H ,  5-C ) :   0.1438
B(  4-H ,  5-C ) :   0.2842 B(  5-C , 13-O ) :   1.6737 B(  5-C , 14-F ) :   0.6401
B(  6-C ,  7-C ) :   2.0496 B(  6-C ,  8-N ) :   1.0568 B(  6-C , 11-H ) :   0.2220
B(  6-C , 12-H ) :   0.4562 B(  6-C , 15-C ) :   0.1083 B(  6-C , 26-H ) :   0.1402
B(  6-C , 27-H ) :   0.2193 B(  7-C ,  8-N ) :   0.3867 B(  7-C , 11-H ) :   0.3972
B(  7-C , 12-H ) :   0.1692 B(  7-C , 26-H ) :  -0.1208 B(  8-N ,  9-H ) :   1.1340
B(  8-N , 10-H ) :   1.1787 B(  9-H , 10-H ) :  -0.1562 B( 11-H , 12-H ) :   0.2497
B( 11-H , 13-O ) :   0.1738 B( 15-C , 16-C ) :   1.1992 B( 15-C , 17-H ) :   0.8629
B( 15-C , 18-H ) :   0.7085 B( 15-C , 20-H ) :   0.1544 B( 15-C , 26-H ) :   0.1540
B( 16-C , 18-H ) :   0.2092 B( 16-C , 19-C ) :   1.1743 B( 16-C , 20-H ) :   0.8608
B( 16-C , 21-H ) :   0.8781 B( 16-C , 23-H ) :   0.2207 B( 19-C , 20-H ) :   0.1090
B( 19-C , 21-H ) :   0.1133 B( 19-C , 22-H ) :   0.8779 B( 19-C , 23-H ) :   0.8412
B( 19-C , 24-H ) :   0.1958 B( 19-C , 25-H ) :   0.2173 B( 22-H , 26-H ) :   0.1145

Dispersion correction           -0.013534807
FINAL SINGLE POINT ENERGY      -581.810028093356

DIPOLE MOMENT
-------------
                                X             Y             Z
Electronic contribution:     -1.75974       0.93580     -12.09686
Nuclear contribution   :      1.88979       0.56282      12.66056
                        -----------------------------------------
Total Dipole Moment    :      0.13005       1.49862       0.56370
                        -----------------------------------------
Magnitude (a.u.)       :      1.60640
Magnitude (Debye)      :      4.08315

Rotational constants in cm-1:     0.040271     0.025954     0.018866
Rotational constants in MHz :  1207.302496   778.083475   565.600538

                             ****ORCA TERMINATED NORMALLY****
TOTAL RUN TIME: 0 days 0 hours 0 minutes 54 seconds 10 msec
