                         Program Version 5.0.0 -  RELEASE  -
|  1> !wB97X-D3 RIJCOSX def2-SVPD def2/J TightSCF xyzfile
|  2>
|  3> *xyzfile 0 1 D4.xyz
|  4>
|  5> %MaxCore 64000
|  6>
|  7> %pal nprocs 18
|  8> end
|  9>
| 10> %scf
| 11>   MaxIter 150
| 12> end
| 13>
| 14>
| 15>                          ****END OF INPUT****

CARTESIAN COORDINATES (ANGSTROEM)
---------------------------------
  C      2.486452   -2.677121   -2.563447
  C     -0.870963    0.248043   -2.662804
  C     -0.477492    0.608191   -4.101052
  H      0.206773    1.458299   -4.118748
  H     -1.368442    0.929419   -4.647855
  C      0.184673   -0.506640   -4.916760
  C      3.037640   -2.366715   -3.923509
  N      2.280360   -2.454408   -4.967692
  C      4.321736   -2.017932   -4.016641
  H      4.879940   -1.911668   -3.173823
  H      4.710148   -1.670882   -4.883561
  H      1.270423   -2.412650   -4.866143
  H      2.581829   -2.055282   -5.846878
  O     -0.158685   -1.701088   -4.657981
  F      1.055938   -0.174410   -5.740373
  C      2.497991   -1.469464   -1.610303
  C      1.582841   -0.321986   -2.042619
  H      2.193083   -1.833912   -0.625420
  H      3.523356   -1.103982   -1.490392
  C      0.100160   -0.673551   -1.915815
  H      1.822311   -0.040361   -3.072834
  H      1.813180    0.557019   -1.433266
  H     -0.063284   -1.679120   -2.301112
  H     -0.168820   -0.691680   -0.853831
  H     -1.001048    1.181040   -2.104071
  H     -1.844645   -0.246592   -2.663281
  H      1.472592   -3.051527   -2.694366
  H      3.083201   -3.490638   -2.141472

 Total Charge           Charge          ....    0
 Multiplicity           Mult            ....    1
 Number of Electrons    NEL             ....   94
 Basis Dimension        Dim             ....  374

ORBITAL ENERGIES
----------------

  NO   OCC          E(Eh)            E(eV)
   0   2.0000     -24.902027      -677.6186
   1   2.0000     -19.278693      -524.5999
   2   2.0000     -14.405552      -391.9950
   3   2.0000     -10.502913      -285.7988
   4   2.0000     -10.335925      -281.2548
   5   2.0000     -10.310312      -280.5578
   6   2.0000     -10.297266      -280.2029
   7   2.0000     -10.289420      -279.9894
   8   2.0000     -10.289272      -279.9853
   9   2.0000     -10.284010      -279.8421
  10   2.0000     -10.278243      -279.6852
  11   2.0000     -10.204351      -277.6745
  12   2.0000      -1.456136       -39.6235
  13   2.0000      -1.168700       -31.8019
  14   2.0000      -1.027402       -27.9570
  15   2.0000      -0.943864       -25.6839
  16   2.0000      -0.904404       -24.6101
  17   2.0000      -0.862597       -23.4725
  18   2.0000      -0.820211       -22.3191
  19   2.0000      -0.793761       -21.5993
  20   2.0000      -0.773448       -21.0466
  21   2.0000      -0.730393       -19.8750
  22   2.0000      -0.692882       -18.8543
  23   2.0000      -0.686935       -18.6924
  24   2.0000      -0.664681       -18.0869
  25   2.0000      -0.654945       -17.8220
  26   2.0000      -0.632104       -17.2004
  27   2.0000      -0.601227       -16.3602
  28   2.0000      -0.586401       -15.9568
  29   2.0000      -0.580708       -15.8019
  30   2.0000      -0.573546       -15.6070
  31   2.0000      -0.546871       -14.8811
  32   2.0000      -0.526408       -14.3243
  33   2.0000      -0.513328       -13.9684
  34   2.0000      -0.506024       -13.7696
  35   2.0000      -0.493268       -13.4225
  36   2.0000      -0.478931       -13.0324
  37   2.0000      -0.471238       -12.8230
  38   2.0000      -0.458106       -12.4657
  39   2.0000      -0.455957       -12.4072
  40   2.0000      -0.435978       -11.8636
  41   2.0000      -0.431431       -11.7398
  42   2.0000      -0.417479       -11.3602
  43   2.0000      -0.415827       -11.3152
  44   2.0000      -0.408553       -11.1173
  45   2.0000      -0.393983       -10.7208
  46   2.0000      -0.258291        -7.0285
  47   0.0000       0.026184         0.7125
  48   0.0000       0.076849         2.0912
  49   0.0000       0.098061         2.6684
  50   0.0000       0.104517         2.8441
  51   0.0000       0.106687         2.9031

MULLIKEN ATOMIC CHARGES
-----------------------
   0 C :    0.509079
   1 C :    0.451113
   2 C :    0.097684
   3 H :    0.259075
   4 H :   -0.188623
   5 C :    0.680808
   6 C :   -0.167289
   7 N :    0.303029
   8 C :    0.385449
   9 H :   -0.138950
  10 H :   -0.380829
  11 H :   -0.354311
  12 H :   -0.006363
  13 O :   -0.678315
  14 F :   -0.374309
  15 C :    0.198507
  16 C :    0.074184
  17 H :   -0.060285
  18 H :   -0.050165
  19 C :    0.008058
  20 H :   -0.099152
  21 H :   -0.197053
  22 H :    0.028855
  23 H :   -0.188225
  24 H :   -0.078592
  25 H :    0.076897
  26 H :   -0.078366
  27 H :   -0.031913
Sum of atomic charges:    0.0000000

LOEWDIN ATOMIC CHARGES
----------------------
   0 C :    0.025785
   1 C :   -0.006829
   2 C :    0.053572
   3 H :    0.032582
   4 H :    0.043185
   5 C :    0.037097
   6 C :   -0.243616
   7 N :    0.186663
   8 C :    0.164911
   9 H :   -0.088912
  10 H :   -0.092523
  11 H :   -0.115962
  12 H :    0.013722
  13 O :   -0.130155
  14 F :   -0.012176
  15 C :   -0.014417
  16 C :   -0.016197
  17 H :    0.023497
  18 H :    0.017068
  19 C :   -0.025760
  20 H :    0.004083
  21 H :    0.026931
  22 H :   -0.007874
  23 H :    0.030024
  24 H :    0.028188
  25 H :    0.029463
  26 H :    0.005649
  27 H :    0.031997

  Mayer bond orders larger than 0.100000
B(  0-C ,  6-C ) :   1.0023 B(  0-C ,  7-N ) :   0.1154 B(  0-C , 10-H ) :   0.1029
B(  0-C , 15-C ) :   1.1644 B(  0-C , 17-H ) :   0.1355 B(  0-C , 18-H ) :   0.1627
B(  0-C , 26-H ) :   0.6381 B(  0-C , 27-H ) :   0.7549 B(  1-C ,  2-C ) :   1.2112
B(  1-C ,  4-H ) :   0.1458 B(  1-C , 19-C ) :   1.2894 B(  1-C , 24-H ) :   0.7828
B(  1-C , 25-H ) :   0.6888 B(  2-C ,  3-H ) :   0.7707 B(  2-C ,  4-H ) :   0.7709
B(  2-C ,  5-C ) :   1.2438 B(  2-C , 24-H ) :   0.1373 B(  3-H ,  5-C ) :   0.1478
B(  4-H ,  5-C ) :   0.2643 B(  5-C , 13-O ) :   1.5948 B(  5-C , 14-F ) :   0.6461
B(  6-C ,  7-N ) :   1.0586 B(  6-C ,  8-C ) :   1.8488 B(  6-C ,  9-H ) :   0.1559
B(  6-C , 10-H ) :   0.1897 B(  6-C , 26-H ) :   0.2227 B(  6-C , 27-H ) :   0.1475
B(  7-N ,  8-C ) :   0.2651 B(  7-N , 11-H ) :   0.8739 B(  7-N , 12-H ) :   0.9730
B(  8-C ,  9-H ) :   0.8166 B(  8-C , 10-H ) :   0.7071 B( 11-H , 12-H ) :  -0.1352
B( 11-H , 13-O ) :   0.1925 B( 15-C , 16-C ) :   1.2257 B( 15-C , 17-H ) :   0.8601
B( 15-C , 18-H ) :   0.7502 B( 15-C , 20-H ) :   0.1618 B( 15-C , 26-H ) :   0.1925
B( 15-C , 27-H ) :   0.1375 B( 16-C , 17-H ) :   0.1383 B( 16-C , 18-H ) :   0.2095
B( 16-C , 19-C ) :   1.1637 B( 16-C , 20-H ) :   0.8529 B( 16-C , 21-H ) :   0.9260
B( 16-C , 23-H ) :   0.2193 B( 17-H , 18-H ) :  -0.1119 B( 19-C , 20-H ) :   0.1059
B( 19-C , 21-H ) :   0.1104 B( 19-C , 22-H ) :   0.8836 B( 19-C , 23-H ) :   0.8523
B( 19-C , 24-H ) :   0.1916 B( 19-C , 25-H ) :   0.2152 B( 22-H , 26-H ) :   0.1076

Dispersion correction           -0.013600414
FINAL SINGLE POINT ENERGY      -581.829246200031

DIPOLE MOMENT
-------------
                                X             Y             Z
Electronic contribution:     -3.44352       0.82177     -12.73197
Nuclear contribution   :      2.21030       0.63135      12.80988
                        -----------------------------------------
Total Dipole Moment    :     -1.23322       1.45312       0.07791
                        -----------------------------------------
Magnitude (a.u.)       :      1.90748
Magnitude (Debye)      :      4.84842

Rotational constants in cm-1:     0.039980     0.026547     0.019089
Rotational constants in MHz :  1198.568620   795.867393   572.288555

                             ****ORCA TERMINATED NORMALLY****
TOTAL RUN TIME: 0 days 0 hours 0 minutes 50 seconds 714 msec
