                         Program Version 5.0.0 -  RELEASE  -
|  1> !BLYP D3BJ RIJCOSX def2-TZVP def2/J TightSCF
|  2> *xyz -1 1
|  3> C          1.44442        5.26658       -0.97546
|  4> O          1.56525        4.23349       -1.86489
|  5> C          0.14812        5.21087       -0.13809
|  6> H          1.47425        6.26464       -1.47692
|  7> H          2.28962        5.30327       -0.26445
|  8> H         -0.69779        5.17417       -0.79230
|  9> H          0.08430        6.08276        0.47887
| 10> H          0.15965        4.33708        0.47938
| 11> *
| 12> %MaxCore 64000
| 13>
| 14> %pal nprocs 4
| 15> end
| 16>
| 17> %scf
| 18>   MaxIter 150
| 19> end
| 20>
| 21>
| 22>                          ****END OF INPUT****

CARTESIAN COORDINATES (ANGSTROEM)
---------------------------------
  C      1.444420    5.266580   -0.975460
  O      1.565250    4.233490   -1.864890
  C      0.148120    5.210870   -0.138090
  H      1.474250    6.264640   -1.476920
  H      2.289620    5.303270   -0.264450
  H     -0.697790    5.174170   -0.792300
  H      0.084300    6.082760    0.478870
  H      0.159650    4.337080    0.479380

 Total Charge           Charge          ....   -1
 Multiplicity           Mult            ....    1
 Number of Electrons    NEL             ....   26
 Basis Dimension        Dim             ....  123

ORBITAL ENERGIES
----------------

  NO   OCC          E(Eh)            E(eV)
   0   2.0000     -18.427107      -501.4271
   1   2.0000      -9.708911      -264.1929
   2   2.0000      -9.688053      -263.6253
   3   2.0000      -0.579613       -15.7721
   4   2.0000      -0.442808       -12.0494
   5   2.0000      -0.300372        -8.1735
   6   2.0000      -0.190300        -5.1783
   7   2.0000      -0.170457        -4.6384
   8   2.0000      -0.118332        -3.2200
   9   2.0000      -0.102678        -2.7940
  10   2.0000      -0.054913        -1.4943
  11   2.0000       0.084384         2.2962
  12   2.0000       0.088620         2.4115
  13   0.0000       0.197536         5.3752
  14   0.0000       0.231625         6.3028
  15   0.0000       0.255057         6.9405
  16   0.0000       0.260687         7.0937
  17   0.0000       0.291847         7.9416

MULLIKEN ATOMIC CHARGES
-----------------------
   0 C :    0.047043
   1 O :   -0.720962
   2 C :   -0.027629
   3 H :   -0.096571
   4 H :   -0.091099
   5 H :   -0.014789
   6 H :   -0.083941
   7 H :   -0.012051
Sum of atomic charges:   -1.0000000

LOEWDIN ATOMIC CHARGES
----------------------
   0 C :   -0.551078
   1 O :   -0.391641
   2 C :   -0.359338
   3 H :    0.041703
   4 H :    0.044541
   5 H :    0.077340
   6 H :    0.060814
   7 H :    0.077658

  Mayer bond orders larger than 0.100000
B(  0-C ,  1-O ) :   1.6898 B(  0-C ,  2-C ) :   0.8359 B(  0-C ,  3-H ) :   0.8977
B(  0-C ,  4-H ) :   0.8985 B(  1-O ,  2-C ) :  -0.3795 B(  1-O ,  5-H ) :   0.1067
B(  1-O ,  6-H ) :   0.1550 B(  2-C ,  5-H ) :   0.9477 B(  2-C ,  6-H ) :   0.8842
B(  2-C ,  7-H ) :   0.9532

Dispersion correction           -0.007729509
FINAL SINGLE POINT ENERGY      -154.429902504467

DIPOLE MOMENT
-------------
                                X             Y             Z
Electronic contribution:      1.27673      -1.90030      -2.32473
Nuclear contribution   :     -1.83256       2.47114       3.17273
                        -----------------------------------------
Total Dipole Moment    :     -0.55582       0.57085       0.84801
                        -----------------------------------------
Magnitude (a.u.)       :      1.16358
Magnitude (Debye)      :      2.95759

Rotational constants in cm-1:     1.286062     0.322579     0.284728
Rotational constants in MHz : 38555.180127  9670.683110  8535.939140

                             ****ORCA TERMINATED NORMALLY****
TOTAL RUN TIME: 0 days 0 hours 0 minutes 6 seconds 821 msec
