                         Program Version 5.0.0 -  RELEASE  -
|  1> !BLYP D3BJ RIJCOSX def2-TZVP def2/J TightSCF
|  2> *xyz 1 1
|  3> C         -0.70169        4.07250       -4.00392
|  4> N          0.68053        4.61482       -4.04800
|  5> H          0.69993        5.58489       -4.38827
|  6> H          1.27804        4.05598       -4.66824
|  7> H          1.08573        4.53358       -3.10652
|  8> C         -1.70347        5.09320       -3.47740
|  9> H         -0.99590        3.74039       -5.00065
| 10> H         -0.64358        3.20191       -3.35153
| 11> H         -1.73704        5.93384       -4.13853
| 12> H         -1.40338        5.41759       -2.50291
| 13> H         -2.67335        4.64479       -3.42108
| 14> *
| 15> %MaxCore 64000
| 16>
| 17> %pal nprocs 4
| 18> end
| 19>
| 20> %scf
| 21>   MaxIter 150
| 22> end
| 23>
| 24>
| 25>                          ****END OF INPUT****

CARTESIAN COORDINATES (ANGSTROEM)
---------------------------------
  C     -0.701690    4.072500   -4.003920
  N      0.680530    4.614820   -4.048000
  H      0.699930    5.584890   -4.388270
  H      1.278040    4.055980   -4.668240
  H      1.085730    4.533580   -3.106520
  C     -1.703470    5.093200   -3.477400
  H     -0.995900    3.740390   -5.000650
  H     -0.643580    3.201910   -3.351530
  H     -1.737040    5.933840   -4.138530
  H     -1.403380    5.417590   -2.502910
  H     -2.673350    4.644790   -3.421080

 Total Charge           Charge          ....    1
 Multiplicity           Mult            ....    1
 Number of Electrons    NEL             ....   26
 Basis Dimension        Dim             ....  141

ORBITAL ENERGIES
----------------

  NO   OCC          E(Eh)            E(eV)
   0   2.0000     -14.339471      -390.1969
   1   2.0000     -10.157211      -276.3918
   2   2.0000     -10.079585      -274.2794
   3   2.0000      -1.131216       -30.7820
   4   2.0000      -0.889949       -24.2168
   5   2.0000      -0.779894       -21.2220
   6   2.0000      -0.749158       -20.3856
   7   2.0000      -0.731559       -19.9067
   8   2.0000      -0.645429       -17.5630
   9   2.0000      -0.592466       -16.1218
  10   2.0000      -0.537064       -14.6143
  11   2.0000      -0.522599       -14.2206
  12   2.0000      -0.506644       -13.7865
  13   0.0000      -0.222844        -6.0639
  14   0.0000      -0.165793        -4.5115
  15   0.0000      -0.159219        -4.3326
  16   0.0000      -0.137202        -3.7335
  17   0.0000      -0.099006        -2.6941

MULLIKEN ATOMIC CHARGES
-----------------------
   0 C :   -0.171532
   1 N :   -0.242918
   2 H :    0.307874
   3 H :    0.313907
   4 H :    0.313447
   5 C :   -0.310909
   6 H :    0.177226
   7 H :    0.173683
   8 H :    0.139455
   9 H :    0.132431
  10 H :    0.167337
Sum of atomic charges:    1.0000000

LOEWDIN ATOMIC CHARGES
----------------------
   0 C :   -0.275171
   1 N :    0.179658
   2 H :    0.218036
   3 H :    0.219449
   4 H :    0.222594
   5 C :   -0.268480
   6 H :    0.150920
   7 H :    0.149733
   8 H :    0.128869
   9 H :    0.127869
  10 H :    0.146522

  Mayer bond orders larger than 0.100000
B(  0-C ,  1-N ) :   0.8493 B(  0-C ,  5-C ) :   0.9762 B(  0-C ,  6-H ) :   0.9517
B(  0-C ,  7-H ) :   0.9541 B(  1-N ,  2-H ) :   0.8797 B(  1-N ,  3-H ) :   0.8867
B(  1-N ,  4-H ) :   0.8877 B(  5-C ,  8-H ) :   0.9579 B(  5-C ,  9-H ) :   0.9585
B(  5-C , 10-H ) :   0.9582

Dispersion correction           -0.012438099
FINAL SINGLE POINT ENERGY      -135.518217065843

DIPOLE MOMENT
-------------
                                X             Y             Z
Electronic contribution:      1.75438      -0.32833      -0.45361
Nuclear contribution   :     -0.23930       0.27560       0.19485
                        -----------------------------------------
Total Dipole Moment    :      1.51508      -0.05272      -0.25875
                        -----------------------------------------
Magnitude (a.u.)       :      1.53792
Magnitude (Debye)      :      3.90908

Rotational constants in cm-1:     1.018556     0.279088     0.248454
Rotational constants in MHz : 30535.536069  8366.847891  7448.451392

                             ****ORCA TERMINATED NORMALLY****
TOTAL RUN TIME: 0 days 0 hours 0 minutes 7 seconds 475 msec
