                         Program Version 5.0.0 -  RELEASE  -
|  1> !BLYP D3BJ RIJCOSX def2-TZVP def2/J TightSCF xyzfile
|  2>
|  3> *xyzfile 0 1 B.xyz
|  4>
|  5> %MaxCore 64000
|  6>
|  7> %pal nprocs 18
|  8> end
|  9>
| 10> %scf
| 11>   MaxIter 150
| 12> end
| 13>
| 14>
| 15>                          ****END OF INPUT****

CARTESIAN COORDINATES (ANGSTROEM)
---------------------------------
  C     -0.701686    4.072499   -4.003920
  N      0.680528    4.614820   -4.048005
  C      1.444422    5.266576   -0.975463
  O      1.565248    4.233493   -1.864885
  H      0.699926    5.584890   -4.388272
  H      1.278044    4.055977   -4.668235
  H      1.085729    4.533581   -3.106524
  C     -1.703475    5.093197   -3.477396
  H     -0.995895    3.740394   -5.000654
  H     -0.643580    3.201910   -3.351533
  C     -1.313997    5.785995   -2.169271
  H     -1.877057    5.850103   -4.251154
  H     -2.653264    4.564475   -3.354796
  H     -2.097137    6.509395   -1.929558
  H     -0.416875    6.387594   -2.339097
  C     -1.073895    4.844728   -0.979904
  H     -1.968893    4.809608   -0.352568
  C      0.148120    5.210874   -0.138092
  H     -0.909754    3.827531   -1.338975
  H      1.474250    6.264638   -1.476917
  H      2.289622    5.303267   -0.264450
  H      0.261827    4.450942    0.640711
  H     -0.002516    6.171031    0.371483

 Total Charge           Charge          ....    0
 Multiplicity           Mult            ....    1
 Number of Electrons    NEL             ....   66
 Basis Dimension        Dim             ....  338

ORBITAL ENERGIES
----------------

  NO   OCC          E(Eh)            E(eV)
   0   2.0000     -18.640633      -507.2374
   1   2.0000     -14.083422      -383.2294
   2   2.0000      -9.967944      -271.2415
   3   2.0000      -9.923892      -270.0428
   4   2.0000      -9.898674      -269.3566
   5   2.0000      -9.886535      -269.0263
   6   2.0000      -9.877468      -268.7796
   7   2.0000      -9.859077      -268.2791
   8   2.0000      -0.901349       -24.5270
   9   2.0000      -0.799102       -21.7447
  10   2.0000      -0.729349       -19.8466
  11   2.0000      -0.669357       -18.2141
  12   2.0000      -0.621100       -16.9010
  13   2.0000      -0.567377       -15.4391
  14   2.0000      -0.523590       -14.2476
  15   2.0000      -0.515124       -14.0172
  16   2.0000      -0.507414       -13.8074
  17   2.0000      -0.457941       -12.4612
  18   2.0000      -0.438490       -11.9319
  19   2.0000      -0.410107       -11.1596
  20   2.0000      -0.403205       -10.9718
  21   2.0000      -0.368385       -10.0243
  22   2.0000      -0.357566        -9.7299
  23   2.0000      -0.346823        -9.4375
  24   2.0000      -0.327383        -8.9085
  25   2.0000      -0.307982        -8.3806
  26   2.0000      -0.302320        -8.2265
  27   2.0000      -0.283860        -7.7242
  28   2.0000      -0.263736        -7.1766
  29   2.0000      -0.256354        -6.9757
  30   2.0000      -0.248810        -6.7705
  31   2.0000      -0.134075        -3.6484
  32   2.0000      -0.126837        -3.4514
  33   0.0000      -0.031224        -0.8496
  34   0.0000       0.010254         0.2790
  35   0.0000       0.018463         0.5024
  36   0.0000       0.039640         1.0786
  37   0.0000       0.045783         1.2458

MULLIKEN ATOMIC CHARGES
-----------------------
   0 C :   -0.141549
   1 N :   -0.243207
   2 C :   -0.013633
   3 O :   -0.655323
   4 H :    0.228807
   5 H :    0.241110
   6 H :    0.273012
   7 C :   -0.177880
   8 H :    0.110795
   9 H :    0.141838
  10 C :   -0.173736
  11 H :    0.090420
  12 H :    0.093191
  13 H :    0.078897
  14 H :    0.070258
  15 C :   -0.101761
  16 H :    0.063439
  17 C :   -0.051900
  18 H :    0.057175
  19 H :   -0.001657
  20 H :    0.033300
  21 H :    0.049409
  22 H :    0.028997
Sum of atomic charges:   -0.0000000

LOEWDIN ATOMIC CHARGES
----------------------
   0 C :   -0.279723
   1 N :    0.148248
   2 C :   -0.478857
   3 O :   -0.245791
   4 H :    0.182426
   5 H :    0.185806
   6 H :    0.081025
   7 C :   -0.270580
   8 H :    0.125385
   9 H :    0.140495
  10 C :   -0.259690
  11 H :    0.132068
  12 H :    0.144212
  13 H :    0.133062
  14 H :    0.130282
  15 C :   -0.269191
  16 H :    0.125367
  17 C :   -0.279010
  18 H :    0.132863
  19 H :    0.075526
  20 H :    0.100473
  21 H :    0.125902
  22 H :    0.119702

  Mayer bond orders larger than 0.100000
B(  0-C ,  1-N ) :   0.8787 B(  0-C ,  7-C ) :   0.9868 B(  0-C ,  8-H ) :   0.9605
B(  0-C ,  9-H ) :   0.9660 B(  1-N ,  4-H ) :   0.9091 B(  1-N ,  5-H ) :   0.9164
B(  1-N ,  6-H ) :   0.6279 B(  2-C ,  3-O ) :   1.2769 B(  2-C , 17-C ) :   0.9055
B(  2-C , 19-H ) :   0.9563 B(  2-C , 20-H ) :   0.9495 B(  3-O ,  6-H ) :   0.4317
B(  3-O , 17-C ) :  -0.1474 B(  7-C , 10-C ) :   0.9556 B(  7-C , 11-H ) :   0.9671
B(  7-C , 12-H ) :   0.9576 B( 10-C , 13-H ) :   0.9656 B( 10-C , 14-H ) :   0.9677
B( 10-C , 15-C ) :   0.9497 B( 15-C , 16-H ) :   0.9578 B( 15-C , 17-C ) :   0.9833
B( 15-C , 18-H ) :   0.9509 B( 17-C , 21-H ) :   0.9421 B( 17-C , 22-H ) :   0.9366

Dispersion correction           -0.044059256
FINAL SINGLE POINT ENERGY      -367.588053321247

DIPOLE MOMENT
-------------
                                X             Y             Z
Electronic contribution:      2.08127      -1.63399      -1.28511
Nuclear contribution   :     -3.16446       1.92310      -1.11926
                        -----------------------------------------
Total Dipole Moment    :     -1.08319       0.28912      -2.40437
                        -----------------------------------------
Magnitude (a.u.)       :      2.65290
Magnitude (Debye)      :      6.74313

Rotational constants in cm-1:     0.085554     0.055600     0.038553
Rotational constants in MHz :  2564.854379  1666.836664  1155.798427

                             ****ORCA TERMINATED NORMALLY****
TOTAL RUN TIME: 0 days 0 hours 0 minutes 11 seconds 191 msec
