                         Program Version 5.0.0 -  RELEASE  -
|  1> !BLYP D3BJ RIJCOSX def2-TZVP def2/J TightSCF
|  2> *xyz 0 1
|  3> C          1.44442        5.26658       -0.97546
|  4> F          1.56525        4.23349       -1.86489
|  5> C          0.14812        5.21087       -0.13809
|  6> H          1.47425        6.26464       -1.47692
|  7> H          2.28962        5.30327       -0.26445
|  8> H         -0.69779        5.17417       -0.79230
|  9> H          0.08430        6.08276        0.47887
| 10> H          0.15965        4.33708        0.47938
| 11> *
| 12> %MaxCore 64000
| 13>
| 14> %pal nprocs 4
| 15> end
| 16>
| 17> %scf
| 18>   MaxIter 150
| 19> end
| 20>
| 21>
| 22>                          ****END OF INPUT****

CARTESIAN COORDINATES (ANGSTROEM)
---------------------------------
  C      1.444420    5.266580   -0.975460
  F      1.565250    4.233490   -1.864890
  C      0.148120    5.210870   -0.138090
  H      1.474250    6.264640   -1.476920
  H      2.289620    5.303270   -0.264450
  H     -0.697790    5.174170   -0.792300
  H      0.084300    6.082760    0.478870
  H      0.159650    4.337080    0.479380

 Total Charge           Charge          ....    0
 Multiplicity           Mult            ....    1
 Number of Electrons    NEL             ....   26
 Basis Dimension        Dim             ....  123

ORBITAL ENERGIES
----------------

  NO   OCC          E(Eh)            E(eV)
   0   2.0000     -24.269825      -660.4155
   1   2.0000      -9.980555      -271.5847
   2   2.0000      -9.899238      -269.3720
   3   2.0000      -1.090418       -29.6718
   4   2.0000      -0.684983       -18.6393
   5   2.0000      -0.563378       -15.3303
   6   2.0000      -0.450088       -12.2475
   7   2.0000      -0.433788       -11.8040
   8   2.0000      -0.397816       -10.8251
   9   2.0000      -0.353100        -9.6083
  10   2.0000      -0.351153        -9.5554
  11   2.0000      -0.283860        -7.7242
  12   2.0000      -0.279106        -7.5949
  13   0.0000       0.020506         0.5580
  14   0.0000       0.057586         1.5670
  15   0.0000       0.067053         1.8246
  16   0.0000       0.074583         2.0295
  17   0.0000       0.090105         2.4519

MULLIKEN ATOMIC CHARGES
-----------------------
   0 C :    0.062093
   1 F :   -0.228214
   2 C :   -0.279990
   3 H :    0.073832
   4 H :    0.074665
   5 H :    0.102985
   6 H :    0.092404
   7 H :    0.102225
Sum of atomic charges:   -0.0000000

LOEWDIN ATOMIC CHARGES
----------------------
   0 C :   -0.373158
   1 F :    0.107908
   2 C :   -0.303747
   3 H :    0.112700
   4 H :    0.111258
   5 H :    0.113703
   6 H :    0.118505
   7 H :    0.112830

  Mayer bond orders larger than 0.100000
B(  0-C ,  1-F ) :   1.0152 B(  0-C ,  2-C ) :   0.9633 B(  0-C ,  3-H ) :   0.9636
B(  0-C ,  4-H ) :   0.9632 B(  2-C ,  5-H ) :   0.9692 B(  2-C ,  6-H ) :   0.9537
B(  2-C ,  7-H ) :   0.9706

Dispersion correction           -0.007122732
FINAL SINGLE POINT ENERGY      -179.081749745865

DIPOLE MOMENT
-------------
                                X             Y             Z
Electronic contribution:      2.30895      -2.78939      -3.74110
Nuclear contribution   :     -2.43357       3.25919       4.19687
                        -----------------------------------------
Total Dipole Moment    :     -0.12462       0.46981       0.45578
                        -----------------------------------------
Magnitude (a.u.)       :      0.66632
Magnitude (Debye)      :      1.69365

Rotational constants in cm-1:     1.264662     0.300144     0.266170
Rotational constants in MHz : 37913.611527  8998.095216  7979.576054

                             ****ORCA TERMINATED NORMALLY****
TOTAL RUN TIME: 0 days 0 hours 0 minutes 6 seconds 458 msec
