                         Program Version 5.0.0 -  RELEASE  -
|  1> !BLYP D3BJ RIJCOSX def2-TZVP def2/J TightSCF
|  2> *xyz 0 1
|  3> C         -0.70169        4.07250       -4.00392
|  4> C          0.68053        4.61482       -4.04800
|  5> H          0.69993        5.58489       -4.38827
|  6> H          1.27804        4.05598       -4.66824
|  7> H          1.08573        4.53358       -3.10652
|  8> C         -1.70347        5.09320       -3.47740
|  9> H         -0.99590        3.74039       -5.00065
| 10> H         -0.64358        3.20191       -3.35153
| 11> H         -1.73704        5.93384       -4.13853
| 12> H         -1.40338        5.41759       -2.50291
| 13> H         -2.67335        4.64479       -3.42108
| 14> *
| 15> %MaxCore 64000
| 16>
| 17> %pal nprocs 4
| 18> end
| 19>
| 20> %scf
| 21>   MaxIter 150
| 22> end
| 23>
| 24>
| 25>                          ****END OF INPUT****

CARTESIAN COORDINATES (ANGSTROEM)
---------------------------------
  C     -0.701690    4.072500   -4.003920
  C      0.680530    4.614820   -4.048000
  H      0.699930    5.584890   -4.388270
  H      1.278040    4.055980   -4.668240
  H      1.085730    4.533580   -3.106520
  C     -1.703470    5.093200   -3.477400
  H     -0.995900    3.740390   -5.000650
  H     -0.643580    3.201910   -3.351530
  H     -1.737040    5.933840   -4.138530
  H     -1.403380    5.417590   -2.502910
  H     -2.673350    4.644790   -3.421080

 Total Charge           Charge          ....    0
 Multiplicity           Mult            ....    1
 Number of Electrons    NEL             ....   26
 Basis Dimension        Dim             ....  141

ORBITAL ENERGIES
----------------

  NO   OCC          E(Eh)            E(eV)
   0   2.0000      -9.889172      -269.0981
   1   2.0000      -9.881270      -268.8830
   2   2.0000      -9.863735      -268.4059
   3   2.0000      -0.710890       -19.3443
   4   2.0000      -0.617095       -16.7920
   5   2.0000      -0.519381       -14.1331
   6   2.0000      -0.415798       -11.3145
   7   2.0000      -0.392438       -10.6788
   8   2.0000      -0.352999        -9.6056
   9   2.0000      -0.343170        -9.3381
  10   2.0000      -0.292153        -7.9499
  11   2.0000      -0.289790        -7.8856
  12   2.0000      -0.282229        -7.6798
  13   0.0000       0.020759         0.5649
  14   0.0000       0.061785         1.6813
  15   0.0000       0.068840         1.8732
  16   0.0000       0.072396         1.9700
  17   0.0000       0.092213         2.5092

MULLIKEN ATOMIC CHARGES
-----------------------
   0 C :   -0.115147
   1 C :   -0.287645
   2 H :    0.086897
   3 H :    0.097732
   4 H :    0.093464
   5 C :   -0.287314
   6 H :    0.070013
   7 H :    0.068057
   8 H :    0.091105
   9 H :    0.087847
  10 H :    0.094991
Sum of atomic charges:   -0.0000000

LOEWDIN ATOMIC CHARGES
----------------------
   0 C :   -0.315114
   1 C :   -0.298751
   2 H :    0.105690
   3 H :    0.107141
   4 H :    0.108869
   5 C :   -0.299307
   6 H :    0.126011
   7 H :    0.129255
   8 H :    0.111923
   9 H :    0.112431
  10 H :    0.111852

  Mayer bond orders larger than 0.100000
B(  0-C ,  1-C ) :   0.9525 B(  0-C ,  5-C ) :   0.9660 B(  0-C ,  6-H ) :   0.9693
B(  0-C ,  7-H ) :   0.9711 B(  1-C ,  2-H ) :   0.9790 B(  1-C ,  3-H ) :   0.9796
B(  1-C ,  4-H ) :   0.9799 B(  5-C ,  8-H ) :   0.9753 B(  5-C ,  9-H ) :   0.9754
B(  5-C , 10-H ) :   0.9769

Dispersion correction           -0.012522075
FINAL SINGLE POINT ENERGY      -119.096462883193

DIPOLE MOMENT
-------------
                                X             Y             Z
Electronic contribution:     -0.13513      -0.31120      -0.13906
Nuclear contribution   :      0.16058       0.27975       0.12812
                        -----------------------------------------
Total Dipole Moment    :      0.02544      -0.03145      -0.01094
                        -----------------------------------------
Magnitude (a.u.)       :      0.04190
Magnitude (Debye)      :      0.10651

Rotational constants in cm-1:     1.027122     0.293327     0.260229
Rotational constants in MHz : 30792.337141  8793.723318  7801.458329

                             ****ORCA TERMINATED NORMALLY****
TOTAL RUN TIME: 0 days 0 hours 0 minutes 7 seconds 545 msec
