                         Program Version 5.0.0 -  RELEASE  -
|  1> !B3LYP D3BJ RIJCOSX def2-SVPD def2/J TightSCF
|  2> *xyz -1 1
|  3> C         -0.98480        1.28474       -2.92869
|  4> C         -0.10608        1.76991       -4.08984
|  5> H         -0.34774        2.82220       -4.26294
|  6> H          0.94968        1.74588       -3.80878
|  7> C         -0.25875        1.00432       -5.40983
|  8> C          0.39596       -0.37070       -5.33994
|  9> H          0.23915        1.56939       -6.20125
| 10> H         -1.30936        0.88869       -5.68245
| 11> O         -0.32633       -1.39040       -5.49128
| 12> O          1.61941       -0.40073       -5.03683
| 13> H         -2.01317        1.31546       -3.22263
| 14> H         -0.83724        1.91975       -2.08023
| 15> H         -0.71656        0.28077       -2.67373
| 16> *
| 17> %MaxCore 64000
| 18>
| 19> %pal nprocs 4
| 20> end
| 21>
| 22> %scf
| 23>   MaxIter 150
| 24> end
| 25>
| 26>
| 27>                          ****END OF INPUT****

CARTESIAN COORDINATES (ANGSTROEM)
---------------------------------
  C     -0.984800    1.284740   -2.928690
  C     -0.106080    1.769910   -4.089840
  H     -0.347740    2.822200   -4.262940
  H      0.949680    1.745880   -3.808780
  C     -0.258750    1.004320   -5.409830
  C      0.395960   -0.370700   -5.339940
  H      0.239150    1.569390   -6.201250
  H     -1.309360    0.888690   -5.682450
  O     -0.326330   -1.390400   -5.491280
  O      1.619410   -0.400730   -5.036830
  H     -2.013170    1.315460   -3.222630
  H     -0.837240    1.919750   -2.080230
  H     -0.716560    0.280770   -2.673730

 Total Charge           Charge          ....   -1
 Multiplicity           Mult            ....    1
 Number of Electrons    NEL             ....   48
 Basis Dimension        Dim             ....  182

ORBITAL ENERGIES
----------------

  NO   OCC          E(Eh)            E(eV)
   0   2.0000     -18.880417      -513.7623
   1   2.0000     -18.879287      -513.7315
   2   2.0000     -10.071122      -274.0492
   3   2.0000     -10.035185      -273.0713
   4   2.0000     -10.034730      -273.0589
   5   2.0000     -10.011732      -272.4331
   6   2.0000      -0.812540       -22.1103
   7   2.0000      -0.718978       -19.5644
   8   2.0000      -0.631554       -17.1855
   9   2.0000      -0.540278       -14.7017
  10   2.0000      -0.441867       -12.0238
  11   2.0000      -0.329791        -8.9741
  12   2.0000      -0.305310        -8.3079
  13   2.0000      -0.287117        -7.8128
  14   2.0000      -0.260838        -7.0978
  15   2.0000      -0.235633        -6.4119
  16   2.0000      -0.219919        -5.9843
  17   2.0000      -0.208955        -5.6860
  18   2.0000      -0.193888        -5.2760
  19   2.0000      -0.177673        -4.8347
  20   2.0000      -0.164386        -4.4732
  21   2.0000      -0.052945        -1.4407
  22   2.0000      -0.047194        -1.2842
  23   2.0000      -0.030954        -0.8423
  24   0.0000       0.143355         3.9009
  25   0.0000       0.169026         4.5994
  26   0.0000       0.183900         5.0042
  27   0.0000       0.198940         5.4134
  28   0.0000       0.219226         5.9654

MULLIKEN ATOMIC CHARGES
-----------------------
   0 C :    0.895611
   1 C :   -0.293211
   2 H :   -0.214033
   3 H :   -0.095224
   4 C :    0.265608
   5 C :    0.420451
   6 H :   -0.095634
   7 H :   -0.100942
   8 O :   -0.673985
   9 O :   -0.725486
  10 H :   -0.090389
  11 H :   -0.160297
  12 H :   -0.132469
Sum of atomic charges:   -1.0000000

LOEWDIN ATOMIC CHARGES
----------------------
   0 C :    0.123070
   1 C :   -0.079644
   2 H :   -0.008125
   3 H :    0.006576
   4 C :    0.006574
   5 C :   -0.304798
   6 H :    0.005975
   7 H :   -0.000702
   8 O :   -0.329779
   9 O :   -0.327231
  10 H :   -0.031633
  11 H :   -0.040460
  12 H :   -0.019822

  Mayer bond orders larger than 0.100000
B(  0-C ,  1-C ) :   1.2806 B(  0-C ,  2-H ) :   0.1077 B(  0-C , 10-H ) :   0.7444
B(  0-C , 11-H ) :   0.7146 B(  0-C , 12-H ) :   0.7887 B(  1-C ,  2-H ) :   0.9127
B(  1-C ,  3-H ) :   0.8992 B(  1-C ,  4-C ) :   1.2439 B(  1-C ,  6-H ) :   0.1576
B(  1-C ,  7-H ) :   0.1421 B(  1-C , 10-H ) :   0.2347 B(  1-C , 11-H ) :   0.2446
B(  1-C , 12-H ) :   0.2379 B(  2-H ,  4-C ) :   0.1130 B(  3-H ,  4-C ) :   0.1582
B(  4-C ,  5-C ) :   0.9934 B(  4-C ,  6-H ) :   0.7942 B(  4-C ,  7-H ) :   0.8622
B(  5-C ,  6-H ) :   0.1141 B(  5-C ,  7-H ) :   0.2212 B(  5-C ,  8-O ) :   1.4669
B(  5-C ,  9-O ) :   1.4688

Dispersion correction           -0.016166887
FINAL SINGLE POINT ENERGY      -306.788950794844

DIPOLE MOMENT
-------------
                                X             Y             Z
Electronic contribution:      3.12843      -5.65530      -3.87640
Nuclear contribution   :     -4.15791       7.87420       4.69333
                        -----------------------------------------
Total Dipole Moment    :     -1.02948       2.21890       0.81693
                        -----------------------------------------
Magnitude (a.u.)       :      2.57890
Magnitude (Debye)      :      6.55504

Rotational constants in cm-1:     0.200385     0.078723     0.072676
Rotational constants in MHz :  6007.394681  2360.059351  2178.761275

                             ****ORCA TERMINATED NORMALLY****
TOTAL RUN TIME: 0 days 0 hours 0 minutes 17 seconds 292 msec
