                         Program Version 5.0.0 -  RELEASE  -
|  1> !B3LYP D3BJ RIJCOSX def2-SVPD def2/J TightSCF
|  2> *xyz 1 1
|  3> C          0.81607       -2.10149       -2.18655
|  4> H          1.69623       -2.36869       -1.60046
|  5> N          1.10055       -2.46749       -3.59927
|  6> C          0.51624       -0.61363       -2.03937
|  7> H         -0.02007       -2.71285       -1.84084
|  8> C         -0.86862       -0.19392       -2.54630
|  9> H          1.70061       -1.75723       -4.07838
| 10> H          0.29386       -2.35977       -4.25632
| 11> H          1.50132       -3.42848       -3.69491
| 12> H          1.29904       -0.05680       -2.55898
| 13> H          0.61239       -0.36558       -0.97917
| 14> H         -0.95781       -0.43872       -3.58410
| 15> H         -0.99113        0.86113       -2.41690
| 16> H         -1.62334       -0.71130       -1.99167
| 17> *
| 18> %MaxCore 64000
| 19>
| 20> %pal nprocs 4
| 21> end
| 22>
| 23> %scf
| 24>   MaxIter 150
| 25> end
| 26>
| 27>
| 28>                          ****END OF INPUT****

CARTESIAN COORDINATES (ANGSTROEM)
---------------------------------
  C      0.816070   -2.101490   -2.186550
  H      1.696230   -2.368690   -1.600460
  N      1.100550   -2.467490   -3.599270
  C      0.516240   -0.613630   -2.039370
  H     -0.020070   -2.712850   -1.840840
  C     -0.868620   -0.193920   -2.546300
  H      1.700610   -1.757230   -4.078380
  H      0.293860   -2.359770   -4.256320
  H      1.501320   -3.428480   -3.694910
  H      1.299040   -0.056800   -2.558980
  H      0.612390   -0.365580   -0.979170
  H     -0.957810   -0.438720   -3.584100
  H     -0.991130    0.861130   -2.416900
  H     -1.623340   -0.711300   -1.991670

 Total Charge           Charge          ....    1
 Multiplicity           Mult            ....    1
 Number of Electrons    NEL             ....   34
 Basis Dimension        Dim             ....  160

ORBITAL ENERGIES
----------------

  NO   OCC          E(Eh)            E(eV)
   0   2.0000     -14.663202      -399.0060
   1   2.0000     -10.430745      -283.8350
   2   2.0000     -10.362804      -281.9862
   3   2.0000     -10.328227      -281.0453
   4   2.0000      -1.196965       -32.5711
   5   2.0000      -0.966533       -26.3007
   6   2.0000      -0.879416       -23.9301
   7   2.0000      -0.804937       -21.9034
   8   2.0000      -0.776058       -21.1176
   9   2.0000      -0.758750       -20.6466
  10   2.0000      -0.694971       -18.9111
  11   2.0000      -0.626904       -17.0589
  12   2.0000      -0.608855       -16.5678
  13   2.0000      -0.586119       -15.9491
  14   2.0000      -0.526393       -14.3239
  15   2.0000      -0.520154       -14.1541
  16   2.0000      -0.516135       -14.0447
  17   0.0000      -0.195855        -5.3295
  18   0.0000      -0.140658        -3.8275
  19   0.0000      -0.137917        -3.7529
  20   0.0000      -0.119394        -3.2489
  21   0.0000      -0.093110        -2.5336

MULLIKEN ATOMIC CHARGES
-----------------------
   0 C :    0.850842
   1 H :   -0.150949
   2 N :   -0.872707
   3 C :   -0.143936
   4 H :   -0.139833
   5 C :    0.985970
   6 H :    0.450335
   7 H :    0.326571
   8 H :    0.369412
   9 H :   -0.138893
  10 H :   -0.156352
  11 H :   -0.221877
  12 H :   -0.110469
  13 H :   -0.048115
Sum of atomic charges:    1.0000000

LOEWDIN ATOMIC CHARGES
----------------------
   0 C :    0.088993
   1 H :    0.049830
   2 N :    0.313482
   3 C :   -0.038270
   4 H :    0.052669
   5 C :    0.160850
   6 H :    0.109601
   7 H :    0.104561
   8 H :    0.120128
   9 H :    0.025884
  10 H :    0.042602
  11 H :   -0.028219
  12 H :    0.001969
  13 H :   -0.004081

  Mayer bond orders larger than 0.100000
B(  0-C ,  1-H ) :   0.8406 B(  0-C ,  2-N ) :   0.6553 B(  0-C ,  3-C ) :   1.1504
B(  0-C ,  4-H ) :   0.8415 B(  0-C , 10-H ) :   0.1316 B(  1-H ,  2-N ) :   0.1316
B(  2-N ,  4-H ) :   0.1545 B(  2-N ,  6-H ) :   0.6297 B(  2-N ,  7-H ) :   0.8095
B(  2-N ,  8-H ) :   0.6980 B(  3-C ,  5-C ) :   1.2581 B(  3-C ,  9-H ) :   0.9100
B(  3-C , 10-H ) :   0.9266 B(  3-C , 11-H ) :   0.2068 B(  3-C , 12-H ) :   0.2319
B(  3-C , 13-H ) :   0.2066 B(  5-C , 11-H ) :   0.7648 B(  5-C , 12-H ) :   0.7405
B(  5-C , 13-H ) :   0.7507

Dispersion correction           -0.015167350
FINAL SINGLE POINT ENERGY      -174.621723055104

DIPOLE MOMENT
-------------
                                X             Y             Z
Electronic contribution:      1.48442      -1.83780      -0.69565
Nuclear contribution   :     -0.52914       0.42437      -0.52967
                        -----------------------------------------
Total Dipole Moment    :      0.95528      -1.41343      -1.22532
                        -----------------------------------------
Magnitude (a.u.)       :      2.10042
Magnitude (Debye)      :      5.33885

Rotational constants in cm-1:     0.462856     0.150885     0.132529
Rotational constants in MHz : 13876.083919  4523.416930  3973.119974

                             ****ORCA TERMINATED NORMALLY****
TOTAL RUN TIME: 0 days 0 hours 0 minutes 13 seconds 428 msec
