                         Program Version 5.0.0 -  RELEASE  -
|  1> !B3LYP D3BJ RIJCOSX def2-SVPD def2/J TightSCF
|  2> *xyz 0 1
|  3> C         -0.98480        1.28474       -2.92869
|  4> C         -0.10608        1.76991       -4.08984
|  5> H         -0.34774        2.82220       -4.26294
|  6> H          0.94968        1.74588       -3.80878
|  7> C         -0.25875        1.00432       -5.40983
|  8> C          0.39596       -0.37070       -5.33994
|  9> H          0.23915        1.56939       -6.20125
| 10> H         -1.30936        0.88869       -5.68245
| 11> F         -0.32633       -1.39040       -5.49128
| 12> O          1.61941       -0.40073       -5.03683
| 13> H         -2.01317        1.31546       -3.22263
| 14> H         -0.83724        1.91975       -2.08023
| 15> H         -0.71656        0.28077       -2.67373
| 16> *
| 17> %MaxCore 64000
| 18>
| 19> %pal nprocs 4
| 20> end
| 21>
| 22> %scf
| 23>   MaxIter 150
| 24> end
| 25>
| 26>
| 27>                          ****END OF INPUT****

CARTESIAN COORDINATES (ANGSTROEM)
---------------------------------
  C     -0.984800    1.284740   -2.928690
  C     -0.106080    1.769910   -4.089840
  H     -0.347740    2.822200   -4.262940
  H      0.949680    1.745880   -3.808780
  C     -0.258750    1.004320   -5.409830
  C      0.395960   -0.370700   -5.339940
  H      0.239150    1.569390   -6.201250
  H     -1.309360    0.888690   -5.682450
  F     -0.326330   -1.390400   -5.491280
  O      1.619410   -0.400730   -5.036830
  H     -2.013170    1.315460   -3.222630
  H     -0.837240    1.919750   -2.080230
  H     -0.716560    0.280770   -2.673730

 Total Charge           Charge          ....    0
 Multiplicity           Mult            ....    1
 Number of Electrons    NEL             ....   48
 Basis Dimension        Dim             ....  182

ORBITAL ENERGIES
----------------

  NO   OCC          E(Eh)            E(eV)
   0   2.0000     -24.769233      -674.0051
   1   2.0000     -19.148967      -521.0699
   2   2.0000     -10.366798      -282.0949
   3   2.0000     -10.216114      -277.9946
   4   2.0000     -10.198730      -277.5216
   5   2.0000     -10.180274      -277.0194
   6   2.0000      -1.305536       -35.5254
   7   2.0000      -1.024092       -27.8670
   8   2.0000      -0.807812       -21.9817
   9   2.0000      -0.726682       -19.7740
  10   2.0000      -0.662755       -18.0345
  11   2.0000      -0.609246       -16.5784
  12   2.0000      -0.551890       -15.0177
  13   2.0000      -0.535305       -14.5664
  14   2.0000      -0.510274       -13.8853
  15   2.0000      -0.464936       -12.6515
  16   2.0000      -0.456404       -12.4194
  17   2.0000      -0.424289       -11.5455
  18   2.0000      -0.405991       -11.0476
  19   2.0000      -0.381513       -10.3815
  20   2.0000      -0.356722        -9.7069
  21   2.0000      -0.351277        -9.5587
  22   2.0000      -0.345993        -9.4150
  23   2.0000      -0.297499        -8.0954
  24   0.0000      -0.040290        -1.0964
  25   0.0000       0.012283         0.3342
  26   0.0000       0.039688         1.0800
  27   0.0000       0.047145         1.2829
  28   0.0000       0.055356         1.5063

MULLIKEN ATOMIC CHARGES
-----------------------
   0 C :    0.916113
   1 C :   -0.235752
   2 H :   -0.185964
   3 H :   -0.094248
   4 C :    0.205234
   5 C :    0.738445
   6 H :   -0.046864
   7 H :   -0.066809
   8 F :   -0.367845
   9 O :   -0.497230
  10 H :   -0.073382
  11 H :   -0.140224
  12 H :   -0.151476
Sum of atomic charges:    0.0000000

LOEWDIN ATOMIC CHARGES
----------------------
   0 C :    0.141842
   1 C :   -0.054540
   2 H :    0.019389
   3 H :    0.021444
   4 C :    0.049448
   5 C :   -0.008194
   6 H :    0.037714
   7 H :    0.021817
   8 F :   -0.034812
   9 O :   -0.136261
  10 H :   -0.019869
  11 H :   -0.017926
  12 H :   -0.020051

  Mayer bond orders larger than 0.100000
B(  0-C ,  1-C ) :   1.3102 B(  0-C ,  2-H ) :   0.1006 B(  0-C , 10-H ) :   0.7370
B(  0-C , 11-H ) :   0.7206 B(  0-C , 12-H ) :   0.7855 B(  1-C ,  2-H ) :   0.9058
B(  1-C ,  3-H ) :   0.8952 B(  1-C ,  4-C ) :   1.2514 B(  1-C ,  6-H ) :   0.1512
B(  1-C ,  7-H ) :   0.1399 B(  1-C , 10-H ) :   0.2290 B(  1-C , 11-H ) :   0.2354
B(  1-C , 12-H ) :   0.2250 B(  2-H ,  4-C ) :   0.1102 B(  3-H ,  4-C ) :   0.1328
B(  4-C ,  5-C ) :   1.0545 B(  4-C ,  6-H ) :   0.8041 B(  4-C ,  7-H ) :   0.8724
B(  5-C ,  7-H ) :   0.1154 B(  5-C ,  8-F ) :   0.7314 B(  5-C ,  9-O ) :   1.8068
B(  8-F ,  9-O ) :   0.1139

Dispersion correction           -0.015528649
FINAL SINGLE POINT ENERGY      -331.319397267648

DIPOLE MOMENT
-------------
                                X             Y             Z
Electronic contribution:      2.76193      -9.07645      -5.67383
Nuclear contribution   :     -3.72230       9.78546       5.57872
                        -----------------------------------------
Total Dipole Moment    :     -0.96037       0.70901      -0.09511
                        -----------------------------------------
Magnitude (a.u.)       :      1.19752
Magnitude (Debye)      :      3.04385

Rotational constants in cm-1:     0.192703     0.076176     0.069525
Rotational constants in MHz :  5777.081080  2283.698999  2084.312921

                             ****ORCA TERMINATED NORMALLY****
TOTAL RUN TIME: 0 days 0 hours 0 minutes 16 seconds 870 msec
