                         Program Version 5.0.0 -  RELEASE  -
|  1> !B3LYP D3BJ RIJCOSX def2-SVPD def2/J TightSCF
|  2> *xyz 0 1
|  3> C          0.81607       -2.10149       -2.18655
|  4> H          1.69623       -2.36869       -1.60046
|  5> C          1.10055       -2.46749       -3.59927
|  6> C          0.51624       -0.61363       -2.03937
|  7> H         -0.02007       -2.71285       -1.84084
|  8> C         -0.86862       -0.19392       -2.54630
|  9> H          1.70061       -1.75723       -4.07838
| 10> H          0.29386       -2.35977       -4.25632
| 11> H          1.50132       -3.42848       -3.69491
| 12> H          1.29904       -0.05680       -2.55898
| 13> H          0.61239       -0.36558       -0.97917
| 14> H         -0.95781       -0.43872       -3.58410
| 15> H         -0.99113        0.86113       -2.41690
| 16> H         -1.62334       -0.71130       -1.99167
| 17> *
| 18> %MaxCore 64000
| 19>
| 20> %pal nprocs 4
| 21> end
| 22>
| 23> %scf
| 24>   MaxIter 150
| 25> end
| 26>
| 27>
| 28>                          ****END OF INPUT****

CARTESIAN COORDINATES (ANGSTROEM)
---------------------------------
  C      0.816070   -2.101490   -2.186550
  H      1.696230   -2.368690   -1.600460
  C      1.100550   -2.467490   -3.599270
  C      0.516240   -0.613630   -2.039370
  H     -0.020070   -2.712850   -1.840840
  C     -0.868620   -0.193920   -2.546300
  H      1.700610   -1.757230   -4.078380
  H      0.293860   -2.359770   -4.256320
  H      1.501320   -3.428480   -3.694910
  H      1.299040   -0.056800   -2.558980
  H      0.612390   -0.365580   -0.979170
  H     -0.957810   -0.438720   -3.584100
  H     -0.991130    0.861130   -2.416900
  H     -1.623340   -0.711300   -1.991670

 Total Charge           Charge          ....    0
 Multiplicity           Mult            ....    1
 Number of Electrons    NEL             ....   34
 Basis Dimension        Dim             ....  160

ORBITAL ENERGIES
----------------

  NO   OCC          E(Eh)            E(eV)
   0   2.0000     -10.172505      -276.8079
   1   2.0000     -10.169825      -276.7350
   2   2.0000     -10.164216      -276.5824
   3   2.0000     -10.150657      -276.2134
   4   2.0000      -0.793478       -21.5916
   5   2.0000      -0.720480       -19.6053
   6   2.0000      -0.637638       -17.3510
   7   2.0000      -0.566562       -15.4169
   8   2.0000      -0.462183       -12.5766
   9   2.0000      -0.456422       -12.4199
  10   2.0000      -0.422598       -11.4995
  11   2.0000      -0.395297       -10.7566
  12   2.0000      -0.385070       -10.4783
  13   2.0000      -0.355530        -9.6745
  14   2.0000      -0.328548        -8.9402
  15   2.0000      -0.323145        -8.7932
  16   2.0000      -0.315823        -8.5940
  17   0.0000       0.024226         0.6592
  18   0.0000       0.050557         1.3757
  19   0.0000       0.050877         1.3844
  20   0.0000       0.058426         1.5898
  21   0.0000       0.097105         2.6424

MULLIKEN ATOMIC CHARGES
-----------------------
   0 C :   -0.001886
   1 H :   -0.183453
   2 C :    1.116428
   3 C :   -0.160323
   4 H :   -0.146133
   5 C :    0.976945
   6 H :   -0.203862
   7 H :   -0.354940
   8 H :   -0.271501
   9 H :   -0.100137
  10 H :   -0.224652
  11 H :   -0.230609
  12 H :   -0.136317
  13 H :   -0.079559
Sum of atomic charges:    0.0000000

LOEWDIN ATOMIC CHARGES
----------------------
   0 C :   -0.073142
   1 H :    0.018094
   2 C :    0.115774
   3 C :   -0.073850
   4 H :    0.020880
   5 C :    0.136716
   6 H :   -0.032058
   7 H :   -0.038330
   8 H :   -0.025599
   9 H :    0.014664
  10 H :    0.010998
  11 H :   -0.029789
  12 H :   -0.023735
  13 H :   -0.020624

  Mayer bond orders larger than 0.100000
B(  0-C ,  1-H ) :   0.8753 B(  0-C ,  2-C ) :   1.2374 B(  0-C ,  3-C ) :   1.1854
B(  0-C ,  4-H ) :   0.8670 B(  0-C ,  6-H ) :   0.2169 B(  0-C ,  7-H ) :   0.2192
B(  0-C ,  8-H ) :   0.2451 B(  0-C ,  9-H ) :   0.1159 B(  0-C , 10-H ) :   0.1516
B(  1-H ,  2-C ) :   0.1036 B(  2-C ,  4-H ) :   0.1334 B(  2-C ,  6-H ) :   0.6073
B(  2-C ,  7-H ) :   0.5962 B(  2-C ,  8-H ) :   0.6758 B(  3-C ,  4-H ) :   0.1134
B(  3-C ,  5-C ) :   1.2466 B(  3-C ,  9-H ) :   0.8756 B(  3-C , 10-H ) :   0.9264
B(  3-C , 11-H ) :   0.2266 B(  3-C , 12-H ) :   0.2308 B(  3-C , 13-H ) :   0.2235
B(  5-C , 11-H ) :   0.7736 B(  5-C , 12-H ) :   0.7112 B(  5-C , 13-H ) :   0.7456
B(  6-H ,  7-H ) :   0.3575

Dispersion correction           -0.015279214
FINAL SINGLE POINT ENERGY      -158.228200079337

DIPOLE MOMENT
-------------
                                X             Y             Z
Electronic contribution:      0.32113      -0.06808       0.83162
Nuclear contribution   :     -0.30980       0.07990      -0.83209
                        -----------------------------------------
Total Dipole Moment    :      0.01133       0.01182      -0.00047
                        -----------------------------------------
Magnitude (a.u.)       :      0.01638
Magnitude (Debye)      :      0.04163

Rotational constants in cm-1:     0.470198     0.157622     0.138278
Rotational constants in MHz : 14096.185772  4725.380109  4145.481686

                             ****ORCA TERMINATED NORMALLY****
TOTAL RUN TIME: 0 days 0 hours 0 minutes 12 seconds 562 msec
