                         Program Version 5.0.0 -  RELEASE  -
|  1> !B3LYP D3BJ RIJCOSX def2-SVPD def2/J TightSCF
|  2> *xyz 0 1
|  3> C         -0.98480        1.28474       -2.92869
|  4> C         -0.10608        1.76991       -4.08984
|  5> H         -0.34774        2.82220       -4.26294
|  6> H          0.94968        1.74588       -3.80878
|  7> C         -0.25875        1.00432       -5.40983
|  8> C          0.39596       -0.37070       -5.33994
|  9> H          0.23915        1.56939       -6.20125
| 10> H         -1.30936        0.88869       -5.68245
| 11> O         -0.32633       -1.39040       -5.49128
| 12> F          1.61941       -0.40073       -5.03683
| 13> H         -2.01317        1.31546       -3.22263
| 14> H         -0.83724        1.91975       -2.08023
| 15> H         -0.71656        0.28077       -2.67373
| 16> *
| 17> %MaxCore 64000
| 18>
| 19> %pal nprocs 4
| 20> end
| 21>
| 22> %scf
| 23>   MaxIter 150
| 24> end
| 25>
| 26>
| 27>                          ****END OF INPUT****

CARTESIAN COORDINATES (ANGSTROEM)
---------------------------------
  C     -0.984800    1.284740   -2.928690
  C     -0.106080    1.769910   -4.089840
  H     -0.347740    2.822200   -4.262940
  H      0.949680    1.745880   -3.808780
  C     -0.258750    1.004320   -5.409830
  C      0.395960   -0.370700   -5.339940
  H      0.239150    1.569390   -6.201250
  H     -1.309360    0.888690   -5.682450
  O     -0.326330   -1.390400   -5.491280
  F      1.619410   -0.400730   -5.036830
  H     -2.013170    1.315460   -3.222630
  H     -0.837240    1.919750   -2.080230
  H     -0.716560    0.280770   -2.673730

 Total Charge           Charge          ....    0
 Multiplicity           Mult            ....    1
 Number of Electrons    NEL             ....   48
 Basis Dimension        Dim             ....  182

ORBITAL ENERGIES
----------------

  NO   OCC          E(Eh)            E(eV)
   0   2.0000     -24.768192      -673.9768
   1   2.0000     -19.149462      -521.0833
   2   2.0000     -10.365811      -282.0680
   3   2.0000     -10.215813      -277.9864
   4   2.0000     -10.203844      -277.6607
   5   2.0000     -10.181053      -277.0405
   6   2.0000      -1.304314       -35.4922
   7   2.0000      -1.023827       -27.8598
   8   2.0000      -0.811955       -22.0944
   9   2.0000      -0.727006       -19.7828
  10   2.0000      -0.659717       -17.9518
  11   2.0000      -0.612907       -16.6781
  12   2.0000      -0.553942       -15.0735
  13   2.0000      -0.541926       -14.7465
  14   2.0000      -0.497134       -13.5277
  15   2.0000      -0.466778       -12.7017
  16   2.0000      -0.460761       -12.5380
  17   2.0000      -0.424566       -11.5530
  18   2.0000      -0.403648       -10.9838
  19   2.0000      -0.380883       -10.3644
  20   2.0000      -0.364042        -9.9061
  21   2.0000      -0.359593        -9.7850
  22   2.0000      -0.349426        -9.5084
  23   2.0000      -0.292531        -7.9602
  24   0.0000      -0.036474        -0.9925
  25   0.0000       0.009945         0.2706
  26   0.0000       0.040035         1.0894
  27   0.0000       0.049685         1.3520
  28   0.0000       0.050313         1.3691

MULLIKEN ATOMIC CHARGES
-----------------------
   0 C :    0.915999
   1 C :   -0.249855
   2 H :   -0.192479
   3 H :   -0.109319
   4 C :    0.229053
   5 C :    0.753240
   6 H :   -0.048609
   7 H :   -0.088153
   8 O :   -0.457801
   9 F :   -0.400426
  10 H :   -0.072415
  11 H :   -0.132645
  12 H :   -0.146589
Sum of atomic charges:   -0.0000000

LOEWDIN ATOMIC CHARGES
----------------------
   0 C :    0.144563
   1 C :   -0.061367
   2 H :    0.018583
   3 H :    0.016829
   4 C :    0.052990
   5 C :   -0.014058
   6 H :    0.032667
   7 H :    0.033806
   8 O :   -0.134095
   9 F :   -0.036581
  10 H :   -0.015952
  11 H :   -0.018547
  12 H :   -0.018840

  Mayer bond orders larger than 0.100000
B(  0-C ,  1-C ) :   1.3144 B(  0-C , 10-H ) :   0.7416 B(  0-C , 11-H ) :   0.7228
B(  0-C , 12-H ) :   0.7848 B(  1-C ,  2-H ) :   0.9253 B(  1-C ,  3-H ) :   0.8772
B(  1-C ,  4-C ) :   1.2297 B(  1-C ,  6-H ) :   0.1471 B(  1-C ,  7-H ) :   0.1239
B(  1-C , 10-H ) :   0.2316 B(  1-C , 11-H ) :   0.2346 B(  1-C , 12-H ) :   0.2275
B(  2-H ,  4-C ) :   0.1050 B(  3-H ,  4-C ) :   0.1245 B(  4-C ,  5-C ) :   1.0146
B(  4-C ,  6-H ) :   0.8043 B(  4-C ,  7-H ) :   0.8998 B(  5-C ,  7-H ) :   0.1546
B(  5-C ,  8-O ) :   1.8180 B(  5-C ,  9-F ) :   0.7023 B(  8-O ,  9-F ) :   0.1195

Dispersion correction           -0.015468128
FINAL SINGLE POINT ENERGY      -331.320577978761

DIPOLE MOMENT
-------------
                                X             Y             Z
Electronic contribution:      6.03888      -7.37885      -4.89432
Nuclear contribution   :     -5.92016       8.66755       5.06539
                        -----------------------------------------
Total Dipole Moment    :      0.11872       1.28871       0.17107
                        -----------------------------------------
Magnitude (a.u.)       :      1.30542
Magnitude (Debye)      :      3.31812

Rotational constants in cm-1:     0.191324     0.076691     0.070269
Rotational constants in MHz :  5735.753800  2299.148675  2106.608556

                             ****ORCA TERMINATED NORMALLY****
TOTAL RUN TIME: 0 days 0 hours 0 minutes 16 seconds 503 msec
