                         Program Version 5.0.0 -  RELEASE  -
|  1> !B3LYP D3BJ RIJCOSX def2-SVPD def2/J TightSCF xyzfile
|  2>
|  3> *xyzfile 0 1 D2.xyz
|  4>
|  5> %MaxCore 64000
|  6>
|  7> %pal nprocs 4
|  8> end
|  9>
| 10> %scf
| 11>   MaxIter 150
| 12> end
| 13>
| 14>
| 15>                          ****END OF INPUT****

CARTESIAN COORDINATES (ANGSTROEM)
---------------------------------
  C      0.816067   -2.101491   -2.186546
  H      1.696232   -2.368691   -1.600457
  C      1.100552   -2.467492   -3.599269
  C      0.516243   -0.613634   -2.039373
  H     -0.020066   -2.712849   -1.840844
  C     -0.868621   -0.193925   -2.546303
  C     -0.984801    1.284739   -2.928686
  H     -0.764939    1.904116   -2.051568
  H     -2.032613    1.478953   -3.178952
  C     -0.106085    1.769914   -4.089836
  H     -0.347744    2.822196   -4.262942
  H      0.949683    1.745875   -3.808781
  C     -0.258747    1.004323   -5.409829
  C      0.395958   -0.370696   -5.339939
  H      0.239150    1.569393   -6.201253
  H     -1.309360    0.888694   -5.682455
  H      1.700606   -1.757225   -4.078378
  H      0.293855   -2.359766   -4.256324
  H      1.501324   -3.428479   -3.694915
  O     -0.326329   -1.390398   -5.491279
  F      1.619412   -0.400726   -5.036827
  H     -1.607271   -0.412651   -1.768955
  H     -1.157234   -0.796164   -3.409254
  H      1.299044   -0.056805   -2.558982
  H      0.612393   -0.365579   -0.979171

 Total Charge           Charge          ....    0
 Multiplicity           Mult            ....    1
 Number of Electrons    NEL             ....   80
 Basis Dimension        Dim             ....  326

ORBITAL ENERGIES
----------------

  NO   OCC          E(Eh)            E(eV)
   0   2.0000     -24.777616      -674.2332
   1   2.0000     -19.155032      -521.2349
   2   2.0000     -10.373758      -282.2843
   3   2.0000     -10.218357      -278.0556
   4   2.0000     -10.201990      -277.6103
   5   2.0000     -10.186117      -277.1783
   6   2.0000     -10.173153      -276.8256
   7   2.0000     -10.168566      -276.7008
   8   2.0000     -10.156676      -276.3772
   9   2.0000     -10.109306      -275.0882
  10   2.0000      -1.318765       -35.8854
  11   2.0000      -1.038192       -28.2506
  12   2.0000      -0.822142       -22.3716
  13   2.0000      -0.788758       -21.4632
  14   2.0000      -0.740061       -20.1381
  15   2.0000      -0.702012       -19.1027
  16   2.0000      -0.664829       -18.0909
  17   2.0000      -0.634674       -17.2704
  18   2.0000      -0.598279       -16.2800
  19   2.0000      -0.565035       -15.3754
  20   2.0000      -0.558999       -15.2111
  21   2.0000      -0.544745       -14.8233
  22   2.0000      -0.511923       -13.9301
  23   2.0000      -0.480270       -13.0688
  24   2.0000      -0.457966       -12.4619
  25   2.0000      -0.444891       -12.1061
  26   2.0000      -0.440619       -11.9898
  27   2.0000      -0.431656       -11.7459
  28   2.0000      -0.417596       -11.3634
  29   2.0000      -0.394275       -10.7288
  30   2.0000      -0.387050       -10.5322
  31   2.0000      -0.378840       -10.3087
  32   2.0000      -0.369807       -10.0630
  33   2.0000      -0.351893        -9.5755
  34   2.0000      -0.334239        -9.0951
  35   2.0000      -0.330896        -9.0041
  36   2.0000      -0.319148        -8.6844
  37   2.0000      -0.304740        -8.2924
  38   2.0000      -0.302660        -8.2358
  39   2.0000      -0.267826        -7.2879
  40   0.0000      -0.048040        -1.3072
  41   0.0000       0.011262         0.3065
  42   0.0000       0.035340         0.9617
  43   0.0000       0.037177         1.0116
  44   0.0000       0.040171         1.0931

MULLIKEN ATOMIC CHARGES
-----------------------
   0 C :    0.358729
   1 H :   -0.193714
   2 C :    1.595620
   3 C :    0.336173
   4 H :   -0.259916
   5 C :    0.391697
   6 C :    0.516878
   7 H :   -0.167491
   8 H :   -0.018775
   9 C :    0.229960
  10 H :   -0.321425
  11 H :   -0.008628
  12 C :    0.450338
  13 C :    0.488132
  14 H :   -0.072592
  15 H :   -0.112179
  16 H :   -0.417248
  17 H :   -0.359563
  18 H :   -0.359363
  19 O :   -0.541842
  20 F :   -0.482915
  21 H :   -0.204696
  22 H :   -0.386240
  23 H :   -0.102546
  24 H :   -0.358395
Sum of atomic charges:   -0.0000000

LOEWDIN ATOMIC CHARGES
----------------------
   0 C :   -0.042349
   1 H :    0.015853
   2 C :    0.137430
   3 C :   -0.017067
   4 H :    0.021723
   5 C :   -0.006649
   6 C :   -0.016396
   7 H :    0.022170
   8 H :    0.020113
   9 C :   -0.014960
  10 H :    0.020686
  11 H :    0.010766
  12 C :    0.077458
  13 C :    0.025008
  14 H :    0.035794
  15 H :    0.038666
  16 H :   -0.076187
  17 H :   -0.101583
  18 H :   -0.015189
  19 O :   -0.129411
  20 F :   -0.041246
  21 H :    0.024054
  22 H :   -0.004011
  23 H :   -0.000255
  24 H :    0.015580

  Mayer bond orders larger than 0.100000
B(  0-C ,  1-H ) :   0.7129 B(  0-C ,  2-C ) :   1.0447 B(  0-C ,  3-C ) :   1.1539
B(  0-C ,  4-H ) :   0.7454 B(  0-C , 16-H ) :   0.3070 B(  0-C , 17-H ) :   0.2355
B(  0-C , 18-H ) :   0.2055 B(  0-C , 23-H ) :   0.1758 B(  0-C , 24-H ) :   0.1095
B(  1-H ,  3-C ) :   0.2078 B(  1-H ,  4-H ) :  -0.1612 B(  2-C ,  3-C ) :   0.1668
B(  2-C ,  4-H ) :   0.1593 B(  2-C , 16-H ) :   0.2815 B(  2-C , 17-H ) :   0.2403
B(  2-C , 18-H ) :   0.4900 B(  2-C , 23-H ) :  -0.1832 B(  2-C , 24-H ) :   0.1308
B(  3-C ,  4-H ) :   0.1002 B(  3-C ,  5-C ) :   1.1121 B(  3-C , 21-H ) :   0.2580
B(  3-C , 22-H ) :   0.1352 B(  3-C , 23-H ) :   0.7625 B(  3-C , 24-H ) :   0.8391
B(  5-C ,  6-C ) :   1.2012 B(  5-C ,  7-H ) :   0.1928 B(  5-C ,  8-H ) :   0.2419
B(  5-C ,  9-C ) :   0.1167 B(  5-C , 21-H ) :   0.6801 B(  5-C , 22-H ) :   0.7659
B(  5-C , 23-H ) :   0.1268 B(  5-C , 24-H ) :   0.2098 B(  6-C ,  7-H ) :   0.7622
B(  6-C ,  8-H ) :   0.6008 B(  6-C ,  9-C ) :   1.2195 B(  6-C , 10-H ) :   0.1709
B(  6-C , 11-H ) :   0.1060 B(  6-C , 21-H ) :   0.1290 B(  6-C , 22-H ) :   0.1131
B(  7-H ,  9-C ) :   0.1676 B(  8-H ,  9-C ) :   0.1685 B(  9-C , 10-H ) :   0.8500
B(  9-C , 11-H ) :   0.7765 B(  9-C , 12-C ) :   1.1757 B(  9-C , 14-H ) :   0.1912
B(  9-C , 15-H ) :   0.1016 B( 10-H , 11-H ) :  -0.1447 B( 10-H , 12-C ) :   0.1233
B( 11-H , 12-C ) :   0.1007 B( 12-C , 13-C ) :   1.1890 B( 12-C , 14-H ) :   0.6598
B( 12-C , 15-H ) :   0.8303 B( 13-C , 14-H ) :   0.1934 B( 13-C , 15-H ) :   0.2436
B( 13-C , 16-H ) :   0.1295 B( 13-C , 17-H ) :   0.1153 B( 13-C , 19-O ) :   1.7708
B( 13-C , 20-F ) :   0.6318 B( 16-H , 17-H ) :   0.4333 B( 16-H , 20-F ) :   0.1917
B( 16-H , 23-H ) :   0.2581 B( 16-H , 24-H ) :  -0.1999 B( 17-H , 19-O ) :   0.1993
B( 18-H , 23-H ) :  -0.1536 B( 19-O , 20-F ) :   0.1009 B( 23-H , 24-H ) :  -0.1274

Dispersion correction           -0.042715430
FINAL SINGLE POINT ENERGY      -488.318818921437

DIPOLE MOMENT
-------------
                                X             Y             Z
Electronic contribution:      3.59168      -0.31547      -9.80354
Nuclear contribution   :     -3.57245       1.60200       9.69133
                        -----------------------------------------
Total Dipole Moment    :      0.01924       1.28653      -0.11221
                        -----------------------------------------
Magnitude (a.u.)       :      1.29156
Magnitude (Debye)      :      3.28288

Rotational constants in cm-1:     0.051520     0.042563     0.028962
Rotational constants in MHz :  1544.537298  1275.996546   868.258224

                             ****ORCA TERMINATED NORMALLY****
TOTAL RUN TIME: 0 days 0 hours 1 minutes 35 seconds 614 msec
