                         Program Version 5.0.0 -  RELEASE  -
|  1> !PBE0 D3BJ RIJCOSX def2-TZVP def2/J TightSCF
|  2> *xyz -1 1
|  3> C         -0.77455        2.78833       -0.54394
|  4> C          0.69721        3.22791       -0.52513
|  5> O          1.48929        2.37470        0.19919
|  6> H          0.71600        4.26403       -0.13077
|  7> H          1.03615        3.33092       -1.58367
|  8> H         -1.34746        3.48478       -1.11982
|  9> H         -1.15078        2.75876        0.45729
| 10> H         -0.85058        1.81526       -0.98241
| 11> *
| 12>
| 13> %MaxCore 64000
| 14> %pal nprocs 4
| 15> end
| 16>
| 17> %scf
| 18>   MaxIter 150
| 19> end
| 20>
| 21>
| 22>                          ****END OF INPUT****

CARTESIAN COORDINATES (ANGSTROEM)
---------------------------------
  C     -0.774550    2.788330   -0.543940
  C      0.697210    3.227910   -0.525130
  O      1.489290    2.374700    0.199190
  H      0.716000    4.264030   -0.130770
  H      1.036150    3.330920   -1.583670
  H     -1.347460    3.484780   -1.119820
  H     -1.150780    2.758760    0.457290
  H     -0.850580    1.815260   -0.982410

 Total Charge           Charge          ....   -1
 Multiplicity           Mult            ....    1
 Number of Electrons    NEL             ....   26
 Basis Dimension        Dim             ....  123

ORBITAL ENERGIES
----------------

  NO   OCC          E(Eh)            E(eV)
   0   2.0000     -18.849592      -512.9235
   1   2.0000     -10.022983      -272.7392
   2   2.0000     -10.002074      -272.1703
   3   2.0000      -0.690500       -18.7895
   4   2.0000      -0.539382       -14.6773
   5   2.0000      -0.381325       -10.3764
   6   2.0000      -0.254955        -6.9377
   7   2.0000      -0.233037        -6.3413
   8   2.0000      -0.176883        -4.8132
   9   2.0000      -0.158248        -4.3061
  10   2.0000      -0.111709        -3.0397
  11   2.0000       0.034284         0.9329
  12   2.0000       0.036463         0.9922
  13   0.0000       0.226506         6.1635
  14   0.0000       0.262431         7.1411
  15   0.0000       0.288284         7.8446
  16   0.0000       0.290309         7.8997
  17   0.0000       0.324280         8.8241

MULLIKEN ATOMIC CHARGES
-----------------------
   0 C :   -0.166209
   1 C :    0.032581
   2 O :   -0.773038
   3 H :   -0.064369
   4 H :   -0.066555
   5 H :   -0.026856
   6 H :    0.032804
   7 H :    0.031642
Sum of atomic charges:   -1.0000000

LOEWDIN ATOMIC CHARGES
----------------------
   0 C :   -0.368895
   1 C :   -0.557857
   2 O :   -0.428619
   3 H :    0.053538
   4 H :    0.052737
   5 H :    0.073229
   6 H :    0.088163
   7 H :    0.087704

  Mayer bond orders larger than 0.100000
B(  0-C ,  1-C ) :   0.9094 B(  0-C ,  2-O ) :  -0.2481 B(  0-C ,  5-H ) :   0.9204
B(  0-C ,  6-H ) :   0.9639 B(  0-C ,  7-H ) :   0.9632 B(  1-C ,  2-O ) :   1.6107
B(  1-C ,  3-H ) :   0.9184 B(  1-C ,  4-H ) :   0.9186

Dispersion correction           -0.003050327
FINAL SINGLE POINT ENERGY      -154.297233507181

DIPOLE MOMENT
-------------
                                X             Y             Z
Electronic contribution:      2.51861      -1.14850       1.27774
Nuclear contribution   :     -3.69910       1.55962      -1.78699
                        -----------------------------------------
Total Dipole Moment    :     -1.18048       0.41112      -0.50925
                        -----------------------------------------
Magnitude (a.u.)       :      1.34978
Magnitude (Debye)      :      3.43087

Rotational constants in cm-1:     1.268893     0.327436     0.287754
Rotational constants in MHz : 38040.440181  9816.269339  8626.646564

                             ****ORCA TERMINATED NORMALLY****
TOTAL RUN TIME: 0 days 0 hours 0 minutes 10 seconds 982 msec
