                         Program Version 5.0.0 -  RELEASE  -
|  1> !PBE0 D3BJ RIJCOSX def2-TZVP def2/J TightSCF
|  2> *xyz 1 1
|  3> C          3.95643        0.50147       -0.37910
|  4> H          3.16840        0.02920        0.20738
|  5> N          3.80389        1.96157       -0.15675
|  6> C          3.84232        0.14849       -1.85406
|  7> H          4.92323        0.17798        0.00937
|  8> H          4.20643        2.24441        0.74536
|  9> H          2.80827        2.21132       -0.09610
| 10> H          4.28076        2.50155       -0.89104
| 11> H          4.62951        0.62800       -2.39748
| 12> H          2.89665        0.48102       -2.22825
| 13> H          3.92053       -0.91187       -1.97413
| 14> *
| 15>
| 16> %MaxCore 64000
| 17> %pal nprocs 4
| 18> end
| 19>
| 20> %scf
| 21>   MaxIter 150
| 22> end
| 23>
| 24>
| 25>                          ****END OF INPUT****

CARTESIAN COORDINATES (ANGSTROEM)
---------------------------------
  C      3.956430    0.501470   -0.379100
  H      3.168400    0.029200    0.207380
  N      3.803890    1.961570   -0.156750
  C      3.842320    0.148490   -1.854060
  H      4.923230    0.177980    0.009370
  H      4.206430    2.244410    0.745360
  H      2.808270    2.211320   -0.096100
  H      4.280760    2.501550   -0.891040
  H      4.629510    0.628000   -2.397480
  H      2.896650    0.481020   -2.228250
  H      3.920530   -0.911870   -1.974130

 Total Charge           Charge          ....    1
 Multiplicity           Mult            ....    1
 Number of Electrons    NEL             ....   26
 Basis Dimension        Dim             ....  141

ORBITAL ENERGIES
----------------

  NO   OCC          E(Eh)            E(eV)
   0   2.0000     -14.719427      -400.5360
   1   2.0000     -10.474707      -285.0313
   2   2.0000     -10.393913      -282.8327
   3   2.0000      -1.244300       -33.8591
   4   2.0000      -0.989492       -26.9254
   5   2.0000      -0.864381       -23.5210
   6   2.0000      -0.819623       -22.3031
   7   2.0000      -0.801614       -21.8130
   8   2.0000      -0.712388       -19.3851
   9   2.0000      -0.656779       -17.8719
  10   2.0000      -0.595886       -16.2149
  11   2.0000      -0.580925       -15.8078
  12   2.0000      -0.562885       -15.3169
  13   0.0000      -0.185969        -5.0605
  14   0.0000      -0.127178        -3.4607
  15   0.0000      -0.120634        -3.2826
  16   0.0000      -0.102985        -2.8024
  17   0.0000      -0.064404        -1.7525

MULLIKEN ATOMIC CHARGES
-----------------------
   0 C :   -0.211839
   1 H :    0.190932
   2 N :   -0.289611
   3 C :   -0.375257
   4 H :    0.193467
   5 H :    0.333753
   6 H :    0.333998
   7 H :    0.329065
   8 H :    0.157183
   9 H :    0.152766
  10 H :    0.185545
Sum of atomic charges:    1.0000000

LOEWDIN ATOMIC CHARGES
----------------------
   0 C :   -0.283770
   1 H :    0.153473
   2 N :    0.171633
   3 C :   -0.280756
   4 H :    0.154641
   5 H :    0.223566
   6 H :    0.225441
   7 H :    0.223200
   8 H :    0.131832
   9 H :    0.131616
  10 H :    0.149125

  Mayer bond orders larger than 0.100000
B(  0-C ,  1-H ) :   0.9484 B(  0-C ,  2-N ) :   0.8824 B(  0-C ,  3-C ) :   1.0225
B(  0-C ,  4-H ) :   0.9463 B(  2-N ,  5-H ) :   0.8759 B(  2-N ,  6-H ) :   0.8751
B(  2-N ,  7-H ) :   0.8699 B(  3-C ,  8-H ) :   0.9560 B(  3-C ,  9-H ) :   0.9568
B(  3-C , 10-H ) :   0.9530

Dispersion correction           -0.005018800
FINAL SINGLE POINT ENERGY      -135.422730900638

DIPOLE MOMENT
-------------
                                X             Y             Z
Electronic contribution:     -0.01239       1.34397       1.25531
Nuclear contribution   :     -0.06214      -0.04120      -0.39947
                        -----------------------------------------
Total Dipole Moment    :     -0.07453       1.30276       0.85584
                        -----------------------------------------
Magnitude (a.u.)       :      1.56052
Magnitude (Debye)      :      3.96652

Rotational constants in cm-1:     1.011771     0.281435     0.249812
Rotational constants in MHz : 30332.138762  8437.210602  7489.166323

                             ****ORCA TERMINATED NORMALLY****
TOTAL RUN TIME: 0 days 0 hours 0 minutes 12 seconds 277 msec
