                         Program Version 5.0.0 -  RELEASE  -
|  1> !PBE0 D3BJ RIJCOSX def2-TZVP def2/J TightSCF
|  2> *xyz 0 1
|  3> C         -0.77455        2.78833       -0.54394
|  4> C          0.69721        3.22791       -0.52513
|  5> F          1.48929        2.37470        0.19919
|  6> H          0.71600        4.26403       -0.13077
|  7> H          1.03615        3.33092       -1.58367
|  8> H         -1.34746        3.48478       -1.11982
|  9> H         -1.15078        2.75876        0.45729
| 10> H         -0.85058        1.81526       -0.98241
| 11> *
| 12>
| 13> %MaxCore 64000
| 14> %pal nprocs 4
| 15> end
| 16>
| 17> %scf
| 18>   MaxIter 150
| 19> end
| 20>
| 21>
| 22>                          ****END OF INPUT****

CARTESIAN COORDINATES (ANGSTROEM)
---------------------------------
  C     -0.774550    2.788330   -0.543940
  C      0.697210    3.227910   -0.525130
  F      1.489290    2.374700    0.199190
  H      0.716000    4.264030   -0.130770
  H      1.036150    3.330920   -1.583670
  H     -1.347460    3.484780   -1.119820
  H     -1.150780    2.758760    0.457290
  H     -0.850580    1.815260   -0.982410

 Total Charge           Charge          ....    0
 Multiplicity           Mult            ....    1
 Number of Electrons    NEL             ....   26
 Basis Dimension        Dim             ....  123

ORBITAL ENERGIES
----------------

  NO   OCC          E(Eh)            E(eV)
   0   2.0000     -24.755768      -673.6387
   1   2.0000     -10.298443      -280.2349
   2   2.0000     -10.213597      -277.9261
   3   2.0000      -1.228771       -33.4366
   4   2.0000      -0.787232       -21.4217
   5   2.0000      -0.650461       -17.6999
   6   2.0000      -0.523575       -14.2472
   7   2.0000      -0.509114       -13.8537
   8   2.0000      -0.472785       -12.8651
   9   2.0000      -0.418464       -11.3870
  10   2.0000      -0.413311       -11.2468
  11   2.0000      -0.348617        -9.4864
  12   2.0000      -0.341693        -9.2979
  13   0.0000       0.051652         1.4055
  14   0.0000       0.090202         2.4545
  15   0.0000       0.105976         2.8837
  16   0.0000       0.108845         2.9618
  17   0.0000       0.122724         3.3395

MULLIKEN ATOMIC CHARGES
-----------------------
   0 C :   -0.340294
   1 C :    0.016053
   2 F :   -0.227404
   3 H :    0.095023
   4 H :    0.095176
   5 H :    0.114929
   6 H :    0.123457
   7 H :    0.123061
Sum of atomic charges:   -0.0000000

LOEWDIN ATOMIC CHARGES
----------------------
   0 C :   -0.314442
   1 C :   -0.373043
   2 F :    0.093537
   3 H :    0.117496
   4 H :    0.118321
   5 H :    0.122485
   6 H :    0.117945
   7 H :    0.117701

  Mayer bond orders larger than 0.100000
B(  0-C ,  1-C ) :   1.0139 B(  0-C ,  5-H ) :   0.9560 B(  0-C ,  6-H ) :   0.9676
B(  0-C ,  7-H ) :   0.9678 B(  1-C ,  2-F ) :   1.0050 B(  1-C ,  3-H ) :   0.9662
B(  1-C ,  4-H ) :   0.9662

Dispersion correction           -0.002810993
FINAL SINGLE POINT ENERGY      -178.937756152147

DIPOLE MOMENT
-------------
                                X             Y             Z
Electronic contribution:      4.42608      -1.66270       2.00931
Nuclear contribution   :     -4.89513       2.05627      -2.36166
                        -----------------------------------------
Total Dipole Moment    :     -0.46906       0.39357      -0.35235
                        -----------------------------------------
Magnitude (a.u.)       :      0.70644
Magnitude (Debye)      :      1.79564

Rotational constants in cm-1:     1.247826     0.304622     0.269019
Rotational constants in MHz : 37408.889506  9132.346906  8064.979146

                             ****ORCA TERMINATED NORMALLY****
TOTAL RUN TIME: 0 days 0 hours 0 minutes 9 seconds 860 msec
