                         Program Version 5.0.0 -  RELEASE  -
|  1> !PBE0 D3BJ RIJCOSX def2-TZVP def2/J TightSCF
|  2> *xyz 0 1
|  3> C          3.95643        0.50147       -0.37910
|  4> H          3.16840        0.02920        0.20738
|  5> C          3.80389        1.96157       -0.15675
|  6> C          3.84232        0.14849       -1.85406
|  7> H          4.92323        0.17798        0.00937
|  8> H          4.20643        2.24441        0.74536
|  9> H          2.80827        2.21132       -0.09610
| 10> H          4.28076        2.50155       -0.89104
| 11> H          4.62951        0.62800       -2.39748
| 12> H          2.89665        0.48102       -2.22825
| 13> H          3.92053       -0.91187       -1.97413
| 14> *
| 15>
| 16> %MaxCore 64000
| 17> %pal nprocs 4
| 18> end
| 19>
| 20> %scf
| 21>   MaxIter 150
| 22> end
| 23>
| 24>
| 25>                          ****END OF INPUT****

CARTESIAN COORDINATES (ANGSTROEM)
---------------------------------
  C      3.956430    0.501470   -0.379100
  H      3.168400    0.029200    0.207380
  C      3.803890    1.961570   -0.156750
  C      3.842320    0.148490   -1.854060
  H      4.923230    0.177980    0.009370
  H      4.206430    2.244410    0.745360
  H      2.808270    2.211320   -0.096100
  H      4.280760    2.501550   -0.891040
  H      4.629510    0.628000   -2.397480
  H      2.896650    0.481020   -2.228250
  H      3.920530   -0.911870   -1.974130

 Total Charge           Charge          ....    0
 Multiplicity           Mult            ....    1
 Number of Electrons    NEL             ....   26
 Basis Dimension        Dim             ....  141

ORBITAL ENERGIES
----------------

  NO   OCC          E(Eh)            E(eV)
   0   2.0000     -10.205869      -277.7158
   1   2.0000     -10.195824      -277.4425
   2   2.0000     -10.177001      -276.9303
   3   2.0000      -0.815484       -22.1905
   4   2.0000      -0.710933       -19.3455
   5   2.0000      -0.602940       -16.4068
   6   2.0000      -0.482769       -13.1368
   7   2.0000      -0.459021       -12.4906
   8   2.0000      -0.414358       -11.2753
   9   2.0000      -0.402618       -10.9558
  10   2.0000      -0.348138        -9.4733
  11   2.0000      -0.345546        -9.4028
  12   2.0000      -0.335821        -9.1382
  13   0.0000       0.051007         1.3880
  14   0.0000       0.093049         2.5320
  15   0.0000       0.099727         2.7137
  16   0.0000       0.104049         2.8313
  17   0.0000       0.124415         3.3855

MULLIKEN ATOMIC CHARGES
-----------------------
   0 C :   -0.160367
   1 H :    0.090765
   2 C :   -0.347004
   3 C :   -0.351873
   4 H :    0.092274
   5 H :    0.116473
   6 H :    0.113205
   7 H :    0.107010
   8 H :    0.112266
   9 H :    0.110348
  10 H :    0.116902
Sum of atomic charges:   -0.0000000

LOEWDIN ATOMIC CHARGES
----------------------
   0 C :   -0.326279
   1 H :    0.133781
   2 C :   -0.308693
   3 C :   -0.310252
   4 H :    0.131586
   5 H :    0.110363
   6 H :    0.110901
   7 H :    0.110098
   8 H :    0.116151
   9 H :    0.116932
  10 H :    0.115411

  Mayer bond orders larger than 0.100000
B(  0-C ,  1-H ) :   0.9670 B(  0-C ,  2-C ) :   0.9958 B(  0-C ,  3-C ) :   1.0050
B(  0-C ,  4-H ) :   0.9662 B(  2-C ,  5-H ) :   0.9779 B(  2-C ,  6-H ) :   0.9775
B(  2-C ,  7-H ) :   0.9759 B(  3-C ,  8-H ) :   0.9742 B(  3-C ,  9-H ) :   0.9737
B(  3-C , 10-H ) :   0.9750

Dispersion correction           -0.005038215
FINAL SINGLE POINT ENERGY      -119.019622830755

DIPOLE MOMENT
-------------
                                X             Y             Z
Electronic contribution:      0.08110      -0.29583       0.23552
Nuclear contribution   :     -0.08172       0.30475      -0.19303
                        -----------------------------------------
Total Dipole Moment    :     -0.00062       0.00892       0.04249
                        -----------------------------------------
Magnitude (a.u.)       :      0.04342
Magnitude (Debye)      :      0.11036

Rotational constants in cm-1:     1.020248     0.295755     0.261591
Rotational constants in MHz : 30586.266829  8866.511639  7842.297953

                             ****ORCA TERMINATED NORMALLY****
TOTAL RUN TIME: 0 days 0 hours 0 minutes 12 seconds 557 msec
