                         Program Version 5.0.0 -  RELEASE  -
|  1> !PBE0 D3BJ RIJCOSX def2-TZVP def2/J TightSCF xyzfile
|  2>
|  3> *xyzfile 0 1 D.xyz
|  4>
|  5> %MaxCore 64000
|  6>
|  7> %pal nprocs 18
|  8> end
|  9>
| 10> %scf
| 11>   MaxIter 150
| 12> end
| 13>
| 14>
| 15>                          ****END OF INPUT****

CARTESIAN COORDINATES (ANGSTROEM)
---------------------------------
  C      3.956426    0.501466   -0.379100
  H      3.168398    0.029201    0.207383
  C      3.803893    1.961572   -0.156747
  C      3.842322    0.148490   -1.854058
  H      4.923231    0.177982    0.009371
  H      4.620021    0.694502   -2.402150
  H      4.096015   -0.910930   -1.955103
  C      2.475619    0.412708   -2.485377
  H      2.174689    1.445076   -2.287971
  C      1.383931   -0.532740   -1.995203
  H      2.575613    0.318574   -3.571460
  H      1.264698   -0.412309   -0.915491
  H      1.705223   -1.566885   -2.164984
  C      0.031398   -0.317260   -2.677791
  C     -0.587292    1.060853   -2.436460
  H     -0.662815   -1.089530   -2.329985
  H      0.149465   -0.478040   -3.755648
  H      0.104376    1.828590   -2.793130
  C     -0.951213    1.334978   -0.972500
  H     -1.478832    1.161355   -3.062484
  H     -0.317007    0.741648   -0.311389
  H     -1.980916    1.012842   -0.788958
  C     -0.774550    2.788332   -0.543943
  H     -1.352609    3.459372   -1.192585
  H     -1.171014    2.902331    0.469968
  C      0.697208    3.227911   -0.525126
  F      1.489294    2.374703    0.199189
  H      0.715998    4.264030   -0.130774
  H      1.036148    3.330920   -1.583669
  H      4.206425    2.244406    0.745359
  H      2.808269    2.211323   -0.096097
  H      4.280757    2.501552   -0.891037

 Total Charge           Charge          ....    0
 Multiplicity           Mult            ....    1
 Number of Electrons    NEL             ....   90
 Basis Dimension        Dim             ....  467

ORBITAL ENERGIES
----------------

  NO   OCC          E(Eh)            E(eV)
   0   2.0000     -24.779554      -674.2860
   1   2.0000     -10.307573      -280.4833
   2   2.0000     -10.231745      -278.4199
   3   2.0000     -10.218551      -278.0609
   4   2.0000     -10.215207      -277.9699
   5   2.0000     -10.212036      -277.8836
   6   2.0000     -10.206148      -277.7234
   7   2.0000     -10.203904      -277.6623
   8   2.0000     -10.198075      -277.5037
   9   2.0000     -10.187020      -277.2029
  10   2.0000     -10.132180      -275.7106
  11   2.0000      -1.264845       -34.4182
  12   2.0000      -0.844460       -22.9789
  13   2.0000      -0.824726       -22.4419
  14   2.0000      -0.791395       -21.5350
  15   2.0000      -0.759814       -20.6756
  16   2.0000      -0.711462       -19.3599
  17   2.0000      -0.685145       -18.6437
  18   2.0000      -0.642142       -17.4736
  19   2.0000      -0.618884       -16.8407
  20   2.0000      -0.582024       -15.8377
  21   2.0000      -0.568776       -15.4772
  22   2.0000      -0.545657       -14.8481
  23   2.0000      -0.530248       -14.4288
  24   2.0000      -0.510262       -13.8849
  25   2.0000      -0.483356       -13.1528
  26   2.0000      -0.472288       -12.8516
  27   2.0000      -0.462520       -12.5858
  28   2.0000      -0.442994       -12.0545
  29   2.0000      -0.440172       -11.9777
  30   2.0000      -0.423475       -11.5234
  31   2.0000      -0.406024       -11.0485
  32   2.0000      -0.399166       -10.8619
  33   2.0000      -0.386635       -10.5209
  34   2.0000      -0.377596       -10.2749
  35   2.0000      -0.367066        -9.9884
  36   2.0000      -0.359993        -9.7959
  37   2.0000      -0.353567        -9.6211
  38   2.0000      -0.335285        -9.1236
  39   2.0000      -0.330479        -8.9928
  40   2.0000      -0.324312        -8.8250
  41   2.0000      -0.323295        -8.7973
  42   2.0000      -0.308101        -8.3839
  43   2.0000      -0.306918        -8.3517
  44   2.0000      -0.284804        -7.7499
  45   0.0000       0.040634         1.1057
  46   0.0000       0.050716         1.3801
  47   0.0000       0.058395         1.5890
  48   0.0000       0.066683         1.8145
  49   0.0000       0.077025         2.0959

MULLIKEN ATOMIC CHARGES
-----------------------
   0 C :   -0.174105
   1 H :    0.085751
   2 C :   -0.426692
   3 C :   -0.155315
   4 H :    0.091127
   5 H :    0.100379
   6 H :    0.083671
   7 C :   -0.191607
   8 H :    0.079262
   9 C :   -0.246892
  10 H :    0.093042
  11 H :    0.102202
  12 H :    0.101057
  13 C :   -0.134922
  14 C :   -0.251416
  15 H :    0.098161
  16 H :    0.097817
  17 H :    0.105526
  18 C :   -0.176846
  19 H :    0.107557
  20 H :    0.109418
  21 H :    0.111901
  22 C :   -0.196669
  23 H :    0.108632
  24 H :    0.111442
  25 C :   -0.048803
  26 F :   -0.172978
  27 H :    0.120336
  28 H :    0.110192
  29 H :    0.099989
  30 H :    0.169107
  31 H :    0.089677
Sum of atomic charges:    0.0000000

LOEWDIN ATOMIC CHARGES
----------------------
   0 C :   -0.307381
   1 H :    0.132930
   2 C :   -0.326104
   3 C :   -0.273120
   4 H :    0.131329
   5 H :    0.136302
   6 H :    0.134662
   7 C :   -0.268825
   8 H :    0.132944
   9 C :   -0.272224
  10 H :    0.136223
  11 H :    0.133142
  12 H :    0.138361
  13 C :   -0.271935
  14 C :   -0.269122
  15 H :    0.137592
  16 H :    0.137254
  17 H :    0.133800
  18 C :   -0.270417
  19 H :    0.135915
  20 H :    0.141372
  21 H :    0.137842
  22 C :   -0.280357
  23 H :    0.144487
  24 H :    0.140156
  25 C :   -0.346520
  26 F :    0.177484
  27 H :    0.127319
  28 H :    0.124051
  29 H :    0.104690
  30 H :    0.064403
  31 H :    0.103750

  Mayer bond orders larger than 0.100000
B(  0-C ,  1-H ) :   0.9770 B(  0-C ,  2-C ) :   0.9651 B(  0-C ,  3-C ) :   1.0121
B(  0-C ,  4-H ) :   0.9587 B(  2-C , 29-H ) :   0.9713 B(  2-C , 30-H ) :   0.9767
B(  2-C , 31-H ) :   0.9669 B(  3-C ,  5-H ) :   0.9653 B(  3-C ,  6-H ) :   0.9569
B(  3-C ,  7-C ) :   1.0042 B(  7-C ,  8-H ) :   0.9661 B(  7-C ,  9-C ) :   1.0002
B(  7-C , 10-H ) :   0.9514 B(  9-C , 11-H ) :   0.9739 B(  9-C , 12-H ) :   0.9534
B(  9-C , 13-C ) :   1.0121 B( 13-C , 14-C ) :   0.9887 B( 13-C , 15-H ) :   0.9574
B( 13-C , 16-H ) :   0.9572 B( 14-C , 17-H ) :   0.9854 B( 14-C , 18-C ) :   0.9688
B( 14-C , 19-H ) :   0.9515 B( 18-C , 20-H ) :   0.9693 B( 18-C , 21-H ) :   0.9545
B( 18-C , 22-C ) :   0.9995 B( 22-C , 23-H ) :   0.9445 B( 22-C , 24-H ) :   0.9550
B( 22-C , 25-C ) :   1.0301 B( 25-C , 26-F ) :   0.9434 B( 25-C , 27-H ) :   0.9641
B( 25-C , 28-H ) :   0.9686

Dispersion correction           -0.028093737
FINAL SINGLE POINT ENERGY      -493.122674519775

DIPOLE MOMENT
-------------
                                X             Y             Z
Electronic contribution:     -1.95763       3.28169       4.28587
Nuclear contribution   :      1.09293      -2.80761      -4.51228
                        -----------------------------------------
Total Dipole Moment    :     -0.86470       0.47408      -0.22641
                        -----------------------------------------
Magnitude (a.u.)       :      1.01179
Magnitude (Debye)      :      2.57176

Rotational constants in cm-1:     0.040502     0.027818     0.018259
Rotational constants in MHz :  1214.218058   833.972871   547.398614

                             ****ORCA TERMINATED NORMALLY****
TOTAL RUN TIME: 0 days 0 hours 0 minutes 52 seconds 353 msec
