                         Program Version 5.0.0 -  RELEASE  -
|  1> !wB97X-D3 RIJCOSX def2-SVPD def2/J TightSCF CPCM(Water)
|  2> *xyz -1 1
|  3> C         -0.46129        2.23469       -4.98962
|  4> C          0.84888        2.66797       -4.30235
|  5> C          2.09343        1.86104       -4.65684
|  6> H          2.44481        2.04157       -5.67499
|  7> H          2.90175        2.13786       -3.98034
|  8> S          1.87964        0.07859       -4.46297
|  9> O          3.20757       -0.46611       -4.42026
| 10> O          1.07506       -0.05616       -3.26876
| 11> O          1.13166       -0.31996       -5.67903
| 12> H          0.66843        2.55943       -3.23285
| 13> H          1.03407        3.72943       -4.49708
| 14> H         -0.35183        2.31783       -6.05075
| 15> H         -1.26108        2.86600       -4.66300
| 16> H         -0.68032        1.21949       -4.73211
| 17> *
| 18>
| 19> %MaxCore 64000
| 20>
| 21> %pal nprocs 8
| 22> end
| 23>
| 24> %scf
| 25>   MaxIter 150
| 26> end
| 27>
| 28>
| 29>                          ****END OF INPUT****

CARTESIAN COORDINATES (ANGSTROEM)
---------------------------------
  C     -0.461290    2.234690   -4.989620
  C      0.848880    2.667970   -4.302350
  C      2.093430    1.861040   -4.656840
  H      2.444810    2.041570   -5.674990
  H      2.901750    2.137860   -3.980340
  S      1.879640    0.078590   -4.462970
  O      3.207570   -0.466110   -4.420260
  O      1.075060   -0.056160   -3.268760
  O      1.131660   -0.319960   -5.679030
  H      0.668430    2.559430   -3.232850
  H      1.034070    3.729430   -4.497080
  H     -0.351830    2.317830   -6.050750
  H     -1.261080    2.866000   -4.663000
  H     -0.680320    1.219490   -4.732110

 Total Charge           Charge          ....   -1
 Multiplicity           Mult            ....    1
 Number of Electrons    NEL             ....   66
 Basis Dimension        Dim             ....  212

ORBITAL ENERGIES
----------------

  NO   OCC          E(Eh)            E(eV)
   0   2.0000     -89.151287     -2425.9299
   1   2.0000     -19.210435      -522.7425
   2   2.0000     -19.205972      -522.6211
   3   2.0000     -19.195112      -522.3255
   4   2.0000     -10.293381      -280.0971
   5   2.0000     -10.283742      -279.8348
   6   2.0000     -10.261435      -279.2278
   7   2.0000      -8.225523      -223.8279
   8   2.0000      -6.185362      -168.3123
   9   2.0000      -6.185272      -168.3098
  10   2.0000      -6.183737      -168.2680
  11   2.0000      -1.231116       -33.5004
  12   2.0000      -1.091886       -29.7117
  13   2.0000      -1.066629       -29.0244
  14   2.0000      -0.897689       -24.4274
  15   2.0000      -0.809249       -22.0208
  16   2.0000      -0.710622       -19.3370
  17   2.0000      -0.646455       -17.5909
  18   2.0000      -0.591505       -16.0957
  19   2.0000      -0.566099       -15.4043
  20   2.0000      -0.558922       -15.2090
  21   2.0000      -0.539786       -14.6883
  22   2.0000      -0.525874       -14.3098
  23   2.0000      -0.493935       -13.4406
  24   2.0000      -0.457847       -12.4586
  25   2.0000      -0.441841       -12.0231
  26   2.0000      -0.436774       -11.8852
  27   2.0000      -0.428944       -11.6722
  28   2.0000      -0.417622       -11.3641
  29   2.0000      -0.393822       -10.7165
  30   2.0000      -0.381529       -10.3819
  31   2.0000      -0.362976        -9.8771
  32   2.0000      -0.346665        -9.4332
  33   0.0000       0.082166         2.2358
  34   0.0000       0.100004         2.7213
  35   0.0000       0.101039         2.7494
  36   0.0000       0.103284         2.8105
  37   0.0000       0.138757         3.7758

MULLIKEN ATOMIC CHARGES
-----------------------
   0 C :    0.712226
   1 C :   -0.278811
   2 C :    0.050146
   3 H :    0.024610
   4 H :    0.028520
   5 S :    1.271638
   6 O :   -0.834817
   7 O :   -0.826643
   8 O :   -0.846251
   9 H :    0.057942
  10 H :   -0.149368
  11 H :   -0.053404
  12 H :   -0.068536
  13 H :   -0.087252
Sum of atomic charges:   -1.0000000

LOEWDIN ATOMIC CHARGES
----------------------
   0 C :    0.119211
   1 C :   -0.080093
   2 C :   -0.077973
   3 H :    0.021097
   4 H :    0.013963
   5 S :    0.852171
   6 O :   -0.596008
   7 O :   -0.591786
   8 O :   -0.623169
   9 H :    0.013960
  10 H :    0.025917
  11 H :   -0.013939
  12 H :   -0.016980
  13 H :   -0.046371

  Mayer bond orders larger than 0.100000
B(  0-C ,  1-C ) :   1.2664 B(  0-C , 11-H ) :   0.7752 B(  0-C , 12-H ) :   0.7965
B(  0-C , 13-H ) :   0.8317 B(  1-C ,  2-C ) :   1.2453 B(  1-C ,  3-H ) :   0.1216
B(  1-C ,  4-H ) :   0.1289 B(  1-C ,  9-H ) :   0.8677 B(  1-C , 10-H ) :   0.9532
B(  1-C , 11-H ) :   0.2019 B(  1-C , 12-H ) :   0.1865 B(  1-C , 13-H ) :   0.1981
B(  2-C ,  3-H ) :   0.9351 B(  2-C ,  4-H ) :   0.9162 B(  2-C ,  5-S ) :   0.9393
B(  2-C ,  9-H ) :   0.1172 B(  2-C , 10-H ) :   0.1092 B(  5-S ,  6-O ) :   1.3850
B(  5-S ,  7-O ) :   1.2877 B(  5-S ,  8-O ) :   1.2472

Dispersion correction           -0.004656562
FINAL SINGLE POINT ENERGY      -742.071090269233

DIPOLE MOMENT
-------------
                                X             Y             Z
Electronic contribution:      4.81862      -8.10732       1.01672
Nuclear contribution   :     -5.21326      11.14780      -1.06438
                        -----------------------------------------
Total Dipole Moment    :     -0.39464       3.04048      -0.04766
                        -----------------------------------------
Magnitude (a.u.)       :      3.06635
Magnitude (Debye)      :      7.79405

Rotational constants in cm-1:     0.135673     0.057896     0.054396
Rotational constants in MHz :  4067.361083  1735.682437  1630.763840

                             ****ORCA TERMINATED NORMALLY****
TOTAL RUN TIME: 0 days 0 hours 0 minutes 22 seconds 799 msec
