                         Program Version 5.0.0 -  RELEASE  -
|  1> !wB97X-D3 RIJCOSX def2-SVPD def2/J TightSCF CPCM(Water)
|  2> *xyz 1 1
|  3> C         -0.46129        2.23469       -4.98962
|  4> C          0.84888        2.66797       -4.30235
|  5> C          2.09343        1.86104       -4.65684
|  6> C         -0.42384        2.39877       -6.47432
|  7> N         -0.95947        3.49265       -7.00740
|  8> N          0.14558        1.48689       -7.20399
|  9> H          0.56537        0.69681       -6.72386
| 10> H          0.22068        1.58177       -8.20752
| 11> H         -1.40624        4.18151       -6.40326
| 12> H         -0.93421        3.68160       -7.99947
| 13> H          0.66843        2.55943       -3.23285
| 14> H          1.03407        3.72943       -4.49708
| 15> H         -1.28888        2.82674       -4.59500
| 16> H         -0.65170        1.18634       -4.75655
| 17> H          2.29129        1.95234       -5.70442
| 18> H          1.93270        0.83176       -4.41261
| 19> H          2.92953        2.23285       -4.10223
| 20> *
| 21>
| 22> %MaxCore 64000
| 23>
| 24> %pal nprocs 8
| 25> end
| 26>
| 27> %scf
| 28>   MaxIter 150
| 29> end
| 30>
| 31>
| 32>                          ****END OF INPUT****

CARTESIAN COORDINATES (ANGSTROEM)
---------------------------------
  C     -0.461290    2.234690   -4.989620
  C      0.848880    2.667970   -4.302350
  C      2.093430    1.861040   -4.656840
  C     -0.423840    2.398770   -6.474320
  N     -0.959470    3.492650   -7.007400
  N      0.145580    1.486890   -7.203990
  H      0.565370    0.696810   -6.723860
  H      0.220680    1.581770   -8.207520
  H     -1.406240    4.181510   -6.403260
  H     -0.934210    3.681600   -7.999470
  H      0.668430    2.559430   -3.232850
  H      1.034070    3.729430   -4.497080
  H     -1.288880    2.826740   -4.595000
  H     -0.651700    1.186340   -4.756550
  H      2.291290    1.952340   -5.704420
  H      1.932700    0.831760   -4.412610
  H      2.929530    2.232850   -4.102230

 Total Charge           Charge          ....    1
 Multiplicity           Mult            ....    1
 Number of Electrons    NEL             ....   48
 Basis Dimension        Dim             ....  208

ORBITAL ENERGIES
----------------

  NO   OCC          E(Eh)            E(eV)
   0   2.0000     -14.500733      -394.5850
   1   2.0000     -14.496536      -394.4708
   2   2.0000     -10.434823      -283.9460
   3   2.0000     -10.318821      -280.7894
   4   2.0000     -10.301403      -280.3154
   5   2.0000     -10.275516      -279.6110
   6   2.0000      -1.131969       -30.8024
   7   2.0000      -1.032409       -28.0933
   8   2.0000      -0.923708       -25.1354
   9   2.0000      -0.841010       -22.8850
  10   2.0000      -0.763065       -20.7641
  11   2.0000      -0.725821       -19.7506
  12   2.0000      -0.695746       -18.9322
  13   2.0000      -0.667655       -18.1678
  14   2.0000      -0.615086       -16.7374
  15   2.0000      -0.589914       -16.0524
  16   2.0000      -0.563779       -15.3412
  17   2.0000      -0.539898       -14.6914
  18   2.0000      -0.517761       -14.0890
  19   2.0000      -0.501060       -13.6345
  20   2.0000      -0.451425       -12.2839
  21   2.0000      -0.441821       -12.0226
  22   2.0000      -0.439160       -11.9501
  23   2.0000      -0.402379       -10.9493
  24   0.0000       0.049292         1.3413
  25   0.0000       0.089724         2.4415
  26   0.0000       0.117008         3.1839
  27   0.0000       0.122408         3.3309
  28   0.0000       0.132748         3.6123

MULLIKEN ATOMIC CHARGES
-----------------------
   0 C :   -0.041545
   1 C :   -0.404175
   2 C :    0.622777
   3 C :    0.770995
   4 N :   -0.127859
   5 N :   -0.057200
   6 H :    0.166624
   7 H :   -0.052184
   8 H :    0.123398
   9 H :   -0.051511
  10 H :    0.007070
  11 H :   -0.023495
  12 H :    0.046783
  13 H :    0.112909
  14 H :   -0.056453
  15 H :    0.021768
  16 H :   -0.057901
Sum of atomic charges:    1.0000000

LOEWDIN ATOMIC CHARGES
----------------------
   0 C :    0.047068
   1 C :   -0.047213
   2 C :    0.121151
   3 C :   -0.036534
   4 N :    0.282198
   5 N :    0.292221
   6 H :    0.055913
   7 H :    0.065811
   8 H :    0.059276
   9 H :    0.053254
  10 H :    0.029988
  11 H :    0.031545
  12 H :    0.041828
  13 H :    0.048188
  14 H :   -0.027344
  15 H :   -0.007268
  16 H :   -0.010084

  Mayer bond orders larger than 0.100000
B(  0-C ,  1-C ) :   1.1929 B(  0-C ,  3-C ) :   1.0813 B(  0-C ,  4-N ) :   0.1031
B(  0-C ,  5-N ) :   0.1057 B(  0-C , 10-H ) :   0.1069 B(  0-C , 12-H ) :   0.9110
B(  0-C , 13-H ) :   0.8530 B(  1-C ,  2-C ) :   1.3032 B(  1-C , 10-H ) :   0.9202
B(  1-C , 11-H ) :   1.0009 B(  1-C , 12-H ) :   0.1094 B(  1-C , 13-H ) :   0.1219
B(  1-C , 14-H ) :   0.1954 B(  1-C , 15-H ) :   0.1941 B(  1-C , 16-H ) :   0.2025
B(  2-C , 14-H ) :   0.8294 B(  2-C , 15-H ) :   0.8095 B(  2-C , 16-H ) :   0.8093
B(  3-C ,  4-N ) :   1.0297 B(  3-C ,  5-N ) :   1.1099 B(  3-C ,  7-H ) :  -0.1806
B(  3-C ,  9-H ) :  -0.1536 B(  4-N ,  5-N ) :   0.1546 B(  4-N ,  8-H ) :   1.0535
B(  4-N ,  9-H ) :   1.2896 B(  5-N ,  6-H ) :   0.9685 B(  5-N ,  7-H ) :   1.3443
B(  6-H ,  7-H ) :  -0.1822 B(  8-H ,  9-H ) :  -0.1701

Dispersion correction           -0.004586189
FINAL SINGLE POINT ENERGY      -268.198965183739

DIPOLE MOMENT
-------------
                                X             Y             Z
Electronic contribution:     -3.78182       0.63020      -4.69451
Nuclear contribution   :      2.80679      -0.44323       2.95915
                        -----------------------------------------
Total Dipole Moment    :     -0.97503       0.18696      -1.73536
                        -----------------------------------------
Magnitude (a.u.)       :      1.99928
Magnitude (Debye)      :      5.08175

Rotational constants in cm-1:     0.187834     0.079484     0.065778
Rotational constants in MHz :  5631.136036  2382.861517  1971.985559

                             ****ORCA TERMINATED NORMALLY****
TOTAL RUN TIME: 0 days 0 hours 0 minutes 22 seconds 898 msec
