                         Program Version 5.0.0 -  RELEASE  -
|  1> !wB97X-D3 RIJCOSX def2-SVPD def2/J TightSCF CPCM(Water)
|  2> *xyz 0 1
|  3> C         -0.46129        2.23469       -4.98962
|  4> C          0.84888        2.66797       -4.30235
|  5> C          2.09343        1.86104       -4.65684
|  6> H          2.44481        2.04157       -5.67499
|  7> H          2.90175        2.13786       -3.98034
|  8> S          1.87964        0.07859       -4.46297
|  9> F          3.20757       -0.46611       -4.42026
| 10> O          1.07506       -0.05616       -3.26876
| 11> O          1.13166       -0.31996       -5.67903
| 12> H          0.66843        2.55943       -3.23285
| 13> H          1.03407        3.72943       -4.49708
| 14> H         -0.35183        2.31783       -6.05075
| 15> H         -1.26108        2.86600       -4.66300
| 16> H         -0.68032        1.21949       -4.73211
| 17> *
| 18>
| 19> %MaxCore 64000
| 20>
| 21> %pal nprocs 8
| 22> end
| 23>
| 24> %scf
| 25>   MaxIter 150
| 26> end
| 27>
| 28>
| 29>                          ****END OF INPUT****

CARTESIAN COORDINATES (ANGSTROEM)
---------------------------------
  C     -0.461290    2.234690   -4.989620
  C      0.848880    2.667970   -4.302350
  C      2.093430    1.861040   -4.656840
  H      2.444810    2.041570   -5.674990
  H      2.901750    2.137860   -3.980340
  S      1.879640    0.078590   -4.462970
  F      3.207570   -0.466110   -4.420260
  O      1.075060   -0.056160   -3.268760
  O      1.131660   -0.319960   -5.679030
  H      0.668430    2.559430   -3.232850
  H      1.034070    3.729430   -4.497080
  H     -0.351830    2.317830   -6.050750
  H     -1.261080    2.866000   -4.663000
  H     -0.680320    1.219490   -4.732110

 Total Charge           Charge          ....    0
 Multiplicity           Mult            ....    1
 Number of Electrons    NEL             ....   66
 Basis Dimension        Dim             ....  212

ORBITAL ENERGIES
----------------

  NO   OCC          E(Eh)            E(eV)
   0   2.0000     -89.239959     -2428.3427
   1   2.0000     -24.920852      -678.1309
   2   2.0000     -19.267902      -524.3063
   3   2.0000     -19.256853      -524.0056
   4   2.0000     -10.335015      -281.2300
   5   2.0000     -10.302927      -280.3569
   6   2.0000     -10.271691      -279.5069
   7   2.0000      -8.314272      -226.2428
   8   2.0000      -6.277782      -170.8271
   9   2.0000      -6.271995      -170.6697
  10   2.0000      -6.269901      -170.6127
  11   2.0000      -1.495787       -40.7024
  12   2.0000      -1.232647       -33.5420
  13   2.0000      -1.127872       -30.6910
  14   2.0000      -0.929224       -25.2855
  15   2.0000      -0.860608       -23.4183
  16   2.0000      -0.810319       -22.0499
  17   2.0000      -0.735943       -20.0260
  18   2.0000      -0.696794       -18.9607
  19   2.0000      -0.680697       -18.5227
  20   2.0000      -0.660912       -17.9843
  21   2.0000      -0.593532       -16.1508
  22   2.0000      -0.577761       -15.7217
  23   2.0000      -0.556817       -15.1518
  24   2.0000      -0.550325       -14.9751
  25   2.0000      -0.514322       -13.9954
  26   2.0000      -0.492983       -13.4147
  27   2.0000      -0.462078       -12.5738
  28   2.0000      -0.458503       -12.4765
  29   2.0000      -0.441605       -12.0167
  30   2.0000      -0.433080       -11.7847
  31   2.0000      -0.416374       -11.3301
  32   2.0000      -0.413071       -11.2402
  33   0.0000       0.070147         1.9088
  34   0.0000       0.095197         2.5904
  35   0.0000       0.098891         2.6910
  36   0.0000       0.099860         2.7173
  37   0.0000       0.120508         3.2792

MULLIKEN ATOMIC CHARGES
-----------------------
   0 C :    0.682706
   1 C :   -0.312785
   2 C :   -0.042781
   3 H :    0.099990
   4 H :    0.114804
   5 S :    1.540686
   6 F :   -0.441051
   7 O :   -0.710979
   8 O :   -0.734352
   9 H :    0.087668
  10 H :   -0.112319
  11 H :   -0.035135
  12 H :   -0.054666
  13 H :   -0.081784
Sum of atomic charges:   -0.0000000

LOEWDIN ATOMIC CHARGES
----------------------
   0 C :    0.130513
   1 C :   -0.059072
   2 C :   -0.038010
   3 H :    0.037833
   4 H :    0.031594
   5 S :    1.138268
   6 F :   -0.235461
   7 O :   -0.492284
   8 O :   -0.520429
   9 H :    0.023868
  10 H :    0.040523
  11 H :   -0.008206
  12 H :   -0.010212
  13 H :   -0.038925

  Mayer bond orders larger than 0.100000
B(  0-C ,  1-C ) :   1.2766 B(  0-C , 11-H ) :   0.7871 B(  0-C , 12-H ) :   0.8024
B(  0-C , 13-H ) :   0.8327 B(  1-C ,  2-C ) :   1.2851 B(  1-C ,  3-H ) :   0.1187
B(  1-C ,  4-H ) :   0.1342 B(  1-C ,  9-H ) :   0.8698 B(  1-C , 10-H ) :   0.9673
B(  1-C , 11-H ) :   0.1947 B(  1-C , 12-H ) :   0.1846 B(  1-C , 13-H ) :   0.1855
B(  2-C ,  3-H ) :   0.9352 B(  2-C ,  4-H ) :   0.8857 B(  2-C ,  5-S ) :   0.9788
B(  2-C ,  9-H ) :   0.1140 B(  2-C , 10-H ) :   0.1026 B(  5-S ,  6-F ) :   0.7077
B(  5-S ,  7-O ) :   1.4627 B(  5-S ,  8-O ) :   1.4225

Dispersion correction           -0.004635921
FINAL SINGLE POINT ENERGY      -766.463278110268

DIPOLE MOMENT
-------------
                                X             Y             Z
Electronic contribution:      8.52667     -10.80910       1.26025
Nuclear contribution   :     -7.07796      12.41139      -1.18012
                        -----------------------------------------
Total Dipole Moment    :      1.44871       1.60229       0.08012
                        -----------------------------------------
Magnitude (a.u.)       :      2.16160
Magnitude (Debye)      :      5.49436

Rotational constants in cm-1:     0.134396     0.055628     0.052255
Rotational constants in MHz :  4029.100214  1667.685325  1566.551712

                             ****ORCA TERMINATED NORMALLY****
TOTAL RUN TIME: 0 days 0 hours 0 minutes 24 seconds 252 msec
