                         Program Version 5.0.0 -  RELEASE  -
|  1> !wB97X-D3 RIJCOSX def2-SVPD def2/J TightSCF CPCM(Water)
|  2> *xyz 0 1
|  3> C         -0.46129        2.23469       -4.98962
|  4> C          0.84888        2.66797       -4.30235
|  5> C          2.09343        1.86104       -4.65684
|  6> C         -0.42384        2.39877       -6.47432
|  7> C         -0.95947        3.49265       -7.00740
|  8> N          0.14558        1.48689       -7.20399
|  9> H          0.56537        0.69681       -6.72386
| 10> H          0.22068        1.58177       -8.20752
| 11> H         -1.40624        4.18151       -6.40326
| 12> H         -0.93421        3.68160       -7.99947
| 13> H          0.66843        2.55943       -3.23285
| 14> H          1.03407        3.72943       -4.49708
| 15> H         -1.28888        2.82674       -4.59500
| 16> H         -0.65170        1.18634       -4.75655
| 17> H          2.29129        1.95234       -5.70442
| 18> H          1.93270        0.83176       -4.41261
| 19> H          2.92953        2.23285       -4.10223
| 20> *
| 21>
| 22> %MaxCore 64000
| 23>
| 24> %pal nprocs 8
| 25> end
| 26>
| 27> %scf
| 28>   MaxIter 150
| 29> end
| 30>
| 31>
| 32>                          ****END OF INPUT****

CARTESIAN COORDINATES (ANGSTROEM)
---------------------------------
  C     -0.461290    2.234690   -4.989620
  C      0.848880    2.667970   -4.302350
  C      2.093430    1.861040   -4.656840
  C     -0.423840    2.398770   -6.474320
  C     -0.959470    3.492650   -7.007400
  N      0.145580    1.486890   -7.203990
  H      0.565370    0.696810   -6.723860
  H      0.220680    1.581770   -8.207520
  H     -1.406240    4.181510   -6.403260
  H     -0.934210    3.681600   -7.999470
  H      0.668430    2.559430   -3.232850
  H      1.034070    3.729430   -4.497080
  H     -1.288880    2.826740   -4.595000
  H     -0.651700    1.186340   -4.756550
  H      2.291290    1.952340   -5.704420
  H      1.932700    0.831760   -4.412610
  H      2.929530    2.232850   -4.102230

 Total Charge           Charge          ....    0
 Multiplicity           Mult            ....    1
 Number of Electrons    NEL             ....   48
 Basis Dimension        Dim             ....  208

ORBITAL ENERGIES
----------------

  NO   OCC          E(Eh)            E(eV)
   0   2.0000     -14.433789      -392.7634
   1   2.0000     -10.314402      -280.6691
   2   2.0000     -10.283824      -279.8371
   3   2.0000     -10.282532      -279.8019
   4   2.0000     -10.266281      -279.3597
   5   2.0000     -10.222859      -278.1781
   6   2.0000      -1.042520       -28.3684
   7   2.0000      -0.900045       -24.4915
   8   2.0000      -0.843657       -22.9571
   9   2.0000      -0.787066       -21.4172
  10   2.0000      -0.707903       -19.2630
  11   2.0000      -0.664759       -18.0890
  12   2.0000      -0.623165       -16.9572
  13   2.0000      -0.587928       -15.9983
  14   2.0000      -0.548805       -14.9337
  15   2.0000      -0.530113       -14.4251
  16   2.0000      -0.503773       -13.7084
  17   2.0000      -0.489882       -13.3304
  18   2.0000      -0.469973       -12.7886
  19   2.0000      -0.454938       -12.3795
  20   2.0000      -0.428304       -11.6547
  21   2.0000      -0.416753       -11.3404
  22   2.0000      -0.414106       -11.2684
  23   2.0000      -0.279352        -7.6015
  24   0.0000       0.094180         2.5628
  25   0.0000       0.114733         3.1220
  26   0.0000       0.120120         3.2686
  27   0.0000       0.128042         3.4842
  28   0.0000       0.142741         3.8842

MULLIKEN ATOMIC CHARGES
-----------------------
   0 C :    0.204485
   1 C :   -0.390017
   2 C :    0.650909
   3 C :   -0.184893
   4 C :    0.414357
   5 N :    0.126709
   6 H :    0.021167
   7 H :   -0.116371
   8 H :   -0.106965
   9 H :   -0.441427
  10 H :   -0.025740
  11 H :   -0.091739
  12 H :    0.074594
  13 H :   -0.006087
  14 H :   -0.070975
  15 H :    0.013803
  16 H :   -0.071809
Sum of atomic charges:    0.0000000

LOEWDIN ATOMIC CHARGES
----------------------
   0 C :    0.003601
   1 C :   -0.063428
   2 C :    0.112597
   3 C :   -0.274545
   4 C :    0.147339
   5 N :    0.181141
   6 H :    0.017079
   7 H :    0.029739
   8 H :   -0.089867
   9 H :   -0.094771
  10 H :    0.018105
  11 H :    0.021454
  12 H :    0.024611
  13 H :    0.028273
  14 H :   -0.032371
  15 H :   -0.012363
  16 H :   -0.016594

  Mayer bond orders larger than 0.100000
B(  0-C ,  1-C ) :   1.1665 B(  0-C ,  3-C ) :   1.1555 B(  0-C ,  4-C ) :   0.1610
B(  0-C ,  5-N ) :   0.1107 B(  0-C , 11-H ) :   0.1116 B(  0-C , 12-H ) :   0.8428
B(  0-C , 13-H ) :   0.7708 B(  1-C ,  2-C ) :   1.2879 B(  1-C , 10-H ) :   0.9151
B(  1-C , 11-H ) :   1.0080 B(  1-C , 12-H ) :   0.1178 B(  1-C , 13-H ) :   0.1426
B(  1-C , 14-H ) :   0.2025 B(  1-C , 15-H ) :   0.2040 B(  1-C , 16-H ) :   0.2062
B(  2-C , 14-H ) :   0.8372 B(  2-C , 15-H ) :   0.7938 B(  2-C , 16-H ) :   0.7973
B(  3-C ,  4-C ) :   1.7710 B(  3-C ,  5-N ) :   1.1912 B(  3-C ,  7-H ) :  -0.1054
B(  3-C ,  9-H ) :   0.1607 B(  3-C , 12-H ) :   0.1288 B(  3-C , 13-H ) :   0.1720
B(  4-C ,  5-N ) :   0.2574 B(  4-C ,  8-H ) :   0.9122 B(  4-C ,  9-H ) :   0.7321
B(  5-N ,  6-H ) :   0.9829 B(  5-N ,  7-H ) :   1.2913 B(  6-H ,  7-H ) :  -0.1631

Dispersion correction           -0.004595727
FINAL SINGLE POINT ENERGY      -251.650049414021

DIPOLE MOMENT
-------------
                                X             Y             Z
Electronic contribution:     -1.90069      -0.78108      -2.57605
Nuclear contribution   :      2.52905      -0.17478       2.67366
                        -----------------------------------------
Total Dipole Moment    :      0.62836      -0.95586       0.09761
                        -----------------------------------------
Magnitude (a.u.)       :      1.14806
Magnitude (Debye)      :      2.91813

Rotational constants in cm-1:     0.190920     0.082419     0.067855
Rotational constants in MHz :  5723.626725  2470.870287  2034.242308

                             ****ORCA TERMINATED NORMALLY****
TOTAL RUN TIME: 0 days 0 hours 0 minutes 26 seconds 105 msec
