                         Program Version 5.0.0 -  RELEASE  -
|  1> !wB97X-D3 RIJCOSX def2-SVPD def2/J TightSCF CPCM(Water)
|  2> *xyz 0 1
|  3> C         -0.46129        2.23469       -4.98962
|  4> C          0.84888        2.66797       -4.30235
|  5> C          2.09343        1.86104       -4.65684
|  6> H          2.44481        2.04157       -5.67499
|  7> H          2.90175        2.13786       -3.98034
|  8> S          1.87964        0.07859       -4.46297
|  9> O          3.20757       -0.46611       -4.42026
| 10> F          1.07506       -0.05616       -3.26876
| 11> O          1.13166       -0.31996       -5.67903
| 12> H          0.66843        2.55943       -3.23285
| 13> H          1.03407        3.72943       -4.49708
| 14> H         -0.35183        2.31783       -6.05075
| 15> H         -1.26108        2.86600       -4.66300
| 16> H         -0.68032        1.21949       -4.73211
| 17> *
| 18>
| 19> %MaxCore 64000
| 20>
| 21> %pal nprocs 8
| 22> end
| 23>
| 24> %scf
| 25>   MaxIter 150
| 26> end
| 27>
| 28>
| 29>                          ****END OF INPUT****

CARTESIAN COORDINATES (ANGSTROEM)
---------------------------------
  C     -0.461290    2.234690   -4.989620
  C      0.848880    2.667970   -4.302350
  C      2.093430    1.861040   -4.656840
  H      2.444810    2.041570   -5.674990
  H      2.901750    2.137860   -3.980340
  S      1.879640    0.078590   -4.462970
  O      3.207570   -0.466110   -4.420260
  F      1.075060   -0.056160   -3.268760
  O      1.131660   -0.319960   -5.679030
  H      0.668430    2.559430   -3.232850
  H      1.034070    3.729430   -4.497080
  H     -0.351830    2.317830   -6.050750
  H     -1.261080    2.866000   -4.663000
  H     -0.680320    1.219490   -4.732110

 Total Charge           Charge          ....    0
 Multiplicity           Mult            ....    1
 Number of Electrons    NEL             ....   66
 Basis Dimension        Dim             ....  212

ORBITAL ENERGIES
----------------

  NO   OCC          E(Eh)            E(eV)
   0   2.0000     -89.240208     -2428.3495
   1   2.0000     -24.917238      -678.0325
   2   2.0000     -19.272226      -524.4239
   3   2.0000     -19.256711      -524.0017
   4   2.0000     -10.335542      -281.2444
   5   2.0000     -10.302621      -280.3486
   6   2.0000     -10.274314      -279.5783
   7   2.0000      -8.314513      -226.2494
   8   2.0000      -6.278263      -170.8402
   9   2.0000      -6.272138      -170.6735
  10   2.0000      -6.270035      -170.6163
  11   2.0000      -1.488814       -40.5127
  12   2.0000      -1.237081       -33.6627
  13   2.0000      -1.131686       -30.7947
  14   2.0000      -0.933260       -25.3953
  15   2.0000      -0.854516       -23.2526
  16   2.0000      -0.812506       -22.1094
  17   2.0000      -0.733692       -19.9648
  18   2.0000      -0.694363       -18.8946
  19   2.0000      -0.690640       -18.7933
  20   2.0000      -0.654243       -17.8029
  21   2.0000      -0.582524       -15.8513
  22   2.0000      -0.579159       -15.7597
  23   2.0000      -0.560089       -15.2408
  24   2.0000      -0.552083       -15.0229
  25   2.0000      -0.520952       -14.1758
  26   2.0000      -0.498482       -13.5644
  27   2.0000      -0.473882       -12.8950
  28   2.0000      -0.460467       -12.5300
  29   2.0000      -0.443457       -12.0671
  30   2.0000      -0.430148       -11.7049
  31   2.0000      -0.420990       -11.4557
  32   2.0000      -0.410490       -11.1700
  33   0.0000       0.068335         1.8595
  34   0.0000       0.095424         2.5966
  35   0.0000       0.097491         2.6529
  36   0.0000       0.099730         2.7138
  37   0.0000       0.125328         3.4103

MULLIKEN ATOMIC CHARGES
-----------------------
   0 C :    0.697262
   1 C :   -0.323990
   2 C :   -0.020386
   3 H :    0.099274
   4 H :    0.093325
   5 S :    1.484265
   6 O :   -0.715295
   7 F :   -0.396081
   8 O :   -0.732810
   9 H :    0.091407
  10 H :   -0.113348
  11 H :   -0.032418
  12 H :   -0.050676
  13 H :   -0.080531
Sum of atomic charges:    0.0000000

LOEWDIN ATOMIC CHARGES
----------------------
   0 C :    0.129064
   1 C :   -0.068574
   2 C :   -0.030833
   3 H :    0.046391
   4 H :    0.031835
   5 S :    1.127699
   6 O :   -0.488920
   7 F :   -0.237855
   8 O :   -0.519308
   9 H :    0.026280
  10 H :    0.038161
  11 H :   -0.006812
  12 H :   -0.009424
  13 H :   -0.037704

  Mayer bond orders larger than 0.100000
B(  0-C ,  1-C ) :   1.2783 B(  0-C , 11-H ) :   0.7884 B(  0-C , 12-H ) :   0.8048
B(  0-C , 13-H ) :   0.8236 B(  1-C ,  2-C ) :   1.2470 B(  1-C ,  3-H ) :   0.1154
B(  1-C ,  4-H ) :   0.1245 B(  1-C ,  9-H ) :   0.8769 B(  1-C , 10-H ) :   0.9692
B(  1-C , 11-H ) :   0.1992 B(  1-C , 12-H ) :   0.1859 B(  1-C , 13-H ) :   0.1885
B(  2-C ,  3-H ) :   0.9355 B(  2-C ,  4-H ) :   0.9213 B(  2-C ,  5-S ) :   1.0021
B(  2-C ,  9-H ) :   0.1099 B(  2-C , 10-H ) :   0.1016 B(  5-S ,  6-O ) :   1.5613
B(  5-S ,  7-F ) :   0.6813 B(  5-S ,  8-O ) :   1.4523

Dispersion correction           -0.004631075
FINAL SINGLE POINT ENERGY      -766.467277029774

DIPOLE MOMENT
-------------
                                X             Y             Z
Electronic contribution:      4.37633      -9.99006       3.47664
Nuclear contribution   :     -4.78457      11.97051      -2.41849
                        -----------------------------------------
Total Dipole Moment    :     -0.40824       1.98045       1.05815
                        -----------------------------------------
Magnitude (a.u.)       :      2.28222
Magnitude (Debye)      :      5.80093

Rotational constants in cm-1:     0.129206     0.056639     0.054229
Rotational constants in MHz :  3873.509495  1697.990779  1625.734877

                             ****ORCA TERMINATED NORMALLY****
TOTAL RUN TIME: 0 days 0 hours 0 minutes 25 seconds 843 msec
