                         Program Version 5.0.0 -  RELEASE  -
|  1> !wB97X-D3 RIJCOSX def2-SVPD def2/J TightSCF CPCM(Water)
|  2> *xyz 0 1
|  3> C         -0.46129        2.23469       -4.98962
|  4> C          0.84888        2.66797       -4.30235
|  5> C          2.09343        1.86104       -4.65684
|  6> C         -0.42384        2.39877       -6.47432
|  7> N         -0.95947        3.49265       -7.00740
|  8> C          0.14558        1.48689       -7.20399
|  9> H          0.56537        0.69681       -6.72386
| 10> H          0.22068        1.58177       -8.20752
| 11> H         -1.40624        4.18151       -6.40326
| 12> H         -0.93421        3.68160       -7.99947
| 13> H          0.66843        2.55943       -3.23285
| 14> H          1.03407        3.72943       -4.49708
| 15> H         -1.28888        2.82674       -4.59500
| 16> H         -0.65170        1.18634       -4.75655
| 17> H          2.29129        1.95234       -5.70442
| 18> H          1.93270        0.83176       -4.41261
| 19> H          2.92953        2.23285       -4.10223
| 20> *
| 21>
| 22> %MaxCore 64000
| 23>
| 24> %pal nprocs 8
| 25> end
| 26>
| 27> %scf
| 28>   MaxIter 150
| 29> end
| 30>
| 31>
| 32>                          ****END OF INPUT****

CARTESIAN COORDINATES (ANGSTROEM)
---------------------------------
  C     -0.461290    2.234690   -4.989620
  C      0.848880    2.667970   -4.302350
  C      2.093430    1.861040   -4.656840
  C     -0.423840    2.398770   -6.474320
  N     -0.959470    3.492650   -7.007400
  C      0.145580    1.486890   -7.203990
  H      0.565370    0.696810   -6.723860
  H      0.220680    1.581770   -8.207520
  H     -1.406240    4.181510   -6.403260
  H     -0.934210    3.681600   -7.999470
  H      0.668430    2.559430   -3.232850
  H      1.034070    3.729430   -4.497080
  H     -1.288880    2.826740   -4.595000
  H     -0.651700    1.186340   -4.756550
  H      2.291290    1.952340   -5.704420
  H      1.932700    0.831760   -4.412610
  H      2.929530    2.232850   -4.102230

 Total Charge           Charge          ....    0
 Multiplicity           Mult            ....    1
 Number of Electrons    NEL             ....   48
 Basis Dimension        Dim             ....  208

ORBITAL ENERGIES
----------------

  NO   OCC          E(Eh)            E(eV)
   0   2.0000     -14.430494      -392.6737
   1   2.0000     -10.310142      -280.5532
   2   2.0000     -10.282839      -279.8103
   3   2.0000     -10.281853      -279.7834
   4   2.0000     -10.263073      -279.2724
   5   2.0000     -10.220700      -278.1194
   6   2.0000      -1.029558       -28.0157
   7   2.0000      -0.901534       -24.5320
   8   2.0000      -0.841106       -22.8876
   9   2.0000      -0.793453       -21.5910
  10   2.0000      -0.700513       -19.0619
  11   2.0000      -0.663453       -18.0535
  12   2.0000      -0.615863       -16.7585
  13   2.0000      -0.581508       -15.8237
  14   2.0000      -0.550874       -14.9900
  15   2.0000      -0.534451       -14.5432
  16   2.0000      -0.491335       -13.3699
  17   2.0000      -0.490397       -13.3444
  18   2.0000      -0.471386       -12.8271
  19   2.0000      -0.457632       -12.4528
  20   2.0000      -0.424695       -11.5565
  21   2.0000      -0.416374       -11.3301
  22   2.0000      -0.409435       -11.1413
  23   2.0000      -0.282743        -7.6938
  24   0.0000       0.094952         2.5838
  25   0.0000       0.114326         3.1110
  26   0.0000       0.123020         3.3475
  27   0.0000       0.125231         3.4077
  28   0.0000       0.143731         3.9111

MULLIKEN ATOMIC CHARGES
-----------------------
   0 C :    0.189821
   1 C :   -0.376999
   2 C :    0.632968
   3 C :   -0.056729
   4 N :   -0.006596
   5 C :    0.421190
   6 H :    0.051228
   7 H :   -0.529594
   8 H :   -0.015690
   9 H :   -0.106885
  10 H :   -0.021875
  11 H :   -0.070959
  12 H :   -0.061988
  13 H :    0.098786
  14 H :   -0.046159
  15 H :    0.003426
  16 H :   -0.103943
Sum of atomic charges:    0.0000000

LOEWDIN ATOMIC CHARGES
----------------------
   0 C :    0.005086
   1 C :   -0.062459
   2 C :    0.111364
   3 C :   -0.263632
   4 N :    0.171232
   5 C :    0.144141
   6 H :   -0.079739
   7 H :   -0.081307
   8 H :    0.015024
   9 H :    0.015712
  10 H :    0.017935
  11 H :    0.022943
  12 H :    0.021412
  13 H :    0.029332
  14 H :   -0.036636
  15 H :   -0.012486
  16 H :   -0.017921

  Mayer bond orders larger than 0.100000
B(  0-C ,  1-C ) :   1.1813 B(  0-C ,  3-C ) :   1.0446 B(  0-C ,  4-N ) :   0.1135
B(  0-C ,  5-C ) :   0.1978 B(  0-C , 10-H ) :   0.1185 B(  0-C , 11-H ) :   0.1104
B(  0-C , 12-H ) :   0.8607 B(  0-C , 13-H ) :   0.8053 B(  1-C ,  2-C ) :   1.2956
B(  1-C , 10-H ) :   0.8837 B(  1-C , 11-H ) :   0.9865 B(  1-C , 12-H ) :   0.1263
B(  1-C , 13-H ) :   0.1407 B(  1-C , 14-H ) :   0.2029 B(  1-C , 15-H ) :   0.2013
B(  1-C , 16-H ) :   0.2145 B(  2-C , 14-H ) :   0.8322 B(  2-C , 15-H ) :   0.7958
B(  2-C , 16-H ) :   0.8142 B(  3-C ,  4-N ) :   1.1464 B(  3-C ,  5-C ) :   1.9128
B(  3-C ,  6-H ) :   0.2120 B(  3-C ,  7-H ) :   0.2001 B(  3-C , 12-H ) :   0.1313
B(  4-N ,  5-C ) :   0.2291 B(  4-N ,  8-H ) :   1.0992 B(  4-N ,  9-H ) :   1.2604
B(  5-C ,  6-H ) :   0.7021 B(  5-C ,  7-H ) :   0.7938 B(  8-H ,  9-H ) :  -0.1540
B( 14-H , 15-H ) :   0.1012

Dispersion correction           -0.004539968
FINAL SINGLE POINT ENERGY      -251.649072962847

DIPOLE MOMENT
-------------
                                X             Y             Z
Electronic contribution:     -3.18312       1.53152      -2.36802
Nuclear contribution   :      2.79043      -0.64920       2.62716
                        -----------------------------------------
Total Dipole Moment    :     -0.39269       0.88231       0.25914
                        -----------------------------------------
Magnitude (a.u.)       :      0.99992
Magnitude (Debye)      :      2.54158

Rotational constants in cm-1:     0.196182     0.080190     0.067215
Rotational constants in MHz :  5881.393438  2404.041106  2015.067205

                             ****ORCA TERMINATED NORMALLY****
TOTAL RUN TIME: 0 days 0 hours 0 minutes 25 seconds 941 msec
