                         Program Version 5.0.0 -  RELEASE  -
|  1> !wB97X-D3 RIJCOSX def2-SVPD def2/J TightSCF CPCM(Water)
|  2> *xyz 0 1
|  3> C         -0.46129        2.23469       -4.98962
|  4> C          0.84888        2.66797       -4.30235
|  5> C          2.09343        1.86104       -4.65684
|  6> H          2.44481        2.04157       -5.67499
|  7> H          2.90175        2.13786       -3.98034
|  8> S          1.87964        0.07859       -4.46297
|  9> O          3.20757       -0.46611       -4.42026
| 10> O          1.07506       -0.05616       -3.26876
| 11> F          1.13166       -0.31996       -5.67903
| 12> H          0.66843        2.55943       -3.23285
| 13> H          1.03407        3.72943       -4.49708
| 14> H         -0.35183        2.31783       -6.05075
| 15> H         -1.26108        2.86600       -4.66300
| 16> H         -0.68032        1.21949       -4.73211
| 17> *
| 18>
| 19> %MaxCore 64000
| 20>
| 21> %pal nprocs 8
| 22> end
| 23>
| 24> %scf
| 25>   MaxIter 150
| 26> end
| 27>
| 28>
| 29>                          ****END OF INPUT****

CARTESIAN COORDINATES (ANGSTROEM)
---------------------------------
  C     -0.461290    2.234690   -4.989620
  C      0.848880    2.667970   -4.302350
  C      2.093430    1.861040   -4.656840
  H      2.444810    2.041570   -5.674990
  H      2.901750    2.137860   -3.980340
  S      1.879640    0.078590   -4.462970
  O      3.207570   -0.466110   -4.420260
  O      1.075060   -0.056160   -3.268760
  F      1.131660   -0.319960   -5.679030
  H      0.668430    2.559430   -3.232850
  H      1.034070    3.729430   -4.497080
  H     -0.351830    2.317830   -6.050750
  H     -1.261080    2.866000   -4.663000
  H     -0.680320    1.219490   -4.732110

 Total Charge           Charge          ....    0
 Multiplicity           Mult            ....    1
 Number of Electrons    NEL             ....   66
 Basis Dimension        Dim             ....  212

ORBITAL ENERGIES
----------------

  NO   OCC          E(Eh)            E(eV)
   0   2.0000     -89.237898     -2428.2867
   1   2.0000     -24.900127      -677.5669
   2   2.0000     -19.271904      -524.4152
   3   2.0000     -19.267688      -524.3005
   4   2.0000     -10.334724      -281.2221
   5   2.0000     -10.300887      -280.3014
   6   2.0000     -10.275237      -279.6034
   7   2.0000      -8.312179      -226.1859
   8   2.0000      -6.275717      -170.7709
   9   2.0000      -6.269964      -170.6144
  10   2.0000      -6.267893      -170.5580
  11   2.0000      -1.459682       -39.7200
  12   2.0000      -1.244399       -33.8618
  13   2.0000      -1.149708       -31.2852
  14   2.0000      -0.930857       -25.3299
  15   2.0000      -0.850130       -23.1332
  16   2.0000      -0.803738       -21.8708
  17   2.0000      -0.732095       -19.9213
  18   2.0000      -0.674636       -18.3578
  19   2.0000      -0.669499       -18.2180
  20   2.0000      -0.658196       -17.9104
  21   2.0000      -0.597685       -16.2638
  22   2.0000      -0.571852       -15.5609
  23   2.0000      -0.561939       -15.2911
  24   2.0000      -0.549435       -14.9509
  25   2.0000      -0.522886       -14.2285
  26   2.0000      -0.502399       -13.6710
  27   2.0000      -0.472698       -12.8628
  28   2.0000      -0.458530       -12.4772
  29   2.0000      -0.444856       -12.1051
  30   2.0000      -0.435332       -11.8460
  31   2.0000      -0.429172       -11.6784
  32   2.0000      -0.421305       -11.4643
  33   0.0000       0.070013         1.9051
  34   0.0000       0.095588         2.6011
  35   0.0000       0.097499         2.6531
  36   0.0000       0.101864         2.7719
  37   0.0000       0.121674         3.3109

MULLIKEN ATOMIC CHARGES
-----------------------
   0 C :    0.656623
   1 C :   -0.280394
   2 C :   -0.045173
   3 H :    0.109216
   4 H :    0.105550
   5 S :    1.481649
   6 O :   -0.721774
   7 O :   -0.720583
   8 F :   -0.397351
   9 H :    0.087212
  10 H :   -0.112842
  11 H :   -0.026006
  12 H :   -0.044421
  13 H :   -0.091704
Sum of atomic charges:   -0.0000000

LOEWDIN ATOMIC CHARGES
----------------------
   0 C :    0.131656
   1 C :   -0.068473
   2 C :   -0.032469
   3 H :    0.038551
   4 H :    0.039040
   5 S :    1.123105
   6 O :   -0.488918
   7 O :   -0.490432
   8 F :   -0.261528
   9 H :    0.023352
  10 H :    0.037918
  11 H :   -0.007057
  12 H :   -0.008356
  13 H :   -0.036388

  Mayer bond orders larger than 0.100000
B(  0-C ,  1-C ) :   1.2782 B(  0-C , 11-H ) :   0.7942 B(  0-C , 12-H ) :   0.8070
B(  0-C , 13-H ) :   0.8392 B(  1-C ,  2-C ) :   1.2817 B(  1-C ,  3-H ) :   0.1139
B(  1-C ,  4-H ) :   0.1182 B(  1-C ,  9-H ) :   0.8742 B(  1-C , 10-H ) :   0.9606
B(  1-C , 11-H ) :   0.1898 B(  1-C , 12-H ) :   0.1848 B(  1-C , 13-H ) :   0.1764
B(  2-C ,  3-H ) :   0.9359 B(  2-C ,  4-H ) :   0.9051 B(  2-C ,  5-S ) :   0.9997
B(  2-C ,  9-H ) :   0.1185 B(  2-C , 10-H ) :   0.1004 B(  5-S ,  6-O ) :   1.5601
B(  5-S ,  7-O ) :   1.4941 B(  5-S ,  8-F ) :   0.6310

Dispersion correction           -0.004617727
FINAL SINGLE POINT ENERGY      -766.481781263418

DIPOLE MOMENT
-------------
                                X             Y             Z
Electronic contribution:      4.46778     -10.52317      -1.21909
Nuclear contribution   :     -4.84544      12.25421       0.17361
                        -----------------------------------------
Total Dipole Moment    :     -0.37766       1.73104      -1.04548
                        -----------------------------------------
Magnitude (a.u.)       :      2.05722
Magnitude (Debye)      :      5.22904

Rotational constants in cm-1:     0.128954     0.057447     0.053381
Rotational constants in MHz :  3865.954571  1722.226669  1600.330369

                             ****ORCA TERMINATED NORMALLY****
TOTAL RUN TIME: 0 days 0 hours 0 minutes 22 seconds 212 msec
