                         Program Version 5.0.0 -  RELEASE  -
|  1> !wB97X-D3 RIJCOSX def2-SVPD def2/J TightSCF CPCM(Water) xyzfile
|  2>
|  3> *xyzfile 0 1 D2.xyz
|  4>
|  5> %MaxCore 64000
|  6>
|  7> %pal nprocs 18
|  8> end
|  9>
| 10> %scf
| 11>   MaxIter 150
| 12> end
| 13>
| 14>
| 15>                          ****END OF INPUT****

CARTESIAN COORDINATES (ANGSTROEM)
---------------------------------
  C     -0.461293    2.234686   -4.989619
  C      0.848883    2.667967   -4.302351
  C      2.093434    1.861037   -4.656845
  H      2.444814    2.041567   -5.674990
  H      2.901748    2.137864   -3.980338
  S      1.879644    0.078594   -4.462965
  C     -0.423841    2.398772   -6.474317
  N     -0.959467    3.492647   -7.007401
  C      0.145585    1.486891   -7.203987
  H      0.565371    0.696807   -6.723858
  H      0.220682    1.581768   -8.207520
  H     -1.406243    4.181507   -6.403261
  H     -0.934215    3.681601   -7.999468
  F      3.207574   -0.466111   -4.420259
  O      1.075064   -0.056160   -3.268758
  O      1.131661   -0.319960   -5.679031
  H      0.668432    2.559427   -3.232850
  H      1.034074    3.729426   -4.497081
  H     -1.288884    2.826737   -4.594997
  H     -0.651696    1.186343   -4.756552

 Total Charge           Charge          ....    0
 Multiplicity           Mult            ....    1
 Number of Electrons    NEL             ....   88
 Basis Dimension        Dim             ....  296

ORBITAL ENERGIES
----------------

  NO   OCC          E(Eh)            E(eV)
   0   2.0000     -89.242631     -2428.4154
   1   2.0000     -24.921742      -678.1551
   2   2.0000     -19.268972      -524.3354
   3   2.0000     -19.258181      -524.0417
   4   2.0000     -14.427323      -392.5874
   5   2.0000     -10.335915      -281.2545
   6   2.0000     -10.306814      -280.4627
   7   2.0000     -10.305346      -280.4227
   8   2.0000     -10.287900      -279.9480
   9   2.0000     -10.201554      -277.5984
  10   2.0000      -8.316370      -226.2999
  11   2.0000      -6.279958      -170.8864
  12   2.0000      -6.274275      -170.7317
  13   2.0000      -6.271902      -170.6671
  14   2.0000      -1.496473       -40.7211
  15   2.0000      -1.235811       -33.6281
  16   2.0000      -1.133876       -30.8543
  17   2.0000      -1.026783       -27.9402
  18   2.0000      -0.934061       -25.4171
  19   2.0000      -0.876901       -23.8617
  20   2.0000      -0.832880       -22.6638
  21   2.0000      -0.808982       -22.0135
  22   2.0000      -0.743848       -20.2411
  23   2.0000      -0.701203       -19.0807
  24   2.0000      -0.690982       -18.8026
  25   2.0000      -0.670939       -18.2572
  26   2.0000      -0.662766       -18.0348
  27   2.0000      -0.612713       -16.6728
  28   2.0000      -0.597669       -16.2634
  29   2.0000      -0.586826       -15.9684
  30   2.0000      -0.575712       -15.6659
  31   2.0000      -0.562315       -15.3014
  32   2.0000      -0.541113       -14.7244
  33   2.0000      -0.508418       -13.8348
  34   2.0000      -0.494171       -13.4471
  35   2.0000      -0.486989       -13.2517
  36   2.0000      -0.475562       -12.9407
  37   2.0000      -0.452460       -12.3121
  38   2.0000      -0.437712       -11.9108
  39   2.0000      -0.433430       -11.7942
  40   2.0000      -0.419972       -11.4280
  41   2.0000      -0.415767       -11.3136
  42   2.0000      -0.395510       -10.7624
  43   2.0000      -0.277152        -7.5417
  44   0.0000       0.071244         1.9386
  45   0.0000       0.093309         2.5391
  46   0.0000       0.095798         2.6068
  47   0.0000       0.099178         2.6988
  48   0.0000       0.115118         3.1325

MULLIKEN ATOMIC CHARGES
-----------------------
   0 C :    0.258288
   1 C :    0.077865
   2 C :   -0.047037
   3 H :    0.273664
   4 H :   -0.045885
   5 S :    1.641090
   6 C :    0.037415
   7 N :   -0.045553
   8 C :    0.856683
   9 H :   -0.193441
  10 H :   -0.643599
  11 H :   -0.042266
  12 H :   -0.140760
  13 F :   -0.462532
  14 O :   -0.729968
  15 O :   -0.833748
  16 H :    0.165736
  17 H :   -0.131746
  18 H :   -0.123221
  19 H :    0.129016
Sum of atomic charges:   -0.0000000

LOEWDIN ATOMIC CHARGES
----------------------
   0 C :    0.026661
   1 C :   -0.000858
   2 C :   -0.022256
   3 H :    0.030207
   4 H :    0.032260
   5 S :    1.184263
   6 C :   -0.243452
   7 N :    0.166221
   8 C :    0.171398
   9 H :   -0.199177
  10 H :   -0.075469
  11 H :    0.012678
  12 H :    0.013829
  13 F :   -0.230337
  14 O :   -0.485095
  15 O :   -0.495985
  16 H :    0.028081
  17 H :    0.045541
  18 H :    0.030266
  19 H :    0.011225

  Mayer bond orders larger than 0.100000
B(  0-C ,  1-C ) :   1.1835 B(  0-C ,  6-C ) :   1.1136 B(  0-C ,  7-N ) :   0.1004
B(  0-C ,  8-C ) :   0.1838 B(  0-C , 16-H ) :   0.1201 B(  0-C , 18-H ) :   0.8009
B(  0-C , 19-H ) :   0.8397 B(  1-C ,  2-C ) :   1.3704 B(  1-C ,  3-H ) :   0.1084
B(  1-C ,  4-H ) :   0.1906 B(  1-C , 16-H ) :   0.7756 B(  1-C , 17-H ) :   0.9203
B(  1-C , 18-H ) :   0.1544 B(  1-C , 19-H ) :   0.1343 B(  2-C ,  3-H ) :   0.8505
B(  2-C ,  4-H ) :   0.8679 B(  2-C ,  5-S ) :   0.9692 B(  2-C , 15-O ) :   0.1331
B(  2-C , 16-H ) :   0.1160 B(  5-S , 13-F ) :   0.6594 B(  5-S , 14-O ) :   1.4885
B(  5-S , 15-O ) :   1.3790 B(  6-C ,  7-N ) :   0.9991 B(  6-C ,  8-C ) :   1.9161
B(  6-C ,  9-H ) :   0.3323 B(  6-C , 10-H ) :   0.2213 B(  6-C , 12-H ) :  -0.1158
B(  6-C , 18-H ) :   0.1513 B(  7-N ,  8-C ) :   0.2765 B(  7-N , 11-H ) :   1.1462
B(  7-N , 12-H ) :   1.3350 B(  8-C ,  9-H ) :   0.5321 B(  8-C , 10-H ) :   0.7705
B(  9-H , 10-H ) :  -0.2397 B(  9-H , 15-O ) :   0.1592 B( 11-H , 12-H ) :  -0.1523

Dispersion correction           -0.008590975
FINAL SINGLE POINT ENERGY      -899.063694056858

DIPOLE MOMENT
-------------
                                X             Y             Z
Electronic contribution:      9.61746     -11.74915       5.58340
Nuclear contribution   :     -8.42493      13.96425      -5.19491
                        -----------------------------------------
Total Dipole Moment    :      1.19253       2.21510       0.38849
                        -----------------------------------------
Magnitude (a.u.)       :      2.54553
Magnitude (Debye)      :      6.47023

Rotational constants in cm-1:     0.082815     0.024151     0.022015
Rotational constants in MHz :  2482.732265   724.035221   660.002136

                             ****ORCA TERMINATED NORMALLY****
TOTAL RUN TIME: 0 days 0 hours 0 minutes 32 seconds 389 msec
