                         Program Version 5.0.0 -  RELEASE  -
|  1> !wB97X-D3 RIJCOSX def2-SVPD def2/J TightSCF CPCM(Water) xyzfile
|  2>
|  3> *xyzfile 0 1 D5.xyz
|  4>
|  5> %MaxCore 64000
|  6>
|  7> %pal nprocs 18
|  8> end
|  9>
| 10> %scf
| 11>   MaxIter 150
| 12> end
| 13>
| 14>
| 15>                          ****END OF INPUT****

CARTESIAN COORDINATES (ANGSTROEM)
---------------------------------
  C     -0.461293    2.234686   -4.989619
  C      0.848883    2.667967   -4.302351
  C      2.093434    1.861037   -4.656845
  H      2.444814    2.041567   -5.674990
  H      2.901748    2.137864   -3.980338
  S      1.879644    0.078594   -4.462965
  C     -0.423841    2.398772   -6.474317
  C     -0.959467    3.492647   -7.007401
  N      0.145585    1.486891   -7.203987
  H      0.565371    0.696807   -6.723858
  H      0.220682    1.581768   -8.207520
  H     -1.406243    4.181507   -6.403261
  H     -0.934215    3.681601   -7.999468
  O      3.207574   -0.466111   -4.420259
  O      1.075064   -0.056160   -3.268758
  F      1.131661   -0.319960   -5.679031
  H      0.668432    2.559427   -3.232850
  H      1.034074    3.729426   -4.497081
  H     -1.288884    2.826737   -4.594997
  H     -0.651696    1.186343   -4.756552

 Total Charge           Charge          ....    0
 Multiplicity           Mult            ....    1
 Number of Electrons    NEL             ....   88
 Basis Dimension        Dim             ....  296

ORBITAL ENERGIES
----------------

  NO   OCC          E(Eh)            E(eV)
   0   2.0000     -89.246196     -2428.5125
   1   2.0000     -24.919116      -678.0836
   2   2.0000     -19.277747      -524.5742
   3   2.0000     -19.273735      -524.4650
   4   2.0000     -14.429899      -392.6575
   5   2.0000     -10.340408      -281.3768
   6   2.0000     -10.317669      -280.7580
   7   2.0000     -10.307217      -280.4736
   8   2.0000     -10.295108      -280.1441
   9   2.0000     -10.225267      -278.2437
  10   2.0000      -8.320190      -226.4039
  11   2.0000      -6.284052      -170.9977
  12   2.0000      -6.277802      -170.8277
  13   2.0000      -6.275725      -170.7712
  14   2.0000      -1.481490       -40.3134
  15   2.0000      -1.252088       -34.0711
  16   2.0000      -1.155282       -31.4368
  17   2.0000      -1.046368       -28.4731
  18   2.0000      -0.939698       -25.5705
  19   2.0000      -0.874813       -23.8049
  20   2.0000      -0.851166       -23.1614
  21   2.0000      -0.802773       -21.8446
  22   2.0000      -0.757720       -20.6186
  23   2.0000      -0.702804       -19.1243
  24   2.0000      -0.692173       -18.8350
  25   2.0000      -0.674453       -18.3528
  26   2.0000      -0.655486       -17.8367
  27   2.0000      -0.634924       -17.2772
  28   2.0000      -0.599454       -16.3120
  29   2.0000      -0.579534       -15.7699
  30   2.0000      -0.578715       -15.7476
  31   2.0000      -0.570201       -15.5160
  32   2.0000      -0.543897       -14.8002
  33   2.0000      -0.522963       -14.2305
  34   2.0000      -0.498639       -13.5686
  35   2.0000      -0.489205       -13.3120
  36   2.0000      -0.482381       -13.1262
  37   2.0000      -0.468570       -12.7504
  38   2.0000      -0.450745       -12.2654
  39   2.0000      -0.444243       -12.0885
  40   2.0000      -0.433715       -11.8020
  41   2.0000      -0.428486       -11.6597
  42   2.0000      -0.421423       -11.4675
  43   2.0000      -0.281723        -7.6661
  44   0.0000       0.067846         1.8462
  45   0.0000       0.092665         2.5215
  46   0.0000       0.093958         2.5567
  47   0.0000       0.100205         2.7267
  48   0.0000       0.111056         3.0220

MULLIKEN ATOMIC CHARGES
-----------------------
   0 C :    0.338427
   1 C :    0.092726
   2 C :   -0.004190
   3 H :    0.222754
   4 H :   -0.019079
   5 S :    1.525570
   6 C :   -0.143411
   7 C :    0.301489
   8 N :    0.567620
   9 H :   -0.342485
  10 H :   -0.136190
  11 H :   -0.072704
  12 H :   -0.375709
  13 O :   -0.715121
  14 O :   -0.734545
  15 F :   -0.543391
  16 H :    0.188387
  17 H :   -0.136920
  18 H :    0.051229
  19 H :   -0.064457
Sum of atomic charges:    0.0000000

LOEWDIN ATOMIC CHARGES
----------------------
   0 C :    0.023664
   1 C :   -0.008562
   2 C :   -0.020309
   3 H :    0.033464
   4 H :    0.041267
   5 S :    1.145385
   6 C :   -0.255126
   7 C :    0.152914
   8 N :    0.204391
   9 H :   -0.084395
  10 H :    0.037440
  11 H :   -0.086768
  12 H :   -0.091260
  13 O :   -0.474434
  14 O :   -0.477349
  15 F :   -0.259685
  16 H :    0.029425
  17 H :    0.042607
  18 H :    0.036457
  19 H :    0.010873

  Mayer bond orders larger than 0.100000
B(  0-C ,  1-C ) :   1.1799 B(  0-C ,  6-C ) :   1.1565 B(  0-C ,  8-N ) :   0.1060
B(  0-C , 16-H ) :   0.1339 B(  0-C , 17-H ) :   0.1117 B(  0-C , 18-H ) :   0.7617
B(  0-C , 19-H ) :   0.7639 B(  1-C ,  2-C ) :   1.3685 B(  1-C ,  3-H ) :   0.1119
B(  1-C ,  4-H ) :   0.1699 B(  1-C , 16-H ) :   0.7832 B(  1-C , 17-H ) :   0.9220
B(  1-C , 18-H ) :   0.1424 B(  1-C , 19-H ) :   0.1412 B(  2-C ,  3-H ) :   0.8665
B(  2-C ,  4-H ) :   0.8742 B(  2-C ,  5-S ) :   0.9970 B(  2-C , 16-H ) :   0.1281
B(  2-C , 17-H ) :   0.1000 B(  5-S , 13-O ) :   1.5453 B(  5-S , 14-O ) :   1.5153
B(  5-S , 15-F ) :   0.6609 B(  6-C ,  7-C ) :   1.7609 B(  6-C ,  8-N ) :   1.1525
B(  6-C , 10-H ) :  -0.1256 B(  6-C , 12-H ) :   0.1518 B(  6-C , 18-H ) :   0.1495
B(  6-C , 19-H ) :   0.1645 B(  7-C ,  8-N ) :   0.1729 B(  7-C , 11-H ) :   0.9136
B(  7-C , 12-H ) :   0.7120 B(  8-N ,  9-H ) :   0.9523 B(  8-N , 10-H ) :   1.2506
B(  9-H , 10-H ) :  -0.2009 B(  9-H , 15-F ) :   0.1263

Dispersion correction           -0.008651607
FINAL SINGLE POINT ENERGY      -899.089763379096

DIPOLE MOMENT
-------------
                                X             Y             Z
Electronic contribution:      6.59850     -13.30601       2.95379
Nuclear contribution   :     -6.26130      13.99605      -3.80018
                        -----------------------------------------
Total Dipole Moment    :      0.33719       0.69005      -0.84639
                        -----------------------------------------
Magnitude (a.u.)       :      1.14291
Magnitude (Debye)      :      2.90504

Rotational constants in cm-1:     0.079895     0.025630     0.022948
Rotational constants in MHz :  2395.188639   768.373696   687.955250

                             ****ORCA TERMINATED NORMALLY****
TOTAL RUN TIME: 0 days 0 hours 0 minutes 31 seconds 658 msec
