                         Program Version 5.0.0 -  RELEASE  -
|  1> !LC-PBE RIJCOSX def2-SVPD def2/J TightSCF
|  2> *xyz -1 1
|  3> C          4.90646       -3.10282       -5.95484
|  4> C          3.51177       -2.80621       -6.49228
|  5> H          2.73604       -3.37345       -5.97374
|  6> H          3.44490       -3.04083       -7.55528
|  7> S          3.00462       -1.09621       -6.38926
|  8> O          4.12886       -0.32965       -6.95372
|  9> O          1.78128       -1.00078       -7.13640
| 10> C          5.02498       -3.02568       -4.43762
| 11> H          5.20153       -4.10021       -6.29691
| 12> H          5.60592       -2.39782       -6.41337
| 13> O          2.85155       -0.78368       -4.95679
| 14> H          4.73604       -2.05011       -4.10644
| 15> H          6.03776       -3.21492       -4.14890
| 16> H          4.38436       -3.75784       -3.99214
| 17> *
| 18>
| 19> %MaxCore 64000
| 20>
| 21> %pal nprocs 8
| 22> end
| 23>
| 24> %scf
| 25>   MaxIter 150
| 26> end
| 27>
| 28>
| 29>                          ****END OF INPUT****

CARTESIAN COORDINATES (ANGSTROEM)
---------------------------------
  C      4.906460   -3.102820   -5.954840
  C      3.511770   -2.806210   -6.492280
  H      2.736040   -3.373450   -5.973740
  H      3.444900   -3.040830   -7.555280
  S      3.004620   -1.096210   -6.389260
  O      4.128860   -0.329650   -6.953720
  O      1.781280   -1.000780   -7.136400
  C      5.024980   -3.025680   -4.437620
  H      5.201530   -4.100210   -6.296910
  H      5.605920   -2.397820   -6.413370
  O      2.851550   -0.783680   -4.956790
  H      4.736040   -2.050110   -4.106440
  H      6.037760   -3.214920   -4.148900
  H      4.384360   -3.757840   -3.992140

 Total Charge           Charge          ....   -1
 Multiplicity           Mult            ....    1
 Number of Electrons    NEL             ....   66
 Basis Dimension        Dim             ....  212

ORBITAL ENERGIES
----------------

  NO   OCC          E(Eh)            E(eV)
   0   2.0000     -88.316833     -2403.2232
   1   2.0000     -18.779920      -511.0276
   2   2.0000     -18.768163      -510.7077
   3   2.0000     -18.767866      -510.6996
   4   2.0000     -10.000146      -272.1178
   5   2.0000      -9.997343      -272.0415
   6   2.0000      -9.980269      -271.5769
   7   2.0000      -7.938616      -216.0207
   8   2.0000      -5.960941      -162.2055
   9   2.0000      -5.960893      -162.2041
  10   2.0000      -5.960497      -162.1934
  11   2.0000      -1.111104       -30.2347
  12   2.0000      -0.954359       -25.9694
  13   2.0000      -0.933488       -25.4015
  14   2.0000      -0.837123       -22.7793
  15   2.0000      -0.739015       -20.1096
  16   2.0000      -0.632886       -17.2217
  17   2.0000      -0.537659       -14.6304
  18   2.0000      -0.485287       -13.2053
  19   2.0000      -0.471968       -12.8429
  20   2.0000      -0.444181       -12.0868
  21   2.0000      -0.427929       -11.6445
  22   2.0000      -0.412592       -11.2272
  23   2.0000      -0.400053       -10.8860
  24   2.0000      -0.358982        -9.7684
  25   2.0000      -0.349911        -9.5216
  26   2.0000      -0.335723        -9.1355
  27   2.0000      -0.296072        -8.0565
  28   2.0000      -0.294730        -8.0200
  29   2.0000      -0.254027        -6.9124
  30   2.0000      -0.241716        -6.5774
  31   2.0000      -0.236910        -6.4467
  32   2.0000      -0.200536        -5.4569
  33   0.0000       0.201013         5.4698
  34   0.0000       0.220134         5.9901
  35   0.0000       0.222337         6.0501
  36   0.0000       0.231792         6.3074
  37   0.0000       0.249367         6.7856

MULLIKEN ATOMIC CHARGES
-----------------------
   0 C :   -0.341348
   1 C :   -0.186447
   2 H :    0.068323
   3 H :    0.069123
   4 S :    1.228334
   5 O :   -0.792033
   6 O :   -0.758147
   7 C :    0.561198
   8 H :   -0.059243
   9 H :    0.058438
  10 O :   -0.797149
  11 H :   -0.091307
  12 H :    0.004508
  13 H :    0.035748
Sum of atomic charges:   -1.0000000

LOEWDIN ATOMIC CHARGES
----------------------
   0 C :   -0.114190
   1 C :   -0.123285
   2 H :    0.024076
   3 H :    0.019071
   4 S :    0.842031
   5 O :   -0.582403
   6 O :   -0.565787
   7 C :    0.088182
   8 H :    0.019978
   9 H :    0.026280
  10 O :   -0.580553
  11 H :   -0.025075
  12 H :   -0.018702
  13 H :   -0.009624

  Mayer bond orders larger than 0.100000
B(  0-C ,  1-C ) :   1.2026 B(  0-C ,  3-H ) :   0.1022 B(  0-C ,  7-C ) :   1.2470
B(  0-C ,  8-H ) :   0.9488 B(  0-C ,  9-H ) :   0.9331 B(  0-C , 11-H ) :   0.2082
B(  0-C , 12-H ) :   0.1669 B(  0-C , 13-H ) :   0.1668 B(  1-C ,  2-H ) :   0.9483
B(  1-C ,  3-H ) :   0.9600 B(  1-C ,  4-S ) :   0.9620 B(  1-C ,  9-H ) :   0.1283
B(  4-S ,  5-O ) :   1.2970 B(  4-S ,  6-O ) :   1.3916 B(  4-S , 10-O ) :   1.2888
B(  7-C , 11-H ) :   0.8623 B(  7-C , 12-H ) :   0.7974 B(  7-C , 13-H ) :   0.7895
B( 11-H , 13-H ) :   0.1008

FINAL SINGLE POINT ENERGY      -740.728901719188

DIPOLE MOMENT
-------------
                                X             Y             Z
Electronic contribution:     -6.14848       7.78548      -3.68539
Nuclear contribution   :      7.19636      -9.97366       3.94889
                        -----------------------------------------
Total Dipole Moment    :      1.04788      -2.18817       0.26350
                        -----------------------------------------
Magnitude (a.u.)       :      2.44041
Magnitude (Debye)      :      6.20302

Rotational constants in cm-1:     0.137066     0.054570     0.051980
Rotational constants in MHz :  4109.139955  1635.961703  1558.315282

                             ****ORCA TERMINATED NORMALLY****
TOTAL RUN TIME: 0 days 0 hours 0 minutes 14 seconds 767 msec
