                         Program Version 5.0.0 -  RELEASE  -
|  1> !LC-PBE RIJCOSX def2-SVPD def2/J TightSCF
|  2> *xyz 1 1
|  3> C          4.49059        1.15590       -2.46929
|  4> N          4.30539        1.22276       -3.90832
|  5> C          4.63192        2.24637       -4.67096
|  6> N          4.54169        2.14399       -5.98714
|  7> N          5.08409        3.39358       -4.11855
|  8> H          4.92067        3.57050       -3.13587
|  9> H          5.25465        4.19739       -4.70696
| 10> H          3.82453        0.44911       -4.35093
| 11> H          4.34337        1.24932       -6.41665
| 12> H          4.67671        2.95662       -6.57411
| 13> C          5.94213        0.93950       -2.03689
| 14> H          3.86431        0.32853       -2.13661
| 15> H          4.07623        2.04999       -1.98901
| 16> C          6.55996       -0.35629       -2.55909
| 17> H          5.96798        0.95257       -0.94244
| 18> H          6.54718        1.78833       -2.36885
| 19> H          6.53022       -0.35990       -3.62867
| 20> H          6.00654       -1.19175       -2.18407
| 21> H          7.57588       -0.42487       -2.23029
| 22> *
| 23>
| 24> %MaxCore 64000
| 25>
| 26> %pal nprocs 8
| 27> end
| 28>
| 29> %scf
| 30>   MaxIter 150
| 31> end
| 32>
| 33>
| 34>                          ****END OF INPUT****

CARTESIAN COORDINATES (ANGSTROEM)
---------------------------------
  C      4.490590    1.155900   -2.469290
  N      4.305390    1.222760   -3.908320
  C      4.631920    2.246370   -4.670960
  N      4.541690    2.143990   -5.987140
  N      5.084090    3.393580   -4.118550
  H      4.920670    3.570500   -3.135870
  H      5.254650    4.197390   -4.706960
  H      3.824530    0.449110   -4.350930
  H      4.343370    1.249320   -6.416650
  H      4.676710    2.956620   -6.574110
  C      5.942130    0.939500   -2.036890
  H      3.864310    0.328530   -2.136610
  H      4.076230    2.049990   -1.989010
  C      6.559960   -0.356290   -2.559090
  H      5.967980    0.952570   -0.942440
  H      6.547180    1.788330   -2.368850
  H      6.530220   -0.359900   -3.628670
  H      6.006540   -1.191750   -2.184070
  H      7.575880   -0.424870   -2.230290

 Total Charge           Charge          ....    1
 Multiplicity           Mult            ....    1
 Number of Electrons    NEL             ....   56
 Basis Dimension        Dim             ....  236

ORBITAL ENERGIES
----------------

  NO   OCC          E(Eh)            E(eV)
   0   2.0000     -14.455084      -393.3428
   1   2.0000     -14.453500      -393.2997
   2   2.0000     -14.450019      -393.2050
   3   2.0000     -10.471700      -284.9495
   4   2.0000     -10.330413      -281.1048
   5   2.0000     -10.268243      -279.4131
   6   2.0000     -10.236093      -278.5383
   7   2.0000      -1.388665       -37.7875
   8   2.0000      -1.270222       -34.5645
   9   2.0000      -1.251564       -34.0568
  10   2.0000      -1.109384       -30.1879
  11   2.0000      -1.026973       -27.9454
  12   2.0000      -0.977890       -26.6097
  13   2.0000      -0.942506       -25.6469
  14   2.0000      -0.919073       -25.0092
  15   2.0000      -0.873838       -23.7784
  16   2.0000      -0.836330       -22.7577
  17   2.0000      -0.828957       -22.5571
  18   2.0000      -0.808726       -22.0066
  19   2.0000      -0.773969       -21.0608
  20   2.0000      -0.742339       -20.2001
  21   2.0000      -0.718278       -19.5453
  22   2.0000      -0.684028       -18.6134
  23   2.0000      -0.636505       -17.3202
  24   2.0000      -0.616646       -16.7798
  25   2.0000      -0.615431       -16.7467
  26   2.0000      -0.598841       -16.2953
  27   2.0000      -0.572398       -15.5757
  28   0.0000      -0.077426        -2.1069
  29   0.0000      -0.072051        -1.9606
  30   0.0000      -0.040722        -1.1081
  31   0.0000      -0.033399        -0.9088
  32   0.0000      -0.007079        -0.1926

MULLIKEN ATOMIC CHARGES
-----------------------
   0 C :    0.491815
   1 N :   -0.585451
   2 C :    1.412924
   3 N :   -0.153033
   4 N :   -0.079728
   5 H :    0.030756
   6 H :   -0.110459
   7 H :   -0.090884
   8 H :   -0.002218
   9 H :    0.002129
  10 C :   -0.459797
  11 H :   -0.150130
  12 H :    0.046436
  13 C :    0.457447
  14 H :   -0.008129
  15 H :    0.087030
  16 H :   -0.025363
  17 H :    0.105312
  18 H :    0.031344
Sum of atomic charges:    1.0000000

LOEWDIN ATOMIC CHARGES
----------------------
   0 C :    0.044152
   1 N :    0.036957
   2 C :   -0.029404
   3 N :    0.245653
   4 N :    0.267025
   5 H :    0.025635
   6 H :    0.044372
   7 H :    0.072998
   8 H :    0.050935
   9 H :    0.050154
  10 C :   -0.079945
  11 H :    0.054778
  12 H :    0.040218
  13 C :    0.104597
  14 H :    0.048608
  15 H :    0.025174
  16 H :   -0.012893
  17 H :    0.003354
  18 H :    0.007633

  Mayer bond orders larger than 0.100000
B(  0-C ,  1-N ) :   0.9125 B(  0-C ,  7-H ) :  -0.1529 B(  0-C , 10-C ) :   1.1416
B(  0-C , 11-H ) :   0.8448 B(  0-C , 12-H ) :   0.9276 B(  1-N ,  2-C ) :   0.9639
B(  1-N ,  3-N ) :   0.3064 B(  1-N ,  4-N ) :   0.2422 B(  1-N ,  7-H ) :   1.2852
B(  1-N , 11-H ) :   0.1914 B(  2-C ,  3-N ) :   0.7945 B(  2-C ,  4-N ) :   0.9116
B(  2-C ,  5-H ) :  -0.1055 B(  2-C ,  6-H ) :  -0.1501 B(  2-C ,  7-H ) :  -0.2306
B(  2-C ,  8-H ) :  -0.1805 B(  2-C ,  9-H ) :  -0.1288 B(  3-N ,  4-N ) :   0.1455
B(  3-N ,  8-H ) :   1.1878 B(  3-N ,  9-H ) :   1.2129 B(  4-N ,  5-H ) :   1.0624
B(  4-N ,  6-H ) :   1.2662 B(  5-H ,  6-H ) :  -0.1916 B(  8-H ,  9-H ) :  -0.1672
B( 10-C , 11-H ) :   0.1089 B( 10-C , 13-C ) :   1.3250 B( 10-C , 14-H ) :   1.0410
B( 10-C , 15-H ) :   0.9137 B( 10-C , 16-H ) :   0.1619 B( 10-C , 17-H ) :   0.1526
B( 10-C , 18-H ) :   0.1738 B( 13-C , 16-H ) :   0.8665 B( 13-C , 17-H ) :   0.8208
B( 13-C , 18-H ) :   0.8443

FINAL SINGLE POINT ENERGY      -322.467345772996

DIPOLE MOMENT
-------------
                                X             Y             Z
Electronic contribution:     -3.27985       3.80276      -4.84566
Nuclear contribution   :      2.46011      -2.82418       3.51638
                        -----------------------------------------
Total Dipole Moment    :     -0.81973       0.97858      -1.32928
                        -----------------------------------------
Magnitude (a.u.)       :      1.84298
Magnitude (Debye)      :      4.68447

Rotational constants in cm-1:     0.152406     0.050160     0.046480
Rotational constants in MHz :  4569.006375  1503.763011  1393.441650

                             ****ORCA TERMINATED NORMALLY****
TOTAL RUN TIME: 0 days 0 hours 0 minutes 20 seconds 796 msec
