                         Program Version 5.0.0 -  RELEASE  -
|  1> !LC-PBE RIJCOSX def2-SVPD def2/J TightSCF
|  2> *xyz 0 1
|  3> C          4.90646       -3.10282       -5.95484
|  4> C          3.51177       -2.80621       -6.49228
|  5> H          2.73604       -3.37345       -5.97374
|  6> H          3.44490       -3.04083       -7.55528
|  7> S          3.00462       -1.09621       -6.38926
|  8> F          4.12886       -0.32965       -6.95372
|  9> O          1.78128       -1.00078       -7.13640
| 10> C          5.02498       -3.02568       -4.43762
| 11> H          5.20153       -4.10021       -6.29691
| 12> H          5.60592       -2.39782       -6.41337
| 13> O          2.85155       -0.78368       -4.95679
| 14> H          4.73604       -2.05011       -4.10644
| 15> H          6.03776       -3.21492       -4.14890
| 16> H          4.38436       -3.75784       -3.99214
| 17> *
| 18>
| 19> %MaxCore 64000
| 20>
| 21> %pal nprocs 8
| 22> end
| 23>
| 24> %scf
| 25>   MaxIter 150
| 26> end
| 27>
| 28>
| 29>                          ****END OF INPUT****

CARTESIAN COORDINATES (ANGSTROEM)
---------------------------------
  C      4.906460   -3.102820   -5.954840
  C      3.511770   -2.806210   -6.492280
  H      2.736040   -3.373450   -5.973740
  H      3.444900   -3.040830   -7.555280
  S      3.004620   -1.096210   -6.389260
  F      4.128860   -0.329650   -6.953720
  O      1.781280   -1.000780   -7.136400
  C      5.024980   -3.025680   -4.437620
  H      5.201530   -4.100210   -6.296910
  H      5.605920   -2.397820   -6.413370
  O      2.851550   -0.783680   -4.956790
  H      4.736040   -2.050110   -4.106440
  H      6.037760   -3.214920   -4.148900
  H      4.384360   -3.757840   -3.992140

 Total Charge           Charge          ....    0
 Multiplicity           Mult            ....    1
 Number of Electrons    NEL             ....   66
 Basis Dimension        Dim             ....  212

ORBITAL ENERGIES
----------------

  NO   OCC          E(Eh)            E(eV)
   0   2.0000     -88.574795     -2410.2427
   1   2.0000     -24.618096      -669.8925
   2   2.0000     -19.012629      -517.3600
   3   2.0000     -19.000079      -517.0184
   4   2.0000     -10.196754      -277.4678
   5   2.0000     -10.164301      -276.5847
   6   2.0000     -10.124127      -275.4915
   7   2.0000      -8.197280      -223.0593
   8   2.0000      -6.224390      -169.3743
   9   2.0000      -6.217250      -169.1800
  10   2.0000      -6.215841      -169.1416
  11   2.0000      -1.518508       -41.3207
  12   2.0000      -1.287535       -35.0356
  13   2.0000      -1.177381       -32.0382
  14   2.0000      -1.018377       -27.7115
  15   2.0000      -0.924303       -25.1516
  16   2.0000      -0.864458       -23.5231
  17   2.0000      -0.798373       -21.7248
  18   2.0000      -0.746718       -20.3192
  19   2.0000      -0.730512       -19.8782
  20   2.0000      -0.697443       -18.9784
  21   2.0000      -0.642349       -17.4792
  22   2.0000      -0.639046       -17.3893
  23   2.0000      -0.609391       -16.5824
  24   2.0000      -0.591483       -16.0951
  25   2.0000      -0.579549       -15.7703
  26   2.0000      -0.536867       -14.6089
  27   2.0000      -0.520497       -14.1635
  28   2.0000      -0.514576       -14.0023
  29   2.0000      -0.497800       -13.5458
  30   2.0000      -0.475578       -12.9411
  31   2.0000      -0.457681       -12.4541
  32   2.0000      -0.447006       -12.1636
  33   0.0000       0.063819         1.7366
  34   0.0000       0.087143         2.3713
  35   0.0000       0.092735         2.5235
  36   0.0000       0.093963         2.5569
  37   0.0000       0.118100         3.2137

MULLIKEN ATOMIC CHARGES
-----------------------
   0 C :   -0.320857
   1 C :   -0.219585
   2 H :    0.125609
   3 H :    0.120836
   4 S :    1.386669
   5 F :   -0.380190
   6 O :   -0.620197
   7 C :    0.569078
   8 H :   -0.027315
   9 H :    0.043673
  10 O :   -0.667403
  11 H :   -0.105197
  12 H :    0.035978
  13 H :    0.058900
Sum of atomic charges:    0.0000000

LOEWDIN ATOMIC CHARGES
----------------------
   0 C :   -0.100092
   1 C :   -0.076157
   2 H :    0.053686
   3 H :    0.036873
   4 S :    1.099300
   5 F :   -0.252921
   6 O :   -0.454746
   7 C :    0.107161
   8 H :    0.042782
   9 H :    0.033998
  10 O :   -0.471736
  11 H :   -0.023427
  12 H :    0.000334
  13 H :    0.004945

  Mayer bond orders larger than 0.100000
B(  0-C ,  1-C ) :   1.1837 B(  0-C ,  7-C ) :   1.2727 B(  0-C ,  8-H ) :   0.9592
B(  0-C ,  9-H ) :   0.9255 B(  0-C , 11-H ) :   0.1980 B(  0-C , 12-H ) :   0.1577
B(  0-C , 13-H ) :   0.1650 B(  1-C ,  2-H ) :   0.9354 B(  1-C ,  3-H ) :   0.9536
B(  1-C ,  4-S ) :   1.0286 B(  1-C ,  9-H ) :   0.1109 B(  4-S ,  5-F ) :   0.6708
B(  4-S ,  6-O ) :   1.6087 B(  4-S , 10-O ) :   1.5175 B(  7-C , 11-H ) :   0.8673
B(  7-C , 12-H ) :   0.8042 B(  7-C , 13-H ) :   0.7906 B( 11-H , 13-H ) :   0.1010

FINAL SINGLE POINT ENERGY      -765.194397020760

DIPOLE MOMENT
-------------
                                X             Y             Z
Electronic contribution:     -5.23614      10.12018      -5.33615
Nuclear contribution   :      6.51452     -11.35172       4.86721
                        -----------------------------------------
Total Dipole Moment    :      1.27838      -1.23154      -0.46894
                        -----------------------------------------
Magnitude (a.u.)       :      1.83599
Magnitude (Debye)      :      4.66671

Rotational constants in cm-1:     0.130386     0.053203     0.051661
Rotational constants in MHz :  3908.886819  1594.983443  1548.763987

                             ****ORCA TERMINATED NORMALLY****
TOTAL RUN TIME: 0 days 0 hours 0 minutes 16 seconds 143 msec
