                         Program Version 5.0.0 -  RELEASE  -
|  1> !LC-PBE RIJCOSX def2-SVPD def2/J TightSCF
|  2> *xyz 0 1
|  3> C          4.49059        1.15590       -2.46929
|  4> C          4.30539        1.22276       -3.90832
|  5> C          4.63192        2.24637       -4.67096
|  6> N          4.54169        2.14399       -5.98714
|  7> N          5.08409        3.39358       -4.11855
|  8> H          4.92067        3.57050       -3.13587
|  9> H          5.25465        4.19739       -4.70696
| 10> H          3.82453        0.44911       -4.35093
| 11> H          4.34337        1.24932       -6.41665
| 12> H          4.67671        2.95662       -6.57411
| 13> C          5.94213        0.93950       -2.03689
| 14> H          3.86431        0.32853       -2.13661
| 15> H          4.07623        2.04999       -1.98901
| 16> C          6.55996       -0.35629       -2.55909
| 17> H          5.96798        0.95257       -0.94244
| 18> H          6.54718        1.78833       -2.36885
| 19> H          6.53022       -0.35990       -3.62867
| 20> H          6.00654       -1.19175       -2.18407
| 21> H          7.57588       -0.42487       -2.23029
| 22> *
| 23>
| 24> %MaxCore 64000
| 25>
| 26> %pal nprocs 8
| 27> end
| 28>
| 29> %scf
| 30>   MaxIter 150
| 31> end
| 32>
| 33>
| 34>                          ****END OF INPUT****

CARTESIAN COORDINATES (ANGSTROEM)
---------------------------------
  C      4.490590    1.155900   -2.469290
  C      4.305390    1.222760   -3.908320
  C      4.631920    2.246370   -4.670960
  N      4.541690    2.143990   -5.987140
  N      5.084090    3.393580   -4.118550
  H      4.920670    3.570500   -3.135870
  H      5.254650    4.197390   -4.706960
  H      3.824530    0.449110   -4.350930
  H      4.343370    1.249320   -6.416650
  H      4.676710    2.956620   -6.574110
  C      5.942130    0.939500   -2.036890
  H      3.864310    0.328530   -2.136610
  H      4.076230    2.049990   -1.989010
  C      6.559960   -0.356290   -2.559090
  H      5.967980    0.952570   -0.942440
  H      6.547180    1.788330   -2.368850
  H      6.530220   -0.359900   -3.628670
  H      6.006540   -1.191750   -2.184070
  H      7.575880   -0.424870   -2.230290

 Total Charge           Charge          ....    0
 Multiplicity           Mult            ....    1
 Number of Electrons    NEL             ....   56
 Basis Dimension        Dim             ....  236

ORBITAL ENERGIES
----------------

  NO   OCC          E(Eh)            E(eV)
   0   2.0000     -14.230038      -387.2190
   1   2.0000     -14.228091      -387.1660
   2   2.0000     -10.175359      -276.8856
   3   2.0000     -10.102054      -274.8909
   4   2.0000     -10.099940      -274.8333
   5   2.0000     -10.089446      -274.5478
   6   2.0000     -10.048368      -273.4300
   7   2.0000      -1.129877       -30.7455
   8   2.0000      -1.030039       -28.0288
   9   2.0000      -0.957310       -26.0497
  10   2.0000      -0.886509       -24.1231
  11   2.0000      -0.817820       -22.2540
  12   2.0000      -0.749444       -20.3934
  13   2.0000      -0.722401       -19.6575
  14   2.0000      -0.691168       -18.8076
  15   2.0000      -0.649430       -17.6719
  16   2.0000      -0.615311       -16.7435
  17   2.0000      -0.588694       -16.0192
  18   2.0000      -0.576434       -15.6856
  19   2.0000      -0.553458       -15.0604
  20   2.0000      -0.534828       -14.5534
  21   2.0000      -0.503992       -13.7143
  22   2.0000      -0.492017       -13.3885
  23   2.0000      -0.459278       -12.4976
  24   2.0000      -0.437795       -11.9130
  25   2.0000      -0.435340       -11.8462
  26   2.0000      -0.398701       -10.8492
  27   2.0000      -0.277131        -7.5411
  28   0.0000       0.089266         2.4291
  29   0.0000       0.111422         3.0319
  30   0.0000       0.116667         3.1747
  31   0.0000       0.128489         3.4964
  32   0.0000       0.140427         3.8212

MULLIKEN ATOMIC CHARGES
-----------------------
   0 C :    0.045185
   1 C :   -0.333561
   2 C :    0.969958
   3 N :   -0.102294
   4 N :   -0.108825
   5 H :    0.009497
   6 H :   -0.199615
   7 H :   -0.351026
   8 H :    0.000176
   9 H :   -0.118404
  10 C :   -0.447122
  11 H :    0.081505
  12 H :   -0.016641
  13 C :    0.494504
  14 H :   -0.011198
  15 H :    0.004981
  16 H :   -0.017669
  17 H :    0.077459
  18 H :    0.023089
Sum of atomic charges:   -0.0000000

LOEWDIN ATOMIC CHARGES
----------------------
   0 C :   -0.091121
   1 C :   -0.060086
   2 C :   -0.220788
   3 N :    0.159465
   4 N :    0.188903
   5 H :   -0.003148
   6 H :   -0.001535
   7 H :   -0.035092
   8 H :    0.018684
   9 H :    0.002514
  10 C :   -0.104244
  11 H :    0.029806
  12 H :    0.018452
  13 C :    0.086826
  14 H :    0.024830
  15 H :    0.019288
  16 H :   -0.013288
  17 H :   -0.007944
  18 H :   -0.011522

  Mayer bond orders larger than 0.100000
B(  0-C ,  1-C ) :   1.1995 B(  0-C ,  7-H ) :   0.2508 B(  0-C , 10-C ) :   1.1585
B(  0-C , 11-H ) :   0.7568 B(  0-C , 12-H ) :   0.9354 B(  0-C , 14-H ) :   0.1046
B(  0-C , 15-H ) :   0.1310 B(  1-C ,  2-C ) :   1.7034 B(  1-C ,  3-N ) :   0.3817
B(  1-C ,  4-N ) :   0.2387 B(  1-C ,  7-H ) :   0.9237 B(  1-C , 11-H ) :   0.2590
B(  1-C , 12-H ) :   0.1273 B(  2-C ,  3-N ) :   0.8072 B(  2-C ,  4-N ) :   0.8745
B(  2-C ,  6-H ) :  -0.1580 B(  2-C ,  8-H ) :  -0.1039 B(  3-N ,  4-N ) :   0.1086
B(  3-N ,  8-H ) :   1.1649 B(  3-N ,  9-H ) :   1.2365 B(  4-N ,  5-H ) :   1.0517
B(  4-N ,  6-H ) :   1.3137 B(  5-H ,  6-H ) :  -0.1783 B(  8-H ,  9-H ) :  -0.1595
B( 10-C , 11-H ) :   0.1064 B( 10-C , 13-C ) :   1.3350 B( 10-C , 14-H ) :   0.9770
B( 10-C , 15-H ) :   0.9508 B( 10-C , 16-H ) :   0.1986 B( 10-C , 17-H ) :   0.1809
B( 10-C , 18-H ) :   0.1917 B( 13-C , 16-H ) :   0.8545 B( 13-C , 17-H ) :   0.8094
B( 13-C , 18-H ) :   0.7954

FINAL SINGLE POINT ENERGY      -306.015145476376

DIPOLE MOMENT
-------------
                                X             Y             Z
Electronic contribution:     -2.33422       3.66565      -4.15221
Nuclear contribution   :      2.29046      -2.89565       3.47129
                        -----------------------------------------
Total Dipole Moment    :     -0.04376       0.77000      -0.68092
                        -----------------------------------------
Magnitude (a.u.)       :      1.02882
Magnitude (Debye)      :      2.61504

Rotational constants in cm-1:     0.154384     0.050352     0.046525
Rotational constants in MHz :  4628.320816  1509.522910  1394.780903

                             ****ORCA TERMINATED NORMALLY****
TOTAL RUN TIME: 0 days 0 hours 0 minutes 21 seconds 618 msec
