                         Program Version 5.0.0 -  RELEASE  -
|  1> !LC-PBE RIJCOSX def2-SVPD def2/J TightSCF
|  2> *xyz 0 1
|  3> C          4.90646       -3.10282       -5.95484
|  4> C          3.51177       -2.80621       -6.49228
|  5> H          2.73604       -3.37345       -5.97374
|  6> H          3.44490       -3.04083       -7.55528
|  7> S          3.00462       -1.09621       -6.38926
|  8> O          4.12886       -0.32965       -6.95372
|  9> F          1.78128       -1.00078       -7.13640
| 10> C          5.02498       -3.02568       -4.43762
| 11> H          5.20153       -4.10021       -6.29691
| 12> H          5.60592       -2.39782       -6.41337
| 13> O          2.85155       -0.78368       -4.95679
| 14> H          4.73604       -2.05011       -4.10644
| 15> H          6.03776       -3.21492       -4.14890
| 16> H          4.38436       -3.75784       -3.99214
| 17> *
| 18>
| 19> %MaxCore 64000
| 20>
| 21> %pal nprocs 8
| 22> end
| 23>
| 24> %scf
| 25>   MaxIter 150
| 26> end
| 27>
| 28>
| 29>                          ****END OF INPUT****

CARTESIAN COORDINATES (ANGSTROEM)
---------------------------------
  C      4.906460   -3.102820   -5.954840
  C      3.511770   -2.806210   -6.492280
  H      2.736040   -3.373450   -5.973740
  H      3.444900   -3.040830   -7.555280
  S      3.004620   -1.096210   -6.389260
  O      4.128860   -0.329650   -6.953720
  F      1.781280   -1.000780   -7.136400
  C      5.024980   -3.025680   -4.437620
  H      5.201530   -4.100210   -6.296910
  H      5.605920   -2.397820   -6.413370
  O      2.851550   -0.783680   -4.956790
  H      4.736040   -2.050110   -4.106440
  H      6.037760   -3.214920   -4.148900
  H      4.384360   -3.757840   -3.992140

 Total Charge           Charge          ....    0
 Multiplicity           Mult            ....    1
 Number of Electrons    NEL             ....   66
 Basis Dimension        Dim             ....  212

ORBITAL ENERGIES
----------------

  NO   OCC          E(Eh)            E(eV)
   0   2.0000     -88.576685     -2410.2941
   1   2.0000     -24.636997      -670.4068
   2   2.0000     -19.000630      -517.0334
   3   2.0000     -19.000553      -517.0313
   4   2.0000     -10.197812      -277.4966
   5   2.0000     -10.158717      -276.4327
   6   2.0000     -10.118478      -275.3378
   7   2.0000      -8.199333      -223.1152
   8   2.0000      -6.226470      -169.4309
   9   2.0000      -6.219131      -169.2312
  10   2.0000      -6.217790      -169.1947
  11   2.0000      -1.549553       -42.1655
  12   2.0000      -1.275639       -34.7119
  13   2.0000      -1.163405       -31.6579
  14   2.0000      -1.013849       -27.5882
  15   2.0000      -0.930341       -25.3159
  16   2.0000      -0.873837       -23.7783
  17   2.0000      -0.800097       -21.7717
  18   2.0000      -0.753781       -20.5114
  19   2.0000      -0.741396       -20.1744
  20   2.0000      -0.711563       -19.3626
  21   2.0000      -0.643691       -17.5157
  22   2.0000      -0.638241       -17.3674
  23   2.0000      -0.601887       -16.3782
  24   2.0000      -0.587173       -15.9778
  25   2.0000      -0.570838       -15.5333
  26   2.0000      -0.530214       -14.4279
  27   2.0000      -0.510219       -13.8838
  28   2.0000      -0.508287       -13.8312
  29   2.0000      -0.491829       -13.3833
  30   2.0000      -0.465839       -12.6761
  31   2.0000      -0.452569       -12.3150
  32   2.0000      -0.439843       -11.9687
  33   0.0000       0.062599         1.7034
  34   0.0000       0.084971         2.3122
  35   0.0000       0.090559         2.4642
  36   0.0000       0.096883         2.6363
  37   0.0000       0.120184         3.2704

MULLIKEN ATOMIC CHARGES
-----------------------
   0 C :   -0.359610
   1 C :   -0.234482
   2 H :    0.128968
   3 H :    0.136370
   4 S :    1.424851
   5 O :   -0.650774
   6 F :   -0.384600
   7 C :    0.560360
   8 H :   -0.018782
   9 H :    0.075931
  10 O :   -0.665362
  11 H :   -0.102726
  12 H :    0.036173
  13 H :    0.053681
Sum of atomic charges:    0.0000000

LOEWDIN ATOMIC CHARGES
----------------------
   0 C :   -0.085130
   1 C :   -0.087602
   2 H :    0.040416
   3 H :    0.034664
   4 S :    1.105495
   5 O :   -0.473881
   6 F :   -0.237453
   7 C :    0.109654
   8 H :    0.044973
   9 H :    0.039294
  10 O :   -0.474615
  11 H :   -0.019258
  12 H :    0.001070
  13 H :    0.002372

  Mayer bond orders larger than 0.100000
B(  0-C ,  1-C ) :   1.2443 B(  0-C ,  3-H ) :   0.1111 B(  0-C ,  7-C ) :   1.2643
B(  0-C ,  8-H ) :   0.9541 B(  0-C ,  9-H ) :   0.9267 B(  0-C , 11-H ) :   0.1931
B(  0-C , 12-H ) :   0.1597 B(  0-C , 13-H ) :   0.1610 B(  1-C ,  2-H ) :   0.9313
B(  1-C ,  3-H ) :   0.9048 B(  1-C ,  4-S ) :   0.9910 B(  1-C ,  9-H ) :   0.1209
B(  4-S ,  5-O ) :   1.5140 B(  4-S ,  6-F ) :   0.7305 B(  4-S , 10-O ) :   1.4906
B(  7-C , 11-H ) :   0.8708 B(  7-C , 12-H ) :   0.8017 B(  7-C , 13-H ) :   0.7880
B( 11-H , 13-H ) :   0.1015

FINAL SINGLE POINT ENERGY      -765.178577659478

DIPOLE MOMENT
-------------
                                X             Y             Z
Electronic contribution:     -9.34579       8.97796      -5.66936
Nuclear contribution   :      9.03920     -10.62996       5.06367
                        -----------------------------------------
Total Dipole Moment    :     -0.30659      -1.65200      -0.60569
                        -----------------------------------------
Magnitude (a.u.)       :      1.78604
Magnitude (Debye)      :      4.53976

Rotational constants in cm-1:     0.135071     0.052485     0.050188
Rotational constants in MHz :  4049.321380  1573.451279  1504.609887

                             ****ORCA TERMINATED NORMALLY****
TOTAL RUN TIME: 0 days 0 hours 0 minutes 16 seconds 234 msec
