                         Program Version 5.0.0 -  RELEASE  -
|  1> !LC-PBE RIJCOSX def2-SVPD def2/J TightSCF
|  2> *xyz 0 1
|  3> C          4.49059        1.15590       -2.46929
|  4> N          4.30539        1.22276       -3.90832
|  5> C          4.63192        2.24637       -4.67096
|  6> C          4.54169        2.14399       -5.98714
|  7> N          5.08409        3.39358       -4.11855
|  8> H          4.92067        3.57050       -3.13587
|  9> H          5.25465        4.19739       -4.70696
| 10> H          3.82453        0.44911       -4.35093
| 11> H          4.34337        1.24932       -6.41665
| 12> H          4.67671        2.95662       -6.57411
| 13> C          5.94213        0.93950       -2.03689
| 14> H          3.86431        0.32853       -2.13661
| 15> H          4.07623        2.04999       -1.98901
| 16> C          6.55996       -0.35629       -2.55909
| 17> H          5.96798        0.95257       -0.94244
| 18> H          6.54718        1.78833       -2.36885
| 19> H          6.53022       -0.35990       -3.62867
| 20> H          6.00654       -1.19175       -2.18407
| 21> H          7.57588       -0.42487       -2.23029
| 22> *
| 23>
| 24> %MaxCore 64000
| 25>
| 26> %pal nprocs 8
| 27> end
| 28>
| 29> %scf
| 30>   MaxIter 150
| 31> end
| 32>
| 33>
| 34>                          ****END OF INPUT****

CARTESIAN COORDINATES (ANGSTROEM)
---------------------------------
  C      4.490590    1.155900   -2.469290
  N      4.305390    1.222760   -3.908320
  C      4.631920    2.246370   -4.670960
  C      4.541690    2.143990   -5.987140
  N      5.084090    3.393580   -4.118550
  H      4.920670    3.570500   -3.135870
  H      5.254650    4.197390   -4.706960
  H      3.824530    0.449110   -4.350930
  H      4.343370    1.249320   -6.416650
  H      4.676710    2.956620   -6.574110
  C      5.942130    0.939500   -2.036890
  H      3.864310    0.328530   -2.136610
  H      4.076230    2.049990   -1.989010
  C      6.559960   -0.356290   -2.559090
  H      5.967980    0.952570   -0.942440
  H      6.547180    1.788330   -2.368850
  H      6.530220   -0.359900   -3.628670
  H      6.006540   -1.191750   -2.184070
  H      7.575880   -0.424870   -2.230290

 Total Charge           Charge          ....    0
 Multiplicity           Mult            ....    1
 Number of Electrons    NEL             ....   56
 Basis Dimension        Dim             ....  236

ORBITAL ENERGIES
----------------

  NO   OCC          E(Eh)            E(eV)
   0   2.0000     -14.230585      -387.2339
   1   2.0000     -14.227803      -387.1582
   2   2.0000     -10.178011      -276.9578
   3   2.0000     -10.166423      -276.6424
   4   2.0000     -10.125937      -275.5408
   5   2.0000     -10.109048      -275.0812
   6   2.0000     -10.035999      -273.0934
   7   2.0000      -1.139447       -31.0059
   8   2.0000      -1.044533       -28.4232
   9   2.0000      -0.959004       -26.0958
  10   2.0000      -0.890536       -24.2327
  11   2.0000      -0.829588       -22.5743
  12   2.0000      -0.769537       -20.9402
  13   2.0000      -0.736838       -20.0504
  14   2.0000      -0.682030       -18.5590
  15   2.0000      -0.648019       -17.6335
  16   2.0000      -0.621268       -16.9056
  17   2.0000      -0.607977       -16.5439
  18   2.0000      -0.581439       -15.8218
  19   2.0000      -0.541800       -14.7431
  20   2.0000      -0.539703       -14.6861
  21   2.0000      -0.527141       -14.3442
  22   2.0000      -0.503932       -13.7127
  23   2.0000      -0.483333       -13.1522
  24   2.0000      -0.475452       -12.9377
  25   2.0000      -0.465817       -12.6755
  26   2.0000      -0.385290       -10.4843
  27   2.0000      -0.280520        -7.6333
  28   0.0000       0.084802         2.3076
  29   0.0000       0.106459         2.8969
  30   0.0000       0.113327         3.0838
  31   0.0000       0.116918         3.1815
  32   0.0000       0.143804         3.9131

MULLIKEN ATOMIC CHARGES
-----------------------
   0 C :    0.507654
   1 N :   -0.488949
   2 C :    0.759305
   3 C :    0.157715
   4 N :    0.055395
   5 H :   -0.065224
   6 H :   -0.144147
   7 H :   -0.139141
   8 H :   -0.220061
   9 H :   -0.308622
  10 C :   -0.464767
  11 H :   -0.212088
  12 H :    0.001275
  13 C :    0.465292
  14 H :   -0.062214
  15 H :    0.079342
  16 H :   -0.016295
  17 H :    0.090741
  18 H :    0.004790
Sum of atomic charges:   -0.0000000

LOEWDIN ATOMIC CHARGES
----------------------
   0 C :    0.015617
   1 N :   -0.024854
   2 C :   -0.237777
   3 C :    0.108631
   4 N :    0.186133
   5 H :   -0.015474
   6 H :    0.014022
   7 H :    0.048622
   8 H :   -0.085566
   9 H :   -0.087574
  10 C :   -0.095528
  11 H :    0.035234
  12 H :    0.022036
  13 C :    0.090060
  14 H :    0.029950
  15 H :    0.021382
  16 H :   -0.009322
  17 H :   -0.008033
  18 H :   -0.007559

  Mayer bond orders larger than 0.100000
B(  0-C ,  1-N ) :   0.9368 B(  0-C ,  7-H ) :  -0.1697 B(  0-C , 10-C ) :   1.1354
B(  0-C , 11-H ) :   0.8431 B(  0-C , 12-H ) :   0.9338 B(  0-C , 15-H ) :   0.1019
B(  1-N ,  2-C ) :   1.0155 B(  1-N ,  3-C ) :   0.2440 B(  1-N ,  4-N ) :   0.1872
B(  1-N ,  7-H ) :   1.2711 B(  1-N , 11-H ) :   0.2131 B(  2-C ,  3-C ) :   1.4586
B(  2-C ,  4-N ) :   0.9354 B(  2-C ,  7-H ) :  -0.1886 B(  2-C ,  9-H ) :   0.1224
B(  3-C ,  4-N ) :   0.1833 B(  3-C ,  8-H ) :   0.9133 B(  3-C ,  9-H ) :   0.8254
B(  4-N ,  5-H ) :   1.0562 B(  4-N ,  6-H ) :   1.2134 B(  5-H ,  6-H ) :  -0.1812
B( 10-C , 11-H ) :   0.1149 B( 10-C , 13-C ) :   1.2999 B( 10-C , 14-H ) :   1.0566
B( 10-C , 15-H ) :   0.9194 B( 10-C , 16-H ) :   0.1764 B( 10-C , 17-H ) :   0.1555
B( 10-C , 18-H ) :   0.1785 B( 13-C , 16-H ) :   0.8689 B( 13-C , 17-H ) :   0.8208
B( 13-C , 18-H ) :   0.8358

FINAL SINGLE POINT ENERGY      -306.005502854146

DIPOLE MOMENT
-------------
                                X             Y             Z
Electronic contribution:     -2.45668       2.74302      -1.96806
Nuclear contribution   :      2.34222      -2.69386       3.01591
                        -----------------------------------------
Total Dipole Moment    :     -0.11446       0.04917       1.04785
                        -----------------------------------------
Magnitude (a.u.)       :      1.05523
Magnitude (Debye)      :      2.68219

Rotational constants in cm-1:     0.155143     0.051710     0.048050
Rotational constants in MHz :  4651.080391  1550.217078  1440.507386

                             ****ORCA TERMINATED NORMALLY****
TOTAL RUN TIME: 0 days 0 hours 0 minutes 21 seconds 468 msec
