                         Program Version 5.0.0 -  RELEASE  -
|  1> !LC-PBE RIJCOSX def2-SVPD def2/J TightSCF
|  2> *xyz 0 1
|  3> C          4.90646       -3.10282       -5.95484
|  4> C          3.51177       -2.80621       -6.49228
|  5> H          2.73604       -3.37345       -5.97374
|  6> H          3.44490       -3.04083       -7.55528
|  7> S          3.00462       -1.09621       -6.38926
|  8> O          4.12886       -0.32965       -6.95372
|  9> O          1.78128       -1.00078       -7.13640
| 10> C          5.02498       -3.02568       -4.43762
| 11> H          5.20153       -4.10021       -6.29691
| 12> H          5.60592       -2.39782       -6.41337
| 13> F          2.85155       -0.78368       -4.95679
| 14> H          4.73604       -2.05011       -4.10644
| 15> H          6.03776       -3.21492       -4.14890
| 16> H          4.38436       -3.75784       -3.99214
| 17> *
| 18>
| 19> %MaxCore 64000
| 20>
| 21> %pal nprocs 8
| 22> end
| 23>
| 24> %scf
| 25>   MaxIter 150
| 26> end
| 27>
| 28>
| 29>                          ****END OF INPUT****

CARTESIAN COORDINATES (ANGSTROEM)
---------------------------------
  C      4.906460   -3.102820   -5.954840
  C      3.511770   -2.806210   -6.492280
  H      2.736040   -3.373450   -5.973740
  H      3.444900   -3.040830   -7.555280
  S      3.004620   -1.096210   -6.389260
  O      4.128860   -0.329650   -6.953720
  O      1.781280   -1.000780   -7.136400
  C      5.024980   -3.025680   -4.437620
  H      5.201530   -4.100210   -6.296910
  H      5.605920   -2.397820   -6.413370
  F      2.851550   -0.783680   -4.956790
  H      4.736040   -2.050110   -4.106440
  H      6.037760   -3.214920   -4.148900
  H      4.384360   -3.757840   -3.992140

 Total Charge           Charge          ....    0
 Multiplicity           Mult            ....    1
 Number of Electrons    NEL             ....   66
 Basis Dimension        Dim             ....  212

ORBITAL ENERGIES
----------------

  NO   OCC          E(Eh)            E(eV)
   0   2.0000     -88.574347     -2410.2305
   1   2.0000     -24.617081      -669.8648
   2   2.0000     -19.012550      -517.3578
   3   2.0000     -19.000192      -517.0215
   4   2.0000     -10.196575      -277.4629
   5   2.0000     -10.160789      -276.4891
   6   2.0000     -10.134408      -275.7713
   7   2.0000      -8.196838      -223.0473
   8   2.0000      -6.223917      -169.3614
   9   2.0000      -6.216759      -169.1666
  10   2.0000      -6.215466      -169.1314
  11   2.0000      -1.517356       -41.2894
  12   2.0000      -1.287146       -35.0250
  13   2.0000      -1.178285       -32.0628
  14   2.0000      -1.017620       -27.6909
  15   2.0000      -0.926218       -25.2037
  16   2.0000      -0.866010       -23.5653
  17   2.0000      -0.803073       -21.8527
  18   2.0000      -0.738249       -20.0888
  19   2.0000      -0.728678       -19.8283
  20   2.0000      -0.703723       -19.1493
  21   2.0000      -0.645657       -17.5692
  22   2.0000      -0.634215       -17.2579
  23   2.0000      -0.612484       -16.6665
  24   2.0000      -0.598280       -16.2800
  25   2.0000      -0.578498       -15.7417
  26   2.0000      -0.541695       -14.7403
  27   2.0000      -0.523756       -14.2521
  28   2.0000      -0.505944       -13.7674
  29   2.0000      -0.497632       -13.5413
  30   2.0000      -0.474690       -12.9170
  31   2.0000      -0.461859       -12.5678
  32   2.0000      -0.451883       -12.2964
  33   0.0000       0.066873         1.8197
  34   0.0000       0.086159         2.3445
  35   0.0000       0.092197         2.5088
  36   0.0000       0.094779         2.5791
  37   0.0000       0.121292         3.3005

MULLIKEN ATOMIC CHARGES
-----------------------
   0 C :   -0.314909
   1 C :   -0.233735
   2 H :    0.129541
   3 H :    0.133826
   4 S :    1.376230
   5 O :   -0.661964
   6 O :   -0.618374
   7 C :    0.551433
   8 H :   -0.014904
   9 H :    0.073603
  10 F :   -0.384131
  11 H :   -0.129020
  12 H :    0.033978
  13 H :    0.058426
Sum of atomic charges:    0.0000000

LOEWDIN ATOMIC CHARGES
----------------------
   0 C :   -0.097236
   1 C :   -0.077262
   2 H :    0.040679
   3 H :    0.048811
   4 S :    1.095274
   5 O :   -0.472051
   6 O :   -0.455240
   7 C :    0.104953
   8 H :    0.044208
   9 H :    0.037509
  10 F :   -0.255958
  11 H :   -0.019045
  12 H :    0.003154
  13 H :    0.002204

  Mayer bond orders larger than 0.100000
B(  0-C ,  1-C ) :   1.2198 B(  0-C ,  7-C ) :   1.2602 B(  0-C ,  8-H ) :   0.9432
B(  0-C ,  9-H ) :   0.9367 B(  0-C , 11-H ) :   0.1862 B(  0-C , 12-H ) :   0.1599
B(  0-C , 13-H ) :   0.1597 B(  1-C ,  2-H ) :   0.9356 B(  1-C ,  3-H ) :   0.9296
B(  1-C ,  4-S ) :   1.0365 B(  1-C ,  9-H ) :   0.1235 B(  4-S ,  5-O ) :   1.5338
B(  4-S ,  6-O ) :   1.6016 B(  4-S , 10-F ) :   0.6649 B(  7-C , 11-H ) :   0.8667
B(  7-C , 12-H ) :   0.8110 B(  7-C , 13-H ) :   0.7978

FINAL SINGLE POINT ENERGY      -765.195062475306

DIPOLE MOMENT
-------------
                                X             Y             Z
Electronic contribution:     -7.43541       9.29977      -1.84734
Nuclear contribution   :      7.88819     -10.86344       2.71963
                        -----------------------------------------
Total Dipole Moment    :      0.45278      -1.56367       0.87228
                        -----------------------------------------
Magnitude (a.u.)       :      1.84687
Magnitude (Debye)      :      4.69438

Rotational constants in cm-1:     0.130261     0.054435     0.050898
Rotational constants in MHz :  3905.114465  1631.935083  1525.880669

                             ****ORCA TERMINATED NORMALLY****
TOTAL RUN TIME: 0 days 0 hours 0 minutes 15 seconds 768 msec
