                         Program Version 5.0.0 -  RELEASE  -
|  1> !LC-PBE RIJCOSX def2-SVPD def2/J TightSCF
|  2> *xyz 0 1
|  3> C          4.49059        1.15590       -2.46929
|  4> N          4.30539        1.22276       -3.90832
|  5> C          4.63192        2.24637       -4.67096
|  6> N          4.54169        2.14399       -5.98714
|  7> C          5.08409        3.39358       -4.11855
|  8> H          4.92067        3.57050       -3.13587
|  9> H          5.25465        4.19739       -4.70696
| 10> H          3.82453        0.44911       -4.35093
| 11> H          4.34337        1.24932       -6.41665
| 12> H          4.67671        2.95662       -6.57411
| 13> C          5.94213        0.93950       -2.03689
| 14> H          3.86431        0.32853       -2.13661
| 15> H          4.07623        2.04999       -1.98901
| 16> C          6.55996       -0.35629       -2.55909
| 17> H          5.96798        0.95257       -0.94244
| 18> H          6.54718        1.78833       -2.36885
| 19> H          6.53022       -0.35990       -3.62867
| 20> H          6.00654       -1.19175       -2.18407
| 21> H          7.57588       -0.42487       -2.23029
| 22> *
| 23>
| 24> %MaxCore 64000
| 25>
| 26> %pal nprocs 8
| 27> end
| 28>
| 29> %scf
| 30>   MaxIter 150
| 31> end
| 32>
| 33>
| 34>                          ****END OF INPUT****

CARTESIAN COORDINATES (ANGSTROEM)
---------------------------------
  C      4.490590    1.155900   -2.469290
  N      4.305390    1.222760   -3.908320
  C      4.631920    2.246370   -4.670960
  N      4.541690    2.143990   -5.987140
  C      5.084090    3.393580   -4.118550
  H      4.920670    3.570500   -3.135870
  H      5.254650    4.197390   -4.706960
  H      3.824530    0.449110   -4.350930
  H      4.343370    1.249320   -6.416650
  H      4.676710    2.956620   -6.574110
  C      5.942130    0.939500   -2.036890
  H      3.864310    0.328530   -2.136610
  H      4.076230    2.049990   -1.989010
  C      6.559960   -0.356290   -2.559090
  H      5.967980    0.952570   -0.942440
  H      6.547180    1.788330   -2.368850
  H      6.530220   -0.359900   -3.628670
  H      6.006540   -1.191750   -2.184070
  H      7.575880   -0.424870   -2.230290

 Total Charge           Charge          ....    0
 Multiplicity           Mult            ....    1
 Number of Electrons    NEL             ....   56
 Basis Dimension        Dim             ....  236

ORBITAL ENERGIES
----------------

  NO   OCC          E(Eh)            E(eV)
   0   2.0000     -14.235206      -387.3596
   1   2.0000     -14.231118      -387.2484
   2   2.0000     -10.181544      -277.0539
   3   2.0000     -10.158252      -276.4201
   4   2.0000     -10.116040      -275.2714
   5   2.0000     -10.104324      -274.9526
   6   2.0000     -10.037143      -273.1245
   7   2.0000      -1.143411       -31.1138
   8   2.0000      -1.053237       -28.6600
   9   2.0000      -0.945500       -25.7284
  10   2.0000      -0.874534       -23.7973
  11   2.0000      -0.851184       -23.1619
  12   2.0000      -0.762775       -20.7562
  13   2.0000      -0.706478       -19.2242
  14   2.0000      -0.700564       -19.0633
  15   2.0000      -0.667794       -18.1716
  16   2.0000      -0.622700       -16.9445
  17   2.0000      -0.596136       -16.2217
  18   2.0000      -0.570380       -15.5208
  19   2.0000      -0.539308       -14.6753
  20   2.0000      -0.537913       -14.6374
  21   2.0000      -0.520885       -14.1740
  22   2.0000      -0.502299       -13.6682
  23   2.0000      -0.479929       -13.0595
  24   2.0000      -0.467891       -12.7320
  25   2.0000      -0.457164       -12.4401
  26   2.0000      -0.380528       -10.3547
  27   2.0000      -0.281407        -7.6575
  28   0.0000       0.085018         2.3135
  29   0.0000       0.108417         2.9502
  30   0.0000       0.114957         3.1281
  31   0.0000       0.118801         3.2327
  32   0.0000       0.140795         3.8312

MULLIKEN ATOMIC CHARGES
-----------------------
   0 C :    0.481142
   1 N :   -0.581745
   2 C :    0.710727
   3 N :   -0.021470
   4 C :    0.258738
   5 H :   -0.000876
   6 H :   -0.492949
   7 H :   -0.208396
   8 H :   -0.104262
   9 H :   -0.035661
  10 C :   -0.445551
  11 H :   -0.225301
  12 H :    0.115468
  13 C :    0.457982
  14 H :   -0.045576
  15 H :    0.079560
  16 H :   -0.023574
  17 H :    0.078848
  18 H :    0.002895
Sum of atomic charges:   -0.0000000

LOEWDIN ATOMIC CHARGES
----------------------
   0 C :    0.022765
   1 N :   -0.029596
   2 C :   -0.236514
   3 N :    0.165726
   4 C :    0.128994
   5 H :   -0.101648
   6 H :   -0.093395
   7 H :    0.035962
   8 H :    0.004840
   9 H :    0.019640
  10 C :   -0.087471
  11 H :    0.033871
  12 H :    0.029518
  13 C :    0.086242
  14 H :    0.031740
  15 H :    0.022204
  16 H :   -0.014278
  17 H :   -0.010277
  18 H :   -0.008322

  Mayer bond orders larger than 0.100000
B(  0-C ,  1-N ) :   0.9336 B(  0-C ,  5-H ) :   0.1067 B(  0-C ,  7-H ) :  -0.1673
B(  0-C , 10-C ) :   1.1174 B(  0-C , 11-H ) :   0.9079 B(  0-C , 12-H ) :   0.8907
B(  0-C , 15-H ) :   0.1133 B(  1-N ,  2-C ) :   0.8564 B(  1-N ,  3-N ) :   0.2171
B(  1-N ,  4-C ) :   0.3525 B(  1-N ,  7-H ) :   1.4196 B(  1-N , 11-H ) :   0.1554
B(  2-C ,  3-N ) :   0.8945 B(  2-C ,  4-C ) :   1.7414 B(  2-C ,  5-H ) :   0.2324
B(  2-C ,  6-H ) :   0.1595 B(  2-C ,  7-H ) :  -0.3087 B(  3-N ,  4-C ) :   0.2165
B(  3-N ,  8-H ) :   1.1873 B(  3-N ,  9-H ) :   1.1967 B(  4-C ,  5-H ) :   0.6906
B(  4-C ,  6-H ) :   0.9042 B(  8-H ,  9-H ) :  -0.1603 B( 10-C , 11-H ) :   0.1165
B( 10-C , 13-C ) :   1.2926 B( 10-C , 14-H ) :   1.0436 B( 10-C , 15-H ) :   0.9341
B( 10-C , 16-H ) :   0.1696 B( 10-C , 17-H ) :   0.1549 B( 10-C , 18-H ) :   0.1768
B( 11-H , 12-H ) :  -0.1149 B( 13-C , 16-H ) :   0.8765 B( 13-C , 17-H ) :   0.8237
B( 13-C , 18-H ) :   0.8390

FINAL SINGLE POINT ENERGY      -306.004626678626

DIPOLE MOMENT
-------------
                                X             Y             Z
Electronic contribution:     -2.94663       1.54510      -3.86944
Nuclear contribution   :      2.46104      -2.42013       3.42523
                        -----------------------------------------
Total Dipole Moment    :     -0.48559      -0.87502      -0.44421
                        -----------------------------------------
Magnitude (a.u.)       :      1.09489
Magnitude (Debye)      :      2.78299

Rotational constants in cm-1:     0.157414     0.050835     0.047338
Rotational constants in MHz :  4719.163414  1524.007825  1419.164399

                             ****ORCA TERMINATED NORMALLY****
TOTAL RUN TIME: 0 days 0 hours 0 minutes 22 seconds 168 msec
