                         Program Version 5.0.0 -  RELEASE  -
|  1> !LC-PBE RIJCOSX def2-SVPD def2/J TightSCF xyzfile
|  2>
|  3> *xyzfile 0 1 D2.xyz
|  4>
|  5> %MaxCore 64000
|  6>
|  7> %pal nprocs 4
|  8> end
|  9>
| 10> %scf
| 11>   MaxIter 150
| 12> end
| 13>
| 14>
| 15>                          ****END OF INPUT****

CARTESIAN COORDINATES (ANGSTROEM)
---------------------------------
  C      4.490588    1.155899   -2.469290
  N      4.305394    1.222762   -3.908317
  C      4.906458   -3.102816   -5.954844
  C      3.511771   -2.806215   -6.492283
  H      2.736044   -3.373445   -5.973736
  H      3.444904   -3.040831   -7.555281
  S      3.004618   -1.096206   -6.389259
  C      4.631918    2.246365   -4.670958
  C      4.541686    2.143990   -5.987139
  N      5.084086    3.393584   -4.118545
  H      4.920675    3.570501   -3.135870
  H      5.254652    4.197390   -4.706956
  H      3.824530    0.449113   -4.350926
  H      4.343373    1.249318   -6.416646
  H      4.676712    2.956624   -6.574113
  F      4.128856   -0.329647   -6.953717
  O      1.781285   -1.000779   -7.136399
  C      5.942129    0.939500   -2.036893
  H      3.864305    0.328532   -2.136611
  H      4.076233    2.049994   -1.989010
  C      6.462677   -3.117775   -3.944671
  C      5.024977   -3.025679   -4.437625
  H      4.423321   -3.818693   -3.977648
  H      4.579350   -2.087131   -4.108727
  H      5.201533   -4.100207   -6.296905
  H      5.605922   -2.397822   -6.413368
  C      6.559957   -0.356290   -2.559086
  H      5.967976    0.952567   -0.942444
  H      6.547184    1.788331   -2.368849
  C      6.006283   -1.615917   -1.899301
  H      7.642360   -0.318000   -2.402059
  H      6.414855   -0.403433   -3.642587
  C      6.608718   -2.917014   -2.435655
  H      6.190324   -1.561115   -0.820948
  H      4.919250   -1.651245   -2.016586
  H      7.066975   -2.374258   -4.475514
  H      6.887808   -4.089747   -4.215332
  H      6.135197   -3.755573   -1.915159
  H      7.671142   -2.955503   -2.172291
  O      2.851546   -0.783683   -4.956789

 Total Charge           Charge          ....    0
 Multiplicity           Mult            ....    1
 Number of Electrons    NEL             ....  144
 Basis Dimension        Dim             ....  540

ORBITAL ENERGIES
----------------

  NO   OCC          E(Eh)            E(eV)
   0   2.0000     -88.588508     -2410.6159
   1   2.0000     -24.623955      -670.0519
   2   2.0000     -19.020964      -517.5868
   3   2.0000     -19.018632      -517.5233
   4   2.0000     -14.216314      -386.8456
   5   2.0000     -14.200458      -386.4141
   6   2.0000     -10.202362      -277.6204
   7   2.0000     -10.164722      -276.5961
   8   2.0000     -10.164024      -276.5772
   9   2.0000     -10.151340      -276.2320
  10   2.0000     -10.136157      -275.8188
  11   2.0000     -10.131137      -275.6823
  12   2.0000     -10.126471      -275.5553
  13   2.0000     -10.121432      -275.4182
  14   2.0000     -10.117159      -275.3019
  15   2.0000     -10.116828      -275.2929
  16   2.0000     -10.019501      -272.6445
  17   2.0000      -8.209414      -223.3895
  18   2.0000      -6.236559      -169.7054
  19   2.0000      -6.229740      -169.5198
  20   2.0000      -6.227951      -169.4712
  21   2.0000      -1.527260       -41.5589
  22   2.0000      -1.299217       -35.3535
  23   2.0000      -1.194065       -32.4922
  24   2.0000      -1.121877       -30.5278
  25   2.0000      -1.030081       -28.0299
  26   2.0000      -1.028668       -27.9915
  27   2.0000      -0.991010       -26.9668
  28   2.0000      -0.958078       -26.0706
  29   2.0000      -0.919470       -25.0201
  30   2.0000      -0.894856       -24.3503
  31   2.0000      -0.865917       -23.5628
  32   2.0000      -0.843150       -22.9433
  33   2.0000      -0.810091       -22.0437
  34   2.0000      -0.785974       -21.3875
  35   2.0000      -0.761256       -20.7148
  36   2.0000      -0.752548       -20.4779
  37   2.0000      -0.744220       -20.2512
  38   2.0000      -0.736396       -20.0384
  39   2.0000      -0.711199       -19.3527
  40   2.0000      -0.706569       -19.2267
  41   2.0000      -0.667867       -18.1736
  42   2.0000      -0.653517       -17.7831
  43   2.0000      -0.642534       -17.4842
  44   2.0000      -0.634636       -17.2693
  45   2.0000      -0.628788       -17.1102
  46   2.0000      -0.615433       -16.7468
  47   2.0000      -0.610708       -16.6182
  48   2.0000      -0.606709       -16.5094
  49   2.0000      -0.586054       -15.9473
  50   2.0000      -0.581244       -15.8165
  51   2.0000      -0.575515       -15.6606
  52   2.0000      -0.564670       -15.3655
  53   2.0000      -0.543818       -14.7980
  54   2.0000      -0.534746       -14.5512
  55   2.0000      -0.532692       -14.4953
  56   2.0000      -0.519309       -14.1311
  57   2.0000      -0.512831       -13.9548
  58   2.0000      -0.504849       -13.7376
  59   2.0000      -0.498038       -13.5523
  60   2.0000      -0.493641       -13.4327
  61   2.0000      -0.486112       -13.2278
  62   2.0000      -0.474743       -12.9184
  63   2.0000      -0.473792       -12.8925
  64   2.0000      -0.465547       -12.6682
  65   2.0000      -0.461426       -12.5560
  66   2.0000      -0.453935       -12.3522
  67   2.0000      -0.441351       -12.0098
  68   2.0000      -0.438237       -11.9250
  69   2.0000      -0.434215       -11.8156
  70   2.0000      -0.368685       -10.0324
  71   2.0000      -0.266705        -7.2574
  72   0.0000       0.064261         1.7486
  73   0.0000       0.082883         2.2554
  74   0.0000       0.090140         2.4528
  75   0.0000       0.094635         2.5751
  76   0.0000       0.103556         2.8179

MULLIKEN ATOMIC CHARGES
-----------------------
   0 C :    0.755774
   1 N :    0.287373
   2 C :    0.093817
   3 C :    0.058994
   4 H :    0.132844
   5 H :    0.106063
   6 S :    1.336449
   7 C :    0.975314
   8 C :    0.485303
   9 N :    0.174606
  10 H :   -0.020111
  11 H :   -0.160768
  12 H :   -1.097029
  13 H :   -0.518475
  14 H :   -0.555497
  15 F :   -0.424517
  16 O :   -0.650401
  17 C :    0.184821
  18 H :   -0.188669
  19 H :   -0.108456
  20 C :   -0.141302
  21 C :    0.119468
  22 H :    0.107222
  23 H :   -0.442592
  24 H :   -0.007449
  25 H :    0.094929
  26 C :   -0.022248
  27 H :   -0.065438
  28 H :    0.038731
  29 C :   -0.291198
  30 H :   -0.076165
  31 H :   -0.052961
  32 C :    0.459737
  33 H :   -0.230055
  34 H :    0.201084
  35 H :    0.179771
  36 H :   -0.219709
  37 H :    0.039636
  38 H :    0.090935
  39 O :   -0.649831
Sum of atomic charges:    0.0000000

LOEWDIN ATOMIC CHARGES
----------------------
   0 C :    0.039250
   1 N :    0.004478
   2 C :   -0.054943
   3 C :   -0.058795
   4 H :    0.056575
   5 H :    0.040662
   6 S :    1.144008
   7 C :   -0.208852
   8 C :    0.135783
   9 N :    0.186216
  10 H :   -0.016038
  11 H :    0.011936
  12 H :   -0.091468
  13 H :   -0.157958
  14 H :   -0.082565
  15 F :   -0.251730
  16 O :   -0.430846
  17 C :   -0.045047
  18 H :    0.030041
  19 H :    0.023081
  20 C :   -0.058579
  21 C :   -0.050309
  22 H :    0.054639
  23 H :   -0.007942
  24 H :    0.049817
  25 H :    0.040576
  26 C :   -0.053754
  27 H :    0.032735
  28 H :    0.023109
  29 C :   -0.061104
  30 H :    0.038510
  31 H :    0.020292
  32 C :   -0.052744
  33 H :    0.036409
  34 H :    0.017608
  35 H :    0.030110
  36 H :    0.036171
  37 H :    0.034424
  38 H :    0.035662
  39 O :   -0.439419

  Mayer bond orders larger than 0.100000
B(  0-C ,  1-N ) :   1.0214 B(  0-C , 12-H ) :  -0.4905 B(  0-C , 17-C ) :   1.1197
B(  0-C , 18-H ) :   0.7330 B(  0-C , 19-H ) :   0.9140 B(  0-C , 26-C ) :   0.1102
B(  1-N ,  7-C ) :   1.1983 B(  1-N ,  8-C ) :   0.1199 B(  1-N ,  9-N ) :   0.2881
B(  1-N , 12-H ) :   0.9864 B(  1-N , 18-H ) :   0.2348 B(  2-C ,  3-C ) :   1.2050
B(  2-C ,  5-H ) :   0.2014 B(  2-C , 20-C ) :   0.1030 B(  2-C , 21-C ) :   1.1541
B(  2-C , 24-H ) :   0.8840 B(  2-C , 25-H ) :   0.8749 B(  3-C ,  4-H ) :   0.9207
B(  3-C ,  5-H ) :   0.7930 B(  3-C ,  6-S ) :   1.0497 B(  6-S , 15-F ) :   0.6563
B(  6-S , 16-O ) :   1.5415 B(  6-S , 39-O ) :   1.4205 B(  7-C ,  8-C ) :   1.4599
B(  7-C ,  9-N ) :   0.8411 B(  7-C , 12-H ) :  -0.7876 B(  7-C , 14-H ) :   0.1669
B(  8-C ,  9-N ) :   0.2717 B(  8-C , 13-H ) :   0.4031 B(  8-C , 14-H ) :   0.7980
B(  9-N , 10-H ) :   0.9792 B(  9-N , 11-H ) :   1.2047 B( 10-H , 11-H ) :  -0.1774
B( 12-H , 39-O ) :   0.1592 B( 13-H , 14-H ) :  -0.1574 B( 13-H , 15-F ) :   0.1932
B( 16-O , 39-O ) :   0.1029 B( 17-C , 18-H ) :   0.1005 B( 17-C , 26-C ) :   1.2336
B( 17-C , 27-H ) :   0.9657 B( 17-C , 28-H ) :   0.7696 B( 18-H , 19-H ) :  -0.1541
B( 20-C , 21-C ) :   1.2591 B( 20-C , 32-C ) :   1.1561 B( 20-C , 35-H ) :   0.8684
B( 20-C , 36-H ) :   1.0115 B( 20-C , 38-H ) :   0.1824 B( 21-C , 22-H ) :   0.7452
B( 21-C , 23-H ) :   0.8543 B( 21-C , 24-H ) :   0.1664 B( 21-C , 36-H ) :   0.1828
B( 22-H , 23-H ) :   0.2287 B( 23-H , 34-H ) :   0.1133 B( 26-C , 28-H ) :   0.1813
B( 26-C , 29-C ) :   1.2357 B( 26-C , 30-H ) :   0.9167 B( 26-C , 31-H ) :   0.9514
B( 26-C , 33-H ) :   0.1314 B( 29-C , 30-H ) :   0.1374 B( 29-C , 31-H ) :   0.1017
B( 29-C , 32-C ) :   1.1635 B( 29-C , 33-H ) :   1.0793 B( 29-C , 34-H ) :   0.8500
B( 29-C , 37-H ) :   0.2366 B( 29-C , 38-H ) :   0.1135 B( 32-C , 37-H ) :   0.7394
B( 32-C , 38-H ) :   0.7467

FINAL SINGLE POINT ENERGY     -1187.457190652812

DIPOLE MOMENT
-------------
                                X             Y             Z
Electronic contribution:    -16.31584       3.87623     -19.59215
Nuclear contribution   :     17.27667      -5.32157      20.03034
                        -----------------------------------------
Total Dipole Moment    :      0.96083      -1.44534       0.43818
                        -----------------------------------------
Magnitude (a.u.)       :      1.79003
Magnitude (Debye)      :      4.54989

Rotational constants in cm-1:     0.014355     0.012269     0.007481
Rotational constants in MHz :   430.360270   367.823451   224.273399

                             ****ORCA TERMINATED NORMALLY****
TOTAL RUN TIME: 0 days 0 hours 5 minutes 48 seconds 649 msec
