                         Program Version 5.0.0 -  RELEASE  -
|  1> !LC-PBE RIJCOSX def2-SVPD def2/J TightSCF xyzfile
|  2>
|  3> *xyzfile 0 1 D3.xyz
|  4>
|  5> %MaxCore 64000
|  6>
|  7> %pal nprocs 4
|  8> end
|  9>
| 10> %scf
| 11>   MaxIter 150
| 12> end
| 13>
| 14>
| 15>                          ****END OF INPUT****

CARTESIAN COORDINATES (ANGSTROEM)
---------------------------------
  C      4.490588    1.155899   -2.469290
  N      4.305394    1.222762   -3.908317
  C      4.906458   -3.102816   -5.954844
  C      3.511771   -2.806215   -6.492283
  H      2.736044   -3.373445   -5.973736
  H      3.444904   -3.040831   -7.555281
  S      3.004618   -1.096206   -6.389259
  C      4.631918    2.246365   -4.670958
  N      4.541686    2.143990   -5.987139
  C      5.084086    3.393584   -4.118545
  H      4.920675    3.570501   -3.135870
  H      5.254652    4.197390   -4.706956
  H      3.824530    0.449113   -4.350926
  H      4.343373    1.249318   -6.416646
  H      4.676712    2.956624   -6.574113
  F      4.128856   -0.329647   -6.953717
  O      1.781285   -1.000779   -7.136399
  C      5.942129    0.939500   -2.036893
  H      3.864305    0.328532   -2.136611
  H      4.076233    2.049994   -1.989010
  C      6.462677   -3.117775   -3.944671
  C      5.024977   -3.025679   -4.437625
  H      4.423321   -3.818693   -3.977648
  H      4.579350   -2.087131   -4.108727
  H      5.201533   -4.100207   -6.296905
  H      5.605922   -2.397822   -6.413368
  C      6.559957   -0.356290   -2.559086
  H      5.967976    0.952567   -0.942444
  H      6.547184    1.788331   -2.368849
  C      6.006283   -1.615917   -1.899301
  H      7.642360   -0.318000   -2.402059
  H      6.414855   -0.403433   -3.642587
  C      6.608718   -2.917014   -2.435655
  H      6.190324   -1.561115   -0.820948
  H      4.919250   -1.651245   -2.016586
  H      7.066975   -2.374258   -4.475514
  H      6.887808   -4.089747   -4.215332
  H      6.135197   -3.755573   -1.915159
  H      7.671142   -2.955503   -2.172291
  O      2.851546   -0.783683   -4.956789

 Total Charge           Charge          ....    0
 Multiplicity           Mult            ....    1
 Number of Electrons    NEL             ....  144
 Basis Dimension        Dim             ....  540

ORBITAL ENERGIES
----------------

  NO   OCC          E(Eh)            E(eV)
   0   2.0000     -88.604335     -2411.0465
   1   2.0000     -24.653248      -670.8490
   2   2.0000     -19.037360      -518.0329
   3   2.0000     -19.033628      -517.9313
   4   2.0000     -14.214759      -386.8033
   5   2.0000     -14.202668      -386.4743
   6   2.0000     -10.214685      -277.9557
   7   2.0000     -10.173565      -276.8368
   8   2.0000     -10.164276      -276.5840
   9   2.0000     -10.142431      -275.9896
  10   2.0000     -10.141681      -275.9692
  11   2.0000     -10.134203      -275.7657
  12   2.0000     -10.126795      -275.5641
  13   2.0000     -10.119291      -275.3599
  14   2.0000     -10.112868      -275.1851
  15   2.0000     -10.106563      -275.0136
  16   2.0000     -10.021174      -272.6900
  17   2.0000      -8.225785      -223.8350
  18   2.0000      -6.253169      -170.1574
  19   2.0000      -6.245926      -169.9603
  20   2.0000      -6.244039      -169.9089
  21   2.0000      -1.554711       -42.3058
  22   2.0000      -1.316419       -35.8216
  23   2.0000      -1.209695       -32.9175
  24   2.0000      -1.124529       -30.6000
  25   2.0000      -1.039762       -28.2933
  26   2.0000      -1.036330       -28.2000
  27   2.0000      -0.993836       -27.0437
  28   2.0000      -0.955274       -25.9943
  29   2.0000      -0.925710       -25.1898
  30   2.0000      -0.895448       -24.3664
  31   2.0000      -0.864853       -23.5338
  32   2.0000      -0.854294       -23.2465
  33   2.0000      -0.821428       -22.3522
  34   2.0000      -0.794121       -21.6091
  35   2.0000      -0.779060       -21.1993
  36   2.0000      -0.770408       -20.9639
  37   2.0000      -0.751756       -20.4563
  38   2.0000      -0.737346       -20.0642
  39   2.0000      -0.715514       -19.4701
  40   2.0000      -0.691964       -18.8293
  41   2.0000      -0.678390       -18.4599
  42   2.0000      -0.670743       -18.2518
  43   2.0000      -0.653095       -17.7716
  44   2.0000      -0.646529       -17.5930
  45   2.0000      -0.633038       -17.2258
  46   2.0000      -0.624737       -17.0000
  47   2.0000      -0.615556       -16.7501
  48   2.0000      -0.602881       -16.4052
  49   2.0000      -0.591832       -16.1046
  50   2.0000      -0.581218       -15.8157
  51   2.0000      -0.577109       -15.7039
  52   2.0000      -0.565826       -15.3969
  53   2.0000      -0.551047       -14.9948
  54   2.0000      -0.536053       -14.5867
  55   2.0000      -0.527827       -14.3629
  56   2.0000      -0.526493       -14.3266
  57   2.0000      -0.517674       -14.0866
  58   2.0000      -0.506163       -13.7734
  59   2.0000      -0.504929       -13.7398
  60   2.0000      -0.495693       -13.4885
  61   2.0000      -0.487148       -13.2560
  62   2.0000      -0.483577       -13.1588
  63   2.0000      -0.475163       -12.9298
  64   2.0000      -0.468842       -12.7579
  65   2.0000      -0.465469       -12.6660
  66   2.0000      -0.457717       -12.4551
  67   2.0000      -0.440336       -11.9821
  68   2.0000      -0.437144       -11.8953
  69   2.0000      -0.428861       -11.6699
  70   2.0000      -0.362177        -9.8553
  71   2.0000      -0.265396        -7.2218
  72   0.0000       0.052080         1.4172
  73   0.0000       0.074636         2.0309
  74   0.0000       0.082376         2.2416
  75   0.0000       0.088436         2.4065
  76   0.0000       0.097489         2.6528

MULLIKEN ATOMIC CHARGES
-----------------------
   0 C :    0.699541
   1 N :    0.357418
   2 C :    0.096160
   3 C :    0.057485
   4 H :    0.144229
   5 H :    0.115583
   6 S :    1.300364
   7 C :    0.591217
   8 N :    0.530953
   9 C :    0.315423
  10 H :    0.129419
  11 H :   -0.579143
  12 H :   -1.235397
  13 H :   -0.445275
  14 H :   -0.139526
  15 F :   -0.404441
  16 O :   -0.631649
  17 C :    0.219893
  18 H :   -0.213961
  19 H :   -0.021490
  20 C :   -0.149722
  21 C :    0.126541
  22 H :    0.105528
  23 H :   -0.443858
  24 H :   -0.007274
  25 H :    0.094651
  26 C :   -0.053311
  27 H :   -0.040677
  28 H :    0.032148
  29 C :   -0.296890
  30 H :   -0.079599
  31 H :   -0.058295
  32 C :    0.465784
  33 H :   -0.224733
  34 H :    0.194837
  35 H :    0.185541
  36 H :   -0.222988
  37 H :    0.038528
  38 H :    0.093048
  39 O :   -0.646066
Sum of atomic charges:    0.0000000

LOEWDIN ATOMIC CHARGES
----------------------
   0 C :    0.046012
   1 N :    0.001510
   2 C :   -0.054927
   3 C :   -0.056022
   4 H :    0.058921
   5 H :    0.041379
   6 S :    1.144052
   7 C :   -0.215435
   8 N :    0.194296
   9 C :    0.123736
  10 H :   -0.103822
  11 H :   -0.097923
  12 H :   -0.099351
  13 H :   -0.085304
  14 H :    0.024442
  15 F :   -0.243848
  16 O :   -0.426523
  17 C :   -0.037029
  18 H :    0.028376
  19 H :    0.030508
  20 C :   -0.058587
  21 C :   -0.049991
  22 H :    0.055346
  23 H :   -0.007751
  24 H :    0.051188
  25 H :    0.039589
  26 C :   -0.055636
  27 H :    0.034400
  28 H :    0.023977
  29 C :   -0.061627
  30 H :    0.038206
  31 H :    0.016463
  32 C :   -0.052804
  33 H :    0.037004
  34 H :    0.016924
  35 H :    0.029697
  36 H :    0.036128
  37 H :    0.034170
  38 H :    0.036055
  39 O :   -0.435800

  Mayer bond orders larger than 0.100000
B(  0-C ,  1-N ) :   1.0720 B(  0-C , 10-H ) :   0.1148 B(  0-C , 12-H ) :  -0.5062
B(  0-C , 17-C ) :   1.1049 B(  0-C , 18-H ) :   0.7964 B(  0-C , 19-H ) :   0.9013
B(  0-C , 26-C ) :   0.1065 B(  1-N ,  7-C ) :   1.0315 B(  1-N ,  9-C ) :   0.2619
B(  1-N , 12-H ) :   0.8443 B(  1-N , 13-H ) :   0.1369 B(  1-N , 14-H ) :  -0.1059
B(  1-N , 18-H ) :   0.2592 B(  2-C ,  3-C ) :   1.2065 B(  2-C ,  5-H ) :   0.2076
B(  2-C , 20-C ) :   0.1032 B(  2-C , 21-C ) :   1.1484 B(  2-C , 24-H ) :   0.8903
B(  2-C , 25-H ) :   0.8682 B(  3-C ,  4-H ) :   0.9131 B(  3-C ,  5-H ) :   0.7829
B(  3-C ,  6-S ) :   1.0707 B(  6-S , 15-F ) :   0.6196 B(  6-S , 16-O ) :   1.5777
B(  6-S , 39-O ) :   1.4457 B(  7-C ,  8-N ) :   0.9495 B(  7-C ,  9-C ) :   1.7728
B(  7-C , 10-H ) :   0.3137 B(  7-C , 11-H ) :   0.3252 B(  7-C , 12-H ) :  -0.7298
B(  7-C , 13-H ) :  -0.1675 B(  7-C , 14-H ) :  -0.1008 B(  7-C , 18-H ) :   0.1123
B(  8-N ,  9-C ) :   0.1745 B(  8-N , 13-H ) :   0.9760 B(  8-N , 14-H ) :   1.2369
B(  9-C , 10-H ) :   0.5755 B(  9-C , 11-H ) :   0.7541 B( 10-H , 13-H ) :   0.1139
B( 10-H , 18-H ) :  -0.1044 B( 10-H , 19-H ) :   0.1166 B( 12-H , 39-O ) :   0.2023
B( 13-H , 14-H ) :  -0.2145 B( 13-H , 15-F ) :   0.1717 B( 16-O , 39-O ) :   0.1071
B( 17-C , 26-C ) :   1.2085 B( 17-C , 27-H ) :   0.9377 B( 17-C , 28-H ) :   0.8067
B( 18-H , 19-H ) :  -0.1773 B( 20-C , 21-C ) :   1.2616 B( 20-C , 32-C ) :   1.1567
B( 20-C , 35-H ) :   0.8666 B( 20-C , 36-H ) :   1.0165 B( 20-C , 38-H ) :   0.1822
B( 21-C , 22-H ) :   0.7477 B( 21-C , 23-H ) :   0.8496 B( 21-C , 24-H ) :   0.1625
B( 21-C , 36-H ) :   0.1830 B( 22-H , 23-H ) :   0.2287 B( 23-H , 34-H ) :   0.1099
B( 26-C , 28-H ) :   0.1803 B( 26-C , 29-C ) :   1.2369 B( 26-C , 30-H ) :   0.9281
B( 26-C , 31-H ) :   0.9542 B( 26-C , 33-H ) :   0.1317 B( 29-C , 30-H ) :   0.1381
B( 29-C , 31-H ) :   0.1088 B( 29-C , 32-C ) :   1.1628 B( 29-C , 33-H ) :   1.0783
B( 29-C , 34-H ) :   0.8572 B( 29-C , 37-H ) :   0.2399 B( 29-C , 38-H ) :   0.1138
B( 32-C , 37-H ) :   0.7375 B( 32-C , 38-H ) :   0.7472

FINAL SINGLE POINT ENERGY     -1187.459445830826

DIPOLE MOMENT
-------------
                                X             Y             Z
Electronic contribution:    -16.82548       2.59475     -21.32419
Nuclear contribution   :     17.35766      -5.13497      20.30937
                        -----------------------------------------
Total Dipole Moment    :      0.53218      -2.54022      -1.01482
                        -----------------------------------------
Magnitude (a.u.)       :      2.78671
Magnitude (Debye)      :      7.08326

Rotational constants in cm-1:     0.014431     0.012329     0.007535
Rotational constants in MHz :   432.628327   369.619539   225.898827

                             ****ORCA TERMINATED NORMALLY****
TOTAL RUN TIME: 0 days 0 hours 5 minutes 47 seconds 648 msec
