                         Program Version 5.0.0 -  RELEASE  -
|  1> !LC-PBE RIJCOSX def2-SVPD def2/J TightSCF xyzfile
|  2>
|  3> *xyzfile 0 1 D5.xyz
|  4>
|  5> %MaxCore 64000
|  6>
|  7> %pal nprocs 4
|  8> end
|  9>
| 10> %scf
| 11>   MaxIter 150
| 12> end
| 13>
| 14>
| 15>                          ****END OF INPUT****

CARTESIAN COORDINATES (ANGSTROEM)
---------------------------------
  C      4.490588    1.155899   -2.469290
  N      4.305394    1.222762   -3.908317
  C      4.906458   -3.102816   -5.954844
  C      3.511771   -2.806215   -6.492283
  H      2.736044   -3.373445   -5.973736
  H      3.444904   -3.040831   -7.555281
  S      3.004618   -1.096206   -6.389259
  C      4.631918    2.246365   -4.670958
  C      4.541686    2.143990   -5.987139
  N      5.084086    3.393584   -4.118545
  H      4.920675    3.570501   -3.135870
  H      5.254652    4.197390   -4.706956
  H      3.824530    0.449113   -4.350926
  H      4.343373    1.249318   -6.416646
  H      4.676712    2.956624   -6.574113
  O      4.128856   -0.329647   -6.953717
  F      1.781285   -1.000779   -7.136399
  C      5.942129    0.939500   -2.036893
  H      3.864305    0.328532   -2.136611
  H      4.076233    2.049994   -1.989010
  C      6.462677   -3.117775   -3.944671
  C      5.024977   -3.025679   -4.437625
  H      4.423321   -3.818693   -3.977648
  H      4.579350   -2.087131   -4.108727
  H      5.201533   -4.100207   -6.296905
  H      5.605922   -2.397822   -6.413368
  C      6.559957   -0.356290   -2.559086
  H      5.967976    0.952567   -0.942444
  H      6.547184    1.788331   -2.368849
  C      6.006283   -1.615917   -1.899301
  H      7.642360   -0.318000   -2.402059
  H      6.414855   -0.403433   -3.642587
  C      6.608718   -2.917014   -2.435655
  H      6.190324   -1.561115   -0.820948
  H      4.919250   -1.651245   -2.016586
  H      7.066975   -2.374258   -4.475514
  H      6.887808   -4.089747   -4.215332
  H      6.135197   -3.755573   -1.915159
  H      7.671142   -2.955503   -2.172291
  O      2.851546   -0.783683   -4.956789

 Total Charge           Charge          ....    0
 Multiplicity           Mult            ....    1
 Number of Electrons    NEL             ....  144
 Basis Dimension        Dim             ....  540

ORBITAL ENERGIES
----------------

  NO   OCC          E(Eh)            E(eV)
   0   2.0000     -88.593388     -2410.7486
   1   2.0000     -24.647742      -670.6991
   2   2.0000     -19.021525      -517.6020
   3   2.0000     -19.010352      -517.2980
   4   2.0000     -14.202064      -386.4578
   5   2.0000     -14.187316      -386.0565
   6   2.0000     -10.205557      -277.7073
   7   2.0000     -10.161264      -276.5020
   8   2.0000     -10.144921      -276.0573
   9   2.0000     -10.142560      -275.9931
  10   2.0000     -10.131975      -275.7051
  11   2.0000     -10.126032      -275.5433
  12   2.0000     -10.121701      -275.4255
  13   2.0000     -10.115852      -275.2663
  14   2.0000     -10.109367      -275.0899
  15   2.0000     -10.108680      -275.0712
  16   2.0000      -9.994228      -271.9568
  17   2.0000      -8.214488      -223.5276
  18   2.0000      -6.241668      -169.8444
  19   2.0000      -6.234615      -169.6525
  20   2.0000      -6.232926      -169.6065
  21   2.0000      -1.559457       -42.4350
  22   2.0000      -1.293632       -35.2015
  23   2.0000      -1.182231       -32.1701
  24   2.0000      -1.107588       -30.1390
  25   2.0000      -1.025902       -27.9162
  26   2.0000      -1.017126       -27.6774
  27   2.0000      -0.986542       -26.8452
  28   2.0000      -0.954289       -25.9675
  29   2.0000      -0.920661       -25.0525
  30   2.0000      -0.893503       -24.3134
  31   2.0000      -0.864998       -23.5378
  32   2.0000      -0.833392       -22.6778
  33   2.0000      -0.805147       -21.9092
  34   2.0000      -0.782251       -21.2861
  35   2.0000      -0.766582       -20.8598
  36   2.0000      -0.749905       -20.4060
  37   2.0000      -0.748283       -20.3618
  38   2.0000      -0.733320       -19.9547
  39   2.0000      -0.712946       -19.4003
  40   2.0000      -0.700056       -19.0495
  41   2.0000      -0.665376       -18.1058
  42   2.0000      -0.657711       -17.8972
  43   2.0000      -0.640489       -17.4286
  44   2.0000      -0.628322       -17.0975
  45   2.0000      -0.624125       -16.9833
  46   2.0000      -0.609815       -16.5939
  47   2.0000      -0.606037       -16.4911
  48   2.0000      -0.594658       -16.1815
  49   2.0000      -0.584859       -15.9148
  50   2.0000      -0.575095       -15.6491
  51   2.0000      -0.565788       -15.3959
  52   2.0000      -0.559278       -15.2187
  53   2.0000      -0.538055       -14.6412
  54   2.0000      -0.527537       -14.3550
  55   2.0000      -0.525238       -14.2925
  56   2.0000      -0.513073       -13.9614
  57   2.0000      -0.507919       -13.8212
  58   2.0000      -0.494879       -13.4663
  59   2.0000      -0.491960       -13.3869
  60   2.0000      -0.486956       -13.2507
  61   2.0000      -0.481480       -13.1017
  62   2.0000      -0.468528       -12.7493
  63   2.0000      -0.463337       -12.6080
  64   2.0000      -0.457347       -12.4450
  65   2.0000      -0.449090       -12.2204
  66   2.0000      -0.436350       -11.8737
  67   2.0000      -0.433194       -11.7878
  68   2.0000      -0.427827       -11.6418
  69   2.0000      -0.419553       -11.4166
  70   2.0000      -0.355855        -9.6833
  71   2.0000      -0.247532        -6.7357
  72   0.0000       0.056088         1.5262
  73   0.0000       0.080857         2.2002
  74   0.0000       0.083569         2.2740
  75   0.0000       0.096390         2.6229
  76   0.0000       0.105016         2.8576

MULLIKEN ATOMIC CHARGES
-----------------------
   0 C :    0.769434
   1 N :    0.248978
   2 C :    0.014190
   3 C :    0.055532
   4 H :    0.127474
   5 H :    0.138427
   6 S :    1.506075
   7 C :    0.932648
   8 C :    0.428600
   9 N :    0.164172
  10 H :   -0.023813
  11 H :   -0.163232
  12 H :   -1.068498
  13 H :   -0.440878
  14 H :   -0.592707
  15 O :   -0.625714
  16 F :   -0.473548
  17 C :    0.180922
  18 H :   -0.196429
  19 H :   -0.110679
  20 C :   -0.146551
  21 C :    0.085482
  22 H :    0.104430
  23 H :   -0.441844
  24 H :    0.010822
  25 H :    0.139180
  26 C :   -0.012885
  27 H :   -0.073438
  28 H :    0.039991
  29 C :   -0.290971
  30 H :   -0.077438
  31 H :   -0.052799
  32 C :    0.460832
  33 H :   -0.233746
  34 H :    0.201698
  35 H :    0.187581
  36 H :   -0.222375
  37 H :    0.037341
  38 H :    0.093292
  39 O :   -0.679557
Sum of atomic charges:   -0.0000000

LOEWDIN ATOMIC CHARGES
----------------------
   0 C :    0.036034
   1 N :    0.004749
   2 C :   -0.040039
   3 C :   -0.069581
   4 H :    0.043243
   5 H :    0.038491
   6 S :    1.178468
   7 C :   -0.214423
   8 C :    0.139412
   9 N :    0.179779
  10 H :   -0.020248
  11 H :    0.008920
  12 H :   -0.086666
  13 H :   -0.187245
  14 H :   -0.085225
  15 O :   -0.440019
  16 F :   -0.219731
  17 C :   -0.045766
  18 H :    0.027736
  19 H :    0.021099
  20 C :   -0.057250
  21 C :   -0.048089
  22 H :    0.052557
  23 H :   -0.004888
  24 H :    0.052319
  25 H :    0.045410
  26 C :   -0.052815
  27 H :    0.031202
  28 H :    0.023156
  29 C :   -0.062088
  30 H :    0.037983
  31 H :    0.022872
  32 C :   -0.053558
  33 H :    0.035570
  34 H :    0.016791
  35 H :    0.032296
  36 H :    0.035601
  37 H :    0.033359
  38 H :    0.035383
  39 O :   -0.444800

  Mayer bond orders larger than 0.100000
B(  0-C ,  1-N ) :   1.0071 B(  0-C , 12-H ) :  -0.4933 B(  0-C , 17-C ) :   1.1165
B(  0-C , 18-H ) :   0.7280 B(  0-C , 19-H ) :   0.9170 B(  0-C , 26-C ) :   0.1133
B(  1-N ,  7-C ) :   1.1796 B(  1-N ,  8-C ) :   0.1294 B(  1-N ,  9-N ) :   0.2876
B(  1-N , 12-H ) :   1.0179 B(  1-N , 18-H ) :   0.2370 B(  2-C ,  3-C ) :   1.2726
B(  2-C ,  5-H ) :   0.2369 B(  2-C , 20-C ) :   0.1085 B(  2-C , 21-C ) :   1.1701
B(  2-C , 24-H ) :   0.8653 B(  2-C , 25-H ) :   0.8782 B(  3-C ,  4-H ) :   0.9199
B(  3-C ,  5-H ) :   0.7136 B(  3-C ,  6-S ) :   1.0188 B(  3-C , 21-C ) :   0.1102
B(  6-S , 15-O ) :   1.4479 B(  6-S , 16-F ) :   0.5795 B(  6-S , 39-O ) :   1.3611
B(  7-C ,  8-C ) :   1.4504 B(  7-C ,  9-N ) :   0.8155 B(  7-C , 12-H ) :  -0.7649
B(  7-C , 14-H ) :   0.1250 B(  8-C ,  9-N ) :   0.2822 B(  8-C , 13-H ) :   0.5862
B(  8-C , 14-H ) :   0.8070 B(  9-N , 10-H ) :   0.9803 B(  9-N , 11-H ) :   1.2090
B( 10-H , 11-H ) :  -0.1776 B( 12-H , 39-O ) :   0.1545 B( 13-H , 14-H ) :  -0.1590
B( 13-H , 15-O ) :   0.1680 B( 17-C , 18-H ) :   0.1019 B( 17-C , 26-C ) :   1.2321
B( 17-C , 27-H ) :   0.9703 B( 17-C , 28-H ) :   0.7707 B( 18-H , 19-H ) :  -0.1548
B( 20-C , 21-C ) :   1.2701 B( 20-C , 32-C ) :   1.1549 B( 20-C , 35-H ) :   0.8655
B( 20-C , 36-H ) :   1.0091 B( 20-C , 38-H ) :   0.1820 B( 21-C , 22-H ) :   0.7422
B( 21-C , 23-H ) :   0.8580 B( 21-C , 24-H ) :   0.1705 B( 21-C , 36-H ) :   0.1848
B( 22-H , 23-H ) :   0.2383 B( 23-H , 34-H ) :   0.1138 B( 26-C , 28-H ) :   0.1813
B( 26-C , 29-C ) :   1.2335 B( 26-C , 30-H ) :   0.9144 B( 26-C , 31-H ) :   0.9481
B( 26-C , 33-H ) :   0.1299 B( 29-C , 30-H ) :   0.1384 B( 29-C , 31-H ) :   0.1002
B( 29-C , 32-C ) :   1.1621 B( 29-C , 33-H ) :   1.0813 B( 29-C , 34-H ) :   0.8492
B( 29-C , 37-H ) :   0.2371 B( 29-C , 38-H ) :   0.1141 B( 32-C , 37-H ) :   0.7389
B( 32-C , 38-H ) :   0.7462

FINAL SINGLE POINT ENERGY     -1187.438318103969

DIPOLE MOMENT
-------------
                                X             Y             Z
Electronic contribution:    -20.62800       2.54099     -20.19412
Nuclear contribution   :     20.03262      -4.53368      20.24480
                        -----------------------------------------
Total Dipole Moment    :     -0.59538      -1.99269       0.05068
                        -----------------------------------------
Magnitude (a.u.)       :      2.08035
Magnitude (Debye)      :      5.28783

Rotational constants in cm-1:     0.014367     0.012055     0.007393
Rotational constants in MHz :   430.711297   361.391195   221.649333

                             ****ORCA TERMINATED NORMALLY****
TOTAL RUN TIME: 0 days 0 hours 5 minutes 48 seconds 176 msec
