                         Program Version 5.0.0 -  RELEASE  -
|  1> !LC-PBE RIJCOSX def2-SVPD def2/J TightSCF xyzfile
|  2>
|  3> *xyzfile 0 1 D6.xyz
|  4>
|  5> %MaxCore 64000
|  6>
|  7> %pal nprocs 4
|  8> end
|  9>
| 10> %scf
| 11>   MaxIter 150
| 12> end
| 13>
| 14>
| 15>                          ****END OF INPUT****

CARTESIAN COORDINATES (ANGSTROEM)
---------------------------------
  C      4.490588    1.155899   -2.469290
  N      4.305394    1.222762   -3.908317
  C      4.906458   -3.102816   -5.954844
  C      3.511771   -2.806215   -6.492283
  H      2.736044   -3.373445   -5.973736
  H      3.444904   -3.040831   -7.555281
  S      3.004618   -1.096206   -6.389259
  C      4.631918    2.246365   -4.670958
  N      4.541686    2.143990   -5.987139
  C      5.084086    3.393584   -4.118545
  H      4.920675    3.570501   -3.135870
  H      5.254652    4.197390   -4.706956
  H      3.824530    0.449113   -4.350926
  H      4.343373    1.249318   -6.416646
  H      4.676712    2.956624   -6.574113
  O      4.128856   -0.329647   -6.953717
  F      1.781285   -1.000779   -7.136399
  C      5.942129    0.939500   -2.036893
  H      3.864305    0.328532   -2.136611
  H      4.076233    2.049994   -1.989010
  C      6.462677   -3.117775   -3.944671
  C      5.024977   -3.025679   -4.437625
  H      4.423321   -3.818693   -3.977648
  H      4.579350   -2.087131   -4.108727
  H      5.201533   -4.100207   -6.296905
  H      5.605922   -2.397822   -6.413368
  C      6.559957   -0.356290   -2.559086
  H      5.967976    0.952567   -0.942444
  H      6.547184    1.788331   -2.368849
  C      6.006283   -1.615917   -1.899301
  H      7.642360   -0.318000   -2.402059
  H      6.414855   -0.403433   -3.642587
  C      6.608718   -2.917014   -2.435655
  H      6.190324   -1.561115   -0.820948
  H      4.919250   -1.651245   -2.016586
  H      7.066975   -2.374258   -4.475514
  H      6.887808   -4.089747   -4.215332
  H      6.135197   -3.755573   -1.915159
  H      7.671142   -2.955503   -2.172291
  O      2.851546   -0.783683   -4.956789

 Total Charge           Charge          ....    0
 Multiplicity           Mult            ....    1
 Number of Electrons    NEL             ....  144
 Basis Dimension        Dim             ....  540

ORBITAL ENERGIES
----------------

  NO   OCC          E(Eh)            E(eV)
   0   2.0000     -88.612919     -2411.2801
   1   2.0000     -24.664948      -671.1674
   2   2.0000     -19.037913      -518.0480
   3   2.0000     -19.037849      -518.0462
   4   2.0000     -14.190833      -386.1522
   5   2.0000     -14.185160      -385.9978
   6   2.0000     -10.219501      -278.0868
   7   2.0000     -10.171079      -276.7691
   8   2.0000     -10.148489      -276.1544
   9   2.0000     -10.138232      -275.8753
  10   2.0000     -10.134190      -275.7653
  11   2.0000     -10.129586      -275.6401
  12   2.0000     -10.122419      -275.4450
  13   2.0000     -10.114091      -275.2184
  14   2.0000     -10.105414      -274.9823
  15   2.0000     -10.098775      -274.8017
  16   2.0000     -10.006462      -272.2897
  17   2.0000      -8.234243      -224.0651
  18   2.0000      -6.261357      -170.3802
  19   2.0000      -6.254565      -170.1954
  20   2.0000      -6.252507      -170.1394
  21   2.0000      -1.577005       -42.9125
  22   2.0000      -1.314584       -35.7717
  23   2.0000      -1.203935       -32.7607
  24   2.0000      -1.107165       -30.1275
  25   2.0000      -1.037900       -28.2427
  26   2.0000      -1.018309       -27.7096
  27   2.0000      -0.990696       -26.9582
  28   2.0000      -0.954779       -25.9809
  29   2.0000      -0.924619       -25.1602
  30   2.0000      -0.894903       -24.3515
  31   2.0000      -0.856519       -23.3071
  32   2.0000      -0.841895       -22.9091
  33   2.0000      -0.818947       -22.2847
  34   2.0000      -0.790987       -21.5239
  35   2.0000      -0.784257       -21.3407
  36   2.0000      -0.762940       -20.7607
  37   2.0000      -0.748871       -20.3778
  38   2.0000      -0.743164       -20.2225
  39   2.0000      -0.708908       -19.2904
  40   2.0000      -0.689753       -18.7691
  41   2.0000      -0.672593       -18.3022
  42   2.0000      -0.670970       -18.2580
  43   2.0000      -0.652473       -17.7547
  44   2.0000      -0.644950       -17.5500
  45   2.0000      -0.626840       -17.0572
  46   2.0000      -0.622657       -16.9434
  47   2.0000      -0.607094       -16.5199
  48   2.0000      -0.596426       -16.2296
  49   2.0000      -0.582291       -15.8450
  50   2.0000      -0.573325       -15.6010
  51   2.0000      -0.571946       -15.5634
  52   2.0000      -0.563322       -15.3288
  53   2.0000      -0.544628       -14.8201
  54   2.0000      -0.529548       -14.4097
  55   2.0000      -0.523223       -14.2376
  56   2.0000      -0.519775       -14.1438
  57   2.0000      -0.510326       -13.8867
  58   2.0000      -0.499572       -13.5940
  59   2.0000      -0.496224       -13.5029
  60   2.0000      -0.488005       -13.2793
  61   2.0000      -0.480558       -13.0766
  62   2.0000      -0.473393       -12.8817
  63   2.0000      -0.468788       -12.7564
  64   2.0000      -0.462893       -12.5960
  65   2.0000      -0.460314       -12.5258
  66   2.0000      -0.450318       -12.2538
  67   2.0000      -0.434422       -11.8212
  68   2.0000      -0.430575       -11.7165
  69   2.0000      -0.422143       -11.4871
  70   2.0000      -0.344338        -9.3699
  71   2.0000      -0.250626        -6.8199
  72   0.0000       0.045825         1.2470
  73   0.0000       0.071872         1.9557
  74   0.0000       0.073871         2.0101
  75   0.0000       0.090052         2.4504
  76   0.0000       0.101305         2.7566

MULLIKEN ATOMIC CHARGES
-----------------------
   0 C :    0.712257
   1 N :    0.340384
   2 C :    0.016564
   3 C :    0.046137
   4 H :    0.139907
   5 H :    0.144339
   6 S :    1.487212
   7 C :    0.563716
   8 N :    0.518403
   9 C :    0.320045
  10 H :    0.119686
  11 H :   -0.591990
  12 H :   -1.204240
  13 H :   -0.453261
  14 H :   -0.150571
  15 O :   -0.637563
  16 F :   -0.462531
  17 C :    0.216071
  18 H :   -0.220207
  19 H :   -0.024150
  20 C :   -0.155104
  21 C :    0.093204
  22 H :    0.104243
  23 H :   -0.441251
  24 H :    0.012661
  25 H :    0.139791
  26 C :   -0.044934
  27 H :   -0.045615
  28 H :    0.033685
  29 C :   -0.295542
  30 H :   -0.081002
  31 H :   -0.059795
  32 C :    0.467845
  33 H :   -0.228883
  34 H :    0.193419
  35 H :    0.193090
  36 H :   -0.225378
  37 H :    0.036447
  38 H :    0.095010
  39 O :   -0.672099
Sum of atomic charges:    0.0000000

LOEWDIN ATOMIC CHARGES
----------------------
   0 C :    0.043017
   1 N :    0.004255
   2 C :   -0.039422
   3 C :   -0.065425
   4 H :    0.046465
   5 H :    0.039613
   6 S :    1.183083
   7 C :   -0.216004
   8 N :    0.196889
   9 C :    0.116290
  10 H :   -0.109158
  11 H :   -0.101547
  12 H :   -0.093910
  13 H :   -0.124141
  14 H :    0.019539
  15 O :   -0.435207
  16 F :   -0.216200
  17 C :   -0.037574
  18 H :    0.026065
  19 H :    0.028735
  20 C :   -0.057128
  21 C :   -0.047709
  22 H :    0.053314
  23 H :   -0.004711
  24 H :    0.053952
  25 H :    0.044995
  26 C :   -0.054560
  27 H :    0.033012
  28 H :    0.023921
  29 C :   -0.062628
  30 H :    0.037795
  31 H :    0.019348
  32 C :   -0.053533
  33 H :    0.036217
  34 H :    0.016046
  35 H :    0.032021
  36 H :    0.035617
  37 H :    0.033131
  38 H :    0.035860
  39 O :   -0.440324

  Mayer bond orders larger than 0.100000
B(  0-C ,  1-N ) :   1.0537 B(  0-C , 10-H ) :   0.1184 B(  0-C , 12-H ) :  -0.5042
B(  0-C , 17-C ) :   1.1042 B(  0-C , 18-H ) :   0.7930 B(  0-C , 19-H ) :   0.9065
B(  0-C , 26-C ) :   0.1085 B(  1-N ,  7-C ) :   1.0265 B(  1-N ,  9-C ) :   0.2680
B(  1-N , 11-H ) :   0.1057 B(  1-N , 12-H ) :   0.8701 B(  1-N , 13-H ) :   0.1435
B(  1-N , 14-H ) :  -0.1113 B(  1-N , 18-H ) :   0.2591 B(  2-C ,  3-C ) :   1.2756
B(  2-C ,  5-H ) :   0.2399 B(  2-C , 20-C ) :   0.1084 B(  2-C , 21-C ) :   1.1642
B(  2-C , 24-H ) :   0.8688 B(  2-C , 25-H ) :   0.8732 B(  3-C ,  4-H ) :   0.9159
B(  3-C ,  5-H ) :   0.7059 B(  3-C ,  6-S ) :   1.0446 B(  3-C , 21-C ) :   0.1127
B(  6-S , 15-O ) :   1.3872 B(  6-S , 16-F ) :   0.6036 B(  6-S , 39-O ) :   1.3846
B(  7-C ,  8-N ) :   0.9658 B(  7-C ,  9-C ) :   1.7574 B(  7-C , 10-H ) :   0.3203
B(  7-C , 11-H ) :   0.3228 B(  7-C , 12-H ) :  -0.7072 B(  7-C , 13-H ) :  -0.1689
B(  7-C , 18-H ) :   0.1150 B(  8-N ,  9-C ) :   0.1753 B(  8-N , 13-H ) :   0.9830
B(  8-N , 14-H ) :   1.2404 B(  9-C , 10-H ) :   0.5728 B(  9-C , 11-H ) :   0.7538
B( 10-H , 13-H ) :   0.1273 B( 10-H , 18-H ) :  -0.1060 B( 10-H , 19-H ) :   0.1167
B( 12-H , 39-O ) :   0.1963 B( 13-H , 14-H ) :  -0.2410 B( 13-H , 15-O ) :   0.1756
B( 17-C , 18-H ) :   0.1002 B( 17-C , 26-C ) :   1.2081 B( 17-C , 27-H ) :   0.9405
B( 17-C , 28-H ) :   0.8100 B( 18-H , 19-H ) :  -0.1797 B( 20-C , 21-C ) :   1.2720
B( 20-C , 32-C ) :   1.1548 B( 20-C , 35-H ) :   0.8640 B( 20-C , 36-H ) :   1.0142
B( 20-C , 38-H ) :   0.1816 B( 21-C , 22-H ) :   0.7447 B( 21-C , 23-H ) :   0.8540
B( 21-C , 24-H ) :   0.1667 B( 21-C , 36-H ) :   0.1850 B( 22-H , 23-H ) :   0.2357
B( 23-H , 34-H ) :   0.1126 B( 26-C , 28-H ) :   0.1804 B( 26-C , 29-C ) :   1.2332
B( 26-C , 30-H ) :   0.9268 B( 26-C , 31-H ) :   0.9520 B( 26-C , 33-H ) :   0.1308
B( 29-C , 30-H ) :   0.1396 B( 29-C , 31-H ) :   0.1071 B( 29-C , 32-C ) :   1.1614
B( 29-C , 33-H ) :   1.0809 B( 29-C , 34-H ) :   0.8571 B( 29-C , 37-H ) :   0.2406
B( 29-C , 38-H ) :   0.1143 B( 32-C , 37-H ) :   0.7369 B( 32-C , 38-H ) :   0.7470

FINAL SINGLE POINT ENERGY     -1187.453822922013

DIPOLE MOMENT
-------------
                                X             Y             Z
Electronic contribution:    -21.15897       1.19138     -21.89583
Nuclear contribution   :     20.11362      -4.34709      20.52383
                        -----------------------------------------
Total Dipole Moment    :     -1.04535      -3.15571      -1.37200
                        -----------------------------------------
Magnitude (a.u.)       :      3.59634
Magnitude (Debye)      :      9.14116

Rotational constants in cm-1:     0.014449     0.012108     0.007447
Rotational constants in MHz :   433.168496   362.988632   223.260798

                             ****ORCA TERMINATED NORMALLY****
TOTAL RUN TIME: 0 days 0 hours 5 minutes 49 seconds 194 msec
