                         Program Version 5.0.0 -  RELEASE  -
|  1> !LC-PBE RIJCOSX def2-SVPD def2/J TightSCF xyzfile
|  2>
|  3> *xyzfile 0 1 D8.xyz
|  4>
|  5> %MaxCore 64000
|  6>
|  7> %pal nprocs 4
|  8> end
|  9>
| 10> %scf
| 11>   MaxIter 150
| 12> end
| 13>
| 14>
| 15>                          ****END OF INPUT****

CARTESIAN COORDINATES (ANGSTROEM)
---------------------------------
  C      4.490588    1.155899   -2.469290
  N      4.305394    1.222762   -3.908317
  C      4.906458   -3.102816   -5.954844
  C      3.511771   -2.806215   -6.492283
  H      2.736044   -3.373445   -5.973736
  H      3.444904   -3.040831   -7.555281
  S      3.004618   -1.096206   -6.389259
  C      4.631918    2.246365   -4.670958
  C      4.541686    2.143990   -5.987139
  N      5.084086    3.393584   -4.118545
  H      4.920675    3.570501   -3.135870
  H      5.254652    4.197390   -4.706956
  H      3.824530    0.449113   -4.350926
  H      4.343373    1.249318   -6.416646
  H      4.676712    2.956624   -6.574113
  O      4.128856   -0.329647   -6.953717
  O      1.781285   -1.000779   -7.136399
  C      5.942129    0.939500   -2.036893
  H      3.864305    0.328532   -2.136611
  H      4.076233    2.049994   -1.989010
  C      6.462677   -3.117775   -3.944671
  C      5.024977   -3.025679   -4.437625
  H      4.423321   -3.818693   -3.977648
  H      4.579350   -2.087131   -4.108727
  H      5.201533   -4.100207   -6.296905
  H      5.605922   -2.397822   -6.413368
  C      6.559957   -0.356290   -2.559086
  H      5.967976    0.952567   -0.942444
  H      6.547184    1.788331   -2.368849
  C      6.006283   -1.615917   -1.899301
  H      7.642360   -0.318000   -2.402059
  H      6.414855   -0.403433   -3.642587
  C      6.608718   -2.917014   -2.435655
  H      6.190324   -1.561115   -0.820948
  H      4.919250   -1.651245   -2.016586
  H      7.066975   -2.374258   -4.475514
  H      6.887808   -4.089747   -4.215332
  H      6.135197   -3.755573   -1.915159
  H      7.671142   -2.955503   -2.172291
  F      2.851546   -0.783683   -4.956789

 Total Charge           Charge          ....    0
 Multiplicity           Mult            ....    1
 Number of Electrons    NEL             ....  144
 Basis Dimension        Dim             ....  540

ORBITAL ENERGIES
----------------

  NO   OCC          E(Eh)            E(eV)
   0   2.0000     -88.583499     -2410.4796
   1   2.0000     -24.635819      -670.3747
   2   2.0000     -19.018652      -517.5238
   3   2.0000     -19.005205      -517.1579
   4   2.0000     -14.214193      -386.7878
   5   2.0000     -14.213334      -386.7645
   6   2.0000     -10.200505      -277.5699
   7   2.0000     -10.160337      -276.4768
   8   2.0000     -10.160307      -276.4760
   9   2.0000     -10.158074      -276.4152
  10   2.0000     -10.145622      -276.0764
  11   2.0000     -10.135031      -275.7882
  12   2.0000     -10.130850      -275.6744
  13   2.0000     -10.127421      -275.5811
  14   2.0000     -10.121637      -275.4237
  15   2.0000     -10.121161      -275.4108
  16   2.0000     -10.006148      -272.2811
  17   2.0000      -8.204775      -223.2633
  18   2.0000      -6.232139      -169.5851
  19   2.0000      -6.224704      -169.3828
  20   2.0000      -6.223266      -169.3437
  21   2.0000      -1.536174       -41.8014
  22   2.0000      -1.295071       -35.2407
  23   2.0000      -1.186591       -32.2888
  24   2.0000      -1.125871       -30.6365
  25   2.0000      -1.032996       -28.1092
  26   2.0000      -1.028141       -27.9771
  27   2.0000      -0.994119       -27.0514
  28   2.0000      -0.962099       -26.1800
  29   2.0000      -0.922861       -25.1123
  30   2.0000      -0.897201       -24.4141
  31   2.0000      -0.875168       -23.8145
  32   2.0000      -0.839804       -22.8522
  33   2.0000      -0.814646       -22.1677
  34   2.0000      -0.793475       -21.5915
  35   2.0000      -0.770134       -20.9564
  36   2.0000      -0.757176       -20.6038
  37   2.0000      -0.746965       -20.3259
  38   2.0000      -0.726998       -19.7826
  39   2.0000      -0.715352       -19.4657
  40   2.0000      -0.709498       -19.3064
  41   2.0000      -0.667750       -18.1704
  42   2.0000      -0.655892       -17.8477
  43   2.0000      -0.641197       -17.4478
  44   2.0000      -0.635359       -17.2890
  45   2.0000      -0.631011       -17.1707
  46   2.0000      -0.618856       -16.8399
  47   2.0000      -0.614761       -16.7285
  48   2.0000      -0.606623       -16.5070
  49   2.0000      -0.589118       -16.0307
  50   2.0000      -0.586384       -15.9563
  51   2.0000      -0.576064       -15.6755
  52   2.0000      -0.558030       -15.1848
  53   2.0000      -0.548944       -14.9375
  54   2.0000      -0.535106       -14.5610
  55   2.0000      -0.528789       -14.3891
  56   2.0000      -0.524087       -14.2611
  57   2.0000      -0.516103       -14.0439
  58   2.0000      -0.506261       -13.7761
  59   2.0000      -0.500519       -13.6198
  60   2.0000      -0.497054       -13.5255
  61   2.0000      -0.482974       -13.1424
  62   2.0000      -0.477567       -12.9953
  63   2.0000      -0.470348       -12.7988
  64   2.0000      -0.468707       -12.7542
  65   2.0000      -0.459017       -12.4905
  66   2.0000      -0.448692       -12.2095
  67   2.0000      -0.444963       -12.1081
  68   2.0000      -0.439517       -11.9599
  69   2.0000      -0.425377       -11.5751
  70   2.0000      -0.373059       -10.1515
  71   2.0000      -0.261160        -7.1065
  72   0.0000       0.062938         1.7126
  73   0.0000       0.079793         2.1713
  74   0.0000       0.088848         2.4177
  75   0.0000       0.092187         2.5085
  76   0.0000       0.103915         2.8277

MULLIKEN ATOMIC CHARGES
-----------------------
   0 C :    0.770681
   1 N :    0.334585
   2 C :    0.067673
   3 C :    0.062880
   4 H :    0.107990
   5 H :    0.149937
   6 S :    1.353155
   7 C :    0.969174
   8 C :    0.374972
   9 N :    0.163219
  10 H :   -0.021264
  11 H :   -0.159895
  12 H :   -1.119984
  13 H :   -0.412405
  14 H :   -0.552043
  15 O :   -0.642393
  16 O :   -0.649337
  17 C :    0.175561
  18 H :   -0.212819
  19 H :   -0.106902
  20 C :   -0.156310
  21 C :    0.087941
  22 H :    0.104528
  23 H :   -0.477926
  24 H :    0.014514
  25 H :    0.148820
  26 C :   -0.007282
  27 H :   -0.065577
  28 H :    0.044544
  29 C :   -0.279108
  30 H :   -0.073269
  31 H :   -0.055291
  32 C :    0.455939
  33 H :   -0.231441
  34 H :    0.182010
  35 H :    0.188150
  36 H :   -0.217509
  37 H :    0.038650
  38 H :    0.097323
  39 F :   -0.451491
Sum of atomic charges:   -0.0000000

LOEWDIN ATOMIC CHARGES
----------------------
   0 C :    0.034689
   1 N :   -0.002891
   2 C :   -0.053711
   3 C :   -0.061117
   4 H :    0.043122
   5 H :    0.051695
   6 S :    1.137225
   7 C :   -0.215845
   8 C :    0.147084
   9 N :    0.181493
  10 H :   -0.019079
  11 H :    0.011950
  12 H :   -0.053003
  13 H :   -0.184202
  14 H :   -0.077922
  15 O :   -0.439994
  16 O :   -0.433680
  17 C :   -0.043795
  18 H :    0.025564
  19 H :    0.023673
  20 C :   -0.054937
  21 C :   -0.054227
  22 H :    0.052487
  23 H :   -0.005182
  24 H :    0.050926
  25 H :    0.043381
  26 C :   -0.052561
  27 H :    0.033218
  28 H :    0.024970
  29 C :   -0.063419
  30 H :    0.039980
  31 H :    0.022111
  32 C :   -0.052549
  33 H :    0.036757
  34 H :    0.013376
  35 H :    0.033358
  36 H :    0.038524
  37 H :    0.034284
  38 H :    0.036773
  39 F :   -0.248526

  Mayer bond orders larger than 0.100000
B(  0-C ,  1-N ) :   1.0230 B(  0-C , 12-H ) :  -0.4872 B(  0-C , 17-C ) :   1.1225
B(  0-C , 18-H ) :   0.7154 B(  0-C , 19-H ) :   0.9209 B(  0-C , 26-C ) :   0.1119
B(  1-N ,  7-C ) :   1.1901 B(  1-N ,  8-C ) :   0.1331 B(  1-N ,  9-N ) :   0.3011
B(  1-N , 12-H ) :   0.8184 B(  1-N , 18-H ) :   0.2289 B(  2-C ,  3-C ) :   1.2427
B(  2-C ,  5-H ) :   0.2129 B(  2-C , 20-C ) :   0.1066 B(  2-C , 21-C ) :   1.1820
B(  2-C , 24-H ) :   0.8609 B(  2-C , 25-H ) :   0.8897 B(  3-C ,  4-H ) :   0.9386
B(  3-C ,  5-H ) :   0.7431 B(  3-C ,  6-S ) :   1.0166 B(  3-C , 21-C ) :   0.1049
B(  6-S , 15-O ) :   1.4838 B(  6-S , 16-O ) :   1.5427 B(  6-S , 39-F ) :   0.6132
B(  7-C ,  8-C ) :   1.4434 B(  7-C ,  9-N ) :   0.8195 B(  7-C , 12-H ) :  -0.7563
B(  7-C , 14-H ) :   0.1372 B(  8-C ,  9-N ) :   0.2839 B(  8-C , 13-H ) :   0.6300
B(  8-C , 14-H ) :   0.8027 B(  9-N , 10-H ) :   0.9793 B(  9-N , 11-H ) :   1.2059
B( 10-H , 11-H ) :  -0.1781 B( 12-H , 18-H ) :   0.1103 B( 12-H , 39-F ) :   0.2093
B( 13-H , 14-H ) :  -0.1426 B( 13-H , 15-O ) :   0.1115 B( 17-C , 18-H ) :   0.1068
B( 17-C , 26-C ) :   1.2343 B( 17-C , 27-H ) :   0.9714 B( 17-C , 28-H ) :   0.7700
B( 18-H , 19-H ) :  -0.1523 B( 20-C , 21-C ) :   1.2782 B( 20-C , 23-H ) :   0.1062
B( 20-C , 32-C ) :   1.1544 B( 20-C , 35-H ) :   0.8665 B( 20-C , 36-H ) :   1.0109
B( 20-C , 38-H ) :   0.1828 B( 21-C , 22-H ) :   0.7468 B( 21-C , 23-H ) :   0.8128
B( 21-C , 24-H ) :   0.1691 B( 21-C , 36-H ) :   0.1833 B( 22-H , 23-H ) :   0.2437
B( 23-H , 34-H ) :   0.1195 B( 26-C , 28-H ) :   0.1792 B( 26-C , 29-C ) :   1.2269
B( 26-C , 30-H ) :   0.9170 B( 26-C , 31-H ) :   0.9500 B( 26-C , 33-H ) :   0.1289
B( 29-C , 30-H ) :   0.1370 B( 29-C , 32-C ) :   1.1639 B( 29-C , 33-H ) :   1.0810
B( 29-C , 34-H ) :   0.8538 B( 29-C , 37-H ) :   0.2377 B( 29-C , 38-H ) :   0.1132
B( 32-C , 37-H ) :   0.7398 B( 32-C , 38-H ) :   0.7468

FINAL SINGLE POINT ENERGY     -1187.443205397664

DIPOLE MOMENT
-------------
                                X             Y             Z
Electronic contribution:    -18.42074       3.08149     -16.12942
Nuclear contribution   :     18.77618      -4.78855      17.68602
                        -----------------------------------------
Total Dipole Moment    :      0.35544      -1.70706       1.55660
                        -----------------------------------------
Magnitude (a.u.)       :      2.33739
Magnitude (Debye)      :      5.94117

Rotational constants in cm-1:     0.014368     0.012319     0.007509
Rotational constants in MHz :   430.738566   369.302170   225.105103

                             ****ORCA TERMINATED NORMALLY****
TOTAL RUN TIME: 0 days 0 hours 5 minutes 49 seconds 661 msec
