                         Program Version 5.0.0 -  RELEASE  -
|  1> !wB97X-D3 RIJCOSX def2-TZVPD def2/J TightSCF
|  2> *xyz -1 1
|  3> C          3.90595        2.81985       -3.75292
|  4> C          3.80351        1.37472       -3.26081
|  5> C          3.93993        0.32036       -4.36773
|  6> H          4.10504       -0.65508       -3.90773
|  7> H          3.02280        0.28052       -4.95712
|  8> C          5.10585        0.66802       -5.30546
|  9> H          4.57483        1.21516       -2.50044
| 10> H          2.84351        1.26085       -2.75146
| 11> O          4.80913        1.15019       -6.41436
| 12> O          6.26737        0.56500       -4.81948
| 13> H          3.15892        2.99660       -4.49832
| 14> H          4.87575        2.98549       -4.17357
| 15> H          3.75481        3.48808       -2.93101
| 16> *
| 17>
| 18> %MaxCore 64000
| 19>
| 20> %pal nprocs 18
| 21> end
| 22>
| 23> %scf
| 24>   MaxIter 150
| 25> end
| 26>
| 27>
| 28>                          ****END OF INPUT****

CARTESIAN COORDINATES (ANGSTROEM)
---------------------------------
  C      3.905950    2.819850   -3.752920
  C      3.803510    1.374720   -3.260810
  C      3.939930    0.320360   -4.367730
  H      4.105040   -0.655080   -3.907730
  H      3.022800    0.280520   -4.957120
  C      5.105850    0.668020   -5.305460
  H      4.574830    1.215160   -2.500440
  H      2.843510    1.260850   -2.751460
  O      4.809130    1.150190   -6.414360
  O      6.267370    0.565000   -4.819480
  H      3.158920    2.996600   -4.498320
  H      4.875750    2.985490   -4.173570
  H      3.754810    3.488080   -2.931010

 Total Charge           Charge          ....   -1
 Multiplicity           Mult            ....    1
 Number of Electrons    NEL             ....   48
 Basis Dimension        Dim             ....  291

ORBITAL ENERGIES
----------------

  NO   OCC          E(Eh)            E(eV)
   0   2.0000     -18.969112      -516.1758
   1   2.0000     -18.965506      -516.0776
   2   2.0000     -10.160632      -276.4849
   3   2.0000     -10.126403      -275.5534
   4   2.0000     -10.111689      -275.1531
   5   2.0000     -10.099974      -274.8343
   6   2.0000      -0.940094       -25.5813
   7   2.0000      -0.845528       -23.0080
   8   2.0000      -0.752245       -20.4696
   9   2.0000      -0.652723       -17.7615
  10   2.0000      -0.553240       -15.0544
  11   2.0000      -0.429779       -11.6949
  12   2.0000      -0.403992       -10.9932
  13   2.0000      -0.393092       -10.6966
  14   2.0000      -0.349807        -9.5187
  15   2.0000      -0.335135        -9.1195
  16   2.0000      -0.306472        -8.3395
  17   2.0000      -0.301990        -8.2176
  18   2.0000      -0.291521        -7.9327
  19   2.0000      -0.267729        -7.2853
  20   2.0000      -0.260425        -7.0865
  21   2.0000      -0.144967        -3.9448
  22   2.0000      -0.135286        -3.6813
  23   2.0000      -0.127254        -3.4628
  24   0.0000       0.186440         5.0733
  25   0.0000       0.203297         5.5320
  26   0.0000       0.211334         5.7507
  27   0.0000       0.220098         5.9892
  28   0.0000       0.238830         6.4989

MULLIKEN ATOMIC CHARGES
-----------------------
   0 C :   -1.194265
   1 C :   -0.339288
   2 C :   -0.217533
   3 H :    0.217884
   4 H :    0.248409
   5 C :    0.366981
   6 H :    0.257286
   7 H :    0.225487
   8 O :   -0.744798
   9 O :   -0.762760
  10 H :    0.300047
  11 H :    0.317223
  12 H :    0.325329
Sum of atomic charges:   -1.0000000

LOEWDIN ATOMIC CHARGES
----------------------
   0 C :   -0.122569
   1 C :   -0.275384
   2 C :   -0.169349
   3 H :    0.093500
   4 H :    0.093816
   5 C :   -0.778264
   6 H :    0.098156
   7 H :    0.085118
   8 O :   -0.093009
   9 O :   -0.112395
  10 H :    0.065438
  11 H :    0.065936
  12 H :    0.049005

  Mayer bond orders larger than 0.100000
B(  0-C ,  1-C ) :   0.7303 B(  0-C , 10-H ) :   0.9611 B(  0-C , 11-H ) :   0.9767
B(  0-C , 12-H ) :   0.9199 B(  1-C ,  2-C ) :   0.8573 B(  1-C ,  5-C ) :   0.1647
B(  1-C ,  6-H ) :   0.9112 B(  1-C ,  7-H ) :   0.9505 B(  2-C ,  3-H ) :   0.9539
B(  2-C ,  4-H ) :   0.9546 B(  2-C ,  5-C ) :   0.8423 B(  5-C ,  8-O ) :   1.4565
B(  5-C ,  9-O ) :   1.4578

Dispersion correction           -0.003543483
FINAL SINGLE POINT ENERGY      -307.189217715148

DIPOLE MOMENT
-------------
                                X             Y             Z
Electronic contribution:      4.15542      -2.84806      -4.82459
Nuclear contribution   :     -5.80393       3.20473       6.46101
                        -----------------------------------------
Total Dipole Moment    :     -1.64851       0.35667       1.63642
                        -----------------------------------------
Magnitude (a.u.)       :      2.35003
Magnitude (Debye)      :      5.97331

Rotational constants in cm-1:     0.184459     0.088019     0.082330
Rotational constants in MHz :  5529.929668  2638.753248  2468.201746

                             ****ORCA TERMINATED NORMALLY****
TOTAL RUN TIME: 0 days 0 hours 0 minutes 29 seconds 473 msec
