                         Program Version 5.0.0 -  RELEASE  -
|  1> !wB97X-D3 RIJCOSX def2-TZVPD def2/J TightSCF
|  2> *xyz 1 1
|  3> C          3.90595        2.81985       -3.75292
|  4> N          5.29562        3.13151       -4.10533
|  5> C          3.80351        1.37472       -3.26081
|  6> C          3.93993        0.32036       -4.36773
|  7> C          5.70862        3.46889       -5.32419
|  8> N          6.90470        3.03895       -5.71708
|  9> N          4.98188        4.29357       -6.09746
| 10> H          5.00055        4.10131       -7.08776
| 11> H          4.08469        4.59690       -5.73965
| 12> H          5.96336        2.52611       -3.64239
| 13> H          7.04716        2.06686       -5.47360
| 14> H          7.19815        3.30799       -6.64523
| 15> H          3.28202        2.94919       -4.64026
| 16> H          3.56525        3.51457       -2.98252
| 17> H          4.57483        1.21516       -2.50044
| 18> H          2.84351        1.26085       -2.75146
| 19> H          3.18417        0.48061       -5.10803
| 20> H          3.82485       -0.65632       -3.94614
| 21> H          4.90589        0.40174       -4.82073
| 22> *
| 23>
| 24> %MaxCore 64000
| 25>
| 26> %pal nprocs 18
| 27> end
| 28>
| 29> %scf
| 30>   MaxIter 150
| 31> end
| 32>
| 33>
| 34>                          ****END OF INPUT****

CARTESIAN COORDINATES (ANGSTROEM)
---------------------------------
  C      3.905950    2.819850   -3.752920
  N      5.295620    3.131510   -4.105330
  C      3.803510    1.374720   -3.260810
  C      3.939930    0.320360   -4.367730
  C      5.708620    3.468890   -5.324190
  N      6.904700    3.038950   -5.717080
  N      4.981880    4.293570   -6.097460
  H      5.000550    4.101310   -7.087760
  H      4.084690    4.596900   -5.739650
  H      5.963360    2.526110   -3.642390
  H      7.047160    2.066860   -5.473600
  H      7.198150    3.307990   -6.645230
  H      3.282020    2.949190   -4.640260
  H      3.565250    3.514570   -2.982520
  H      4.574830    1.215160   -2.500440
  H      2.843510    1.260850   -2.751460
  H      3.184170    0.480610   -5.108030
  H      3.824850   -0.656320   -3.946140
  H      4.905890    0.401740   -4.820730

 Total Charge           Charge          ....    1
 Multiplicity           Mult            ....    1
 Number of Electrons    NEL             ....   56
 Basis Dimension        Dim             ....  367

ORBITAL ENERGIES
----------------

  NO   OCC          E(Eh)            E(eV)
   0   2.0000     -14.646471      -398.5507
   1   2.0000     -14.646054      -398.5394
   2   2.0000     -14.645342      -398.5200
   3   2.0000     -10.612962      -288.7934
   4   2.0000     -10.480968      -285.2016
   5   2.0000     -10.425513      -283.6926
   6   2.0000     -10.398674      -282.9623
   7   2.0000      -1.338061       -36.4105
   8   2.0000      -1.222761       -33.2730
   9   2.0000      -1.214591       -33.0507
  10   2.0000      -1.060591       -28.8601
  11   2.0000      -0.978198       -26.6181
  12   2.0000      -0.928523       -25.2664
  13   2.0000      -0.886019       -24.1098
  14   2.0000      -0.869800       -23.6685
  15   2.0000      -0.841130       -22.8883
  16   2.0000      -0.799182       -21.7469
  17   2.0000      -0.784063       -21.3354
  18   2.0000      -0.746759       -20.3203
  19   2.0000      -0.730086       -19.8667
  20   2.0000      -0.689507       -18.7624
  21   2.0000      -0.682600       -18.5745
  22   2.0000      -0.654846       -17.8193
  23   2.0000      -0.608524       -16.5588
  24   2.0000      -0.589837       -16.0503
  25   2.0000      -0.588376       -16.0105
  26   2.0000      -0.579692       -15.7742
  27   2.0000      -0.545907       -14.8549
  28   0.0000      -0.110487        -3.0065
  29   0.0000      -0.087417        -2.3787
  30   0.0000      -0.058994        -1.6053
  31   0.0000      -0.044821        -1.2197
  32   0.0000      -0.029829        -0.8117

MULLIKEN ATOMIC CHARGES
-----------------------
   0 C :   -0.593078
   1 N :   -0.110122
   2 C :   -0.437979
   3 C :   -1.117019
   4 C :    0.627330
   5 N :   -0.435429
   6 N :   -0.445333
   7 H :    0.251356
   8 H :    0.298252
   9 H :    0.299577
  10 H :    0.276210
  11 H :    0.267565
  12 H :    0.336634
  13 H :    0.245150
  14 H :    0.336416
  15 H :    0.293028
  16 H :    0.334206
  17 H :    0.345462
  18 H :    0.227773
Sum of atomic charges:    1.0000000

LOEWDIN ATOMIC CHARGES
----------------------
   0 C :   -0.167131
   1 N :    0.094171
   2 C :   -0.225054
   3 C :   -0.083315
   4 C :   -0.436568
   5 N :    0.204781
   6 N :    0.214200
   7 H :    0.139371
   8 H :    0.130414
   9 H :    0.156643
  10 H :    0.136803
  11 H :    0.138709
  12 H :    0.119914
  13 H :    0.130185
  14 H :    0.115246
  15 H :    0.121459
  16 H :    0.076166
  17 H :    0.079529
  18 H :    0.054478

  Mayer bond orders larger than 0.100000
B(  0-C ,  1-N ) :   0.8986 B(  0-C ,  2-C ) :   0.9399 B(  0-C , 12-H ) :   0.8331
B(  0-C , 13-H ) :   1.0063 B(  1-N ,  4-C ) :   1.2756 B(  1-N ,  9-H ) :   0.8406
B(  2-C ,  3-C ) :   0.6775 B(  2-C , 14-H ) :   0.9275 B(  2-C , 15-H ) :   0.9793
B(  3-C , 16-H ) :   0.9712 B(  3-C , 17-H ) :   0.9380 B(  3-C , 18-H ) :   1.0303
B(  4-C ,  5-N ) :   1.1377 B(  4-C ,  6-N ) :   1.1158 B(  5-N , 10-H ) :   0.9173
B(  5-N , 11-H ) :   0.9114 B(  6-N ,  7-H ) :   0.9456 B(  6-N ,  8-H ) :   0.8825

Dispersion correction           -0.005480949
FINAL SINGLE POINT ENERGY      -323.740440225444

DIPOLE MOMENT
-------------
                                X             Y             Z
Electronic contribution:      4.02473       5.69655      -2.06170
Nuclear contribution   :     -3.60155      -5.39511       0.90505
                        -----------------------------------------
Total Dipole Moment    :      0.42319       0.30145      -1.15665
                        -----------------------------------------
Magnitude (a.u.)       :      1.26799
Magnitude (Debye)      :      3.22298

Rotational constants in cm-1:     0.145371     0.050507     0.045444
Rotational constants in MHz :  4358.114605  1514.164418  1362.368391

                             ****ORCA TERMINATED NORMALLY****
TOTAL RUN TIME: 0 days 0 hours 0 minutes 35 seconds 650 msec
