                         Program Version 5.0.0 -  RELEASE  -
|  1> !wB97X-D3 RIJCOSX def2-TZVPD def2/J TightSCF
|  2> *xyz 0 1
|  3> C          3.90595        2.81985       -3.75292
|  4> C          3.80351        1.37472       -3.26081
|  5> C          3.93993        0.32036       -4.36773
|  6> H          4.10504       -0.65508       -3.90773
|  7> H          3.02280        0.28052       -4.95712
|  8> C          5.10585        0.66802       -5.30546
|  9> H          4.57483        1.21516       -2.50044
| 10> H          2.84351        1.26085       -2.75146
| 11> F          4.80913        1.15019       -6.41436
| 12> O          6.26737        0.56500       -4.81948
| 13> H          3.15892        2.99660       -4.49832
| 14> H          4.87575        2.98549       -4.17357
| 15> H          3.75481        3.48808       -2.93101
| 16> *
| 17>
| 18> %MaxCore 64000
| 19>
| 20> %pal nprocs 18
| 21> end
| 22>
| 23> %scf
| 24>   MaxIter 150
| 25> end
| 26>
| 27>
| 28>                          ****END OF INPUT****

CARTESIAN COORDINATES (ANGSTROEM)
---------------------------------
  C      3.905950    2.819850   -3.752920
  C      3.803510    1.374720   -3.260810
  C      3.939930    0.320360   -4.367730
  H      4.105040   -0.655080   -3.907730
  H      3.022800    0.280520   -4.957120
  C      5.105850    0.668020   -5.305460
  H      4.574830    1.215160   -2.500440
  H      2.843510    1.260850   -2.751460
  F      4.809130    1.150190   -6.414360
  O      6.267370    0.565000   -4.819480
  H      3.158920    2.996600   -4.498320
  H      4.875750    2.985490   -4.173570
  H      3.754810    3.488080   -2.931010

 Total Charge           Charge          ....    0
 Multiplicity           Mult            ....    1
 Number of Electrons    NEL             ....   48
 Basis Dimension        Dim             ....  291

ORBITAL ENERGIES
----------------

  NO   OCC          E(Eh)            E(eV)
   0   2.0000     -24.860576      -676.4907
   1   2.0000     -19.235135      -523.4146
   2   2.0000     -10.456572      -284.5378
   3   2.0000     -10.304505      -280.3998
   4   2.0000     -10.291024      -280.0330
   5   2.0000     -10.266920      -279.3771
   6   2.0000      -1.444394       -39.3039
   7   2.0000      -1.144437       -31.1417
   8   2.0000      -0.932177       -25.3658
   9   2.0000      -0.843677       -22.9576
  10   2.0000      -0.777323       -21.1520
  11   2.0000      -0.722590       -19.6627
  12   2.0000      -0.658917       -17.9300
  13   2.0000      -0.640976       -17.4418
  14   2.0000      -0.614232       -16.7141
  15   2.0000      -0.567880       -15.4528
  16   2.0000      -0.557273       -15.1642
  17   2.0000      -0.516943       -14.0667
  18   2.0000      -0.500699       -13.6247
  19   2.0000      -0.469196       -12.7675
  20   2.0000      -0.451898       -12.2968
  21   2.0000      -0.442209       -12.0331
  22   2.0000      -0.437161       -11.8958
  23   2.0000      -0.386000       -10.5036
  24   0.0000       0.050905         1.3852
  25   0.0000       0.065171         1.7734
  26   0.0000       0.087212         2.3732
  27   0.0000       0.089778         2.4430
  28   0.0000       0.096013         2.6126

MULLIKEN ATOMIC CHARGES
-----------------------
   0 C :   -1.276252
   1 C :   -0.328547
   2 C :   -0.303706
   3 H :    0.253478
   4 H :    0.305190
   5 C :    0.580718
   6 H :    0.294147
   7 H :    0.267018
   8 F :   -0.231935
   9 O :   -0.569188
  10 H :    0.328133
  11 H :    0.346820
  12 H :    0.334125
Sum of atomic charges:   -0.0000000

LOEWDIN ATOMIC CHARGES
----------------------
   0 C :   -0.102422
   1 C :   -0.246744
   2 C :   -0.114949
   3 H :    0.121160
   4 H :    0.113209
   5 C :   -0.490951
   6 H :    0.113617
   7 H :    0.107544
   8 F :    0.220393
   9 O :    0.068560
  10 H :    0.073223
  11 H :    0.067761
  12 H :    0.069600

  Mayer bond orders larger than 0.100000
B(  0-C ,  1-C ) :   0.6538 B(  0-C ,  5-C ) :   0.1179 B(  0-C , 10-H ) :   0.9569
B(  0-C , 11-H ) :   0.9346 B(  0-C , 12-H ) :   0.9326 B(  1-C ,  2-C ) :   0.8783
B(  1-C ,  5-C ) :   0.1511 B(  1-C ,  6-H ) :   0.9155 B(  1-C ,  7-H ) :   0.9385
B(  2-C ,  3-H ) :   0.9417 B(  2-C ,  4-H ) :   0.9254 B(  2-C ,  5-C ) :   0.8084
B(  5-C ,  8-F ) :   0.9138 B(  5-C ,  9-O ) :   1.6659

Dispersion correction           -0.003458981
FINAL SINGLE POINT ENERGY      -331.751139243013

DIPOLE MOMENT
-------------
                                X             Y             Z
Electronic contribution:      4.80263      -3.19342      -8.25486
Nuclear contribution   :     -5.98367       3.22001       8.44002
                        -----------------------------------------
Total Dipole Moment    :     -1.18104       0.02659       0.18516
                        -----------------------------------------
Magnitude (a.u.)       :      1.19577
Magnitude (Debye)      :      3.03939

Rotational constants in cm-1:     0.177409     0.085514     0.078973
Rotational constants in MHz :  5318.577687  2563.657993  2367.557452

                             ****ORCA TERMINATED NORMALLY****
TOTAL RUN TIME: 0 days 0 hours 0 minutes 22 seconds 899 msec
