                         Program Version 5.0.0 -  RELEASE  -
|  1> !wB97X-D3 RIJCOSX def2-TZVPD def2/J TightSCF
|  2> *xyz 0 1
|  3> C          3.90595        2.81985       -3.75292
|  4> C          5.29562        3.13151       -4.10533
|  5> C          3.80351        1.37472       -3.26081
|  6> C          3.93993        0.32036       -4.36773
|  7> C          5.70862        3.46889       -5.32419
|  8> N          6.90470        3.03895       -5.71708
|  9> N          4.98188        4.29357       -6.09746
| 10> H          5.00055        4.10131       -7.08776
| 11> H          4.08469        4.59690       -5.73965
| 12> H          5.96336        2.52611       -3.64239
| 13> H          7.04716        2.06686       -5.47360
| 14> H          7.19815        3.30799       -6.64523
| 15> H          3.28202        2.94919       -4.64026
| 16> H          3.56525        3.51457       -2.98252
| 17> H          4.57483        1.21516       -2.50044
| 18> H          2.84351        1.26085       -2.75146
| 19> H          3.18417        0.48061       -5.10803
| 20> H          3.82485       -0.65632       -3.94614
| 21> H          4.90589        0.40174       -4.82073
| 22> *
| 23>
| 24> %MaxCore 64000
| 25>
| 26> %pal nprocs 18
| 27> end
| 28>
| 29> %scf
| 30>   MaxIter 150
| 31> end
| 32>
| 33>
| 34>                          ****END OF INPUT****

CARTESIAN COORDINATES (ANGSTROEM)
---------------------------------
  C      3.905950    2.819850   -3.752920
  C      5.295620    3.131510   -4.105330
  C      3.803510    1.374720   -3.260810
  C      3.939930    0.320360   -4.367730
  C      5.708620    3.468890   -5.324190
  N      6.904700    3.038950   -5.717080
  N      4.981880    4.293570   -6.097460
  H      5.000550    4.101310   -7.087760
  H      4.084690    4.596900   -5.739650
  H      5.963360    2.526110   -3.642390
  H      7.047160    2.066860   -5.473600
  H      7.198150    3.307990   -6.645230
  H      3.282020    2.949190   -4.640260
  H      3.565250    3.514570   -2.982520
  H      4.574830    1.215160   -2.500440
  H      2.843510    1.260850   -2.751460
  H      3.184170    0.480610   -5.108030
  H      3.824850   -0.656320   -3.946140
  H      4.905890    0.401740   -4.820730

 Total Charge           Charge          ....    0
 Multiplicity           Mult            ....    1
 Number of Electrons    NEL             ....   56
 Basis Dimension        Dim             ....  367

ORBITAL ENERGIES
----------------

  NO   OCC          E(Eh)            E(eV)
   0   2.0000     -14.425715      -392.5437
   1   2.0000     -14.422725      -392.4623
   2   2.0000     -10.319252      -280.8011
   3   2.0000     -10.257635      -279.1244
   4   2.0000     -10.251500      -278.9575
   5   2.0000     -10.249195      -278.8948
   6   2.0000     -10.199084      -277.5312
   7   2.0000      -1.084448       -29.5093
   8   2.0000      -0.993331       -27.0299
   9   2.0000      -0.907882       -24.7047
  10   2.0000      -0.838905       -22.8278
  11   2.0000      -0.773833       -21.0571
  12   2.0000      -0.701495       -19.0887
  13   2.0000      -0.676330       -18.4039
  14   2.0000      -0.637395       -17.3444
  15   2.0000      -0.616007       -16.7624
  16   2.0000      -0.577138       -15.7047
  17   2.0000      -0.547037       -14.8856
  18   2.0000      -0.538875       -14.6635
  19   2.0000      -0.514161       -13.9910
  20   2.0000      -0.481923       -13.1138
  21   2.0000      -0.470371       -12.7994
  22   2.0000      -0.446442       -12.1483
  23   2.0000      -0.426543       -11.6068
  24   2.0000      -0.412961       -11.2372
  25   2.0000      -0.407448       -11.0872
  26   2.0000      -0.370122       -10.0715
  27   2.0000      -0.256895        -6.9905
  28   0.0000       0.060907         1.6574
  29   0.0000       0.085517         2.3270
  30   0.0000       0.088034         2.3955
  31   0.0000       0.098418         2.6781
  32   0.0000       0.109224         2.9721

MULLIKEN ATOMIC CHARGES
-----------------------
   0 C :    0.017980
   1 C :   -0.743687
   2 C :   -0.502689
   3 C :   -1.146174
   4 C :   -0.009301
   5 N :   -0.457976
   6 N :   -0.481388
   7 H :    0.183395
   8 H :    0.262364
   9 H :    0.507471
  10 H :    0.238787
  11 H :    0.231361
  12 H :    0.306526
  13 H :    0.120558
  14 H :    0.300934
  15 H :    0.268240
  16 H :    0.318452
  17 H :    0.339781
  18 H :    0.245368
Sum of atomic charges:    0.0000000

LOEWDIN ATOMIC CHARGES
----------------------
   0 C :   -0.246187
   1 C :   -0.135673
   2 C :   -0.261955
   3 C :   -0.101274
   4 C :   -0.553849
   5 N :    0.111130
   6 N :    0.121897
   7 H :    0.098892
   8 H :    0.102951
   9 H :    0.067069
  10 H :    0.106683
  11 H :    0.099808
  12 H :    0.099378
  13 H :    0.102270
  14 H :    0.105058
  15 H :    0.099956
  16 H :    0.066515
  17 H :    0.061635
  18 H :    0.055695

  Mayer bond orders larger than 0.100000
B(  0-C ,  1-C ) :   0.5434 B(  0-C ,  2-C ) :   0.6638 B(  0-C , 12-H ) :   0.8860
B(  0-C , 13-H ) :   1.1120 B(  1-C ,  2-C ) :   0.3617 B(  1-C ,  4-C ) :   2.0048
B(  1-C ,  6-N ) :   0.1250 B(  1-C ,  9-H ) :   0.7513 B(  2-C ,  3-C ) :   0.6995
B(  2-C ,  4-C ) :   0.1184 B(  2-C , 14-H ) :   0.9551 B(  2-C , 15-H ) :   0.9777
B(  3-C , 16-H ) :   0.9694 B(  3-C , 17-H ) :   0.9158 B(  3-C , 18-H ) :   1.0559
B(  4-C ,  5-N ) :   1.0421 B(  4-C ,  6-N ) :   0.9031 B(  5-N , 10-H ) :   0.9306
B(  5-N , 11-H ) :   0.9153 B(  6-N ,  7-H ) :   1.0085 B(  6-N ,  8-H ) :   0.8738

Dispersion correction           -0.005455308
FINAL SINGLE POINT ENERGY      -307.256231212304

DIPOLE MOMENT
-------------
                                X             Y             Z
Electronic contribution:      3.40684       4.92690      -2.12674
Nuclear contribution   :     -3.52450      -5.28471       1.03374
                        -----------------------------------------
Total Dipole Moment    :     -0.11766      -0.35781      -1.09300
                        -----------------------------------------
Magnitude (a.u.)       :      1.15608
Magnitude (Debye)      :      2.93852

Rotational constants in cm-1:     0.147126     0.050704     0.045476
Rotational constants in MHz :  4410.719889  1520.080198  1363.327077

                             ****ORCA TERMINATED NORMALLY****
TOTAL RUN TIME: 0 days 0 hours 0 minutes 34 seconds 114 msec
