                         Program Version 5.0.0 -  RELEASE  -
|  1> !wB97X-D3 RIJCOSX def2-TZVPD def2/J TightSCF
|  2> *xyz 0 1
|  3> C          3.90595        2.81985       -3.75292
|  4> C          3.80351        1.37472       -3.26081
|  5> C          3.93993        0.32036       -4.36773
|  6> H          4.10504       -0.65508       -3.90773
|  7> H          3.02280        0.28052       -4.95712
|  8> C          5.10585        0.66802       -5.30546
|  9> H          4.57483        1.21516       -2.50044
| 10> H          2.84351        1.26085       -2.75146
| 11> O          4.80913        1.15019       -6.41436
| 12> F          6.26737        0.56500       -4.81948
| 13> H          3.15892        2.99660       -4.49832
| 14> H          4.87575        2.98549       -4.17357
| 15> H          3.75481        3.48808       -2.93101
| 16> *
| 17>
| 18> %MaxCore 64000
| 19>
| 20> %pal nprocs 18
| 21> end
| 22>
| 23> %scf
| 24>   MaxIter 150
| 25> end
| 26>
| 27>
| 28>                          ****END OF INPUT****

CARTESIAN COORDINATES (ANGSTROEM)
---------------------------------
  C      3.905950    2.819850   -3.752920
  C      3.803510    1.374720   -3.260810
  C      3.939930    0.320360   -4.367730
  H      4.105040   -0.655080   -3.907730
  H      3.022800    0.280520   -4.957120
  C      5.105850    0.668020   -5.305460
  H      4.574830    1.215160   -2.500440
  H      2.843510    1.260850   -2.751460
  O      4.809130    1.150190   -6.414360
  F      6.267370    0.565000   -4.819480
  H      3.158920    2.996600   -4.498320
  H      4.875750    2.985490   -4.173570
  H      3.754810    3.488080   -2.931010

 Total Charge           Charge          ....    0
 Multiplicity           Mult            ....    1
 Number of Electrons    NEL             ....   48
 Basis Dimension        Dim             ....  291

ORBITAL ENERGIES
----------------

  NO   OCC          E(Eh)            E(eV)
   0   2.0000     -24.853853      -676.3077
   1   2.0000     -19.237892      -523.4896
   2   2.0000     -10.454403      -284.4788
   3   2.0000     -10.303858      -280.3822
   4   2.0000     -10.293077      -280.0889
   5   2.0000     -10.265347      -279.3343
   6   2.0000      -1.430953       -38.9382
   7   2.0000      -1.155520       -31.4433
   8   2.0000      -0.933293       -25.3962
   9   2.0000      -0.841935       -22.9102
  10   2.0000      -0.769355       -20.9352
  11   2.0000      -0.722540       -19.6613
  12   2.0000      -0.653375       -17.7792
  13   2.0000      -0.640305       -17.4236
  14   2.0000      -0.602480       -16.3943
  15   2.0000      -0.574811       -15.6414
  16   2.0000      -0.556961       -15.1557
  17   2.0000      -0.517194       -14.0736
  18   2.0000      -0.497388       -13.5346
  19   2.0000      -0.468603       -12.7513
  20   2.0000      -0.460308       -12.5256
  21   2.0000      -0.445521       -12.1232
  22   2.0000      -0.441010       -12.0005
  23   2.0000      -0.385965       -10.5026
  24   0.0000       0.054150         1.4735
  25   0.0000       0.065075         1.7708
  26   0.0000       0.087719         2.3870
  27   0.0000       0.090465         2.4617
  28   0.0000       0.094429         2.5695

MULLIKEN ATOMIC CHARGES
-----------------------
   0 C :   -1.210682
   1 C :   -0.391449
   2 C :   -0.278444
   3 H :    0.285688
   4 H :    0.276492
   5 C :    0.565911
   6 H :    0.293272
   7 H :    0.259845
   8 O :   -0.562126
   9 F :   -0.238446
  10 H :    0.327042
  11 H :    0.338939
  12 H :    0.333959
Sum of atomic charges:   -0.0000000

LOEWDIN ATOMIC CHARGES
----------------------
   0 C :   -0.101621
   1 C :   -0.249817
   2 C :   -0.112937
   3 H :    0.115368
   4 H :    0.122001
   5 C :   -0.490138
   6 H :    0.109162
   7 H :    0.108207
   8 O :    0.084929
   9 F :    0.201613
  10 H :    0.077329
  11 H :    0.067175
  12 H :    0.068730

  Mayer bond orders larger than 0.100000
B(  0-C ,  1-C ) :   0.7219 B(  0-C ,  5-C ) :   0.1128 B(  0-C , 10-H ) :   0.9612
B(  0-C , 11-H ) :   0.9284 B(  0-C , 12-H ) :   0.9389 B(  1-C ,  2-C ) :   0.8489
B(  1-C ,  5-C ) :   0.1554 B(  1-C ,  6-H ) :   0.9142 B(  1-C ,  7-H ) :   0.9423
B(  2-C ,  3-H ) :   0.9364 B(  2-C ,  4-H ) :   0.9514 B(  2-C ,  5-C ) :   0.8255
B(  5-C ,  8-O ) :   1.6615 B(  5-C ,  9-F ) :   0.8999

Dispersion correction           -0.003455041
FINAL SINGLE POINT ENERGY      -331.756407091107

DIPOLE MOMENT
-------------
                                X             Y             Z
Electronic contribution:      7.27441      -4.19000      -5.54311
Nuclear contribution   :     -7.63086       3.88103       6.63849
                        -----------------------------------------
Total Dipole Moment    :     -0.35645      -0.30897       1.09538
                        -----------------------------------------
Magnitude (a.u.)       :      1.19264
Magnitude (Debye)      :      3.03144

Rotational constants in cm-1:     0.177064     0.085023     0.079676
Rotational constants in MHz :  5308.232158  2548.918275  2388.614336

                             ****ORCA TERMINATED NORMALLY****
TOTAL RUN TIME: 0 days 0 hours 0 minutes 22 seconds 104 msec
