                         Program Version 5.0.0 -  RELEASE  -
|  1> !wB97X-D3 RIJCOSX def2-TZVPD def2/J TightSCF
|  2> *xyz 0 1
|  3> C          3.90595        2.81985       -3.75292
|  4> N          5.29562        3.13151       -4.10533
|  5> C          3.80351        1.37472       -3.26081
|  6> C          3.93993        0.32036       -4.36773
|  7> C          5.70862        3.46889       -5.32419
|  8> C          6.90470        3.03895       -5.71708
|  9> N          4.98188        4.29357       -6.09746
| 10> H          5.00055        4.10131       -7.08776
| 11> H          4.08469        4.59690       -5.73965
| 12> H          5.96336        2.52611       -3.64239
| 13> H          7.04716        2.06686       -5.47360
| 14> H          7.19815        3.30799       -6.64523
| 15> H          3.28202        2.94919       -4.64026
| 16> H          3.56525        3.51457       -2.98252
| 17> H          4.57483        1.21516       -2.50044
| 18> H          2.84351        1.26085       -2.75146
| 19> H          3.18417        0.48061       -5.10803
| 20> H          3.82485       -0.65632       -3.94614
| 21> H          4.90589        0.40174       -4.82073
| 22> *
| 23>
| 24> %MaxCore 64000
| 25>
| 26> %pal nprocs 18
| 27> end
| 28>
| 29> %scf
| 30>   MaxIter 150
| 31> end
| 32>
| 33>
| 34>                          ****END OF INPUT****

CARTESIAN COORDINATES (ANGSTROEM)
---------------------------------
  C      3.905950    2.819850   -3.752920
  N      5.295620    3.131510   -4.105330
  C      3.803510    1.374720   -3.260810
  C      3.939930    0.320360   -4.367730
  C      5.708620    3.468890   -5.324190
  C      6.904700    3.038950   -5.717080
  N      4.981880    4.293570   -6.097460
  H      5.000550    4.101310   -7.087760
  H      4.084690    4.596900   -5.739650
  H      5.963360    2.526110   -3.642390
  H      7.047160    2.066860   -5.473600
  H      7.198150    3.307990   -6.645230
  H      3.282020    2.949190   -4.640260
  H      3.565250    3.514570   -2.982520
  H      4.574830    1.215160   -2.500440
  H      2.843510    1.260850   -2.751460
  H      3.184170    0.480610   -5.108030
  H      3.824850   -0.656320   -3.946140
  H      4.905890    0.401740   -4.820730

 Total Charge           Charge          ....    0
 Multiplicity           Mult            ....    1
 Number of Electrons    NEL             ....   56
 Basis Dimension        Dim             ....  367

ORBITAL ENERGIES
----------------

  NO   OCC          E(Eh)            E(eV)
   0   2.0000     -14.425502      -392.5379
   1   2.0000     -14.424281      -392.5046
   2   2.0000     -10.324811      -280.9524
   3   2.0000     -10.313802      -280.6528
   4   2.0000     -10.284759      -279.8625
   5   2.0000     -10.265275      -279.3323
   6   2.0000     -10.184059      -277.1223
   7   2.0000      -1.089496       -29.6467
   8   2.0000      -1.005714       -27.3669
   9   2.0000      -0.909043       -24.7363
  10   2.0000      -0.843763       -22.9600
  11   2.0000      -0.788150       -21.4467
  12   2.0000      -0.714440       -19.4409
  13   2.0000      -0.702296       -19.1105
  14   2.0000      -0.637589       -17.3497
  15   2.0000      -0.599417       -16.3110
  16   2.0000      -0.579240       -15.7619
  17   2.0000      -0.564466       -15.3599
  18   2.0000      -0.546905       -14.8821
  19   2.0000      -0.505673       -13.7601
  20   2.0000      -0.497553       -13.5391
  21   2.0000      -0.484513       -13.1843
  22   2.0000      -0.461228       -12.5506
  23   2.0000      -0.449013       -12.2183
  24   2.0000      -0.446512       -12.1502
  25   2.0000      -0.431410       -11.7393
  26   2.0000      -0.354678        -9.6513
  27   2.0000      -0.262032        -7.1302
  28   0.0000       0.062545         1.7019
  29   0.0000       0.079155         2.1539
  30   0.0000       0.084390         2.2964
  31   0.0000       0.095146         2.5891
  32   0.0000       0.111320         3.0292

MULLIKEN ATOMIC CHARGES
-----------------------
   0 C :   -0.578124
   1 N :   -0.179993
   2 C :   -0.380442
   3 C :   -1.104814
   4 C :    0.699663
   5 C :   -1.343879
   6 N :   -0.495113
   7 H :    0.222259
   8 H :    0.245167
   9 H :    0.248122
  10 H :    0.334640
  11 H :    0.376597
  12 H :    0.305628
  13 H :    0.184931
  14 H :    0.304835
  15 H :    0.271914
  16 H :    0.311380
  17 H :    0.331909
  18 H :    0.245321
Sum of atomic charges:   -0.0000000

LOEWDIN ATOMIC CHARGES
----------------------
   0 C :   -0.201629
   1 N :    0.022651
   2 C :   -0.244853
   3 C :   -0.095200
   4 C :   -0.569902
   5 C :   -0.010938
   6 N :    0.123815
   7 H :    0.110510
   8 H :    0.094816
   9 H :    0.131195
  10 H :    0.008135
  11 H :    0.007690
  12 H :    0.108863
  13 H :    0.109884
  14 H :    0.106442
  15 H :    0.104226
  16 H :    0.068348
  17 H :    0.064869
  18 H :    0.061079

  Mayer bond orders larger than 0.100000
B(  0-C ,  1-N ) :   0.8608 B(  0-C ,  2-C ) :   0.8997 B(  0-C ,  6-N ) :   0.1010
B(  0-C , 12-H ) :   0.8639 B(  0-C , 13-H ) :   1.0553 B(  1-N ,  4-C ) :   1.1157
B(  1-N ,  5-C ) :   0.1134 B(  1-N ,  9-H ) :   0.8407 B(  2-C ,  3-C ) :   0.6802
B(  2-C , 14-H ) :   0.9374 B(  2-C , 15-H ) :   0.9938 B(  3-C , 16-H ) :   0.9723
B(  3-C , 17-H ) :   0.9358 B(  3-C , 18-H ) :   1.0507 B(  4-C ,  5-C ) :   1.2061
B(  4-C ,  6-N ) :   0.9760 B(  5-C ,  6-N ) :   0.1186 B(  5-C , 10-H ) :   0.9125
B(  5-C , 11-H ) :   1.0257 B(  6-N ,  7-H ) :   0.9497 B(  6-N ,  8-H ) :   0.8961

Dispersion correction           -0.005520942
FINAL SINGLE POINT ENERGY      -307.245762405550

DIPOLE MOMENT
-------------
                                X             Y             Z
Electronic contribution:      1.74600       4.86841      -0.59085
Nuclear contribution   :     -3.17203      -5.30499       0.68068
                        -----------------------------------------
Total Dipole Moment    :     -1.42603      -0.43658       0.08983
                        -----------------------------------------
Magnitude (a.u.)       :      1.49406
Magnitude (Debye)      :      3.79761

Rotational constants in cm-1:     0.149640     0.051631     0.046708
Rotational constants in MHz :  4486.107270  1547.846261  1400.277765

                             ****ORCA TERMINATED NORMALLY****
TOTAL RUN TIME: 0 days 0 hours 0 minutes 46 seconds 99 msec
