                         Program Version 5.0.0 -  RELEASE  -
|  1> !wB97X-D3 RIJCOSX def2-TZVPD def2/J TightSCF
|  2> *xyz 0 1
|  3> C          3.90595        2.81985       -3.75292
|  4> N          5.29562        3.13151       -4.10533
|  5> C          3.80351        1.37472       -3.26081
|  6> C          3.93993        0.32036       -4.36773
|  7> C          5.70862        3.46889       -5.32419
|  8> N          6.90470        3.03895       -5.71708
|  9> C          4.98188        4.29357       -6.09746
| 10> H          5.00055        4.10131       -7.08776
| 11> H          4.08469        4.59690       -5.73965
| 12> H          5.96336        2.52611       -3.64239
| 13> H          7.04716        2.06686       -5.47360
| 14> H          7.19815        3.30799       -6.64523
| 15> H          3.28202        2.94919       -4.64026
| 16> H          3.56525        3.51457       -2.98252
| 17> H          4.57483        1.21516       -2.50044
| 18> H          2.84351        1.26085       -2.75146
| 19> H          3.18417        0.48061       -5.10803
| 20> H          3.82485       -0.65632       -3.94614
| 21> H          4.90589        0.40174       -4.82073
| 22> *
| 23>
| 24> %MaxCore 64000
| 25>
| 26> %pal nprocs 18
| 27> end
| 28>
| 29> %scf
| 30>   MaxIter 150
| 31> end
| 32>
| 33>
| 34>                          ****END OF INPUT****

CARTESIAN COORDINATES (ANGSTROEM)
---------------------------------
  C      3.905950    2.819850   -3.752920
  N      5.295620    3.131510   -4.105330
  C      3.803510    1.374720   -3.260810
  C      3.939930    0.320360   -4.367730
  C      5.708620    3.468890   -5.324190
  N      6.904700    3.038950   -5.717080
  C      4.981880    4.293570   -6.097460
  H      5.000550    4.101310   -7.087760
  H      4.084690    4.596900   -5.739650
  H      5.963360    2.526110   -3.642390
  H      7.047160    2.066860   -5.473600
  H      7.198150    3.307990   -6.645230
  H      3.282020    2.949190   -4.640260
  H      3.565250    3.514570   -2.982520
  H      4.574830    1.215160   -2.500440
  H      2.843510    1.260850   -2.751460
  H      3.184170    0.480610   -5.108030
  H      3.824850   -0.656320   -3.946140
  H      4.905890    0.401740   -4.820730

 Total Charge           Charge          ....    0
 Multiplicity           Mult            ....    1
 Number of Electrons    NEL             ....   56
 Basis Dimension        Dim             ....  367

ORBITAL ENERGIES
----------------

  NO   OCC          E(Eh)            E(eV)
   0   2.0000     -14.426283      -392.5591
   1   2.0000     -14.424642      -392.5145
   2   2.0000     -10.323300      -280.9113
   3   2.0000     -10.308310      -280.5034
   4   2.0000     -10.283091      -279.8171
   5   2.0000     -10.267027      -279.3800
   6   2.0000     -10.188977      -277.2561
   7   2.0000      -1.094276       -29.7768
   8   2.0000      -1.007627       -27.4189
   9   2.0000      -0.904133       -24.6027
  10   2.0000      -0.829623       -22.5752
  11   2.0000      -0.806146       -21.9363
  12   2.0000      -0.720545       -19.6070
  13   2.0000      -0.674579       -18.3562
  14   2.0000      -0.638045       -17.3621
  15   2.0000      -0.619779       -16.8650
  16   2.0000      -0.574977       -15.6459
  17   2.0000      -0.568292       -15.4640
  18   2.0000      -0.532291       -14.4844
  19   2.0000      -0.514005       -13.9868
  20   2.0000      -0.496351       -13.5064
  21   2.0000      -0.479704       -13.0534
  22   2.0000      -0.463706       -12.6181
  23   2.0000      -0.450133       -12.2487
  24   2.0000      -0.444160       -12.0862
  25   2.0000      -0.431540       -11.7428
  26   2.0000      -0.352377        -9.5887
  27   2.0000      -0.264760        -7.2045
  28   0.0000       0.061655         1.6777
  29   0.0000       0.080974         2.2034
  30   0.0000       0.088847         2.4176
  31   0.0000       0.090572         2.4646
  32   0.0000       0.112943         3.0733

MULLIKEN ATOMIC CHARGES
-----------------------
   0 C :   -0.560427
   1 N :   -0.172651
   2 C :   -0.413902
   3 C :   -1.076044
   4 C :    0.648473
   5 N :   -0.487515
   6 C :   -1.413321
   7 H :    0.310708
   8 H :    0.453466
   9 H :    0.285556
  10 H :    0.213705
  11 H :    0.242759
  12 H :    0.316482
  13 H :    0.216377
  14 H :    0.294005
  15 H :    0.268816
  16 H :    0.320777
  17 H :    0.331837
  18 H :    0.220898
Sum of atomic charges:    0.0000000

LOEWDIN ATOMIC CHARGES
----------------------
   0 C :   -0.195013
   1 N :    0.023297
   2 C :   -0.245426
   3 C :   -0.097525
   4 C :   -0.578305
   5 N :    0.113290
   6 C :    0.004544
   7 H :    0.009612
   8 H :    0.004537
   9 H :    0.128102
  10 H :    0.098066
  11 H :    0.108821
  12 H :    0.112690
  13 H :    0.113928
  14 H :    0.103702
  15 H :    0.105251
  16 H :    0.070309
  17 H :    0.064325
  18 H :    0.055796

  Mayer bond orders larger than 0.100000
B(  0-C ,  1-N ) :   0.8480 B(  0-C ,  2-C ) :   0.8812 B(  0-C ,  6-C ) :   0.1266
B(  0-C , 12-H ) :   0.8708 B(  0-C , 13-H ) :   1.0050 B(  1-N ,  4-C ) :   1.0726
B(  1-N ,  9-H ) :   0.8308 B(  2-C ,  3-C ) :   0.6970 B(  2-C , 14-H ) :   0.9483
B(  2-C , 15-H ) :   0.9938 B(  3-C , 16-H ) :   0.9695 B(  3-C , 17-H ) :   0.9345
B(  3-C , 18-H ) :   1.0509 B(  4-C ,  5-N ) :   1.0032 B(  4-C ,  6-C ) :   1.2181
B(  4-C ,  7-H ) :  -0.1095 B(  5-N ,  6-C ) :   0.1122 B(  5-N , 10-H ) :   0.9451
B(  5-N , 11-H ) :   0.9123 B(  6-C ,  7-H ) :   1.0666 B(  6-C ,  8-H ) :   0.7727

Dispersion correction           -0.005502046
FINAL SINGLE POINT ENERGY      -307.249976700799

DIPOLE MOMENT
-------------
                                X             Y             Z
Electronic contribution:      3.60936       3.68206      -0.28749
Nuclear contribution   :     -3.59323      -5.03016       0.59736
                        -----------------------------------------
Total Dipole Moment    :      0.01613      -1.34810       0.30986
                        -----------------------------------------
Magnitude (a.u.)       :      1.38335
Magnitude (Debye)      :      3.51619

Rotational constants in cm-1:     0.148888     0.051791     0.046487
Rotational constants in MHz :  4463.542717  1552.665696  1393.643356

                             ****ORCA TERMINATED NORMALLY****
TOTAL RUN TIME: 0 days 0 hours 0 minutes 35 seconds 331 msec
