                         Program Version 5.0.0 -  RELEASE  -
|  1> !wB97X-D3 RIJCOSX def2-TZVPD def2/J TightSCF xyzfile
|  2>
|  3> *xyzfile 0 1 D1.xyz
|  4>
|  5> %MaxCore 64000
|  6>
|  7> %pal nprocs 18
|  8> end
|  9>
| 10> %scf
| 11>   MaxIter 150
| 12> end
| 13>
| 14>
| 15>                          ****END OF INPUT****

CARTESIAN COORDINATES (ANGSTROEM)
---------------------------------
  C      3.905947    2.819855   -3.752920
  C      5.295615    3.131515   -4.105334
  C      3.803511    1.374716   -3.260807
  C      3.939934    0.320362   -4.367729
  H      4.105043   -0.655085   -3.907733
  H      3.022801    0.280517   -4.957117
  C      5.105846    0.668022   -5.305463
  C      5.708619    3.468885   -5.324190
  N      6.904696    3.038954   -5.717084
  N      4.981884    4.293570   -6.097457
  H      5.000546    4.101311   -7.087761
  H      4.084693    4.596899   -5.739652
  H      5.963358    2.526112   -3.642391
  H      7.047164    2.066861   -5.473604
  H      7.198145    3.307994   -6.645225
  H      3.282025    2.949187   -4.640259
  H      3.565254    3.514574   -2.982523
  H      4.574833    1.215157   -2.500443
  H      2.843514    1.260845   -2.751465
  F      4.809132    1.150187   -6.414361
  O      6.267366    0.564999   -4.819481

 Total Charge           Charge          ....    0
 Multiplicity           Mult            ....    1
 Number of Electrons    NEL             ....   78
 Basis Dimension        Dim             ....  475

ORBITAL ENERGIES
----------------

  NO   OCC          E(Eh)            E(eV)
   0   2.0000     -24.866610      -676.6548
   1   2.0000     -19.239557      -523.5350
   2   2.0000     -14.424124      -392.5004
   3   2.0000     -14.402593      -391.9145
   4   2.0000     -10.464750      -284.7603
   5   2.0000     -10.316945      -280.7383
   6   2.0000     -10.304455      -280.3985
   7   2.0000     -10.282803      -279.8093
   8   2.0000     -10.264570      -279.3132
   9   2.0000     -10.198429      -277.5134
  10   2.0000      -1.451407       -39.4948
  11   2.0000      -1.156514       -31.4703
  12   2.0000      -1.077955       -29.3326
  13   2.0000      -0.985547       -26.8181
  14   2.0000      -0.936316       -25.4785
  15   2.0000      -0.867999       -23.6195
  16   2.0000      -0.808559       -22.0020
  17   2.0000      -0.771615       -20.9967
  18   2.0000      -0.719083       -19.5673
  19   2.0000      -0.685317       -18.6484
  20   2.0000      -0.665993       -18.1226
  21   2.0000      -0.649019       -17.6607
  22   2.0000      -0.638568       -17.3763
  23   2.0000      -0.623543       -16.9675
  24   2.0000      -0.604548       -16.4506
  25   2.0000      -0.567712       -15.4482
  26   2.0000      -0.561426       -15.2772
  27   2.0000      -0.541522       -14.7356
  28   2.0000      -0.530584       -14.4379
  29   2.0000      -0.496776       -13.5180
  30   2.0000      -0.485729       -13.2174
  31   2.0000      -0.463764       -12.6196
  32   2.0000      -0.461020       -12.5450
  33   2.0000      -0.441968       -12.0266
  34   2.0000      -0.429550       -11.6886
  35   2.0000      -0.415858       -11.3161
  36   2.0000      -0.396044       -10.7769
  37   2.0000      -0.359397        -9.7797
  38   2.0000      -0.256541        -6.9808
  39   0.0000       0.045308         1.2329
  40   0.0000       0.059274         1.6129
  41   0.0000       0.077709         2.1146
  42   0.0000       0.084160         2.2901
  43   0.0000       0.090449         2.4612

MULLIKEN ATOMIC CHARGES
-----------------------
   0 C :   -0.165018
   1 C :   -0.633635
   2 C :   -0.670965
   3 C :   -0.617401
   4 H :    0.289377
   5 H :    0.318721
   6 C :    0.978289
   7 C :   -0.194482
   8 N :   -0.433049
   9 N :   -0.464984
  10 H :    0.186772
  11 H :    0.270683
  12 H :    0.526386
  13 H :    0.290680
  14 H :    0.230071
  15 H :    0.350408
  16 H :    0.118317
  17 H :    0.323050
  18 H :    0.252860
  19 F :   -0.282065
  20 O :   -0.674017
Sum of atomic charges:   -0.0000000

LOEWDIN ATOMIC CHARGES
----------------------
   0 C :   -0.221791
   1 C :   -0.135232
   2 C :   -0.188864
   3 C :   -0.086363
   4 H :    0.123650
   5 H :    0.115713
   6 C :   -0.461732
   7 C :   -0.566489
   8 N :    0.129717
   9 N :    0.130019
  10 H :    0.100215
  11 H :    0.102960
  12 H :    0.070997
  13 H :    0.066100
  14 H :    0.106828
  15 H :    0.106217
  16 H :    0.106705
  17 H :    0.120853
  18 H :    0.110910
  19 F :    0.227101
  20 O :    0.042487

  Mayer bond orders larger than 0.100000
B(  0-C ,  1-C ) :   0.5177 B(  0-C ,  2-C ) :   0.7909 B(  0-C ,  7-C ) :   0.1495
B(  0-C , 15-H ) :   0.8547 B(  0-C , 16-H ) :   1.1152 B(  1-C ,  2-C ) :   0.2968
B(  1-C ,  7-C ) :   1.8143 B(  1-C , 12-H ) :   0.8303 B(  2-C ,  3-C ) :   0.9602
B(  2-C , 17-H ) :   0.8881 B(  2-C , 18-H ) :   0.9852 B(  3-C ,  4-H ) :   0.8958
B(  3-C ,  5-H ) :   0.9335 B(  3-C ,  6-C ) :   0.9193 B(  6-C , 19-F ) :   0.8397
B(  6-C , 20-O ) :   1.4757 B(  7-C ,  8-N ) :   0.9668 B(  7-C ,  9-N ) :   0.8580
B(  8-N , 13-H ) :   0.8083 B(  8-N , 14-H ) :   0.8810 B(  9-N , 10-H ) :   0.9581
B(  9-N , 11-H ) :   0.8731

Dispersion correction           -0.008897222
FINAL SINGLE POINT ENERGY      -519.854317054626

DIPOLE MOMENT
-------------
                                X             Y             Z
Electronic contribution:      3.38047      -3.66469      -6.47506
Nuclear contribution   :     -4.60158       3.22721       5.56005
                        -----------------------------------------
Total Dipole Moment    :     -1.22112      -0.43747      -0.91500
                        -----------------------------------------
Magnitude (a.u.)       :      1.58737
Magnitude (Debye)      :      4.03477

Rotational constants in cm-1:     0.061224     0.042534     0.033552
Rotational constants in MHz :  1835.464095  1275.135177  1005.856966

                             ****ORCA TERMINATED NORMALLY****
TOTAL RUN TIME: 0 days 0 hours 1 minutes 7 seconds 43 msec
