                         Program Version 5.0.0 -  RELEASE  -
|  1> !wB97X-D3 RIJCOSX def2-TZVPD def2/J TightSCF xyzfile
|  2>
|  3> *xyzfile 0 1 D4.xyz
|  4>
|  5> %MaxCore 64000
|  6>
|  7> %pal nprocs 18
|  8> end
|  9>
| 10> %scf
| 11>   MaxIter 150
| 12> end
| 13>
| 14>
| 15>                          ****END OF INPUT****

CARTESIAN COORDINATES (ANGSTROEM)
---------------------------------
  C      3.905947    2.819855   -3.752920
  C      5.295615    3.131515   -4.105334
  C      3.803511    1.374716   -3.260807
  C      3.939934    0.320362   -4.367729
  H      4.105043   -0.655085   -3.907733
  H      3.022801    0.280517   -4.957117
  C      5.105846    0.668022   -5.305463
  C      5.708619    3.468885   -5.324190
  N      6.904696    3.038954   -5.717084
  N      4.981884    4.293570   -6.097457
  H      5.000546    4.101311   -7.087761
  H      4.084693    4.596899   -5.739652
  H      5.963358    2.526112   -3.642391
  H      7.047164    2.066861   -5.473604
  H      7.198145    3.307994   -6.645225
  H      3.282025    2.949187   -4.640259
  H      3.565254    3.514574   -2.982523
  H      4.574833    1.215157   -2.500443
  H      2.843514    1.260845   -2.751465
  O      4.809132    1.150187   -6.414361
  F      6.267366    0.564999   -4.819481

 Total Charge           Charge          ....    0
 Multiplicity           Mult            ....    1
 Number of Electrons    NEL             ....   78
 Basis Dimension        Dim             ....  475

ORBITAL ENERGIES
----------------

  NO   OCC          E(Eh)            E(eV)
   0   2.0000     -24.863614      -676.5733
   1   2.0000     -19.237502      -523.4790
   2   2.0000     -14.421762      -392.4361
   3   2.0000     -14.411242      -392.1498
   4   2.0000     -10.458070      -284.5786
   5   2.0000     -10.320041      -280.8226
   6   2.0000     -10.301747      -280.3248
   7   2.0000     -10.283097      -279.8173
   8   2.0000     -10.261977      -279.2426
   9   2.0000     -10.199505      -277.5427
  10   2.0000      -1.443992       -39.2930
  11   2.0000      -1.158972       -31.5372
  12   2.0000      -1.079298       -29.3692
  13   2.0000      -0.987860       -26.8810
  14   2.0000      -0.935866       -25.4662
  15   2.0000      -0.866819       -23.5873
  16   2.0000      -0.807490       -21.9729
  17   2.0000      -0.769406       -20.9366
  18   2.0000      -0.719051       -19.5664
  19   2.0000      -0.695827       -18.9344
  20   2.0000      -0.662441       -18.0259
  21   2.0000      -0.649417       -17.6715
  22   2.0000      -0.630506       -17.1569
  23   2.0000      -0.612049       -16.6547
  24   2.0000      -0.606026       -16.4908
  25   2.0000      -0.568050       -15.4574
  26   2.0000      -0.566076       -15.4037
  27   2.0000      -0.542525       -14.7629
  28   2.0000      -0.528811       -14.3897
  29   2.0000      -0.496736       -13.5169
  30   2.0000      -0.483535       -13.1576
  31   2.0000      -0.468991       -12.7619
  32   2.0000      -0.459459       -12.5025
  33   2.0000      -0.440283       -11.9807
  34   2.0000      -0.432244       -11.7619
  35   2.0000      -0.421324       -11.4648
  36   2.0000      -0.387377       -10.5411
  37   2.0000      -0.360141        -9.7999
  38   2.0000      -0.258738        -7.0406
  39   0.0000       0.052707         1.4342
  40   0.0000       0.063643         1.7318
  41   0.0000       0.077531         2.1097
  42   0.0000       0.085346         2.3224
  43   0.0000       0.090204         2.4546

MULLIKEN ATOMIC CHARGES
-----------------------
   0 C :   -0.087817
   1 C :   -0.741928
   2 C :   -0.744936
   3 C :   -0.595331
   4 H :    0.310694
   5 H :    0.294830
   6 C :    0.909424
   7 C :   -0.116364
   8 N :   -0.421209
   9 N :   -0.465251
  10 H :    0.190080
  11 H :    0.273282
  12 H :    0.570374
  13 H :    0.262145
  14 H :    0.232316
  15 H :    0.349335
  16 H :    0.117881
  17 H :    0.326361
  18 H :    0.249453
  19 O :   -0.600183
  20 F :   -0.313156
Sum of atomic charges:   -0.0000000

LOEWDIN ATOMIC CHARGES
----------------------
   0 C :   -0.221310
   1 C :   -0.143926
   2 C :   -0.192888
   3 C :   -0.087303
   4 H :    0.117331
   5 H :    0.123473
   6 C :   -0.476038
   7 C :   -0.563556
   8 N :    0.132199
   9 N :    0.142119
  10 H :    0.104841
  11 H :    0.105367
  12 H :    0.067418
  13 H :    0.081226
  14 H :    0.110580
  15 H :    0.109532
  16 H :    0.106114
  17 H :    0.116555
  18 H :    0.111018
  19 O :    0.081550
  20 F :    0.175698

  Mayer bond orders larger than 0.100000
B(  0-C ,  1-C ) :   0.5276 B(  0-C ,  2-C ) :   0.7578 B(  0-C ,  7-C ) :   0.1378
B(  0-C , 15-H ) :   0.8450 B(  0-C , 16-H ) :   1.1283 B(  1-C ,  2-C ) :   0.3510
B(  1-C ,  7-C ) :   1.7688 B(  1-C ,  9-N ) :   0.1179 B(  1-C , 12-H ) :   0.7715
B(  2-C ,  3-C ) :   0.9682 B(  2-C ,  7-C ) :   0.1153 B(  2-C , 17-H ) :   0.9014
B(  2-C , 18-H ) :   0.9821 B(  3-C ,  4-H ) :   0.8991 B(  3-C ,  5-H ) :   0.9462
B(  3-C ,  6-C ) :   0.9336 B(  6-C , 19-O ) :   1.5737 B(  6-C , 20-F ) :   0.7663
B(  7-C ,  8-N ) :   0.9961 B(  7-C ,  9-N ) :   0.8773 B(  8-N , 13-H ) :   0.8504
B(  8-N , 14-H ) :   0.8636 B(  9-N , 10-H ) :   0.9480 B(  9-N , 11-H ) :   0.8720

Dispersion correction           -0.008974818
FINAL SINGLE POINT ENERGY      -519.855550680473

DIPOLE MOMENT
-------------
                                X             Y             Z
Electronic contribution:      5.81799      -4.55643      -3.91417
Nuclear contribution   :     -6.25608       3.89116       3.75052
                        -----------------------------------------
Total Dipole Moment    :     -0.43808      -0.66527      -0.16365
                        -----------------------------------------
Magnitude (a.u.)       :      0.81319
Magnitude (Debye)      :      2.06697

Rotational constants in cm-1:     0.061229     0.042568     0.033282
Rotational constants in MHz :  1835.590871  1276.154029   997.769927

                             ****ORCA TERMINATED NORMALLY****
TOTAL RUN TIME: 0 days 0 hours 1 minutes 19 seconds 621 msec
