                         Program Version 5.0.0 -  RELEASE  -
|  1> !PBE D3BJ RIJCOSX def2-TZVP def2/J TightSCF
|  2> *xyz -1 1
|  3> C         -5.57236       -5.80780       -0.81644
|  4> S         -6.90318       -4.61903       -0.52846
|  5> O         -8.11485       -5.25093       -0.95701
|  6> O         -6.53271       -3.42684       -1.31485
|  7> O         -6.86563       -4.29496        0.91412
|  8> C         -4.45780       -5.94187        0.22919
|  9> H         -5.17735       -5.54257       -1.79771
| 10> H         -6.07420       -6.76889       -0.92127
| 11> H         -3.75515       -6.68239       -0.09144
| 12> H         -4.88182       -6.23486        1.16689
| 13> H         -3.95908       -5.00189        0.34143
| 14> *
| 15> %MaxCore 64000
| 16>
| 17> %pal nprocs 4
| 18> end
| 19>
| 20> %scf
| 21>   MaxIter 150
| 22> end
| 23>
| 24>                          ****END OF INPUT****

CARTESIAN COORDINATES (ANGSTROEM)
---------------------------------
  C     -5.572360   -5.807800   -0.816440
  S     -6.903180   -4.619030   -0.528460
  O     -8.114850   -5.250930   -0.957010
  O     -6.532710   -3.426840   -1.314850
  O     -6.865630   -4.294960    0.914120
  C     -4.457800   -5.941870    0.229190
  H     -5.177350   -5.542570   -1.797710
  H     -6.074200   -6.768890   -0.921270
  H     -3.755150   -6.682390   -0.091440
  H     -4.881820   -6.234860    1.166890
  H     -3.959080   -5.001890    0.341430

 Total Charge           Charge          ....   -1
 Multiplicity           Mult            ....    1
 Number of Electrons    NEL             ....   58
 Basis Dimension        Dim             ....  222

ORBITAL ENERGIES
----------------

  NO   OCC          E(Eh)            E(eV)
   0   2.0000     -88.002268     -2394.6634
   1   2.0000     -18.523354      -504.0461
   2   2.0000     -18.510173      -503.6874
   3   2.0000     -18.508660      -503.6462
   4   2.0000      -9.736056      -264.9315
   5   2.0000      -9.733855      -264.8717
   6   2.0000      -7.596978      -206.7243
   7   2.0000      -5.618032      -152.8744
   8   2.0000      -5.616813      -152.8413
   9   2.0000      -5.616588      -152.8351
  10   2.0000      -0.821389       -22.3511
  11   2.0000      -0.695496       -18.9254
  12   2.0000      -0.673062       -18.3150
  13   2.0000      -0.554159       -15.0794
  14   2.0000      -0.439020       -11.9463
  15   2.0000      -0.315882        -8.5956
  16   2.0000      -0.263934        -7.1820
  17   2.0000      -0.252417        -6.8686
  18   2.0000      -0.219968        -5.9856
  19   2.0000      -0.200331        -5.4513
  20   2.0000      -0.197564        -5.3760
  21   2.0000      -0.174597        -4.7510
  22   2.0000      -0.168350        -4.5810
  23   2.0000      -0.093541        -2.5454
  24   2.0000      -0.090667        -2.4672
  25   2.0000      -0.064330        -1.7505
  26   2.0000      -0.053172        -1.4469
  27   2.0000      -0.044911        -1.2221
  28   2.0000      -0.008083        -0.2199
  29   0.0000       0.153189         4.1685
  30   0.0000       0.199749         5.4355
  31   0.0000       0.210803         5.7362
  32   0.0000       0.215546         5.8653
  33   0.0000       0.235730         6.4145

MULLIKEN ATOMIC CHARGES
-----------------------
   0 C :   -0.249827
   1 S :    0.660503
   2 O :   -0.478307
   3 O :   -0.527054
   4 O :   -0.527721
   5 C :   -0.304484
   6 H :    0.083860
   7 H :    0.079138
   8 H :    0.063833
   9 H :    0.101812
  10 H :    0.098246
Sum of atomic charges:   -1.0000000

LOEWDIN ATOMIC CHARGES
----------------------
   0 C :   -0.440333
   1 S :    0.354962
   2 O :   -0.339225
   3 O :   -0.396461
   4 O :   -0.391498
   5 C :   -0.348437
   6 H :    0.118535
   7 H :    0.116755
   8 H :    0.099345
   9 H :    0.113016
  10 H :    0.113339

  Mayer bond orders larger than 0.100000
B(  0-C ,  1-S ) :   0.8576 B(  0-C ,  5-C ) :   0.9799 B(  0-C ,  6-H ) :   0.9528
B(  0-C ,  7-H ) :   0.9466 B(  1-S ,  2-O ) :   1.8651 B(  1-S ,  3-O ) :   1.8101
B(  1-S ,  4-O ) :   1.7931 B(  5-C ,  8-H ) :   0.9509 B(  5-C ,  9-H ) :   0.9683
B(  5-C , 10-H ) :   0.9708

Dispersion correction           -0.009519763
FINAL SINGLE POINT ENERGY      -702.803536497753

DIPOLE MOMENT
-------------
                                X             Y             Z
Electronic contribution:     -6.83078       4.44592      -0.91147
Nuclear contribution   :      8.13140      -5.68016       0.80206
                        -----------------------------------------
Total Dipole Moment    :      1.30062      -1.23424      -0.10941
                        -----------------------------------------
Magnitude (a.u.)       :      1.79637
Magnitude (Debye)      :      4.56600

Rotational constants in cm-1:     0.162101     0.080498     0.079099
Rotational constants in MHz :  4859.669771  2413.267251  2371.338602

                             ****ORCA TERMINATED NORMALLY****
TOTAL RUN TIME: 0 days 0 hours 0 minutes 12 seconds 101 msec
