                         Program Version 5.0.0 -  RELEASE  -
|  1> !PBE D3BJ RIJCOSX def2-TZVP def2/J TightSCF
|  2> *xyz 1 1
|  3> C         -4.38262       -1.67089        1.21620
|  4> N         -5.76354       -1.91517        0.70501
|  5> C         -3.28173       -2.19127        0.29436
|  6> H         -5.84081       -2.11520       -0.30065
|  7> H         -6.40882       -1.14866        0.93612
|  8> H         -6.17478       -2.79061        1.05143
|  9> H         -4.32862       -2.13922        2.19810
| 10> H         -4.26158       -0.59740        1.35725
| 11> H         -3.36057       -1.71407       -0.66008
| 12> H         -3.38775       -3.24919        0.17403
| 13> H         -2.32559       -1.97514        0.72329
| 14> *
| 15> %MaxCore 64000
| 16>
| 17> %pal nprocs 4
| 18> end
| 19>
| 20> %scf
| 21>   MaxIter 150
| 22> end
| 23>
| 24>                          ****END OF INPUT****

CARTESIAN COORDINATES (ANGSTROEM)
---------------------------------
  C     -4.382620   -1.670890    1.216200
  N     -5.763540   -1.915170    0.705010
  C     -3.281730   -2.191270    0.294360
  H     -5.840810   -2.115200   -0.300650
  H     -6.408820   -1.148660    0.936120
  H     -6.174780   -2.790610    1.051430
  H     -4.328620   -2.139220    2.198100
  H     -4.261580   -0.597400    1.357250
  H     -3.360570   -1.714070   -0.660080
  H     -3.387750   -3.249190    0.174030
  H     -2.325590   -1.975140    0.723290

 Total Charge           Charge          ....    1
 Multiplicity           Mult            ....    1
 Number of Electrons    NEL             ....   26
 Basis Dimension        Dim             ....  141

ORBITAL ENERGIES
----------------

  NO   OCC          E(Eh)            E(eV)
   0   2.0000     -14.318262      -389.6197
   1   2.0000     -10.134794      -275.7818
   2   2.0000     -10.054823      -273.6056
   3   2.0000      -1.136986       -30.9390
   4   2.0000      -0.898652       -24.4536
   5   2.0000      -0.790194       -21.5023
   6   2.0000      -0.745452       -20.2848
   7   2.0000      -0.725121       -19.7315
   8   2.0000      -0.655574       -17.8391
   9   2.0000      -0.593220       -16.1423
  10   2.0000      -0.540506       -14.7079
  11   2.0000      -0.524127       -14.2622
  12   2.0000      -0.505430       -13.7534
  13   0.0000      -0.219361        -5.9691
  14   0.0000      -0.166401        -4.5280
  15   0.0000      -0.160858        -4.3772
  16   0.0000      -0.137081        -3.7302
  17   0.0000      -0.099815        -2.7161

MULLIKEN ATOMIC CHARGES
-----------------------
   0 C :   -0.193475
   1 N :   -0.268491
   2 C :   -0.370680
   3 H :    0.313762
   4 H :    0.330129
   5 H :    0.319282
   6 H :    0.190173
   7 H :    0.188890
   8 H :    0.156933
   9 H :    0.152487
  10 H :    0.180990
Sum of atomic charges:    1.0000000

LOEWDIN ATOMIC CHARGES
----------------------
   0 C :   -0.279048
   1 N :    0.171787
   2 C :   -0.279834
   3 H :    0.218479
   4 H :    0.223257
   5 H :    0.220932
   6 H :    0.154260
   7 H :    0.155000
   8 H :    0.132800
   9 H :    0.131988
  10 H :    0.150380

  Mayer bond orders larger than 0.100000
B(  0-C ,  1-N ) :   0.8664 B(  0-C ,  2-C ) :   1.0154 B(  0-C ,  6-H ) :   0.9487
B(  0-C ,  7-H ) :   0.9485 B(  1-N ,  3-H ) :   0.8773 B(  1-N ,  4-H ) :   0.8771
B(  1-N ,  5-H ) :   0.8833 B(  2-C ,  8-H ) :   0.9532 B(  2-C ,  9-H ) :   0.9574
B(  2-C , 10-H ) :   0.9476

Dispersion correction           -0.006098973
FINAL SINGLE POINT ENERGY      -135.395824202917

DIPOLE MOMENT
-------------
                                X             Y             Z
Electronic contribution:     -1.79595       0.23923       0.30413
Nuclear contribution   :      0.19437      -0.25358      -0.32106
                        -----------------------------------------
Total Dipole Moment    :     -1.60158      -0.01435      -0.01694
                        -----------------------------------------
Magnitude (a.u.)       :      1.60173
Magnitude (Debye)      :      4.07128

Rotational constants in cm-1:     1.030014     0.272489     0.242697
Rotational constants in MHz : 30879.030706  8169.007780  7275.865152

                             ****ORCA TERMINATED NORMALLY****
TOTAL RUN TIME: 0 days 0 hours 0 minutes 7 seconds 972 msec
