                         Program Version 5.0.0 -  RELEASE  -
|  1> !PBE D3BJ RIJCOSX def2-TZVP def2/J TightSCF
|  2> *xyz 0 1
|  3> C         -5.57236       -5.80780       -0.81644
|  4> S         -6.90318       -4.61903       -0.52846
|  5> F         -8.11485       -5.25093       -0.95701
|  6> O         -6.53271       -3.42684       -1.31485
|  7> O         -6.86563       -4.29496        0.91412
|  8> C         -4.45780       -5.94187        0.22919
|  9> H         -5.17735       -5.54257       -1.79771
| 10> H         -6.07420       -6.76889       -0.92127
| 11> H         -3.75515       -6.68239       -0.09144
| 12> H         -4.88182       -6.23486        1.16689
| 13> H         -3.95908       -5.00189        0.34143
| 14> *
| 15> %MaxCore 64000
| 16>
| 17> %pal nprocs 4
| 18> end
| 19>
| 20> %scf
| 21>   MaxIter 150
| 22> end
| 23>
| 24>                          ****END OF INPUT****

CARTESIAN COORDINATES (ANGSTROEM)
---------------------------------
  C     -5.572360   -5.807800   -0.816440
  S     -6.903180   -4.619030   -0.528460
  F     -8.114850   -5.250930   -0.957010
  O     -6.532710   -3.426840   -1.314850
  O     -6.865630   -4.294960    0.914120
  C     -4.457800   -5.941870    0.229190
  H     -5.177350   -5.542570   -1.797710
  H     -6.074200   -6.768890   -0.921270
  H     -3.755150   -6.682390   -0.091440
  H     -4.881820   -6.234860    1.166890
  H     -3.959080   -5.001890    0.341430

 Total Charge           Charge          ....    0
 Multiplicity           Mult            ....    1
 Number of Electrons    NEL             ....   58
 Basis Dimension        Dim             ....  222

ORBITAL ENERGIES
----------------

  NO   OCC          E(Eh)            E(eV)
   0   2.0000     -88.267534     -2401.8817
   1   2.0000     -24.376606      -663.3212
   2   2.0000     -18.749487      -510.1995
   3   2.0000     -18.749121      -510.1895
   4   2.0000      -9.940822      -270.5035
   5   2.0000      -9.898577      -269.3540
   6   2.0000      -7.862864      -213.9594
   7   2.0000      -5.887184      -160.1984
   8   2.0000      -5.880749      -160.0233
   9   2.0000      -5.880404      -160.0139
  10   2.0000      -1.283808       -34.9342
  11   2.0000      -1.000678       -27.2298
  12   2.0000      -0.907685       -24.6994
  13   2.0000      -0.746307       -20.3081
  14   2.0000      -0.670599       -18.2479
  15   2.0000      -0.613476       -16.6935
  16   2.0000      -0.527045       -14.3416
  17   2.0000      -0.523750       -14.2520
  18   2.0000      -0.495445       -13.4817
  19   2.0000      -0.441592       -12.0163
  20   2.0000      -0.424648       -11.5553
  21   2.0000      -0.392962       -10.6930
  22   2.0000      -0.379863       -10.3366
  23   2.0000      -0.359773        -9.7899
  24   2.0000      -0.345362        -9.3978
  25   2.0000      -0.329192        -8.9578
  26   2.0000      -0.279304        -7.6003
  27   2.0000      -0.274282        -7.4636
  28   2.0000      -0.251634        -6.8473
  29   0.0000      -0.013278        -0.3613
  30   0.0000      -0.002603        -0.0708
  31   0.0000       0.023396         0.6366
  32   0.0000       0.037849         1.0299
  33   0.0000       0.050065         1.3623

MULLIKEN ATOMIC CHARGES
-----------------------
   0 C :   -0.255984
   1 S :    0.716317
   2 F :   -0.049323
   3 O :   -0.381694
   4 O :   -0.385143
   5 C :   -0.323208
   6 H :    0.153300
   7 H :    0.124166
   8 H :    0.128943
   9 H :    0.133904
  10 H :    0.138722
Sum of atomic charges:   -0.0000000

LOEWDIN ATOMIC CHARGES
----------------------
   0 C :   -0.404788
   1 S :    0.472321
   2 F :    0.126782
   3 O :   -0.273416
   4 O :   -0.272149
   5 C :   -0.305586
   6 H :    0.143269
   7 H :    0.133098
   8 H :    0.126445
   9 H :    0.126064
  10 H :    0.127960

  Mayer bond orders larger than 0.100000
B(  0-C ,  1-S ) :   0.8966 B(  0-C ,  5-C ) :   1.0036 B(  0-C ,  6-H ) :   0.9307
B(  0-C ,  7-H ) :   0.9299 B(  1-S ,  2-F ) :   1.1862 B(  1-S ,  3-O ) :   1.9397
B(  1-S ,  4-O ) :   1.9285 B(  5-C ,  8-H ) :   0.9469 B(  5-C ,  9-H ) :   0.9624
B(  5-C , 10-H ) :   0.9655

Dispersion correction           -0.009110558
FINAL SINGLE POINT ENERGY      -727.309085739366

DIPOLE MOMENT
-------------
                                X             Y             Z
Electronic contribution:     -9.45027       3.67689      -1.83440
Nuclear contribution   :      9.80704      -5.24335       1.35017
                        -----------------------------------------
Total Dipole Moment    :      0.35677      -1.56646      -0.48423
                        -----------------------------------------
Magnitude (a.u.)       :      1.67796
Magnitude (Debye)      :      4.26504

Rotational constants in cm-1:     0.156316     0.078308     0.076228
Rotational constants in MHz :  4686.224999  2347.601204  2285.245115

                             ****ORCA TERMINATED NORMALLY****
TOTAL RUN TIME: 0 days 0 hours 0 minutes 11 seconds 619 msec
