                         Program Version 5.0.0 -  RELEASE  -
|  1> !PBE D3BJ RIJCOSX def2-TZVP def2/J TightSCF
|  2> *xyz 0 1
|  3> C         -4.38262       -1.67089        1.21620
|  4> C         -5.76354       -1.91517        0.70501
|  5> C         -3.28173       -2.19127        0.29436
|  6> H         -5.84081       -2.11520       -0.30065
|  7> H         -6.40882       -1.14866        0.93612
|  8> H         -6.17478       -2.79061        1.05143
|  9> H         -4.32862       -2.13922        2.19810
| 10> H         -4.26158       -0.59740        1.35725
| 11> H         -3.36057       -1.71407       -0.66008
| 12> H         -3.38775       -3.24919        0.17403
| 13> H         -2.32559       -1.97514        0.72329
| 14> *
| 15> %MaxCore 64000
| 16>
| 17> %pal nprocs 4
| 18> end
| 19>
| 20> %scf
| 21>   MaxIter 150
| 22> end
| 23>
| 24>                          ****END OF INPUT****

CARTESIAN COORDINATES (ANGSTROEM)
---------------------------------
  C     -4.382620   -1.670890    1.216200
  C     -5.763540   -1.915170    0.705010
  C     -3.281730   -2.191270    0.294360
  H     -5.840810   -2.115200   -0.300650
  H     -6.408820   -1.148660    0.936120
  H     -6.174780   -2.790610    1.051430
  H     -4.328620   -2.139220    2.198100
  H     -4.261580   -0.597400    1.357250
  H     -3.360570   -1.714070   -0.660080
  H     -3.387750   -3.249190    0.174030
  H     -2.325590   -1.975140    0.723290

 Total Charge           Charge          ....    0
 Multiplicity           Mult            ....    1
 Number of Electrons    NEL             ....   26
 Basis Dimension        Dim             ....  141

ORBITAL ENERGIES
----------------

  NO   OCC          E(Eh)            E(eV)
   0   2.0000      -9.868816      -268.5441
   1   2.0000      -9.858079      -268.2520
   2   2.0000      -9.839512      -267.7467
   3   2.0000      -0.715189       -19.4613
   4   2.0000      -0.624856       -17.0032
   5   2.0000      -0.529792       -14.4164
   6   2.0000      -0.413253       -11.2452
   7   2.0000      -0.393674       -10.7124
   8   2.0000      -0.364143        -9.9088
   9   2.0000      -0.340050        -9.2532
  10   2.0000      -0.298819        -8.1313
  11   2.0000      -0.292375        -7.9559
  12   2.0000      -0.279094        -7.5945
  13   0.0000       0.022217         0.6045
  14   0.0000       0.064112         1.7446
  15   0.0000       0.067267         1.8304
  16   0.0000       0.072619         1.9761
  17   0.0000       0.098249         2.6735

MULLIKEN ATOMIC CHARGES
-----------------------
   0 C :   -0.140957
   1 C :   -0.365818
   2 C :   -0.347464
   3 H :    0.113346
   4 H :    0.115651
   5 H :    0.115801
   6 H :    0.090476
   7 H :    0.089164
   8 H :    0.110677
   9 H :    0.106641
  10 H :    0.112483
Sum of atomic charges:   -0.0000000

LOEWDIN ATOMIC CHARGES
----------------------
   0 C :   -0.322008
   1 C :   -0.315515
   2 C :   -0.311615
   3 H :    0.111160
   4 H :    0.110832
   5 H :    0.111486
   6 H :    0.133953
   7 H :    0.133205
   8 H :    0.116413
   9 H :    0.116182
  10 H :    0.115906

  Mayer bond orders larger than 0.100000
B(  0-C ,  1-C ) :   0.9937 B(  0-C ,  2-C ) :   1.0054 B(  0-C ,  6-H ) :   0.9634
B(  0-C ,  7-H ) :   0.9638 B(  1-C ,  3-H ) :   0.9745 B(  1-C ,  4-H ) :   0.9736
B(  1-C ,  5-H ) :   0.9734 B(  2-C ,  8-H ) :   0.9714 B(  2-C ,  9-H ) :   0.9730
B(  2-C , 10-H ) :   0.9712

Dispersion correction           -0.006097765
FINAL SINGLE POINT ENERGY      -118.987321273573

DIPOLE MOMENT
-------------
                                X             Y             Z
Electronic contribution:      0.18343       0.23956       0.34066
Nuclear contribution   :     -0.21528      -0.24783      -0.32864
                        -----------------------------------------
Total Dipole Moment    :     -0.03184      -0.00827       0.01202
                        -----------------------------------------
Magnitude (a.u.)       :      0.03502
Magnitude (Debye)      :      0.08903

Rotational constants in cm-1:     1.037566     0.286459     0.254172
Rotational constants in MHz : 31105.431429  8587.814531  7619.871198

                             ****ORCA TERMINATED NORMALLY****
TOTAL RUN TIME: 0 days 0 hours 0 minutes 7 seconds 701 msec
