                         Program Version 5.0.0 -  RELEASE  -
|  1> !PBE D3BJ RIJCOSX def2-TZVP def2/J TightSCF
|  2> *xyz 0 1
|  3> C         -5.57236       -5.80780       -0.81644
|  4> S         -6.90318       -4.61903       -0.52846
|  5> O         -8.11485       -5.25093       -0.95701
|  6> F         -6.53271       -3.42684       -1.31485
|  7> O         -6.86563       -4.29496        0.91412
|  8> C         -4.45780       -5.94187        0.22919
|  9> H         -5.17735       -5.54257       -1.79771
| 10> H         -6.07420       -6.76889       -0.92127
| 11> H         -3.75515       -6.68239       -0.09144
| 12> H         -4.88182       -6.23486        1.16689
| 13> H         -3.95908       -5.00189        0.34143
| 14> *
| 15> %MaxCore 64000
| 16>
| 17> %pal nprocs 4
| 18> end
| 19>
| 20> %scf
| 21>   MaxIter 150
| 22> end
| 23>
| 24>                          ****END OF INPUT****

CARTESIAN COORDINATES (ANGSTROEM)
---------------------------------
  C     -5.572360   -5.807800   -0.816440
  S     -6.903180   -4.619030   -0.528460
  O     -8.114850   -5.250930   -0.957010
  F     -6.532710   -3.426840   -1.314850
  O     -6.865630   -4.294960    0.914120
  C     -4.457800   -5.941870    0.229190
  H     -5.177350   -5.542570   -1.797710
  H     -6.074200   -6.768890   -0.921270
  H     -3.755150   -6.682390   -0.091440
  H     -4.881820   -6.234860    1.166890
  H     -3.959080   -5.001890    0.341430

 Total Charge           Charge          ....    0
 Multiplicity           Mult            ....    1
 Number of Electrons    NEL             ....   58
 Basis Dimension        Dim             ....  222

ORBITAL ENERGIES
----------------

  NO   OCC          E(Eh)            E(eV)
   0   2.0000     -88.265179     -2401.8176
   1   2.0000     -24.354849      -662.7291
   2   2.0000     -18.763139      -510.5710
   3   2.0000     -18.749466      -510.1989
   4   2.0000      -9.940254      -270.4881
   5   2.0000      -9.898055      -269.3398
   6   2.0000      -7.860671      -213.8997
   7   2.0000      -5.885073      -160.1410
   8   2.0000      -5.878676      -159.9669
   9   2.0000      -5.878114      -159.9516
  10   2.0000      -1.248286       -33.9676
  11   2.0000      -1.017249       -27.6807
  12   2.0000      -0.922743       -25.1091
  13   2.0000      -0.746081       -20.3019
  14   2.0000      -0.657644       -17.8954
  15   2.0000      -0.606296       -16.4981
  16   2.0000      -0.513987       -13.9863
  17   2.0000      -0.498502       -13.5649
  18   2.0000      -0.489947       -13.3321
  19   2.0000      -0.440189       -11.9781
  20   2.0000      -0.425078       -11.5670
  21   2.0000      -0.401057       -10.9133
  22   2.0000      -0.382760       -10.4154
  23   2.0000      -0.357747        -9.7348
  24   2.0000      -0.352046        -9.5797
  25   2.0000      -0.334678        -9.1070
  26   2.0000      -0.291882        -7.9425
  27   2.0000      -0.279340        -7.6012
  28   2.0000      -0.264298        -7.1919
  29   0.0000      -0.011952        -0.3252
  30   0.0000      -0.000556        -0.0151
  31   0.0000       0.025886         0.7044
  32   0.0000       0.040068         1.0903
  33   0.0000       0.052151         1.4191

MULLIKEN ATOMIC CHARGES
-----------------------
   0 C :   -0.264488
   1 S :    0.720767
   2 O :   -0.343737
   3 F :   -0.082360
   4 O :   -0.392563
   5 C :   -0.319876
   6 H :    0.131561
   7 H :    0.156875
   8 H :    0.127814
   9 H :    0.143393
  10 H :    0.122614
Sum of atomic charges:    0.0000000

LOEWDIN ATOMIC CHARGES
----------------------
   0 C :   -0.402872
   1 S :    0.481299
   2 O :   -0.224309
   3 F :    0.073310
   4 O :   -0.275007
   5 C :   -0.311728
   6 H :    0.135098
   7 H :    0.147911
   8 H :    0.125458
   9 H :    0.127739
  10 H :    0.123101

  Mayer bond orders larger than 0.100000
B(  0-C ,  1-S ) :   0.8938 B(  0-C ,  5-C ) :   0.9976 B(  0-C ,  6-H ) :   0.9350
B(  0-C ,  7-H ) :   0.9336 B(  1-S ,  2-O ) :   1.9887 B(  1-S ,  3-F ) :   1.1417
B(  1-S ,  4-O ) :   1.9271 B(  5-C ,  8-H ) :   0.9476 B(  5-C ,  9-H ) :   0.9634
B(  5-C , 10-H ) :   0.9656

Dispersion correction           -0.009096535
FINAL SINGLE POINT ENERGY      -727.327105667673

DIPOLE MOMENT
-------------
                                X             Y             Z
Electronic contribution:     -6.81505       6.72705      -2.44777
Nuclear contribution   :      8.15840      -7.14411       1.72305
                        -----------------------------------------
Total Dipole Moment    :      1.34335      -0.41706      -0.72472
                        -----------------------------------------
Magnitude (a.u.)       :      1.58232
Magnitude (Debye)      :      4.02194

Rotational constants in cm-1:     0.153926     0.078297     0.077402
Rotational constants in MHz :  4614.585804  2347.272644  2320.438903

                             ****ORCA TERMINATED NORMALLY****
TOTAL RUN TIME: 0 days 0 hours 0 minutes 12 seconds 120 msec
