                         Program Version 5.0.0 -  RELEASE  -
|  1> !PBE D3BJ RIJCOSX def2-TZVP def2/J TightSCF
|  2> *xyz 0 1
|  3> C         -5.57236       -5.80780       -0.81644
|  4> S         -6.90318       -4.61903       -0.52846
|  5> O         -8.11485       -5.25093       -0.95701
|  6> O         -6.53271       -3.42684       -1.31485
|  7> F         -6.86563       -4.29496        0.91412
|  8> C         -4.45780       -5.94187        0.22919
|  9> H         -5.17735       -5.54257       -1.79771
| 10> H         -6.07420       -6.76889       -0.92127
| 11> H         -3.75515       -6.68239       -0.09144
| 12> H         -4.88182       -6.23486        1.16689
| 13> H         -3.95908       -5.00189        0.34143
| 14> *
| 15> %MaxCore 64000
| 16>
| 17> %pal nprocs 4
| 18> end
| 19>
| 20> %scf
| 21>   MaxIter 150
| 22> end
| 23>
| 24>                          ****END OF INPUT****

CARTESIAN COORDINATES (ANGSTROEM)
---------------------------------
  C     -5.572360   -5.807800   -0.816440
  S     -6.903180   -4.619030   -0.528460
  O     -8.114850   -5.250930   -0.957010
  O     -6.532710   -3.426840   -1.314850
  F     -6.865630   -4.294960    0.914120
  C     -4.457800   -5.941870    0.229190
  H     -5.177350   -5.542570   -1.797710
  H     -6.074200   -6.768890   -0.921270
  H     -3.755150   -6.682390   -0.091440
  H     -4.881820   -6.234860    1.166890
  H     -3.959080   -5.001890    0.341430

 Total Charge           Charge          ....    0
 Multiplicity           Mult            ....    1
 Number of Electrons    NEL             ....   58
 Basis Dimension        Dim             ....  222

ORBITAL ENERGIES
----------------

  NO   OCC          E(Eh)            E(eV)
   0   2.0000     -88.264652     -2401.8033
   1   2.0000     -24.353794      -662.7004
   2   2.0000     -18.762795      -510.5616
   3   2.0000     -18.748438      -510.1709
   4   2.0000      -9.939566      -270.4693
   5   2.0000      -9.904896      -269.5259
   6   2.0000      -7.860177      -213.8863
   7   2.0000      -5.884656      -160.1296
   8   2.0000      -5.878005      -159.9487
   9   2.0000      -5.877734      -159.9413
  10   2.0000      -1.245646       -33.8957
  11   2.0000      -1.017703       -27.6931
  12   2.0000      -0.923225       -25.1222
  13   2.0000      -0.748834       -20.3768
  14   2.0000      -0.654964       -17.8225
  15   2.0000      -0.610540       -16.6136
  16   2.0000      -0.518861       -14.1189
  17   2.0000      -0.497841       -13.5469
  18   2.0000      -0.482820       -13.1382
  19   2.0000      -0.444349       -12.0914
  20   2.0000      -0.418786       -11.3957
  21   2.0000      -0.400983       -10.9113
  22   2.0000      -0.392208       -10.6725
  23   2.0000      -0.365827        -9.9547
  24   2.0000      -0.351747        -9.5715
  25   2.0000      -0.336995        -9.1701
  26   2.0000      -0.292642        -7.9632
  27   2.0000      -0.277163        -7.5420
  28   2.0000      -0.263823        -7.1790
  29   0.0000      -0.022328        -0.6076
  30   0.0000       0.016736         0.4554
  31   0.0000       0.029946         0.8149
  32   0.0000       0.035142         0.9563
  33   0.0000       0.049628         1.3504

MULLIKEN ATOMIC CHARGES
-----------------------
   0 C :   -0.252753
   1 S :    0.721520
   2 O :   -0.343649
   3 O :   -0.391001
   4 F :   -0.085984
   5 C :   -0.351129
   6 H :    0.158231
   7 H :    0.147498
   8 H :    0.133646
   9 H :    0.127953
  10 H :    0.135668
Sum of atomic charges:   -0.0000000

LOEWDIN ATOMIC CHARGES
----------------------
   0 C :   -0.396674
   1 S :    0.481853
   2 O :   -0.224430
   3 O :   -0.278232
   4 F :    0.073391
   5 C :   -0.319152
   6 H :    0.148514
   7 H :    0.141663
   8 H :    0.127681
   9 H :    0.121225
  10 H :    0.124161

  Mayer bond orders larger than 0.100000
B(  0-C ,  1-S ) :   0.8991 B(  0-C ,  5-C ) :   0.9936 B(  0-C ,  6-H ) :   0.9323
B(  0-C ,  7-H ) :   0.9321 B(  1-S ,  2-O ) :   1.9881 B(  1-S ,  3-O ) :   1.9372
B(  1-S ,  4-F ) :   1.1359 B(  5-C ,  8-H ) :   0.9527 B(  5-C ,  9-H ) :   0.9646
B(  5-C , 10-H ) :   0.9641

Dispersion correction           -0.009057189
FINAL SINGLE POINT ENERGY      -727.327182662830

DIPOLE MOMENT
-------------
                                X             Y             Z
Electronic contribution:     -7.34816       5.24721       1.27104
Nuclear contribution   :      8.50531      -6.23950      -0.59960
                        -----------------------------------------
Total Dipole Moment    :      1.15715      -0.99229       0.67143
                        -----------------------------------------
Magnitude (a.u.)       :      1.66567
Magnitude (Debye)      :      4.23380

Rotational constants in cm-1:     0.152799     0.080212     0.076962
Rotational constants in MHz :  4580.804531  2404.707790  2307.252710

                             ****ORCA TERMINATED NORMALLY****
TOTAL RUN TIME: 0 days 0 hours 0 minutes 7 seconds 798 msec
