                         Program Version 5.0.0 -  RELEASE  -
|  1> !PBE D3BJ RIJCOSX def2-TZVP def2/J TightSCF xyzfile
|  2>
|  3> *xyzfile 0 1 D1.xyz
|  4>
|  5> %MaxCore 64000
|  6>
|  7> %pal nprocs 18
|  8> end
|  9>
| 10> %scf
| 11>   MaxIter 150
| 12> end
| 13>
| 14>
| 15>                          ****END OF INPUT****

CARTESIAN COORDINATES (ANGSTROEM)
---------------------------------
  C     -4.382623   -1.670889    1.216201
  C     -5.763539   -1.915170    0.705012
  C     -3.281728   -2.191272    0.294361
  C     -5.572364   -5.807798   -0.816445
  S     -6.903179   -4.619033   -0.528458
  H     -5.840812   -2.115205   -0.300646
  H     -6.408823   -1.148656    0.936124
  H     -6.174781   -2.790606    1.051433
  F     -8.114853   -5.250932   -0.957007
  O     -6.532715   -3.426838   -1.314848
  H     -4.328618   -2.139223    2.198103
  H     -4.261583   -0.597399    1.357248
  O     -6.865632   -4.294957    0.914118
  C     -3.474641   -3.605898   -0.259608
  H     -2.354548   -2.127602    0.871433
  H     -3.166611   -1.499693   -0.545037
  C     -3.827078   -4.661097    0.786174
  H     -2.560559   -3.889391   -0.788050
  H     -4.255932   -3.570040   -1.019300
  C     -4.457800   -5.941875    0.229195
  H     -5.177347   -5.542575   -1.797714
  H     -6.074202   -6.768894   -0.921272
  H     -4.530506   -4.253640    1.511979
  H     -2.933400   -4.932302    1.356825
  H     -3.681064   -6.562236   -0.229885
  H     -4.843942   -6.512728    1.075805

 Total Charge           Charge          ....    0
 Multiplicity           Mult            ....    1
 Number of Electrons    NEL             ....   98
 Basis Dimension        Dim             ....  437

ORBITAL ENERGIES
----------------

  NO   OCC          E(Eh)            E(eV)
   0   2.0000     -88.275284     -2402.0926
   1   2.0000     -24.381726      -663.4605
   2   2.0000     -18.759888      -510.4825
   3   2.0000     -18.758473      -510.4440
   4   2.0000      -9.942075      -270.5376
   5   2.0000      -9.908141      -269.6142
   6   2.0000      -9.877033      -268.7677
   7   2.0000      -9.866847      -268.4906
   8   2.0000      -9.859098      -268.2797
   9   2.0000      -9.845708      -267.9153
  10   2.0000      -9.788985      -266.3718
  11   2.0000      -7.870917      -214.1785
  12   2.0000      -5.895134      -160.4147
  13   2.0000      -5.888847      -160.2437
  14   2.0000      -5.888478      -160.2336
  15   2.0000      -1.289116       -35.0786
  16   2.0000      -1.015058       -27.6211
  17   2.0000      -0.922272       -25.0963
  18   2.0000      -0.759775       -20.6745
  19   2.0000      -0.721768       -19.6403
  20   2.0000      -0.684044       -18.6138
  21   2.0000      -0.659028       -17.9331
  22   2.0000      -0.625065       -17.0089
  23   2.0000      -0.581419       -15.8212
  24   2.0000      -0.549794       -14.9607
  25   2.0000      -0.532363       -14.4863
  26   2.0000      -0.521971       -14.2035
  27   2.0000      -0.496986       -13.5237
  28   2.0000      -0.482877       -13.1397
  29   2.0000      -0.442546       -12.0423
  30   2.0000      -0.442077       -12.0295
  31   2.0000      -0.418006       -11.3745
  32   2.0000      -0.414713       -11.2849
  33   2.0000      -0.393079       -10.6962
  34   2.0000      -0.386103       -10.5064
  35   2.0000      -0.366864        -9.9829
  36   2.0000      -0.364083        -9.9072
  37   2.0000      -0.342566        -9.3217
  38   2.0000      -0.334339        -9.0978
  39   2.0000      -0.329858        -8.9759
  40   2.0000      -0.300686        -8.1821
  41   2.0000      -0.296055        -8.0561
  42   2.0000      -0.292254        -7.9526
  43   2.0000      -0.290307        -7.8997
  44   2.0000      -0.280461        -7.6317
  45   2.0000      -0.268371        -7.3028
  46   2.0000      -0.254245        -6.9184
  47   2.0000      -0.247819        -6.7435
  48   2.0000      -0.225982        -6.1493
  49   0.0000      -0.020076        -0.5463
  50   0.0000      -0.008440        -0.2297
  51   0.0000       0.016219         0.4413
  52   0.0000       0.027255         0.7416
  53   0.0000       0.031809         0.8656

MULLIKEN ATOMIC CHARGES
-----------------------
   0 C :   -0.161177
   1 C :   -0.407722
   2 C :   -0.167483
   3 C :   -0.316756
   4 S :    0.746257
   5 H :    0.135398
   6 H :    0.092908
   7 H :    0.140824
   8 F :   -0.046873
   9 O :   -0.380377
  10 H :    0.086643
  11 H :    0.081762
  12 O :   -0.378050
  13 C :   -0.174007
  14 H :    0.076643
  15 H :    0.087973
  16 C :   -0.246703
  17 H :    0.081313
  18 H :    0.117856
  19 C :   -0.131152
  20 H :    0.165727
  21 H :    0.143378
  22 H :    0.142713
  23 H :    0.091217
  24 H :    0.107609
  25 H :    0.112079
Sum of atomic charges:   -0.0000000

LOEWDIN ATOMIC CHARGES
----------------------
   0 C :   -0.310166
   1 C :   -0.337422
   2 C :   -0.272270
   3 C :   -0.381780
   4 S :    0.491930
   5 H :    0.107902
   6 H :    0.103530
   7 H :    0.097350
   8 F :    0.129492
   9 O :   -0.245952
  10 H :    0.131414
  11 H :    0.134275
  12 O :   -0.238552
  13 C :   -0.274416
  14 H :    0.133822
  15 H :    0.138027
  16 C :   -0.270220
  17 H :    0.134154
  18 H :    0.139664
  19 C :   -0.277122
  20 H :    0.146644
  21 H :    0.137914
  22 H :    0.147691
  23 H :    0.139270
  24 H :    0.149145
  25 H :    0.145678

  Mayer bond orders larger than 0.100000
B(  0-C ,  1-C ) :   0.9696 B(  0-C ,  2-C ) :   1.0279 B(  0-C , 10-H ) :   0.9634
B(  0-C , 11-H ) :   0.9461 B(  1-C ,  5-H ) :   0.9757 B(  1-C ,  6-H ) :   0.9522
B(  1-C ,  7-H ) :   0.9683 B(  2-C , 13-C ) :   1.0185 B(  2-C , 14-H ) :   0.9540
B(  2-C , 15-H ) :   0.9454 B(  3-C ,  4-S ) :   0.9064 B(  3-C , 19-C ) :   0.9886
B(  3-C , 20-H ) :   0.9308 B(  3-C , 21-H ) :   0.9281 B(  4-S ,  8-F ) :   1.1932
B(  4-S ,  9-O ) :   1.8725 B(  4-S , 12-O ) :   1.8550 B( 13-C , 16-C ) :   0.9904
B( 13-C , 17-H ) :   0.9481 B( 13-C , 18-H ) :   0.9490 B( 16-C , 19-C ) :   1.0030
B( 16-C , 22-H ) :   0.9606 B( 16-C , 23-H ) :   0.9426 B( 19-C , 24-H ) :   0.9313
B( 19-C , 25-H ) :   0.9531

Dispersion correction           -0.030668229
FINAL SINGLE POINT ENERGY      -923.619006375827

DIPOLE MOMENT
-------------
                                X             Y             Z
Electronic contribution:    -19.01431      -8.57513      -6.70349
Nuclear contribution   :     19.08524       6.89775       6.14221
                        -----------------------------------------
Total Dipole Moment    :      0.07092      -1.67738      -0.56128
                        -----------------------------------------
Magnitude (a.u.)       :      1.77022
Magnitude (Debye)      :      4.49953

Rotational constants in cm-1:     0.049343     0.024787     0.019726
Rotational constants in MHz :  1479.262779   743.087234   591.370705

                             ****ORCA TERMINATED NORMALLY****
TOTAL RUN TIME: 0 days 0 hours 0 minutes 16 seconds 662 msec
