                         Program Version 5.0.0 -  RELEASE  -
|  1> !M062X D3Zero RIJCOSX def2-TZVP def2/J TightSCF
|  2> *xyz -1 1
|  3> C         -0.72184       -0.99951       -3.43931
|  4> C          0.28725       -1.71177       -2.52740
|  5> H          1.13178       -2.06738       -3.15940
|  6> H         -0.20414       -2.63733       -2.17048
|  7> O          0.71050       -0.92751       -1.48177
|  8> H         -1.01315       -1.65739       -4.23129
|  9> H         -0.27123       -0.12142       -3.85259
| 10> H         -1.58442       -0.72333       -2.86958
| 11> *
| 12> %MaxCore 64000
| 13>
| 14> %pal nprocs 4
| 15> end
| 16>
| 17> %scf
| 18>   MaxIter 150
| 19> end
| 20>
| 21>
| 22>                          ****END OF INPUT****

CARTESIAN COORDINATES (ANGSTROEM)
---------------------------------
  C     -0.721840   -0.999510   -3.439310
  C      0.287250   -1.711770   -2.527400
  H      1.131780   -2.067380   -3.159400
  H     -0.204140   -2.637330   -2.170480
  O      0.710500   -0.927510   -1.481770
  H     -1.013150   -1.657390   -4.231290
  H     -0.271230   -0.121420   -3.852590
  H     -1.584420   -0.723330   -2.869580

 Total Charge           Charge          ....   -1
 Multiplicity           Mult            ....    1
 Number of Electrons    NEL             ....   26
 Basis Dimension        Dim             ....  123

ORBITAL ENERGIES
----------------

  NO   OCC          E(Eh)            E(eV)
   0   2.0000     -19.266345      -524.2639
   1   2.0000     -10.336970      -281.2832
   2   2.0000     -10.316671      -280.7309
   3   2.0000      -0.776451       -21.1283
   4   2.0000      -0.613695       -16.6995
   5   2.0000      -0.447670       -12.1817
   6   2.0000      -0.311735        -8.4827
   7   2.0000      -0.288532        -7.8513
   8   2.0000      -0.228277        -6.2117
   9   2.0000      -0.211935        -5.7670
  10   2.0000      -0.163985        -4.4622
  11   2.0000      -0.021828        -0.5940
  12   2.0000      -0.019698        -0.5360
  13   0.0000       0.251859         6.8534
  14   0.0000       0.289043         7.8653
  15   0.0000       0.314554         8.5595
  16   0.0000       0.315422         8.5831
  17   0.0000       0.348186         9.4746

MULLIKEN ATOMIC CHARGES
-----------------------
   0 C :   -0.274964
   1 C :   -0.001083
   2 H :   -0.027539
   3 H :   -0.025838
   4 O :   -0.811957
   5 H :    0.014213
   6 H :    0.062887
   7 H :    0.064282
Sum of atomic charges:   -1.0000000

LOEWDIN ATOMIC CHARGES
----------------------
   0 C :   -0.367895
   1 C :   -0.553313
   2 H :    0.058235
   3 H :    0.059315
   4 O :   -0.455287
   5 H :    0.077955
   6 H :    0.090183
   7 H :    0.090806

  Mayer bond orders larger than 0.100000
B(  0-C ,  1-C ) :   0.8815 B(  0-C ,  4-O ) :  -0.1777 B(  0-C ,  5-H ) :   0.9472
B(  0-C ,  6-H ) :   0.9741 B(  0-C ,  7-H ) :   0.9752 B(  1-C ,  2-H ) :   0.9435
B(  1-C ,  3-H ) :   0.9436 B(  1-C ,  4-O ) :   1.5220

Dispersion correction           -0.000014978
FINAL SINGLE POINT ENERGY      -154.401735509302

DIPOLE MOMENT
-------------
                                X             Y             Z
Electronic contribution:      1.46721       0.75393       2.39749
Nuclear contribution   :     -2.24828      -1.06600      -3.62481
                        -----------------------------------------
Total Dipole Moment    :     -0.78107      -0.31206      -1.22732
                        -----------------------------------------
Magnitude (a.u.)       :      1.48787
Magnitude (Debye)      :      3.78188

Rotational constants in cm-1:     1.278116     0.325414     0.286672
Rotational constants in MHz : 38316.964654  9755.653004  8594.216906

                             ****ORCA TERMINATED NORMALLY****
TOTAL RUN TIME: 0 days 0 hours 0 minutes 11 seconds 35 msec
