                         Program Version 5.0.0 -  RELEASE  -
|  1> !M062X D3Zero RIJCOSX def2-TZVP def2/J TightSCF
|  2> *xyz 1 1
|  3> C          3.48828        1.60092       -1.52204
|  4> C          4.34297        1.31342       -2.75683
|  5> N          2.81029        0.42878       -1.01420
|  6> H          2.71455        2.33145       -1.76030
|  7> H          4.09099        2.06315       -0.73338
|  8> C          3.29098       -0.41802       -0.12908
|  9> N          2.51754       -1.43202        0.23936
| 10> N          4.53549       -0.28441        0.39580
| 11> H          5.04363        0.57189        0.22290
| 12> H          4.72335       -0.73327        1.28180
| 13> H          1.93479        0.10230       -1.40379
| 14> H          1.67464       -1.50562       -0.31610
| 15> H          2.92850       -2.21850        0.72549
| 16> H          3.73575        0.86277       -3.51385
| 17> H          5.13754        0.64699       -2.49333
| 18> H          4.75374        2.22930       -3.12740
| 19> *
| 20> %MaxCore 64000
| 21>
| 22> %pal nprocs 4
| 23> end
| 24>
| 25> %scf
| 26>   MaxIter 150
| 27> end
| 28>
| 29>
| 30>                          ****END OF INPUT****

CARTESIAN COORDINATES (ANGSTROEM)
---------------------------------
  C      3.488280    1.600920   -1.522040
  C      4.342970    1.313420   -2.756830
  N      2.810290    0.428780   -1.014200
  H      2.714550    2.331450   -1.760300
  H      4.090990    2.063150   -0.733380
  C      3.290980   -0.418020   -0.129080
  N      2.517540   -1.432020    0.239360
  N      4.535490   -0.284410    0.395800
  H      5.043630    0.571890    0.222900
  H      4.723350   -0.733270    1.281800
  H      1.934790    0.102300   -1.403790
  H      1.674640   -1.505620   -0.316100
  H      2.928500   -2.218500    0.725490
  H      3.735750    0.862770   -3.513850
  H      5.137540    0.646990   -2.493330
  H      4.753740    2.229300   -3.127400

 Total Charge           Charge          ....    1
 Multiplicity           Mult            ....    1
 Number of Electrons    NEL             ....   48
 Basis Dimension        Dim             ....  246

ORBITAL ENERGIES
----------------

  NO   OCC          E(Eh)            E(eV)
   0   2.0000     -14.977736      -407.5649
   1   2.0000     -14.971831      -407.4042
   2   2.0000     -14.970012      -407.3547
   3   2.0000     -10.876738      -295.9711
   4   2.0000     -10.747301      -292.4489
   5   2.0000     -10.670553      -290.3605
   6   2.0000      -1.334922       -36.3251
   7   2.0000      -1.214650       -33.0523
   8   2.0000      -1.199610       -32.6430
   9   2.0000      -1.030552       -28.0427
  10   2.0000      -0.926365       -25.2077
  11   2.0000      -0.892550       -24.2875
  12   2.0000      -0.858763       -23.3681
  13   2.0000      -0.825273       -22.4568
  14   2.0000      -0.762369       -20.7451
  15   2.0000      -0.754190       -20.5225
  16   2.0000      -0.724729       -19.7209
  17   2.0000      -0.715842       -19.4791
  18   2.0000      -0.672180       -18.2909
  19   2.0000      -0.628719       -17.1083
  20   2.0000      -0.598354       -16.2820
  21   2.0000      -0.577329       -15.7099
  22   2.0000      -0.545704       -14.8494
  23   2.0000      -0.513857       -13.9828
  24   0.0000      -0.130894        -3.5618
  25   0.0000      -0.123200        -3.3525
  26   0.0000      -0.094827        -2.5804
  27   0.0000      -0.079984        -2.1765
  28   0.0000      -0.052147        -1.4190

MULLIKEN ATOMIC CHARGES
-----------------------
   0 C :   -0.267672
   1 C :   -0.340816
   2 N :   -0.285779
   3 H :    0.192116
   4 H :    0.163848
   5 C :    0.566414
   6 N :   -0.454857
   7 N :   -0.484416
   8 H :    0.295272
   9 H :    0.294450
  10 H :    0.262337
  11 H :    0.276230
  12 H :    0.303860
  13 H :    0.157225
  14 H :    0.143658
  15 H :    0.178131
Sum of atomic charges:    1.0000000

LOEWDIN ATOMIC CHARGES
----------------------
   0 C :   -0.286466
   1 C :   -0.281179
   2 N :    0.174118
   3 H :    0.153376
   4 H :    0.141351
   5 C :   -0.397887
   6 N :    0.059202
   7 N :    0.042621
   8 H :    0.193465
   9 H :    0.198788
  10 H :    0.212562
  11 H :    0.200311
  12 H :    0.203459
  13 H :    0.127365
  14 H :    0.122355
  15 H :    0.136558

  Mayer bond orders larger than 0.100000
B(  0-C ,  1-C ) :   0.9427 B(  0-C ,  2-N ) :   0.8535 B(  0-C ,  3-H ) :   0.9590
B(  0-C ,  4-H ) :   0.9772 B(  1-C , 13-H ) :   0.9653 B(  1-C , 14-H ) :   0.9529
B(  1-C , 15-H ) :   0.9704 B(  2-N ,  5-C ) :   1.3880 B(  2-N , 10-H ) :   0.9023
B(  5-C ,  6-N ) :   1.2874 B(  5-C ,  7-N ) :   1.2653 B(  6-N , 11-H ) :   0.9042
B(  6-N , 12-H ) :   0.8927 B(  7-N ,  8-H ) :   0.8925 B(  7-N ,  9-H ) :   0.8965

Dispersion correction           -0.000318319
FINAL SINGLE POINT ENERGY      -284.367040571631

DIPOLE MOMENT
-------------
                                X             Y             Z
Electronic contribution:     -1.93518      -3.00371       3.73580
Nuclear contribution   :      1.59382       2.33278      -3.02574
                        -----------------------------------------
Total Dipole Moment    :     -0.34137      -0.67093       0.71006
                        -----------------------------------------
Magnitude (a.u.)       :      1.03483
Magnitude (Debye)      :      2.63033

Rotational constants in cm-1:     0.232230     0.073139     0.063030
Rotational constants in MHz :  6962.079716  2192.649203  1889.578947

                             ****ORCA TERMINATED NORMALLY****
TOTAL RUN TIME: 0 days 0 hours 0 minutes 36 seconds 397 msec
