                         Program Version 5.0.0 -  RELEASE  -
|  1> !M062X D3Zero RIJCOSX def2-TZVP def2/J TightSCF xyzfile
|  2>
|  3> *xyzfile 0 1 B.xyz
|  4>
|  5> %MaxCore 64000
|  6>
|  7> %pal nprocs 18
|  8> end
|  9>
| 10> %scf
| 11>   MaxIter 150
| 12> end
| 13>
| 14>
| 15>                          ****END OF INPUT****

CARTESIAN COORDINATES (ANGSTROEM)
---------------------------------
  C      3.488276    1.600919   -1.522040
  C      4.342970    1.313419   -2.756826
  N      2.810285    0.428783   -1.014196
  H      5.132033    0.604994   -2.484466
  C      3.535896    0.749253   -3.924604
  H      4.841247    2.242136   -3.054083
  H      2.991617   -0.132199   -3.574137
  H      4.225505    0.392784   -4.695962
  C      2.564776    1.750890   -4.544523
  H      1.918749    2.171679   -3.769419
  C      1.686235    1.161657   -5.650111
  H      3.132494    2.594775   -4.951604
  C      0.839616   -0.037582   -5.220473
  H      2.323886    0.866395   -6.490796
  H      1.029518    1.951850   -6.029329
  C     -0.151019    0.254955   -4.094256
  H      1.499442   -0.857141   -4.922958
  H      0.290097   -0.410143   -6.091131
  H      0.328265    0.833022   -3.299125
  C     -0.721843   -0.999513   -3.439309
  H     -0.957367    0.884951   -4.485450
  H     -1.083403   -1.697555   -4.205656
  H     -1.581056   -0.723848   -2.820490
  C      0.287250   -1.711771   -2.527405
  H      1.131780   -2.067380   -3.159396
  H     -0.204137   -2.637326   -2.170480
  O      0.710505   -0.927506   -1.481767
  H      2.714548    2.331455   -1.760302
  H      4.090991    2.063151   -0.733382
  C      3.290978   -0.418021   -0.129083
  N      2.517536   -1.432017    0.239360
  N      4.535490   -0.284410    0.395800
  H      5.043627    0.571888    0.222899
  H      4.723346   -0.733273    1.281800
  H      1.934787    0.102305   -1.403788
  H      1.674638   -1.505616   -0.316095
  H      2.928503   -2.218502    0.725494

 Total Charge           Charge          ....    0
 Multiplicity           Mult            ....    1
 Number of Electrons    NEL             ....  112
 Basis Dimension        Dim             ....  572

ORBITAL ENERGIES
----------------

  NO   OCC          E(Eh)            E(eV)
   0   2.0000     -19.491282      -530.3848
   1   2.0000     -14.807180      -402.9239
   2   2.0000     -14.769177      -401.8897
   3   2.0000     -14.761161      -401.6716
   4   2.0000     -10.689663      -290.8805
   5   2.0000     -10.589905      -288.1660
   6   2.0000     -10.543842      -286.9125
   7   2.0000     -10.526544      -286.4418
   8   2.0000     -10.520597      -286.2800
   9   2.0000     -10.513766      -286.0941
  10   2.0000     -10.511148      -286.0229
  11   2.0000     -10.501629      -285.7638
  12   2.0000     -10.490836      -285.4702
  13   2.0000     -10.478312      -285.1294
  14   2.0000      -1.147348       -31.2209
  15   2.0000      -1.035901       -28.1883
  16   2.0000      -1.015918       -27.6445
  17   2.0000      -0.997112       -27.1328
  18   2.0000      -0.911291       -24.7975
  19   2.0000      -0.875348       -23.8194
  20   2.0000      -0.835125       -22.7249
  21   2.0000      -0.794409       -21.6170
  22   2.0000      -0.750705       -20.4277
  23   2.0000      -0.734877       -19.9970
  24   2.0000      -0.695259       -18.9190
  25   2.0000      -0.681632       -18.5481
  26   2.0000      -0.675448       -18.3799
  27   2.0000      -0.642521       -17.4839
  28   2.0000      -0.624583       -16.9958
  29   2.0000      -0.596879       -16.2419
  30   2.0000      -0.585328       -15.9276
  31   2.0000      -0.567654       -15.4466
  32   2.0000      -0.554522       -15.0893
  33   2.0000      -0.540877       -14.7180
  34   2.0000      -0.530990       -14.4490
  35   2.0000      -0.525415       -14.2973
  36   2.0000      -0.502840       -13.6830
  37   2.0000      -0.487852       -13.2751
  38   2.0000      -0.480020       -13.0620
  39   2.0000      -0.459873       -12.5138
  40   2.0000      -0.454242       -12.3606
  41   2.0000      -0.442809       -12.0494
  42   2.0000      -0.423352       -11.5200
  43   2.0000      -0.415522       -11.3069
  44   2.0000      -0.408196       -11.1076
  45   2.0000      -0.395713       -10.7679
  46   2.0000      -0.382556       -10.4099
  47   2.0000      -0.374420       -10.1885
  48   2.0000      -0.370892       -10.0925
  49   2.0000      -0.368703       -10.0329
  50   2.0000      -0.348450        -9.4818
  51   2.0000      -0.344110        -9.3637
  52   2.0000      -0.337824        -9.1927
  53   2.0000      -0.325788        -8.8651
  54   2.0000      -0.244574        -6.6552
  55   2.0000      -0.239350        -6.5131
  56   0.0000       0.023110         0.6288
  57   0.0000       0.047679         1.2974
  58   0.0000       0.058029         1.5791
  59   0.0000       0.079161         2.1541
  60   0.0000       0.082383         2.2417

MULLIKEN ATOMIC CHARGES
-----------------------
   0 C :   -0.374553
   1 C :   -0.203033
   2 N :   -0.279933
   3 H :    0.146990
   4 C :   -0.319995
   5 H :    0.147056
   6 H :    0.173485
   7 H :    0.150730
   8 C :   -0.301303
   9 H :    0.150007
  10 C :   -0.263007
  11 H :    0.138799
  12 C :   -0.329424
  13 H :    0.140957
  14 H :    0.142895
  15 C :   -0.268451
  16 H :    0.155236
  17 H :    0.139256
  18 H :    0.137721
  19 C :   -0.203340
  20 H :    0.128985
  21 H :    0.106514
  22 H :    0.116051
  23 C :   -0.058910
  24 H :    0.067925
  25 H :    0.081398
  26 O :   -0.802846
  27 H :    0.203908
  28 H :    0.152311
  29 C :    0.543031
  30 N :   -0.503787
  31 N :   -0.538139
  32 H :    0.269466
  33 H :    0.261854
  34 H :    0.320793
  35 H :    0.329341
  36 H :    0.242011
Sum of atomic charges:    0.0000000

LOEWDIN ATOMIC CHARGES
----------------------
   0 C :   -0.285970
   1 C :   -0.273646
   2 N :    0.175012
   3 H :    0.136578
   4 C :   -0.269293
   5 H :    0.141331
   6 H :    0.144770
   7 H :    0.140497
   8 C :   -0.276106
   9 H :    0.133964
  10 C :   -0.274196
  11 H :    0.135959
  12 C :   -0.276572
  13 H :    0.135616
  14 H :    0.137577
  15 C :   -0.279437
  16 H :    0.133596
  17 H :    0.135772
  18 H :    0.134049
  19 C :   -0.286405
  20 H :    0.131707
  21 H :    0.128353
  22 H :    0.132806
  23 C :   -0.475327
  24 H :    0.090105
  25 H :    0.101831
  26 O :   -0.315908
  27 H :    0.144699
  28 H :    0.127677
  29 C :   -0.414256
  30 N :    0.036238
  31 N :   -0.007243
  32 H :    0.177015
  33 H :    0.179892
  34 H :    0.169196
  35 H :    0.158121
  36 H :    0.171996

  Mayer bond orders larger than 0.100000
B(  0-C ,  1-C ) :   0.8668 B(  0-C ,  2-N ) :   0.8583 B(  0-C , 27-H ) :   0.9871
B(  0-C , 28-H ) :   0.9972 B(  1-C ,  3-H ) :   0.9778 B(  1-C ,  4-C ) :   0.9162
B(  1-C ,  5-H ) :   0.9883 B(  2-N , 29-C ) :   1.4508 B(  2-N , 34-H ) :   0.7247
B(  4-C ,  6-H ) :   0.9771 B(  4-C ,  7-H ) :   0.9808 B(  4-C ,  8-C ) :   0.8854
B(  8-C ,  9-H ) :   0.9852 B(  8-C , 10-C ) :   0.9315 B(  8-C , 11-H ) :   0.9779
B( 10-C , 12-C ) :   0.9155 B( 10-C , 13-H ) :   0.9910 B( 10-C , 14-H ) :   0.9907
B( 12-C , 15-C ) :   0.8920 B( 12-C , 16-H ) :   0.9916 B( 12-C , 17-H ) :   0.9803
B( 15-C , 18-H ) :   0.9799 B( 15-C , 19-C ) :   0.9399 B( 15-C , 20-H ) :   0.9746
B( 19-C , 21-H ) :   0.9805 B( 19-C , 22-H ) :   0.9758 B( 19-C , 23-C ) :   0.9260
B( 23-C , 24-H ) :   0.9796 B( 23-C , 25-H ) :   0.9684 B( 23-C , 26-O ) :   1.0649
B( 26-O , 34-H ) :   0.2253 B( 26-O , 35-H ) :   0.2208 B( 29-C , 30-N ) :   1.3501
B( 29-C , 31-N ) :   1.1565 B( 30-N , 35-H ) :   0.7329 B( 30-N , 36-H ) :   0.9213
B( 31-N , 32-H ) :   0.9063 B( 31-N , 33-H ) :   0.9158

Dispersion correction           -0.002354121
FINAL SINGLE POINT ENERGY      -634.335640611021

DIPOLE MOMENT
-------------
                                X             Y             Z
Electronic contribution:      3.63871      -2.06054      11.38320
Nuclear contribution   :     -0.74583       2.62534      -9.91488
                        -----------------------------------------
Total Dipole Moment    :      2.89288       0.56480       1.46832
                        -----------------------------------------
Magnitude (a.u.)       :      3.29298
Magnitude (Debye)      :      8.37009

Rotational constants in cm-1:     0.027028     0.016098     0.010898
Rotational constants in MHz :   810.278072   482.590922   326.703462

                             ****ORCA TERMINATED NORMALLY****
TOTAL RUN TIME: 0 days 0 hours 1 minutes 40 seconds 536 msec
