                         Program Version 5.0.0 -  RELEASE  -
|  1> !M062X D3Zero RIJCOSX def2-TZVP def2/J TightSCF
|  2> *xyz 0 1
|  3> C         -0.72184       -0.99951       -3.43931
|  4> C          0.28725       -1.71177       -2.52740
|  5> H          1.13178       -2.06738       -3.15940
|  6> H         -0.20414       -2.63733       -2.17048
|  7> F          0.71050       -0.92751       -1.48177
|  8> H         -1.01315       -1.65739       -4.23129
|  9> H         -0.27123       -0.12142       -3.85259
| 10> H         -1.58442       -0.72333       -2.86958
| 11> *
| 12> %MaxCore 64000
| 13>
| 14> %pal nprocs 4
| 15> end
| 16>
| 17> %scf
| 18>   MaxIter 150
| 19> end
| 20>
| 21>
| 22>                          ****END OF INPUT****

CARTESIAN COORDINATES (ANGSTROEM)
---------------------------------
  C     -0.721840   -0.999510   -3.439310
  C      0.287250   -1.711770   -2.527400
  H      1.131780   -2.067380   -3.159400
  H     -0.204140   -2.637330   -2.170480
  F      0.710500   -0.927510   -1.481770
  H     -1.013150   -1.657390   -4.231290
  H     -0.271230   -0.121420   -3.852590
  H     -1.584420   -0.723330   -2.869580

 Total Charge           Charge          ....    0
 Multiplicity           Mult            ....    1
 Number of Electrons    NEL             ....   26
 Basis Dimension        Dim             ....  123

ORBITAL ENERGIES
----------------

  NO   OCC          E(Eh)            E(eV)
   0   2.0000     -25.229805      -686.5379
   1   2.0000     -10.614304      -288.8299
   2   2.0000     -10.528883      -286.5055
   3   2.0000      -1.339358       -36.4458
   4   2.0000      -0.863711       -23.5028
   5   2.0000      -0.722351       -19.6562
   6   2.0000      -0.588218       -16.0062
   7   2.0000      -0.580433       -15.7944
   8   2.0000      -0.544100       -14.8057
   9   2.0000      -0.482372       -13.1260
  10   2.0000      -0.468260       -12.7420
  11   2.0000      -0.406388       -11.0584
  12   2.0000      -0.399624       -10.8743
  13   0.0000       0.073915         2.0113
  14   0.0000       0.113037         3.0759
  15   0.0000       0.133497         3.6326
  16   0.0000       0.136032         3.7016
  17   0.0000       0.147271         4.0074

MULLIKEN ATOMIC CHARGES
-----------------------
   0 C :   -0.391501
   1 C :    0.003391
   2 H :    0.111212
   3 H :    0.110256
   4 F :   -0.239165
   5 H :    0.128673
   6 H :    0.138483
   7 H :    0.138651
Sum of atomic charges:    0.0000000

LOEWDIN ATOMIC CHARGES
----------------------
   0 C :   -0.310857
   1 C :   -0.364111
   2 H :    0.118203
   3 H :    0.117534
   4 F :    0.082399
   5 H :    0.121703
   6 H :    0.117417
   7 H :    0.117711

  Mayer bond orders larger than 0.100000
B(  0-C ,  1-C ) :   0.9712 B(  0-C ,  5-H ) :   0.9597 B(  0-C ,  6-H ) :   0.9695
B(  0-C ,  7-H ) :   0.9693 B(  1-C ,  2-H ) :   0.9761 B(  1-C ,  3-H ) :   0.9766
B(  1-C ,  4-F ) :   0.9688

Dispersion correction           -0.000019027
FINAL SINGLE POINT ENERGY      -179.051382497070

DIPOLE MOMENT
-------------
                                X             Y             Z
Electronic contribution:      2.69925       1.04068       4.21529
Nuclear contribution   :     -2.97459      -1.40206      -4.79987
                        -----------------------------------------
Total Dipole Moment    :     -0.27534      -0.36138      -0.58458
                        -----------------------------------------
Magnitude (a.u.)       :      0.74036
Magnitude (Debye)      :      1.88185

Rotational constants in cm-1:     1.257024     0.302702     0.267953
Rotational constants in MHz : 37684.643733  9074.792567  8033.038070

                             ****ORCA TERMINATED NORMALLY****
TOTAL RUN TIME: 0 days 0 hours 0 minutes 10 seconds 782 msec
