                         Program Version 5.0.0 -  RELEASE  -
|  1> !M062X D3Zero RIJCOSX def2-TZVP def2/J TightSCF
|  2> *xyz 0 1
|  3> C          3.48828        1.60092       -1.52204
|  4> C          4.34297        1.31342       -2.75683
|  5> C          2.81029        0.42878       -1.01420
|  6> H          2.71455        2.33145       -1.76030
|  7> H          4.09099        2.06315       -0.73338
|  8> C          3.29098       -0.41802       -0.12908
|  9> N          2.51754       -1.43202        0.23936
| 10> N          4.53549       -0.28441        0.39580
| 11> H          5.04363        0.57189        0.22290
| 12> H          4.72335       -0.73327        1.28180
| 13> H          1.93479        0.10230       -1.40379
| 14> H          1.67464       -1.50562       -0.31610
| 15> H          2.92850       -2.21850        0.72549
| 16> H          3.73575        0.86277       -3.51385
| 17> H          5.13754        0.64699       -2.49333
| 18> H          4.75374        2.22930       -3.12740
| 19> *
| 20> %MaxCore 64000
| 21>
| 22> %pal nprocs 4
| 23> end
| 24>
| 25> %scf
| 26>   MaxIter 150
| 27> end
| 28>
| 29>
| 30>                          ****END OF INPUT****

CARTESIAN COORDINATES (ANGSTROEM)
---------------------------------
  C      3.488280    1.600920   -1.522040
  C      4.342970    1.313420   -2.756830
  C      2.810290    0.428780   -1.014200
  H      2.714550    2.331450   -1.760300
  H      4.090990    2.063150   -0.733380
  C      3.290980   -0.418020   -0.129080
  N      2.517540   -1.432020    0.239360
  N      4.535490   -0.284410    0.395800
  H      5.043630    0.571890    0.222900
  H      4.723350   -0.733270    1.281800
  H      1.934790    0.102300   -1.403790
  H      1.674640   -1.505620   -0.316100
  H      2.928500   -2.218500    0.725490
  H      3.735750    0.862770   -3.513850
  H      5.137540    0.646990   -2.493330
  H      4.753740    2.229300   -3.127400

 Total Charge           Charge          ....    0
 Multiplicity           Mult            ....    1
 Number of Electrons    NEL             ....   48
 Basis Dimension        Dim             ....  246

ORBITAL ENERGIES
----------------

  NO   OCC          E(Eh)            E(eV)
   0   2.0000     -14.746392      -401.2697
   1   2.0000     -14.741404      -401.1340
   2   2.0000     -10.577233      -287.8212
   3   2.0000     -10.510377      -286.0019
   4   2.0000     -10.497908      -285.6626
   5   2.0000     -10.458326      -284.5855
   6   2.0000      -1.069592       -29.1051
   7   2.0000      -0.974341       -26.5132
   8   2.0000      -0.873919       -23.7806
   9   2.0000      -0.788198       -21.4480
  10   2.0000      -0.699856       -19.0441
  11   2.0000      -0.657891       -17.9021
  12   2.0000      -0.611082       -16.6284
  13   2.0000      -0.584389       -15.9020
  14   2.0000      -0.532844       -14.4994
  15   2.0000      -0.507632       -13.8134
  16   2.0000      -0.485676       -13.2159
  17   2.0000      -0.469081       -12.7644
  18   2.0000      -0.446965       -12.1625
  19   2.0000      -0.415191       -11.2979
  20   2.0000      -0.393355       -10.7037
  21   2.0000      -0.381356       -10.3772
  22   2.0000      -0.332179        -9.0391
  23   2.0000      -0.214782        -5.8445
  24   0.0000       0.051870         1.4115
  25   0.0000       0.081752         2.2246
  26   0.0000       0.090888         2.4732
  27   0.0000       0.109170         2.9707
  28   0.0000       0.119773         3.2592

MULLIKEN ATOMIC CHARGES
-----------------------
   0 C :   -0.373434
   1 C :   -0.347454
   2 C :   -0.279234
   3 H :    0.130441
   4 H :    0.105938
   5 C :    0.455033
   6 N :   -0.552925
   7 N :   -0.577780
   8 H :    0.254384
   9 H :    0.231309
  10 H :    0.100235
  11 H :    0.246480
  12 H :    0.235281
  13 H :    0.127030
  14 H :    0.123699
  15 H :    0.120997
Sum of atomic charges:   -0.0000000

LOEWDIN ATOMIC CHARGES
----------------------
   0 C :   -0.311542
   1 C :   -0.303387
   2 C :   -0.279139
   3 H :    0.140989
   4 H :    0.129618
   5 C :   -0.453480
   6 N :   -0.026974
   7 N :   -0.037821
   8 H :    0.172157
   9 H :    0.162026
  10 H :    0.121764
  11 H :    0.183337
  12 H :    0.164616
  13 H :    0.115340
  14 H :    0.113523
  15 H :    0.108973

  Mayer bond orders larger than 0.100000
B(  0-C ,  1-C ) :   0.9248 B(  0-C ,  2-C ) :   0.9914 B(  0-C ,  3-H ) :   0.9917
B(  0-C ,  4-H ) :   0.9965 B(  1-C , 13-H ) :   0.9797 B(  1-C , 14-H ) :   0.9700
B(  1-C , 15-H ) :   0.9830 B(  2-C ,  5-C ) :   1.6690 B(  2-C , 10-H ) :   0.9806
B(  5-C ,  6-N ) :   1.0814 B(  5-C ,  7-N ) :   1.0627 B(  6-N , 11-H ) :   0.9260
B(  6-N , 12-H ) :   0.9287 B(  7-N ,  8-H ) :   0.9228 B(  7-N ,  9-H ) :   0.9288

Dispersion correction           -0.000316540
FINAL SINGLE POINT ENERGY      -267.889890968537

DIPOLE MOMENT
-------------
                                X             Y             Z
Electronic contribution:     -1.26492      -2.93901       3.67241
Nuclear contribution   :      1.44676       2.38443      -3.07370
                        -----------------------------------------
Total Dipole Moment    :      0.18184      -0.55458       0.59871
                        -----------------------------------------
Magnitude (a.u.)       :      0.83611
Magnitude (Debye)      :      2.12522

Rotational constants in cm-1:     0.235977     0.073199     0.063283
Rotational constants in MHz :  7074.404583  2194.453291  1897.179599

                             ****ORCA TERMINATED NORMALLY****
TOTAL RUN TIME: 0 days 0 hours 0 minutes 37 seconds 462 msec
