                         Program Version 5.0.0 -  RELEASE  -
|  1> !M062X D3Zero RIJCOSX def2-TZVP def2/J TightSCF
|  2> *xyz 0 1
|  3> C          3.48828        1.60092       -1.52204
|  4> C          4.34297        1.31342       -2.75683
|  5> N          2.81029        0.42878       -1.01420
|  6> H          2.71455        2.33145       -1.76030
|  7> H          4.09099        2.06315       -0.73338
|  8> C          3.29098       -0.41802       -0.12908
|  9> C          2.51754       -1.43202        0.23936
| 10> N          4.53549       -0.28441        0.39580
| 11> H          5.04363        0.57189        0.22290
| 12> H          4.72335       -0.73327        1.28180
| 13> H          1.93479        0.10230       -1.40379
| 14> H          1.67464       -1.50562       -0.31610
| 15> H          2.92850       -2.21850        0.72549
| 16> H          3.73575        0.86277       -3.51385
| 17> H          5.13754        0.64699       -2.49333
| 18> H          4.75374        2.22930       -3.12740
| 19> *
| 20> %MaxCore 64000
| 21>
| 22> %pal nprocs 4
| 23> end
| 24>
| 25> %scf
| 26>   MaxIter 150
| 27> end
| 28>
| 29>
| 30>                          ****END OF INPUT****

CARTESIAN COORDINATES (ANGSTROEM)
---------------------------------
  C      3.488280    1.600920   -1.522040
  C      4.342970    1.313420   -2.756830
  N      2.810290    0.428780   -1.014200
  H      2.714550    2.331450   -1.760300
  H      4.090990    2.063150   -0.733380
  C      3.290980   -0.418020   -0.129080
  C      2.517540   -1.432020    0.239360
  N      4.535490   -0.284410    0.395800
  H      5.043630    0.571890    0.222900
  H      4.723350   -0.733270    1.281800
  H      1.934790    0.102300   -1.403790
  H      1.674640   -1.505620   -0.316100
  H      2.928500   -2.218500    0.725490
  H      3.735750    0.862770   -3.513850
  H      5.137540    0.646990   -2.493330
  H      4.753740    2.229300   -3.127400

 Total Charge           Charge          ....    0
 Multiplicity           Mult            ....    1
 Number of Electrons    NEL             ....   48
 Basis Dimension        Dim             ....  246

ORBITAL ENERGIES
----------------

  NO   OCC          E(Eh)            E(eV)
   0   2.0000     -14.747714      -401.3057
   1   2.0000     -14.746551      -401.2741
   2   2.0000     -10.581862      -287.9471
   3   2.0000     -10.578809      -287.8640
   4   2.0000     -10.524306      -286.3809
   5   2.0000     -10.443905      -284.1931
   6   2.0000      -1.081466       -29.4282
   7   2.0000      -0.988805       -26.9068
   8   2.0000      -0.873298       -23.7636
   9   2.0000      -0.795815       -21.6552
  10   2.0000      -0.716370       -19.4934
  11   2.0000      -0.678120       -18.4526
  12   2.0000      -0.610295       -16.6070
  13   2.0000      -0.572883       -15.5890
  14   2.0000      -0.547883       -14.9087
  15   2.0000      -0.508489       -13.8367
  16   2.0000      -0.501256       -13.6399
  17   2.0000      -0.471935       -12.8420
  18   2.0000      -0.444506       -12.0956
  19   2.0000      -0.435307       -11.8453
  20   2.0000      -0.429287       -11.6815
  21   2.0000      -0.419888       -11.4257
  22   2.0000      -0.322728        -8.7819
  23   2.0000      -0.214302        -5.8314
  24   0.0000       0.051372         1.3979
  25   0.0000       0.077703         2.1144
  26   0.0000       0.088169         2.3992
  27   0.0000       0.108975         2.9654
  28   0.0000       0.118647         3.2285

MULLIKEN ATOMIC CHARGES
-----------------------
   0 C :   -0.251460
   1 C :   -0.323800
   2 N :   -0.355893
   3 H :    0.144653
   4 H :    0.132568
   5 C :    0.467635
   6 C :   -0.534835
   7 N :   -0.566032
   8 H :    0.236877
   9 H :    0.257774
  10 H :    0.237155
  11 H :    0.062108
  12 H :    0.104319
  13 H :    0.129182
  14 H :    0.132341
  15 H :    0.127407
Sum of atomic charges:   -0.0000000

LOEWDIN ATOMIC CHARGES
----------------------
   0 C :   -0.319006
   1 C :   -0.305947
   2 N :    0.119353
   3 H :    0.133135
   4 H :    0.128201
   5 C :   -0.457574
   6 C :   -0.346355
   7 N :   -0.033198
   8 H :    0.159158
   9 H :    0.178287
  10 H :    0.199647
  11 H :    0.097409
  12 H :    0.097190
  13 H :    0.116702
  14 H :    0.117073
  15 H :    0.115924

  Mayer bond orders larger than 0.100000
B(  0-C ,  1-C ) :   0.9224 B(  0-C ,  2-N ) :   0.9271 B(  0-C ,  3-H ) :   0.9797
B(  0-C ,  4-H ) :   0.9889 B(  1-C , 13-H ) :   0.9735 B(  1-C , 14-H ) :   0.9629
B(  1-C , 15-H ) :   0.9749 B(  2-N ,  5-C ) :   1.1556 B(  2-N , 10-H ) :   0.9244
B(  5-C ,  6-C ) :   1.6446 B(  5-C ,  7-N ) :   1.0633 B(  6-C , 11-H ) :   1.0158
B(  6-C , 12-H ) :   1.0083 B(  7-N ,  8-H ) :   0.9250 B(  7-N ,  9-H ) :   0.9247

Dispersion correction           -0.000312887
FINAL SINGLE POINT ENERGY      -267.877914969566

DIPOLE MOMENT
-------------
                                X             Y             Z
Electronic contribution:     -0.86868      -1.04313       2.42586
Nuclear contribution   :      1.38466       1.98967      -2.80776
                        -----------------------------------------
Total Dipole Moment    :      0.51597       0.94654      -0.38190
                        -----------------------------------------
Magnitude (a.u.)       :      1.14368
Magnitude (Debye)      :      2.90701

Rotational constants in cm-1:     0.235618     0.075969     0.065309
Rotational constants in MHz :  7063.646698  2277.495424  1957.925383

                             ****ORCA TERMINATED NORMALLY****
TOTAL RUN TIME: 0 days 0 hours 0 minutes 39 seconds 208 msec
