                         Program Version 5.0.0 -  RELEASE  -
|  1> !M062X D3Zero RIJCOSX def2-TZVP def2/J TightSCF
|  2> *xyz 0 1
|  3> C          3.48828        1.60092       -1.52204
|  4> C          4.34297        1.31342       -2.75683
|  5> N          2.81029        0.42878       -1.01420
|  6> H          2.71455        2.33145       -1.76030
|  7> H          4.09099        2.06315       -0.73338
|  8> C          3.29098       -0.41802       -0.12908
|  9> N          2.51754       -1.43202        0.23936
| 10> C          4.53549       -0.28441        0.39580
| 11> H          5.04363        0.57189        0.22290
| 12> H          4.72335       -0.73327        1.28180
| 13> H          1.93479        0.10230       -1.40379
| 14> H          1.67464       -1.50562       -0.31610
| 15> H          2.92850       -2.21850        0.72549
| 16> H          3.73575        0.86277       -3.51385
| 17> H          5.13754        0.64699       -2.49333
| 18> H          4.75374        2.22930       -3.12740
| 19> *
| 20> %MaxCore 64000
| 21>
| 22> %pal nprocs 4
| 23> end
| 24>
| 25> %scf
| 26>   MaxIter 150
| 27> end
| 28>
| 29>
| 30>                          ****END OF INPUT****

CARTESIAN COORDINATES (ANGSTROEM)
---------------------------------
  C      3.488280    1.600920   -1.522040
  C      4.342970    1.313420   -2.756830
  N      2.810290    0.428780   -1.014200
  H      2.714550    2.331450   -1.760300
  H      4.090990    2.063150   -0.733380
  C      3.290980   -0.418020   -0.129080
  N      2.517540   -1.432020    0.239360
  C      4.535490   -0.284410    0.395800
  H      5.043630    0.571890    0.222900
  H      4.723350   -0.733270    1.281800
  H      1.934790    0.102300   -1.403790
  H      1.674640   -1.505620   -0.316100
  H      2.928500   -2.218500    0.725490
  H      3.735750    0.862770   -3.513850
  H      5.137540    0.646990   -2.493330
  H      4.753740    2.229300   -3.127400

 Total Charge           Charge          ....    0
 Multiplicity           Mult            ....    1
 Number of Electrons    NEL             ....   48
 Basis Dimension        Dim             ....  246

ORBITAL ENERGIES
----------------

  NO   OCC          E(Eh)            E(eV)
   0   2.0000     -14.753523      -401.4638
   1   2.0000     -14.748286      -401.3213
   2   2.0000     -10.584939      -288.0308
   3   2.0000     -10.571200      -287.6570
   4   2.0000     -10.516545      -286.1697
   5   2.0000     -10.444995      -284.2228
   6   2.0000      -1.090847       -29.6835
   7   2.0000      -0.994375       -27.0583
   8   2.0000      -0.852654       -23.2019
   9   2.0000      -0.799610       -21.7585
  10   2.0000      -0.730944       -19.8900
  11   2.0000      -0.642688       -17.4884
  12   2.0000      -0.617173       -16.7941
  13   2.0000      -0.604432       -16.4474
  14   2.0000      -0.536065       -14.5871
  15   2.0000      -0.509039       -13.8516
  16   2.0000      -0.499057       -13.5800
  17   2.0000      -0.459572       -12.5056
  18   2.0000      -0.444077       -12.0839
  19   2.0000      -0.433850       -11.8057
  20   2.0000      -0.425971       -11.5912
  21   2.0000      -0.409889       -11.1536
  22   2.0000      -0.315997        -8.5987
  23   2.0000      -0.216955        -5.9037
  24   0.0000       0.046484         1.2649
  25   0.0000       0.080863         2.2004
  26   0.0000       0.091929         2.5015
  27   0.0000       0.109568         2.9815
  28   0.0000       0.124088         3.3766

MULLIKEN ATOMIC CHARGES
-----------------------
   0 C :   -0.213505
   1 C :   -0.349408
   2 N :   -0.367576
   3 H :    0.138235
   4 H :    0.154394
   5 C :    0.450849
   6 N :   -0.537832
   7 C :   -0.555085
   8 H :    0.088542
   9 H :    0.101299
  10 H :    0.203641
  11 H :    0.215281
  12 H :    0.266228
  13 H :    0.117947
  14 H :    0.157420
  15 H :    0.129571
Sum of atomic charges:   -0.0000000

LOEWDIN ATOMIC CHARGES
----------------------
   0 C :   -0.301213
   1 C :   -0.303652
   2 N :    0.116677
   3 H :    0.130748
   4 H :    0.139029
   5 C :   -0.468317
   6 N :   -0.017642
   7 C :   -0.366029
   8 H :    0.093856
   9 H :    0.095375
  10 H :    0.180060
  11 H :    0.164679
  12 H :    0.183008
  13 H :    0.113211
  14 H :    0.123288
  15 H :    0.116922

  Mayer bond orders larger than 0.100000
B(  0-C ,  1-C ) :   0.9327 B(  0-C ,  2-N ) :   0.9025 B(  0-C ,  3-H ) :   0.9804
B(  0-C ,  4-H ) :   0.9775 B(  1-C , 13-H ) :   0.9739 B(  1-C , 14-H ) :   0.9646
B(  1-C , 15-H ) :   0.9770 B(  2-N ,  5-C ) :   1.1541 B(  2-N , 10-H ) :   0.9318
B(  5-C ,  6-N ) :   1.0853 B(  5-C ,  7-C ) :   1.6340 B(  6-N , 11-H ) :   0.9345
B(  6-N , 12-H ) :   0.9203 B(  7-C ,  8-H ) :   1.0149 B(  7-C ,  9-H ) :   1.0005

Dispersion correction           -0.000313964
FINAL SINGLE POINT ENERGY      -267.878065717979

DIPOLE MOMENT
-------------
                                X             Y             Z
Electronic contribution:     -2.85009      -2.30135       2.17412
Nuclear contribution   :      1.81275       2.23313      -2.77458
                        -----------------------------------------
Total Dipole Moment    :     -1.03733      -0.06822      -0.60046
                        -----------------------------------------
Magnitude (a.u.)       :      1.20053
Magnitude (Debye)      :      3.05150

Rotational constants in cm-1:     0.245202     0.073668     0.064348
Rotational constants in MHz :  7350.977980  2208.513334  1929.108541

                             ****ORCA TERMINATED NORMALLY****
TOTAL RUN TIME: 0 days 0 hours 0 minutes 37 seconds 466 msec
