                         Program Version 5.0.0 -  RELEASE  -
|  1> !M062X D3Zero RIJCOSX def2-TZVP def2/J TightSCF xyzfile
|  2>
|  3> *xyzfile 0 1 D1.xyz
|  4>
|  5> %MaxCore 64000
|  6>
|  7> %pal nprocs 18
|  8> end
|  9>
| 10> %scf
| 11>   MaxIter 150
| 12> end
| 13>
| 14>
| 15>                          ****END OF INPUT****

CARTESIAN COORDINATES (ANGSTROEM)
---------------------------------
  C      3.488276    1.600919   -1.522040
  C      4.342970    1.313419   -2.756826
  C      2.810285    0.428783   -1.014196
  H      5.132033    0.604994   -2.484466
  C      3.535896    0.749253   -3.924604
  H      4.841247    2.242136   -3.054083
  H      2.991617   -0.132199   -3.574137
  H      4.225505    0.392784   -4.695962
  C      2.564776    1.750890   -4.544523
  H      1.918749    2.171679   -3.769419
  C      1.686235    1.161657   -5.650111
  H      3.132494    2.594775   -4.951604
  C      0.839616   -0.037582   -5.220473
  H      2.323886    0.866395   -6.490796
  H      1.029518    1.951850   -6.029329
  C     -0.151019    0.254955   -4.094256
  H      1.499442   -0.857141   -4.922958
  H      0.290097   -0.410143   -6.091131
  H      0.328265    0.833022   -3.299125
  C     -0.721843   -0.999513   -3.439309
  H     -0.957367    0.884951   -4.485450
  H     -1.083403   -1.697555   -4.205656
  H     -1.581056   -0.723848   -2.820490
  C      0.287250   -1.711771   -2.527405
  H      1.131780   -2.067380   -3.159396
  H     -0.204137   -2.637326   -2.170480
  F      0.710505   -0.927506   -1.481767
  H      2.714548    2.331455   -1.760302
  H      4.090991    2.063151   -0.733382
  C      3.290978   -0.418021   -0.129083
  N      2.517536   -1.432017    0.239360
  N      4.535490   -0.284410    0.395800
  H      5.043627    0.571888    0.222899
  H      4.723346   -0.733273    1.281800
  H      1.934787    0.102305   -1.403788
  H      1.674638   -1.505616   -0.316095
  H      2.928503   -2.218502    0.725494

 Total Charge           Charge          ....    0
 Multiplicity           Mult            ....    1
 Number of Electrons    NEL             ....  112
 Basis Dimension        Dim             ....  572

ORBITAL ENERGIES
----------------

  NO   OCC          E(Eh)            E(eV)
   0   2.0000     -25.261208      -687.3924
   1   2.0000     -14.732188      -400.8832
   2   2.0000     -14.715647      -400.4331
   3   2.0000     -10.626018      -289.1486
   4   2.0000     -10.560297      -287.3603
   5   2.0000     -10.545988      -286.9709
   6   2.0000     -10.531144      -286.5670
   7   2.0000     -10.526792      -286.4486
   8   2.0000     -10.522248      -286.3249
   9   2.0000     -10.514409      -286.1116
  10   2.0000     -10.508852      -285.9604
  11   2.0000     -10.503851      -285.8243
  12   2.0000     -10.497210      -285.6436
  13   2.0000     -10.431866      -283.8655
  14   2.0000      -1.380675       -37.5701
  15   2.0000      -1.052011       -28.6267
  16   2.0000      -0.957856       -26.0646
  17   2.0000      -0.919781       -25.0285
  18   2.0000      -0.894260       -24.3340
  19   2.0000      -0.863332       -23.4925
  20   2.0000      -0.827647       -22.5214
  21   2.0000      -0.786487       -21.4014
  22   2.0000      -0.758170       -20.6309
  23   2.0000      -0.721417       -19.6308
  24   2.0000      -0.688474       -18.7343
  25   2.0000      -0.672358       -18.2958
  26   2.0000      -0.647405       -17.6168
  27   2.0000      -0.628516       -17.1028
  28   2.0000      -0.621443       -16.9103
  29   2.0000      -0.601489       -16.3673
  30   2.0000      -0.589416       -16.0388
  31   2.0000      -0.578932       -15.7535
  32   2.0000      -0.560482       -15.2515
  33   2.0000      -0.536582       -14.6011
  34   2.0000      -0.527472       -14.3532
  35   2.0000      -0.511570       -13.9205
  36   2.0000      -0.506608       -13.7855
  37   2.0000      -0.493289       -13.4231
  38   2.0000      -0.481747       -13.1090
  39   2.0000      -0.471663       -12.8346
  40   2.0000      -0.462615       -12.5884
  41   2.0000      -0.447131       -12.1671
  42   2.0000      -0.436925       -11.8893
  43   2.0000      -0.432047       -11.7566
  44   2.0000      -0.424715       -11.5571
  45   2.0000      -0.420728       -11.4486
  46   2.0000      -0.399971       -10.8838
  47   2.0000      -0.392175       -10.6716
  48   2.0000      -0.380616       -10.3571
  49   2.0000      -0.378461       -10.2985
  50   2.0000      -0.372925       -10.1478
  51   2.0000      -0.358154        -9.7459
  52   2.0000      -0.352501        -9.5920
  53   2.0000      -0.347433        -9.4541
  54   2.0000      -0.315080        -8.5738
  55   2.0000      -0.197931        -5.3860
  56   0.0000       0.058900         1.6028
  57   0.0000       0.067933         1.8485
  58   0.0000       0.075858         2.0642
  59   0.0000       0.083041         2.2597
  60   0.0000       0.093178         2.5355

MULLIKEN ATOMIC CHARGES
-----------------------
   0 C :   -0.495285
   1 C :   -0.200766
   2 C :   -0.314314
   3 H :    0.138698
   4 C :   -0.275454
   5 H :    0.126082
   6 H :    0.139131
   7 H :    0.142380
   8 C :   -0.323698
   9 H :    0.156844
  10 C :   -0.263824
  11 H :    0.142469
  12 C :   -0.321388
  13 H :    0.145693
  14 H :    0.144830
  15 C :   -0.308494
  16 H :    0.150570
  17 H :    0.147455
  18 H :    0.175979
  19 C :   -0.256361
  20 H :    0.148885
  21 H :    0.151294
  22 H :    0.151835
  23 C :   -0.099878
  24 H :    0.152008
  25 H :    0.147354
  26 F :   -0.240034
  27 H :    0.161123
  28 H :    0.133172
  29 C :    0.460983
  30 N :   -0.590512
  31 N :   -0.582451
  32 H :    0.250944
  33 H :    0.226819
  34 H :    0.176078
  35 H :    0.277537
  36 H :    0.224299
Sum of atomic charges:   -0.0000000

LOEWDIN ATOMIC CHARGES
----------------------
   0 C :   -0.292743
   1 C :   -0.267236
   2 C :   -0.284365
   3 H :    0.136077
   4 C :   -0.271183
   5 H :    0.130522
   6 H :    0.135295
   7 H :    0.135695
   8 C :   -0.273871
   9 H :    0.134605
  10 C :   -0.272951
  11 H :    0.138137
  12 C :   -0.275835
  13 H :    0.138145
  14 H :    0.137521
  15 C :   -0.271679
  16 H :    0.133414
  17 H :    0.137038
  18 H :    0.144123
  19 C :   -0.275865
  20 H :    0.140073
  21 H :    0.146277
  22 H :    0.142105
  23 C :   -0.342839
  24 H :    0.127959
  25 H :    0.127354
  26 F :    0.135456
  27 H :    0.140509
  28 H :    0.131247
  29 C :   -0.454651
  30 N :   -0.035483
  31 N :   -0.042678
  32 H :    0.169938
  33 H :    0.159108
  34 H :    0.117800
  35 H :    0.164799
  36 H :    0.158182

  Mayer bond orders larger than 0.100000
B(  0-C ,  1-C ) :   0.8739 B(  0-C ,  2-C ) :   0.8819 B(  0-C , 27-H ) :   1.0252
B(  0-C , 28-H ) :   1.0144 B(  1-C ,  3-H ) :   0.9801 B(  1-C ,  4-C ) :   0.9365
B(  1-C ,  5-H ) :   0.9960 B(  2-C , 29-C ) :   1.6698 B(  2-C , 34-H ) :   0.9766
B(  4-C ,  6-H ) :   0.9755 B(  4-C ,  7-H ) :   0.9838 B(  4-C ,  8-C ) :   0.8854
B(  8-C ,  9-H ) :   0.9924 B(  8-C , 10-C ) :   0.9195 B(  8-C , 11-H ) :   0.9795
B( 10-C , 12-C ) :   0.9245 B( 10-C , 13-H ) :   0.9880 B( 10-C , 14-H ) :   0.9920
B( 12-C , 15-C ) :   0.8770 B( 12-C , 16-H ) :   0.9926 B( 12-C , 17-H ) :   0.9773
B( 15-C , 18-H ) :   0.9893 B( 15-C , 19-C ) :   0.9168 B( 15-C , 20-H ) :   0.9710
B( 19-C , 21-H ) :   0.9725 B( 19-C , 22-H ) :   0.9772 B( 19-C , 23-C ) :   0.9536
B( 23-C , 24-H ) :   0.9824 B( 23-C , 25-H ) :   0.9728 B( 23-C , 26-F ) :   0.8768
B( 29-C , 30-N ) :   1.0977 B( 29-C , 31-N ) :   1.0570 B( 30-N , 35-H ) :   0.8945
B( 30-N , 36-H ) :   0.9344 B( 31-N , 32-H ) :   0.9227 B( 31-N , 33-H ) :   0.9306

Dispersion correction           -0.002330389
FINAL SINGLE POINT ENERGY      -642.264245124599

DIPOLE MOMENT
-------------
                                X             Y             Z
Electronic contribution:     -1.56429      -4.87694      10.73457
Nuclear contribution   :      1.15699       3.94991     -10.89335
                        -----------------------------------------
Total Dipole Moment    :     -0.40731      -0.92703      -0.15878
                        -----------------------------------------
Magnitude (a.u.)       :      1.02494
Magnitude (Debye)      :      2.60518

Rotational constants in cm-1:     0.026548     0.016177     0.010851
Rotational constants in MHz :   795.884848   484.988695   325.313537

                             ****ORCA TERMINATED NORMALLY****
TOTAL RUN TIME: 0 days 0 hours 1 minutes 27 seconds 39 msec
