                         Program Version 5.0.0 -  RELEASE  -
|  1> !M062X D3Zero RIJCOSX def2-TZVP def2/J TightSCF xyzfile
|  2>
|  3> *xyzfile 0 1 D2.xyz
|  4>
|  5> %MaxCore 64000
|  6>
|  7> %pal nprocs 18
|  8> end
|  9>
| 10> %scf
| 11>   MaxIter 150
| 12> end
| 13>
| 14>
| 15>                          ****END OF INPUT****

CARTESIAN COORDINATES (ANGSTROEM)
---------------------------------
  C      3.488276    1.600919   -1.522040
  C      4.342970    1.313419   -2.756826
  N      2.810285    0.428783   -1.014196
  H      5.132033    0.604994   -2.484466
  C      3.535896    0.749253   -3.924604
  H      4.841247    2.242136   -3.054083
  H      2.991617   -0.132199   -3.574137
  H      4.225505    0.392784   -4.695962
  C      2.564776    1.750890   -4.544523
  H      1.918749    2.171679   -3.769419
  C      1.686235    1.161657   -5.650111
  H      3.132494    2.594775   -4.951604
  C      0.839616   -0.037582   -5.220473
  H      2.323886    0.866395   -6.490796
  H      1.029518    1.951850   -6.029329
  C     -0.151019    0.254955   -4.094256
  H      1.499442   -0.857141   -4.922958
  H      0.290097   -0.410143   -6.091131
  H      0.328265    0.833022   -3.299125
  C     -0.721843   -0.999513   -3.439309
  H     -0.957367    0.884951   -4.485450
  H     -1.083403   -1.697555   -4.205656
  H     -1.581056   -0.723848   -2.820490
  C      0.287250   -1.711771   -2.527405
  H      1.131780   -2.067380   -3.159396
  H     -0.204137   -2.637326   -2.170480
  F      0.710505   -0.927506   -1.481767
  H      2.714548    2.331455   -1.760302
  H      4.090991    2.063151   -0.733382
  C      3.290978   -0.418021   -0.129083
  C      2.517536   -1.432017    0.239360
  N      4.535490   -0.284410    0.395800
  H      5.043627    0.571888    0.222899
  H      4.723346   -0.733273    1.281800
  H      1.934787    0.102305   -1.403788
  H      1.674638   -1.505616   -0.316095
  H      2.928503   -2.218502    0.725494

 Total Charge           Charge          ....    0
 Multiplicity           Mult            ....    1
 Number of Electrons    NEL             ....  112
 Basis Dimension        Dim             ....  572

ORBITAL ENERGIES
----------------

  NO   OCC          E(Eh)            E(eV)
   0   2.0000     -25.259311      -687.3408
   1   2.0000     -14.730793      -400.8453
   2   2.0000     -14.721414      -400.5900
   3   2.0000     -10.625047      -289.1222
   4   2.0000     -10.562913      -287.4315
   5   2.0000     -10.562883      -287.4307
   6   2.0000     -10.548100      -287.0284
   7   2.0000     -10.538403      -286.7645
   8   2.0000     -10.534567      -286.6601
   9   2.0000     -10.532545      -286.6051
  10   2.0000     -10.529327      -286.5176
  11   2.0000     -10.527370      -286.4643
  12   2.0000     -10.526507      -286.4408
  13   2.0000     -10.416902      -283.4583
  14   2.0000      -1.378687       -37.5160
  15   2.0000      -1.062874       -28.9223
  16   2.0000      -0.972987       -26.4763
  17   2.0000      -0.927826       -25.2474
  18   2.0000      -0.899208       -24.4687
  19   2.0000      -0.870839       -23.6967
  20   2.0000      -0.822982       -22.3945
  21   2.0000      -0.798166       -21.7192
  22   2.0000      -0.761760       -20.7285
  23   2.0000      -0.732281       -19.9264
  24   2.0000      -0.697130       -18.9699
  25   2.0000      -0.679962       -18.5027
  26   2.0000      -0.659573       -17.9479
  27   2.0000      -0.640065       -17.4170
  28   2.0000      -0.621507       -16.9121
  29   2.0000      -0.605990       -16.4898
  30   2.0000      -0.587030       -15.9739
  31   2.0000      -0.577659       -15.7189
  32   2.0000      -0.557229       -15.1630
  33   2.0000      -0.546145       -14.8614
  34   2.0000      -0.540777       -14.7153
  35   2.0000      -0.524278       -14.2663
  36   2.0000      -0.508716       -13.8429
  37   2.0000      -0.500374       -13.6159
  38   2.0000      -0.497319       -13.5327
  39   2.0000      -0.480864       -13.0850
  40   2.0000      -0.463705       -12.6181
  41   2.0000      -0.448392       -12.2014
  42   2.0000      -0.439177       -11.9506
  43   2.0000      -0.436194       -11.8694
  44   2.0000      -0.431246       -11.7348
  45   2.0000      -0.423757       -11.5310
  46   2.0000      -0.409857       -11.1528
  47   2.0000      -0.403884       -10.9902
  48   2.0000      -0.399893       -10.8816
  49   2.0000      -0.390410       -10.6236
  50   2.0000      -0.384686       -10.4678
  51   2.0000      -0.374589       -10.1931
  52   2.0000      -0.372116       -10.1258
  53   2.0000      -0.368335       -10.0229
  54   2.0000      -0.305147        -8.3035
  55   2.0000      -0.195252        -5.3131
  56   0.0000       0.056978         1.5505
  57   0.0000       0.064414         1.7528
  58   0.0000       0.071357         1.9417
  59   0.0000       0.077250         2.1021
  60   0.0000       0.085847         2.3360

MULLIKEN ATOMIC CHARGES
-----------------------
   0 C :   -0.383985
   1 C :   -0.162617
   2 N :   -0.357808
   3 H :    0.149678
   4 C :   -0.328814
   5 H :    0.133556
   6 H :    0.147905
   7 H :    0.151464
   8 C :   -0.307734
   9 H :    0.150102
  10 C :   -0.267355
  11 H :    0.146544
  12 C :   -0.324874
  13 H :    0.149689
  14 H :    0.148721
  15 C :   -0.310832
  16 H :    0.154610
  17 H :    0.151721
  18 H :    0.160973
  19 C :   -0.258724
  20 H :    0.151966
  21 H :    0.152053
  22 H :    0.154632
  23 C :   -0.081947
  24 H :    0.149494
  25 H :    0.153426
  26 F :   -0.241766
  27 H :    0.181426
  28 H :    0.156370
  29 C :    0.471663
  30 C :   -0.580952
  31 N :   -0.578185
  32 H :    0.234062
  33 H :    0.253646
  34 H :    0.279967
  35 H :    0.100003
  36 H :    0.101921
Sum of atomic charges:    0.0000000

LOEWDIN ATOMIC CHARGES
----------------------
   0 C :   -0.302226
   1 C :   -0.275010
   2 N :    0.119548
   3 H :    0.139372
   4 C :   -0.273152
   5 H :    0.136783
   6 H :    0.135550
   7 H :    0.140042
   8 C :   -0.275498
   9 H :    0.132803
  10 C :   -0.271638
  11 H :    0.139341
  12 C :   -0.275306
  13 H :    0.139447
  14 H :    0.138925
  15 C :   -0.273426
  16 H :    0.133973
  17 H :    0.138831
  18 H :    0.138810
  19 C :   -0.276435
  20 H :    0.140883
  21 H :    0.146609
  22 H :    0.142780
  23 C :   -0.337184
  24 H :    0.127568
  25 H :    0.131589
  26 F :    0.135544
  27 H :    0.133231
  28 H :    0.129923
  29 C :   -0.459128
  30 C :   -0.360258
  31 N :   -0.039003
  32 H :    0.156517
  33 H :    0.175479
  34 H :    0.178126
  35 H :    0.093971
  36 H :    0.092619

  Mayer bond orders larger than 0.100000
B(  0-C ,  1-C ) :   0.8538 B(  0-C ,  2-N ) :   0.9013 B(  0-C , 27-H ) :   0.9993
B(  0-C , 28-H ) :   1.0011 B(  1-C ,  3-H ) :   0.9724 B(  1-C ,  4-C ) :   0.9171
B(  1-C ,  5-H ) :   0.9868 B(  2-N , 29-C ) :   1.1690 B(  2-N , 34-H ) :   0.8831
B(  4-C ,  6-H ) :   0.9822 B(  4-C ,  7-H ) :   0.9792 B(  4-C ,  8-C ) :   0.8815
B(  8-C ,  9-H ) :   0.9905 B(  8-C , 10-C ) :   0.9235 B(  8-C , 11-H ) :   0.9787
B( 10-C , 12-C ) :   0.9195 B( 10-C , 13-H ) :   0.9880 B( 10-C , 14-H ) :   0.9916
B( 12-C , 15-C ) :   0.8726 B( 12-C , 16-H ) :   0.9942 B( 12-C , 17-H ) :   0.9767
B( 15-C , 18-H ) :   0.9961 B( 15-C , 19-C ) :   0.9134 B( 15-C , 20-H ) :   0.9703
B( 19-C , 21-H ) :   0.9719 B( 19-C , 22-H ) :   0.9780 B( 19-C , 23-C ) :   0.9496
B( 23-C , 24-H ) :   0.9803 B( 23-C , 25-H ) :   0.9774 B( 23-C , 26-F ) :   0.8655
B( 29-C , 30-C ) :   1.6442 B( 29-C , 31-N ) :   1.0398 B( 30-C , 35-H ) :   1.0366
B( 30-C , 36-H ) :   0.9987 B( 31-N , 32-H ) :   0.9248 B( 31-N , 33-H ) :   0.9274

Dispersion correction           -0.002338839
FINAL SINGLE POINT ENERGY      -642.252402888054

DIPOLE MOMENT
-------------
                                X             Y             Z
Electronic contribution:     -1.25918      -3.13307       9.44653
Nuclear contribution   :      1.09892       3.58083     -10.64472
                        -----------------------------------------
Total Dipole Moment    :     -0.16026       0.44776      -1.19819
                        -----------------------------------------
Magnitude (a.u.)       :      1.28912
Magnitude (Debye)      :      3.27669

Rotational constants in cm-1:     0.026768     0.016312     0.010954
Rotational constants in MHz :   802.489946   489.033275   328.388904

                             ****ORCA TERMINATED NORMALLY****
TOTAL RUN TIME: 0 days 0 hours 1 minutes 27 seconds 910 msec
