                         Program Version 5.0.0 -  RELEASE  -
|  1> !LC-BLYP RIJCOSX def2-TZVP def2/J TightSCF
|  2> *xyz -1 1
|  3> C          0.61188        1.65763       -4.50029
|  4> C          1.69499        1.54179       -5.57045
|  5> H          2.69733        1.73466       -5.18400
|  6> H          1.50666        2.27224       -6.35808
|  7> S          1.78029       -0.03313       -6.42874
|  8> O          2.56929        0.21366       -7.60736
|  9> O          0.41688       -0.46297       -6.61859
| 10> O          2.50513       -0.93326       -5.48257
| 11> H         -0.34424        1.45871       -4.93752
| 12> H          0.61845        2.64655       -4.09174
| 13> H          0.80247        0.94882       -3.72173
| 14> *
| 15> %MaxCore 64000
| 16>
| 17> %pal nprocs 4
| 18> end
| 19>
| 20> %scf
| 21>   MaxIter 150
| 22> end
| 23>
| 24>
| 25>                          ****END OF INPUT****

CARTESIAN COORDINATES (ANGSTROEM)
---------------------------------
  C      0.611880    1.657630   -4.500290
  C      1.694990    1.541790   -5.570450
  H      2.697330    1.734660   -5.184000
  H      1.506660    2.272240   -6.358080
  S      1.780290   -0.033130   -6.428740
  O      2.569290    0.213660   -7.607360
  O      0.416880   -0.462970   -6.618590
  O      2.505130   -0.933260   -5.482570
  H     -0.344240    1.458710   -4.937520
  H      0.618450    2.646550   -4.091740
  H      0.802470    0.948820   -3.721730

 Total Charge           Charge          ....   -1
 Multiplicity           Mult            ....    1
 Number of Electrons    NEL             ....   58
 Basis Dimension        Dim             ....  222

ORBITAL ENERGIES
----------------

  NO   OCC          E(Eh)            E(eV)
   0   2.0000     -88.251524     -2401.4461
   1   2.0000     -18.712959      -509.2055
   2   2.0000     -18.711963      -509.1784
   3   2.0000     -18.691990      -508.6349
   4   2.0000      -9.927151      -270.1315
   5   2.0000      -9.921967      -269.9904
   6   2.0000      -7.793499      -212.0719
   7   2.0000      -5.821675      -158.4158
   8   2.0000      -5.820544      -158.3850
   9   2.0000      -5.820163      -158.3747
  10   2.0000      -1.015740       -27.6397
  11   2.0000      -0.884588       -24.0709
  12   2.0000      -0.851099       -23.1596
  13   2.0000      -0.740731       -20.1563
  14   2.0000      -0.613928       -16.7058
  15   2.0000      -0.481795       -13.1103
  16   2.0000      -0.422892       -11.5075
  17   2.0000      -0.416457       -11.3324
  18   2.0000      -0.376120       -10.2347
  19   2.0000      -0.358914        -9.7666
  20   2.0000      -0.352478        -9.5914
  21   2.0000      -0.327152        -8.9023
  22   2.0000      -0.310228        -8.4417
  23   2.0000      -0.249223        -6.7817
  24   2.0000      -0.248019        -6.7489
  25   2.0000      -0.213339        -5.8052
  26   2.0000      -0.203971        -5.5503
  27   2.0000      -0.188444        -5.1278
  28   2.0000      -0.154311        -4.1990
  29   0.0000       0.236018         6.4224
  30   0.0000       0.280733         7.6391
  31   0.0000       0.297385         8.0923
  32   0.0000       0.301995         8.2177
  33   0.0000       0.329875         8.9764

MULLIKEN ATOMIC CHARGES
-----------------------
   0 C :   -0.374445
   1 C :   -0.274087
   2 H :    0.104943
   3 H :    0.094462
   4 S :    0.678112
   5 O :   -0.494648
   6 O :   -0.502555
   7 O :   -0.566063
   8 H :    0.130250
   9 H :    0.082125
  10 H :    0.121907
Sum of atomic charges:   -1.0000000

LOEWDIN ATOMIC CHARGES
----------------------
   0 C :   -0.356220
   1 C :   -0.441486
   2 H :    0.123167
   3 H :    0.120924
   4 S :    0.384252
   5 O :   -0.365919
   6 O :   -0.365251
   7 O :   -0.439892
   8 H :    0.118635
   9 H :    0.103684
  10 H :    0.118107

  Mayer bond orders larger than 0.100000
B(  0-C ,  1-C ) :   0.9196 B(  0-C ,  8-H ) :   0.9730 B(  0-C ,  9-H ) :   0.9712
B(  0-C , 10-H ) :   0.9749 B(  1-C ,  2-H ) :   0.9667 B(  1-C ,  3-H ) :   0.9587
B(  1-C ,  4-S ) :   0.8893 B(  4-S ,  5-O ) :   1.8850 B(  4-S ,  6-O ) :   1.8232
B(  4-S ,  7-O ) :   1.7909

FINAL SINGLE POINT ENERGY      -702.475834601532

DIPOLE MOMENT
-------------
                                X             Y             Z
Electronic contribution:      2.24569      -5.63829      -5.01541
Nuclear contribution   :     -2.69163       7.29476       5.86550
                        -----------------------------------------
Total Dipole Moment    :     -0.44594       1.65647       0.85009
                        -----------------------------------------
Magnitude (a.u.)       :      1.91452
Magnitude (Debye)      :      4.86632

Rotational constants in cm-1:     0.163060     0.082831     0.081111
Rotational constants in MHz :  4888.419330  2483.225008  2431.646841

                             ****ORCA TERMINATED NORMALLY****
TOTAL RUN TIME: 0 days 0 hours 0 minutes 23 seconds 406 msec
