                         Program Version 5.0.0 -  RELEASE  -
|  1> !LC-BLYP RIJCOSX def2-TZVP def2/J TightSCF
|  2> *xyz 1 1
|  3> C          1.96337       -1.74915       -1.89689
|  4> N          2.73849       -2.01517       -3.09711
|  5> C          4.04974       -2.15472       -3.15204
|  6> N          4.65821       -1.98629       -4.31866
|  7> N          4.76423       -2.45444       -2.05049
|  8> H          4.28736       -2.77626       -1.21750
|  9> H          5.75082       -2.65835       -2.12599
| 10> H          2.34518       -1.69027       -3.97145
| 11> H          4.10900       -1.59268       -5.07176
| 12> H          5.64910       -2.15646       -4.42724
| 13> C          2.08852       -0.30091       -1.41520
| 14> H          2.23127       -2.45162       -1.10264
| 15> H          0.93025       -1.97780       -2.15544
| 16> H          1.82118        0.36368       -2.21003
| 17> H          3.09792       -0.11068       -1.11551
| 18> H          1.43391       -0.14382       -0.58352
| 19> *
| 20> %MaxCore 64000
| 21>
| 22> %pal nprocs 4
| 23> end
| 24>
| 25> %scf
| 26>   MaxIter 150
| 27> end
| 28>
| 29>
| 30>                          ****END OF INPUT****

CARTESIAN COORDINATES (ANGSTROEM)
---------------------------------
  C      1.963370   -1.749150   -1.896890
  N      2.738490   -2.015170   -3.097110
  C      4.049740   -2.154720   -3.152040
  N      4.658210   -1.986290   -4.318660
  N      4.764230   -2.454440   -2.050490
  H      4.287360   -2.776260   -1.217500
  H      5.750820   -2.658350   -2.125990
  H      2.345180   -1.690270   -3.971450
  H      4.109000   -1.592680   -5.071760
  H      5.649100   -2.156460   -4.427240
  C      2.088520   -0.300910   -1.415200
  H      2.231270   -2.451620   -1.102640
  H      0.930250   -1.977800   -2.155440
  H      1.821180    0.363680   -2.210030
  H      3.097920   -0.110680   -1.115510
  H      1.433910   -0.143820   -0.583520

 Total Charge           Charge          ....    1
 Multiplicity           Mult            ....    1
 Number of Electrons    NEL             ....   48
 Basis Dimension        Dim             ....  246

ORBITAL ENERGIES
----------------

  NO   OCC          E(Eh)            E(eV)
   0   2.0000     -14.393845      -391.6764
   1   2.0000     -14.393176      -391.6582
   2   2.0000     -14.391633      -391.6162
   3   2.0000     -10.406335      -283.1708
   4   2.0000     -10.275261      -279.6041
   5   2.0000     -10.202474      -277.6234
   6   2.0000      -1.319382       -35.9022
   7   2.0000      -1.207765       -32.8650
   8   2.0000      -1.194589       -32.5064
   9   2.0000      -1.039215       -28.2785
  10   2.0000      -0.948114       -25.7995
  11   2.0000      -0.912347       -24.8262
  12   2.0000      -0.890469       -24.2309
  13   2.0000      -0.849941       -23.1281
  14   2.0000      -0.797077       -21.6896
  15   2.0000      -0.787443       -21.4274
  16   2.0000      -0.764925       -20.8147
  17   2.0000      -0.733179       -19.9508
  18   2.0000      -0.704440       -19.1688
  19   2.0000      -0.667227       -18.1562
  20   2.0000      -0.631593       -17.1865
  21   2.0000      -0.610216       -16.6048
  22   2.0000      -0.577652       -15.7187
  23   2.0000      -0.547382       -14.8950
  24   0.0000      -0.091750        -2.4966
  25   0.0000      -0.083396        -2.2693
  26   0.0000      -0.057525        -1.5653
  27   0.0000      -0.046717        -1.2712
  28   0.0000      -0.019149        -0.5211

MULLIKEN ATOMIC CHARGES
-----------------------
   0 C :   -0.263168
   1 N :   -0.196553
   2 C :    0.364776
   3 N :   -0.364034
   4 N :   -0.380217
   5 H :    0.283346
   6 H :    0.278127
   7 H :    0.242420
   8 H :    0.274878
   9 H :    0.286395
  10 C :   -0.355316
  11 H :    0.157323
  12 H :    0.193842
  13 H :    0.151352
  14 H :    0.146980
  15 H :    0.179849
Sum of atomic charges:    1.0000000

LOEWDIN ATOMIC CHARGES
----------------------
   0 C :   -0.296224
   1 N :    0.172478
   2 C :   -0.412437
   3 N :    0.069359
   4 N :    0.059310
   5 H :    0.197243
   6 H :    0.197152
   7 H :    0.212020
   8 H :    0.200014
   9 H :    0.200561
  10 C :   -0.296305
  11 H :    0.143039
  12 H :    0.156596
  13 H :    0.129447
  14 H :    0.126555
  15 H :    0.141192

  Mayer bond orders larger than 0.100000
B(  0-C ,  1-N ) :   0.8739 B(  0-C , 10-C ) :   0.9211 B(  0-C , 11-H ) :   0.9757
B(  0-C , 12-H ) :   0.9618 B(  1-N ,  2-C ) :   1.3837 B(  1-N ,  7-H ) :   0.9106
B(  2-C ,  3-N ) :   1.3373 B(  2-C ,  4-N ) :   1.3219 B(  3-N ,  8-H ) :   0.9039
B(  3-N ,  9-H ) :   0.8991 B(  4-N ,  5-H ) :   0.8943 B(  4-N ,  6-H ) :   0.9037
B( 10-C , 13-H ) :   0.9643 B( 10-C , 14-H ) :   0.9597 B( 10-C , 15-H ) :   0.9692

FINAL SINGLE POINT ENERGY      -283.778620110188

DIPOLE MOMENT
-------------
                                X             Y             Z
Electronic contribution:      3.02947      -2.71967      -3.10924
Nuclear contribution   :     -2.17768       2.37118       2.44574
                        -----------------------------------------
Total Dipole Moment    :      0.85179      -0.34849      -0.66350
                        -----------------------------------------
Magnitude (a.u.)       :      1.13456
Magnitude (Debye)      :      2.88383

Rotational constants in cm-1:     0.215650     0.075183     0.066454
Rotational constants in MHz :  6465.033740  2253.919004  1992.232519

                             ****ORCA TERMINATED NORMALLY****
TOTAL RUN TIME: 0 days 0 hours 0 minutes 30 seconds 891 msec
