                         Program Version 5.0.0 -  RELEASE  -
|  1> !LC-BLYP RIJCOSX def2-TZVP def2/J TightSCF xyzfile
|  2>
|  3> *xyzfile 0 1 B.xyz
|  4>
|  5> %MaxCore 64000
|  6>
|  7> %pal nprocs 18
|  8> end
|  9>
| 10> %scf
| 11>   MaxIter 150
| 12> end
| 13>
| 14>
| 15>                          ****END OF INPUT****

CARTESIAN COORDINATES (ANGSTROEM)
---------------------------------
  C      1.963365   -1.749150   -1.896887
  N      2.738490   -2.015170   -3.097113
  C      0.611877    1.657634   -4.500288
  C      1.694991    1.541794   -5.570447
  H      2.697326    1.734659   -5.183996
  H      1.506656    2.272239   -6.358076
  S      1.780287   -0.033128   -6.428739
  C      4.049736   -2.154717   -3.152044
  N      4.658206   -1.986293   -4.318655
  N      4.764231   -2.454435   -2.050491
  H      4.287363   -2.776259   -1.217496
  H      5.750825   -2.658351   -2.125988
  H      2.345176   -1.690274   -3.971447
  H      4.109004   -1.592677   -5.071760
  H      5.649095   -2.156462   -4.427237
  O      2.569287    0.213657   -7.607360
  O      0.416880   -0.462969   -6.618595
  C      2.088520   -0.300912   -1.415204
  H      2.231272   -2.451616   -1.102643
  H      0.930249   -1.977801   -2.155438
  C      0.680356    0.655418   -3.348038
  H     -0.356865    1.549231   -4.991128
  H      0.650228    2.675438   -4.096000
  C      1.968993    0.733582   -2.535654
  H      3.051356   -0.168602   -0.911868
  H      1.316501   -0.136231   -0.657252
  O      2.505129   -0.933263   -5.482570
  H      2.824195    0.624726   -3.208464
  H      2.058919    1.730331   -2.093112
  H      0.542252   -0.344731   -3.766662
  H     -0.174219    0.829692   -2.685182

 Total Charge           Charge          ....    0
 Multiplicity           Mult            ....    1
 Number of Electrons    NEL             ....  120
 Basis Dimension        Dim             ....  542

ORBITAL ENERGIES
----------------

  NO   OCC          E(Eh)            E(eV)
   0   2.0000     -88.403150     -2405.5720
   1   2.0000     -18.876596      -513.6583
   2   2.0000     -18.854947      -513.0692
   3   2.0000     -18.853293      -513.0242
   4   2.0000     -14.256417      -387.9368
   5   2.0000     -14.226981      -387.1358
   6   2.0000     -14.223621      -387.0444
   7   2.0000     -10.253690      -279.0171
   8   2.0000     -10.140548      -275.9384
   9   2.0000     -10.090839      -274.5857
  10   2.0000     -10.071285      -274.0536
  11   2.0000     -10.059307      -273.7277
  12   2.0000     -10.056621      -273.6546
  13   2.0000     -10.055472      -273.6233
  14   2.0000      -7.945450      -216.2067
  15   2.0000      -5.974084      -162.5631
  16   2.0000      -5.972633      -162.5236
  17   2.0000      -5.971414      -162.4904
  18   2.0000      -1.170205       -31.8429
  19   2.0000      -1.164993       -31.7011
  20   2.0000      -1.058739       -28.8098
  21   2.0000      -1.044471       -28.4215
  22   2.0000      -1.025976       -27.9182
  23   2.0000      -1.025474       -27.9046
  24   2.0000      -0.932041       -25.3621
  25   2.0000      -0.892467       -24.2853
  26   2.0000      -0.843877       -22.9631
  27   2.0000      -0.804457       -21.8904
  28   2.0000      -0.777650       -21.1609
  29   2.0000      -0.743486       -20.2313
  30   2.0000      -0.735529       -20.0148
  31   2.0000      -0.701439       -19.0871
  32   2.0000      -0.680290       -18.5116
  33   2.0000      -0.660789       -17.9810
  34   2.0000      -0.643547       -17.5118
  35   2.0000      -0.629054       -17.1174
  36   2.0000      -0.607916       -16.5422
  37   2.0000      -0.586086       -15.9482
  38   2.0000      -0.583514       -15.8782
  39   2.0000      -0.577701       -15.7200
  40   2.0000      -0.560338       -15.2476
  41   2.0000      -0.543030       -14.7766
  42   2.0000      -0.530908       -14.4467
  43   2.0000      -0.520016       -14.1504
  44   2.0000      -0.501247       -13.6396
  45   2.0000      -0.493740       -13.4353
  46   2.0000      -0.478089       -13.0095
  47   2.0000      -0.469832       -12.7848
  48   2.0000      -0.463372       -12.6090
  49   2.0000      -0.436790       -11.8857
  50   2.0000      -0.432856       -11.7786
  51   2.0000      -0.427644       -11.6368
  52   2.0000      -0.410133       -11.1603
  53   2.0000      -0.405545       -11.0354
  54   2.0000      -0.398674       -10.8485
  55   2.0000      -0.392521       -10.6810
  56   2.0000      -0.361714        -9.8427
  57   2.0000      -0.351639        -9.5686
  58   2.0000      -0.343196        -9.3388
  59   2.0000      -0.315926        -8.5968
  60   0.0000       0.035621         0.9693
  61   0.0000       0.061266         1.6671
  62   0.0000       0.069666         1.8957
  63   0.0000       0.100516         2.7352
  64   0.0000       0.109070         2.9679

MULLIKEN ATOMIC CHARGES
-----------------------
   0 C :   -0.366137
   1 N :   -0.167431
   2 C :   -0.242836
   3 C :   -0.340529
   4 H :    0.136959
   5 H :    0.160853
   6 S :    0.738961
   7 C :    0.325236
   8 N :   -0.362992
   9 N :   -0.411581
  10 H :    0.262304
  11 H :    0.251974
  12 H :    0.288314
  13 H :    0.303855
  14 H :    0.240129
  15 O :   -0.453740
  16 O :   -0.448494
  17 C :   -0.183026
  18 H :    0.146414
  19 H :    0.206660
  20 C :   -0.274695
  21 H :    0.158370
  22 H :    0.121540
  23 C :   -0.295493
  24 H :    0.133274
  25 H :    0.141445
  26 O :   -0.632509
  27 H :    0.146610
  28 H :    0.137372
  29 H :    0.155622
  30 H :    0.123573
Sum of atomic charges:    0.0000000

LOEWDIN ATOMIC CHARGES
----------------------
   0 C :   -0.290215
   1 N :    0.179058
   2 C :   -0.297946
   3 C :   -0.399335
   4 H :    0.129174
   5 H :    0.142582
   6 S :    0.431093
   7 C :   -0.424824
   8 N :    0.058987
   9 N :    0.022739
  10 H :    0.184928
  11 H :    0.182904
  12 H :    0.183034
  13 H :    0.177426
  14 H :    0.180050
  15 O :   -0.322405
  16 O :   -0.320134
  17 C :   -0.278351
  18 H :    0.131689
  19 H :    0.152721
  20 C :   -0.282172
  21 H :    0.150592
  22 H :    0.140339
  23 C :   -0.279790
  24 H :    0.138834
  25 H :    0.147367
  26 O :   -0.406689
  27 H :    0.142341
  28 H :    0.144020
  29 H :    0.141422
  30 H :    0.140562

  Mayer bond orders larger than 0.100000
B(  0-C ,  1-N ) :   0.8864 B(  0-C , 17-C ) :   0.8663 B(  0-C , 18-H ) :   1.0014
B(  0-C , 19-H ) :   0.9732 B(  1-N ,  7-C ) :   1.4345 B(  1-N , 12-H ) :   0.8131
B(  2-C ,  3-C ) :   0.9046 B(  2-C , 20-C ) :   0.9470 B(  2-C , 21-H ) :   0.9753
B(  2-C , 22-H ) :   0.9717 B(  3-C ,  4-H ) :   0.9640 B(  3-C ,  5-H ) :   0.9653
B(  3-C ,  6-S ) :   0.9085 B(  6-S , 15-O ) :   1.9687 B(  6-S , 16-O ) :   1.8885
B(  6-S , 26-O ) :   1.4154 B(  7-C ,  8-N ) :   1.3919 B(  7-C ,  9-N ) :   1.2464
B(  8-N , 13-H ) :   0.8098 B(  8-N , 14-H ) :   0.9208 B(  9-N , 10-H ) :   0.9048
B(  9-N , 11-H ) :   0.9187 B( 12-H , 26-O ) :   0.1357 B( 13-H , 26-O ) :   0.1246
B( 17-C , 23-C ) :   0.9226 B( 17-C , 24-H ) :   0.9899 B( 17-C , 25-H ) :   0.9818
B( 20-C , 23-C ) :   0.8775 B( 20-C , 29-H ) :   0.9604 B( 20-C , 30-H ) :   0.9812
B( 23-C , 27-H ) :   0.9767 B( 23-C , 28-H ) :   0.9835

FINAL SINGLE POINT ENERGY     -1063.662263201231

DIPOLE MOMENT
-------------
                                X             Y             Z
Electronic contribution:      2.29396      -4.98149     -14.22084
Nuclear contribution   :      0.44641       3.59123      19.13564
                        -----------------------------------------
Total Dipole Moment    :      2.74037      -1.39025       4.91480
                        -----------------------------------------
Magnitude (a.u.)       :      5.79635
Magnitude (Debye)      :     14.73315

Rotational constants in cm-1:     0.029186     0.014646     0.011115
Rotational constants in MHz :   874.975540   439.070287   333.231642

                             ****ORCA TERMINATED NORMALLY****
TOTAL RUN TIME: 0 days 0 hours 1 minutes 9 seconds 561 msec
