                         Program Version 5.0.0 -  RELEASE  -
|  1> !LC-BLYP RIJCOSX def2-TZVP def2/J TightSCF
|  2> *xyz 0 1
|  3> C          0.61188        1.65763       -4.50029
|  4> C          1.69499        1.54179       -5.57045
|  5> H          2.69733        1.73466       -5.18400
|  6> H          1.50666        2.27224       -6.35808
|  7> S          1.78029       -0.03313       -6.42874
|  8> F          2.56929        0.21366       -7.60736
|  9> O          0.41688       -0.46297       -6.61859
| 10> O          2.50513       -0.93326       -5.48257
| 11> H         -0.34424        1.45871       -4.93752
| 12> H          0.61845        2.64655       -4.09174
| 13> H          0.80247        0.94882       -3.72173
| 14> *
| 15> %MaxCore 64000
| 16>
| 17> %pal nprocs 4
| 18> end
| 19>
| 20> %scf
| 21>   MaxIter 150
| 22> end
| 23>
| 24>
| 25>                          ****END OF INPUT****

CARTESIAN COORDINATES (ANGSTROEM)
---------------------------------
  C      0.611880    1.657630   -4.500290
  C      1.694990    1.541790   -5.570450
  H      2.697330    1.734660   -5.184000
  H      1.506660    2.272240   -6.358080
  S      1.780290   -0.033130   -6.428740
  F      2.569290    0.213660   -7.607360
  O      0.416880   -0.462970   -6.618590
  O      2.505130   -0.933260   -5.482570
  H     -0.344240    1.458710   -4.937520
  H      0.618450    2.646550   -4.091740
  H      0.802470    0.948820   -3.721730

 Total Charge           Charge          ....    0
 Multiplicity           Mult            ....    1
 Number of Electrons    NEL             ....   58
 Basis Dimension        Dim             ....  222

ORBITAL ENERGIES
----------------

  NO   OCC          E(Eh)            E(eV)
   0   2.0000     -88.518093     -2408.6998
   1   2.0000     -24.577199      -668.7796
   2   2.0000     -18.952570      -515.7257
   3   2.0000     -18.932481      -515.1790
   4   2.0000     -10.131907      -275.7032
   5   2.0000     -10.086619      -274.4709
   6   2.0000      -8.060690      -219.3425
   7   2.0000      -6.092344      -165.7811
   8   2.0000      -6.085541      -165.5960
   9   2.0000      -6.085276      -165.5888
  10   2.0000      -1.468083       -39.9486
  11   2.0000      -1.198763       -32.6200
  12   2.0000      -1.092386       -29.7253
  13   2.0000      -0.933593       -25.4044
  14   2.0000      -0.843934       -22.9646
  15   2.0000      -0.784249       -21.3405
  16   2.0000      -0.693947       -18.8833
  17   2.0000      -0.693424       -18.8690
  18   2.0000      -0.659692       -17.9511
  19   2.0000      -0.602089       -16.3837
  20   2.0000      -0.586635       -15.9631
  21   2.0000      -0.541292       -14.7293
  22   2.0000      -0.534272       -14.5383
  23   2.0000      -0.510622       -13.8947
  24   2.0000      -0.489248       -13.3131
  25   2.0000      -0.486563       -13.2401
  26   2.0000      -0.435458       -11.8494
  27   2.0000      -0.416774       -11.3410
  28   2.0000      -0.401690       -10.9306
  29   0.0000       0.086896         2.3646
  30   0.0000       0.106372         2.8945
  31   0.0000       0.130819         3.5598
  32   0.0000       0.137768         3.7489
  33   0.0000       0.151923         4.1340

MULLIKEN ATOMIC CHARGES
-----------------------
   0 C :   -0.396664
   1 C :   -0.285270
   2 H :    0.171560
   3 H :    0.150241
   4 S :    0.744197
   5 F :   -0.066230
   6 O :   -0.363432
   7 O :   -0.423572
   8 H :    0.161360
   9 H :    0.145827
  10 H :    0.161981
Sum of atomic charges:    0.0000000

LOEWDIN ATOMIC CHARGES
----------------------
   0 C :   -0.315820
   1 C :   -0.408586
   2 H :    0.144692
   3 H :    0.138891
   4 S :    0.502906
   5 F :    0.114848
   6 O :   -0.250264
   7 O :   -0.319642
   8 H :    0.131066
   9 H :    0.129558
  10 H :    0.132350

  Mayer bond orders larger than 0.100000
B(  0-C ,  1-C ) :   0.9353 B(  0-C ,  8-H ) :   0.9643 B(  0-C ,  9-H ) :   0.9621
B(  0-C , 10-H ) :   0.9661 B(  1-C ,  2-H ) :   0.9381 B(  1-C ,  3-H ) :   0.9356
B(  1-C ,  4-S ) :   0.9213 B(  4-S ,  5-F ) :   1.1869 B(  4-S ,  6-O ) :   1.9604
B(  4-S ,  7-O ) :   1.9178

FINAL SINGLE POINT ENERGY      -726.980276423275

DIPOLE MOMENT
-------------
                                X             Y             Z
Electronic contribution:      3.88318      -5.63042      -7.56229
Nuclear contribution   :     -3.66946       7.33549       7.42434
                        -----------------------------------------
Total Dipole Moment    :      0.21372       1.70507      -0.13794
                        -----------------------------------------
Magnitude (a.u.)       :      1.72394
Magnitude (Debye)      :      4.38191

Rotational constants in cm-1:     0.158379     0.080294     0.077843
Rotational constants in MHz :  4748.076444  2407.152850  2333.668303

                             ****ORCA TERMINATED NORMALLY****
TOTAL RUN TIME: 0 days 0 hours 0 minutes 23 seconds 413 msec
