                         Program Version 5.0.0 -  RELEASE  -
|  1> !LC-BLYP RIJCOSX def2-TZVP def2/J TightSCF
|  2> *xyz 0 1
|  3> C          1.96337       -1.74915       -1.89689
|  4> C          2.73849       -2.01517       -3.09711
|  5> C          4.04974       -2.15472       -3.15204
|  6> N          4.65821       -1.98629       -4.31866
|  7> N          4.76423       -2.45444       -2.05049
|  8> H          4.28736       -2.77626       -1.21750
|  9> H          5.75082       -2.65835       -2.12599
| 10> H          2.34518       -1.69027       -3.97145
| 11> H          4.10900       -1.59268       -5.07176
| 12> H          5.64910       -2.15646       -4.42724
| 13> C          2.08852       -0.30091       -1.41520
| 14> H          2.23127       -2.45162       -1.10264
| 15> H          0.93025       -1.97780       -2.15544
| 16> H          1.82118        0.36368       -2.21003
| 17> H          3.09792       -0.11068       -1.11551
| 18> H          1.43391       -0.14382       -0.58352
| 19> *
| 20> %MaxCore 64000
| 21>
| 22> %pal nprocs 4
| 23> end
| 24>
| 25> %scf
| 26>   MaxIter 150
| 27> end
| 28>
| 29>
| 30>                          ****END OF INPUT****

CARTESIAN COORDINATES (ANGSTROEM)
---------------------------------
  C      1.963370   -1.749150   -1.896890
  C      2.738490   -2.015170   -3.097110
  C      4.049740   -2.154720   -3.152040
  N      4.658210   -1.986290   -4.318660
  N      4.764230   -2.454440   -2.050490
  H      4.287360   -2.776260   -1.217500
  H      5.750820   -2.658350   -2.125990
  H      2.345180   -1.690270   -3.971450
  H      4.109000   -1.592680   -5.071760
  H      5.649100   -2.156460   -4.427240
  C      2.088520   -0.300910   -1.415200
  H      2.231270   -2.451620   -1.102640
  H      0.930250   -1.977800   -2.155440
  H      1.821180    0.363680   -2.210030
  H      3.097920   -0.110680   -1.115510
  H      1.433910   -0.143820   -0.583520

 Total Charge           Charge          ....    0
 Multiplicity           Mult            ....    1
 Number of Electrons    NEL             ....   48
 Basis Dimension        Dim             ....  246

ORBITAL ENERGIES
----------------

  NO   OCC          E(Eh)            E(eV)
   0   2.0000     -14.168501      -385.5445
   1   2.0000     -14.165367      -385.4592
   2   2.0000     -10.111647      -275.1519
   3   2.0000     -10.040030      -273.2031
   4   2.0000     -10.028757      -272.8963
   5   2.0000      -9.984490      -271.6918
   6   2.0000      -1.060165       -28.8486
   7   2.0000      -0.970493       -26.4084
   8   2.0000      -0.880178       -23.9509
   9   2.0000      -0.799152       -21.7460
  10   2.0000      -0.722179       -19.6515
  11   2.0000      -0.684290       -18.6205
  12   2.0000      -0.646309       -17.5870
  13   2.0000      -0.612754       -16.6739
  14   2.0000      -0.572117       -15.5681
  15   2.0000      -0.541195       -14.7267
  16   2.0000      -0.525091       -14.2885
  17   2.0000      -0.489704       -13.3255
  18   2.0000      -0.479758       -13.0549
  19   2.0000      -0.455129       -12.3847
  20   2.0000      -0.424037       -11.5386
  21   2.0000      -0.412628       -11.2282
  22   2.0000      -0.364459        -9.9174
  23   2.0000      -0.250784        -6.8242
  24   0.0000       0.082801         2.2531
  25   0.0000       0.115012         3.1296
  26   0.0000       0.123430         3.3587
  27   0.0000       0.146406         3.9839
  28   0.0000       0.153610         4.1799

MULLIKEN ATOMIC CHARGES
-----------------------
   0 C :   -0.295902
   1 C :   -0.334761
   2 C :    0.329551
   3 N :   -0.437763
   4 N :   -0.446631
   5 H :    0.238502
   6 H :    0.212773
   7 H :    0.072120
   8 H :    0.235293
   9 H :    0.213605
  10 C :   -0.337689
  11 H :    0.081777
  12 H :    0.117551
  13 H :    0.115720
  14 H :    0.120240
  15 H :    0.115616
Sum of atomic charges:   -0.0000000

LOEWDIN ATOMIC CHARGES
----------------------
   0 C :   -0.318556
   1 C :   -0.296555
   2 C :   -0.459583
   3 N :   -0.013282
   4 N :   -0.020887
   5 H :    0.175521
   6 H :    0.161674
   7 H :    0.123292
   8 H :    0.180534
   9 H :    0.162533
  10 C :   -0.314764
  11 H :    0.128883
  12 H :    0.142924
  13 H :    0.117814
  14 H :    0.117689
  15 H :    0.112761

  Mayer bond orders larger than 0.100000
B(  0-C ,  1-C ) :   1.0094 B(  0-C , 10-C ) :   0.9054 B(  0-C , 11-H ) :   0.9831
B(  0-C , 12-H ) :   1.0016 B(  1-C ,  2-C ) :   1.6341 B(  1-C ,  7-H ) :   1.0220
B(  2-C ,  3-N ) :   1.1498 B(  2-C ,  4-N ) :   1.1317 B(  3-N ,  8-H ) :   0.9267
B(  3-N ,  9-H ) :   0.9349 B(  4-N ,  5-H ) :   0.9248 B(  4-N ,  6-H ) :   0.9338
B( 10-C , 13-H ) :   0.9793 B( 10-C , 14-H ) :   0.9768 B( 10-C , 15-H ) :   0.9841

FINAL SINGLE POINT ENERGY      -267.296578313967

DIPOLE MOMENT
-------------
                                X             Y             Z
Electronic contribution:      3.37395      -2.45132      -2.53313
Nuclear contribution   :     -2.31778       2.31977       2.35294
                        -----------------------------------------
Total Dipole Moment    :      1.05618      -0.13155      -0.18020
                        -----------------------------------------
Magnitude (a.u.)       :      1.07948
Magnitude (Debye)      :      2.74383

Rotational constants in cm-1:     0.219415     0.075373     0.066689
Rotational constants in MHz :  6577.897266  2259.621393  1999.290981

                             ****ORCA TERMINATED NORMALLY****
TOTAL RUN TIME: 0 days 0 hours 0 minutes 31 seconds 473 msec
