                         Program Version 5.0.0 -  RELEASE  -
|  1> !LC-BLYP RIJCOSX def2-TZVP def2/J TightSCF
|  2> *xyz 0 1
|  3> C          0.61188        1.65763       -4.50029
|  4> C          1.69499        1.54179       -5.57045
|  5> H          2.69733        1.73466       -5.18400
|  6> H          1.50666        2.27224       -6.35808
|  7> S          1.78029       -0.03313       -6.42874
|  8> O          2.56929        0.21366       -7.60736
|  9> F          0.41688       -0.46297       -6.61859
| 10> O          2.50513       -0.93326       -5.48257
| 11> H         -0.34424        1.45871       -4.93752
| 12> H          0.61845        2.64655       -4.09174
| 13> H          0.80247        0.94882       -3.72173
| 14> *
| 15> %MaxCore 64000
| 16>
| 17> %pal nprocs 4
| 18> end
| 19>
| 20> %scf
| 21>   MaxIter 150
| 22> end
| 23>
| 24>
| 25>                          ****END OF INPUT****

CARTESIAN COORDINATES (ANGSTROEM)
---------------------------------
  C      0.611880    1.657630   -4.500290
  C      1.694990    1.541790   -5.570450
  H      2.697330    1.734660   -5.184000
  H      1.506660    2.272240   -6.358080
  S      1.780290   -0.033130   -6.428740
  O      2.569290    0.213660   -7.607360
  F      0.416880   -0.462970   -6.618590
  O      2.505130   -0.933260   -5.482570
  H     -0.344240    1.458710   -4.937520
  H      0.618450    2.646550   -4.091740
  H      0.802470    0.948820   -3.721730

 Total Charge           Charge          ....    0
 Multiplicity           Mult            ....    1
 Number of Electrons    NEL             ....   58
 Basis Dimension        Dim             ....  222

ORBITAL ENERGIES
----------------

  NO   OCC          E(Eh)            E(eV)
   0   2.0000     -88.517739     -2408.6901
   1   2.0000     -24.576631      -668.7641
   2   2.0000     -18.952107      -515.7130
   3   2.0000     -18.932641      -515.1834
   4   2.0000     -10.131648      -275.6962
   5   2.0000     -10.092572      -274.6328
   6   2.0000      -8.060352      -219.3333
   7   2.0000      -6.092204      -165.7773
   8   2.0000      -6.085059      -165.5829
   9   2.0000      -6.084904      -165.5786
  10   2.0000      -1.466515       -39.9059
  11   2.0000      -1.199628       -32.6435
  12   2.0000      -1.092139       -29.7186
  13   2.0000      -0.937609       -25.5136
  14   2.0000      -0.839441       -22.8424
  15   2.0000      -0.789837       -21.4926
  16   2.0000      -0.706127       -19.2147
  17   2.0000      -0.691632       -18.8203
  18   2.0000      -0.649122       -17.6635
  19   2.0000      -0.603033       -16.4094
  20   2.0000      -0.580322       -15.7914
  21   2.0000      -0.554858       -15.0985
  22   2.0000      -0.538346       -14.6491
  23   2.0000      -0.515044       -14.0151
  24   2.0000      -0.497438       -13.5360
  25   2.0000      -0.483366       -13.1531
  26   2.0000      -0.434117       -11.8129
  27   2.0000      -0.416739       -11.3400
  28   2.0000      -0.401930       -10.9371
  29   0.0000       0.075712         2.0602
  30   0.0000       0.115639         3.1467
  31   0.0000       0.131818         3.5870
  32   0.0000       0.137639         3.7453
  33   0.0000       0.146278         3.9804

MULLIKEN ATOMIC CHARGES
-----------------------
   0 C :   -0.404840
   1 C :   -0.291615
   2 H :    0.186486
   3 H :    0.165146
   4 S :    0.741104
   5 O :   -0.354357
   6 F :   -0.072136
   7 O :   -0.423820
   8 H :    0.140240
   9 H :    0.149674
  10 H :    0.164118
Sum of atomic charges:   -0.0000000

LOEWDIN ATOMIC CHARGES
----------------------
   0 C :   -0.329839
   1 C :   -0.402023
   2 H :    0.154942
   3 H :    0.143819
   4 S :    0.503586
   5 O :   -0.248879
   6 F :    0.113737
   7 O :   -0.319277
   8 H :    0.122876
   9 H :    0.130595
  10 H :    0.130463

  Mayer bond orders larger than 0.100000
B(  0-C ,  1-C ) :   0.9190 B(  0-C ,  8-H ) :   0.9684 B(  0-C ,  9-H ) :   0.9652
B(  0-C , 10-H ) :   0.9640 B(  1-C ,  2-H ) :   0.9403 B(  1-C ,  3-H ) :   0.9406
B(  1-C ,  4-S ) :   0.9157 B(  4-S ,  5-O ) :   2.0006 B(  4-S ,  6-F ) :   1.1679
B(  4-S ,  7-O ) :   1.9148

FINAL SINGLE POINT ENERGY      -726.980133418093

DIPOLE MOMENT
-------------
                                X             Y             Z
Electronic contribution:      0.23605      -6.75996      -5.85825
Nuclear contribution   :     -1.42658       8.04056       6.39401
                        -----------------------------------------
Total Dipole Moment    :     -1.19053       1.28060       0.53577
                        -----------------------------------------
Magnitude (a.u.)       :      1.82876
Magnitude (Debye)      :      4.64833

Rotational constants in cm-1:     0.153659     0.082363     0.078978
Rotational constants in MHz :  4606.587369  2469.179541  2367.702074

                             ****ORCA TERMINATED NORMALLY****
TOTAL RUN TIME: 0 days 0 hours 0 minutes 23 seconds 408 msec
