                         Program Version 5.0.0 -  RELEASE  -
|  1> !LC-BLYP RIJCOSX def2-TZVP def2/J TightSCF
|  2> *xyz 0 1
|  3> C          1.96337       -1.74915       -1.89689
|  4> N          2.73849       -2.01517       -3.09711
|  5> C          4.04974       -2.15472       -3.15204
|  6> C          4.65821       -1.98629       -4.31866
|  7> N          4.76423       -2.45444       -2.05049
|  8> H          4.28736       -2.77626       -1.21750
|  9> H          5.75082       -2.65835       -2.12599
| 10> H          2.34518       -1.69027       -3.97145
| 11> H          4.10900       -1.59268       -5.07176
| 12> H          5.64910       -2.15646       -4.42724
| 13> C          2.08852       -0.30091       -1.41520
| 14> H          2.23127       -2.45162       -1.10264
| 15> H          0.93025       -1.97780       -2.15544
| 16> H          1.82118        0.36368       -2.21003
| 17> H          3.09792       -0.11068       -1.11551
| 18> H          1.43391       -0.14382       -0.58352
| 19> *
| 20> %MaxCore 64000
| 21>
| 22> %pal nprocs 4
| 23> end
| 24>
| 25> %scf
| 26>   MaxIter 150
| 27> end
| 28>
| 29>
| 30>                          ****END OF INPUT****

CARTESIAN COORDINATES (ANGSTROEM)
---------------------------------
  C      1.963370   -1.749150   -1.896890
  N      2.738490   -2.015170   -3.097110
  C      4.049740   -2.154720   -3.152040
  C      4.658210   -1.986290   -4.318660
  N      4.764230   -2.454440   -2.050490
  H      4.287360   -2.776260   -1.217500
  H      5.750820   -2.658350   -2.125990
  H      2.345180   -1.690270   -3.971450
  H      4.109000   -1.592680   -5.071760
  H      5.649100   -2.156460   -4.427240
  C      2.088520   -0.300910   -1.415200
  H      2.231270   -2.451620   -1.102640
  H      0.930250   -1.977800   -2.155440
  H      1.821180    0.363680   -2.210030
  H      3.097920   -0.110680   -1.115510
  H      1.433910   -0.143820   -0.583520

 Total Charge           Charge          ....    0
 Multiplicity           Mult            ....    1
 Number of Electrons    NEL             ....   48
 Basis Dimension        Dim             ....  246

ORBITAL ENERGIES
----------------

  NO   OCC          E(Eh)            E(eV)
   0   2.0000     -14.167544      -385.5185
   1   2.0000     -14.167192      -385.5089
   2   2.0000     -10.113985      -275.2155
   3   2.0000     -10.107782      -275.0467
   4   2.0000     -10.055348      -273.6199
   5   2.0000      -9.977886      -271.5121
   6   2.0000      -1.069743       -29.1092
   7   2.0000      -0.984130       -26.7795
   8   2.0000      -0.879344       -23.9282
   9   2.0000      -0.808007       -21.9870
  10   2.0000      -0.736857       -20.0509
  11   2.0000      -0.704499       -19.1704
  12   2.0000      -0.640938       -17.4408
  13   2.0000      -0.600482       -16.3399
  14   2.0000      -0.580875       -15.8064
  15   2.0000      -0.541303       -14.7296
  16   2.0000      -0.537642       -14.6300
  17   2.0000      -0.503244       -13.6940
  18   2.0000      -0.483483       -13.1562
  19   2.0000      -0.473774       -12.8921
  20   2.0000      -0.461230       -12.5507
  21   2.0000      -0.454547       -12.3688
  22   2.0000      -0.352190        -9.5836
  23   2.0000      -0.256423        -6.9776
  24   0.0000       0.085312         2.3215
  25   0.0000       0.112258         3.0547
  26   0.0000       0.125008         3.4016
  27   0.0000       0.137651         3.7457
  28   0.0000       0.155825         4.2402

MULLIKEN ATOMIC CHARGES
-----------------------
   0 C :   -0.240994
   1 N :   -0.242804
   2 C :    0.356487
   3 C :   -0.571713
   4 N :   -0.458803
   5 H :    0.217401
   6 H :    0.236511
   7 H :    0.211792
   8 H :    0.086336
   9 H :    0.095633
  10 C :   -0.334198
  11 H :    0.117887
  12 H :    0.141237
  13 H :    0.123570
  14 H :    0.137481
  15 H :    0.124179
Sum of atomic charges:    0.0000000

LOEWDIN ATOMIC CHARGES
----------------------
   0 C :   -0.328638
   1 N :    0.120097
   2 C :   -0.466433
   3 C :   -0.349395
   4 N :   -0.018717
   5 H :    0.161775
   6 H :    0.176486
   7 H :    0.197337
   8 H :    0.099529
   9 H :    0.097783
  10 C :   -0.318357
  11 H :    0.128662
  12 H :    0.136473
  13 H :    0.120212
  14 H :    0.123045
  15 H :    0.120139

  Mayer bond orders larger than 0.100000
B(  0-C ,  1-N ) :   0.9616 B(  0-C , 10-C ) :   0.9077 B(  0-C , 11-H ) :   0.9881
B(  0-C , 12-H ) :   0.9853 B(  1-N ,  2-C ) :   1.2060 B(  1-N ,  7-H ) :   0.9324
B(  2-C ,  3-C ) :   1.6037 B(  2-C ,  4-N ) :   1.1160 B(  3-C ,  8-H ) :   1.0131
B(  3-C ,  9-H ) :   1.0119 B(  4-N ,  5-H ) :   0.9291 B(  4-N ,  6-H ) :   0.9308
B( 10-C , 13-H ) :   0.9730 B( 10-C , 14-H ) :   0.9697 B( 10-C , 15-H ) :   0.9741

FINAL SINGLE POINT ENERGY      -267.292653106100

DIPOLE MOMENT
-------------
                                X             Y             Z
Electronic contribution:      1.40374      -2.35273      -1.18144
Nuclear contribution   :     -1.91052       2.32590       2.09379
                        -----------------------------------------
Total Dipole Moment    :     -0.50678      -0.02683       0.91236
                        -----------------------------------------
Magnitude (a.u.)       :      1.04400
Magnitude (Debye)      :      2.65365

Rotational constants in cm-1:     0.219448     0.077923     0.068804
Rotational constants in MHz :  6578.886179  2336.083179  2062.700476

                             ****ORCA TERMINATED NORMALLY****
TOTAL RUN TIME: 0 days 0 hours 0 minutes 32 seconds 869 msec
