                         Program Version 5.0.0 -  RELEASE  -
|  1> !LC-BLYP RIJCOSX def2-TZVP def2/J TightSCF
|  2> *xyz 0 1
|  3> C          0.61188        1.65763       -4.50029
|  4> C          1.69499        1.54179       -5.57045
|  5> H          2.69733        1.73466       -5.18400
|  6> H          1.50666        2.27224       -6.35808
|  7> S          1.78029       -0.03313       -6.42874
|  8> O          2.56929        0.21366       -7.60736
|  9> O          0.41688       -0.46297       -6.61859
| 10> F          2.50513       -0.93326       -5.48257
| 11> H         -0.34424        1.45871       -4.93752
| 12> H          0.61845        2.64655       -4.09174
| 13> H          0.80247        0.94882       -3.72173
| 14> *
| 15> %MaxCore 64000
| 16>
| 17> %pal nprocs 4
| 18> end
| 19>
| 20> %scf
| 21>   MaxIter 150
| 22> end
| 23>
| 24>
| 25>                          ****END OF INPUT****

CARTESIAN COORDINATES (ANGSTROEM)
---------------------------------
  C      0.611880    1.657630   -4.500290
  C      1.694990    1.541790   -5.570450
  H      2.697330    1.734660   -5.184000
  H      1.506660    2.272240   -6.358080
  S      1.780290   -0.033130   -6.428740
  O      2.569290    0.213660   -7.607360
  O      0.416880   -0.462970   -6.618590
  F      2.505130   -0.933260   -5.482570
  H     -0.344240    1.458710   -4.937520
  H      0.618450    2.646550   -4.091740
  H      0.802470    0.948820   -3.721730

 Total Charge           Charge          ....    0
 Multiplicity           Mult            ....    1
 Number of Electrons    NEL             ....   58
 Basis Dimension        Dim             ....  222

ORBITAL ENERGIES
----------------

  NO   OCC          E(Eh)            E(eV)
   0   2.0000     -88.515377     -2408.6259
   1   2.0000     -24.548873      -668.0088
   2   2.0000     -18.952559      -515.7253
   3   2.0000     -18.951685      -515.7016
   4   2.0000     -10.130743      -275.6715
   5   2.0000     -10.087443      -274.4933
   6   2.0000      -8.057975      -219.2687
   7   2.0000      -6.089877      -165.7140
   8   2.0000      -6.082983      -165.5264
   9   2.0000      -6.082366      -165.5096
  10   2.0000      -1.423853       -38.7450
  11   2.0000      -1.210940       -32.9513
  12   2.0000      -1.119617       -30.4663
  13   2.0000      -0.934261       -25.4225
  14   2.0000      -0.826506       -22.4904
  15   2.0000      -0.776285       -21.1238
  16   2.0000      -0.681270       -18.5383
  17   2.0000      -0.661230       -17.9930
  18   2.0000      -0.650543       -17.7022
  19   2.0000      -0.600820       -16.3492
  20   2.0000      -0.582490       -15.8504
  21   2.0000      -0.558958       -15.2100
  22   2.0000      -0.536123       -14.5887
  23   2.0000      -0.508441       -13.8354
  24   2.0000      -0.505399       -13.7526
  25   2.0000      -0.482705       -13.1351
  26   2.0000      -0.442425       -12.0390
  27   2.0000      -0.433974       -11.8090
  28   2.0000      -0.422920       -11.5082
  29   0.0000       0.081225         2.2102
  30   0.0000       0.117959         3.2098
  31   0.0000       0.127880         3.4798
  32   0.0000       0.140987         3.8365
  33   0.0000       0.151908         4.1336

MULLIKEN ATOMIC CHARGES
-----------------------
   0 C :   -0.391275
   1 C :   -0.303057
   2 H :    0.165680
   3 H :    0.178680
   4 S :    0.746933
   5 O :   -0.366486
   6 O :   -0.373499
   7 F :   -0.112403
   8 H :    0.167545
   9 H :    0.145878
  10 H :    0.142005
Sum of atomic charges:   -0.0000000

LOEWDIN ATOMIC CHARGES
----------------------
   0 C :   -0.326803
   1 C :   -0.405224
   2 H :    0.141866
   3 H :    0.154032
   4 S :    0.511724
   5 O :   -0.254614
   6 O :   -0.253961
   7 F :    0.047474
   8 H :    0.131224
   9 H :    0.128859
  10 H :    0.125422

  Mayer bond orders larger than 0.100000
B(  0-C ,  1-C ) :   0.9217 B(  0-C ,  8-H ) :   0.9632 B(  0-C ,  9-H ) :   0.9638
B(  0-C , 10-H ) :   0.9688 B(  1-C ,  2-H ) :   0.9449 B(  1-C ,  3-H ) :   0.9395
B(  1-C ,  4-S ) :   0.9153 B(  4-S ,  5-O ) :   1.9974 B(  4-S ,  6-O ) :   1.9575
B(  4-S ,  7-F ) :   1.1273

FINAL SINGLE POINT ENERGY      -727.003887795496

DIPOLE MOMENT
-------------
                                X             Y             Z
Electronic contribution:      3.79264      -7.59645      -3.92059
Nuclear contribution   :     -3.60260       8.53062       5.21025
                        -----------------------------------------
Total Dipole Moment    :      0.19003       0.93416       1.28966
                        -----------------------------------------
Magnitude (a.u.)       :      1.60375
Magnitude (Debye)      :      4.07640

Rotational constants in cm-1:     0.154011     0.080858     0.079602
Rotational constants in MHz :  4617.134198  2424.070332  2386.404775

                             ****ORCA TERMINATED NORMALLY****
TOTAL RUN TIME: 0 days 0 hours 0 minutes 23 seconds 266 msec
