                         Program Version 5.0.0 -  RELEASE  -
|  1> !LC-BLYP RIJCOSX def2-TZVP def2/J TightSCF
|  2> *xyz 0 1
|  3> C          1.96337       -1.74915       -1.89689
|  4> N          2.73849       -2.01517       -3.09711
|  5> C          4.04974       -2.15472       -3.15204
|  6> N          4.65821       -1.98629       -4.31866
|  7> C          4.76423       -2.45444       -2.05049
|  8> H          4.28736       -2.77626       -1.21750
|  9> H          5.75082       -2.65835       -2.12599
| 10> H          2.34518       -1.69027       -3.97145
| 11> H          4.10900       -1.59268       -5.07176
| 12> H          5.64910       -2.15646       -4.42724
| 13> C          2.08852       -0.30091       -1.41520
| 14> H          2.23127       -2.45162       -1.10264
| 15> H          0.93025       -1.97780       -2.15544
| 16> H          1.82118        0.36368       -2.21003
| 17> H          3.09792       -0.11068       -1.11551
| 18> H          1.43391       -0.14382       -0.58352
| 19> *
| 20> %MaxCore 64000
| 21>
| 22> %pal nprocs 4
| 23> end
| 24>
| 25> %scf
| 26>   MaxIter 150
| 27> end
| 28>
| 29>
| 30>                          ****END OF INPUT****

CARTESIAN COORDINATES (ANGSTROEM)
---------------------------------
  C      1.963370   -1.749150   -1.896890
  N      2.738490   -2.015170   -3.097110
  C      4.049740   -2.154720   -3.152040
  N      4.658210   -1.986290   -4.318660
  C      4.764230   -2.454440   -2.050490
  H      4.287360   -2.776260   -1.217500
  H      5.750820   -2.658350   -2.125990
  H      2.345180   -1.690270   -3.971450
  H      4.109000   -1.592680   -5.071760
  H      5.649100   -2.156460   -4.427240
  C      2.088520   -0.300910   -1.415200
  H      2.231270   -2.451620   -1.102640
  H      0.930250   -1.977800   -2.155440
  H      1.821180    0.363680   -2.210030
  H      3.097920   -0.110680   -1.115510
  H      1.433910   -0.143820   -0.583520

 Total Charge           Charge          ....    0
 Multiplicity           Mult            ....    1
 Number of Electrons    NEL             ....   48
 Basis Dimension        Dim             ....  246

ORBITAL ENERGIES
----------------

  NO   OCC          E(Eh)            E(eV)
   0   2.0000     -14.171424      -385.6241
   1   2.0000     -14.169277      -385.5656
   2   2.0000     -10.115719      -275.2627
   3   2.0000     -10.100827      -274.8575
   4   2.0000     -10.048378      -273.4303
   5   2.0000      -9.977197      -271.4933
   6   2.0000      -1.075280       -29.2599
   7   2.0000      -0.988492       -26.8982
   8   2.0000      -0.861663       -23.4470
   9   2.0000      -0.813262       -22.1300
  10   2.0000      -0.750511       -20.4224
  11   2.0000      -0.666617       -18.1396
  12   2.0000      -0.652075       -17.7439
  13   2.0000      -0.627830       -17.0841
  14   2.0000      -0.571903       -15.5623
  15   2.0000      -0.543581       -14.7916
  16   2.0000      -0.522022       -14.2049
  17   2.0000      -0.498908       -13.5760
  18   2.0000      -0.480088       -13.0639
  19   2.0000      -0.467851       -12.7309
  20   2.0000      -0.464160       -12.6304
  21   2.0000      -0.443491       -12.0680
  22   2.0000      -0.349093        -9.4993
  23   2.0000      -0.257666        -7.0115
  24   0.0000       0.082209         2.2370
  25   0.0000       0.113703         3.0940
  26   0.0000       0.129444         3.5223
  27   0.0000       0.141476         3.8497
  28   0.0000       0.155653         4.2355

MULLIKEN ATOMIC CHARGES
-----------------------
   0 C :   -0.204325
   1 N :   -0.245624
   2 C :    0.309190
   3 N :   -0.432546
   4 C :   -0.550465
   5 H :    0.093588
   6 H :    0.087707
   7 H :    0.178723
   8 H :    0.204685
   9 H :    0.243192
  10 C :   -0.352131
  11 H :    0.140888
  12 H :    0.134088
  13 H :    0.109037
  14 H :    0.158607
  15 H :    0.125386
Sum of atomic charges:   -0.0000000

LOEWDIN ATOMIC CHARGES
----------------------
   0 C :   -0.311114
   1 N :    0.118521
   2 C :   -0.473249
   3 N :   -0.008803
   4 C :   -0.360832
   5 H :    0.099217
   6 H :    0.095696
   7 H :    0.179047
   8 H :    0.162652
   9 H :    0.179595
  10 C :   -0.318002
  11 H :    0.139467
  12 H :    0.133880
  13 H :    0.115443
  14 H :    0.127805
  15 H :    0.120679

  Mayer bond orders larger than 0.100000
B(  0-C ,  1-N ) :   0.9382 B(  0-C , 10-C ) :   0.9231 B(  0-C , 11-H ) :   0.9758
B(  0-C , 12-H ) :   0.9831 B(  1-N ,  2-C ) :   1.1972 B(  1-N ,  7-H ) :   0.9394
B(  2-C ,  3-N ) :   1.1386 B(  2-C ,  4-C ) :   1.6276 B(  3-N ,  8-H ) :   0.9352
B(  3-N ,  9-H ) :   0.9264 B(  4-C ,  5-H ) :   1.0117 B(  4-C ,  6-H ) :   1.0026
B( 10-C , 13-H ) :   0.9745 B( 10-C , 14-H ) :   0.9688 B( 10-C , 15-H ) :   0.9763

FINAL SINGLE POINT ENERGY      -267.291706540429

DIPOLE MOMENT
-------------
                                X             Y             Z
Electronic contribution:      1.32184      -1.81082      -3.49110
Nuclear contribution   :     -1.88803       2.22658       2.57497
                        -----------------------------------------
Total Dipole Moment    :     -0.56619       0.41576      -0.91613
                        -----------------------------------------
Magnitude (a.u.)       :      1.15443
Magnitude (Debye)      :      2.93434

Rotational constants in cm-1:     0.226509     0.075782     0.067928
Rotational constants in MHz :  6790.555051  2271.890226  2036.439218

                             ****ORCA TERMINATED NORMALLY****
TOTAL RUN TIME: 0 days 0 hours 0 minutes 31 seconds 912 msec
