                         Program Version 5.0.0 -  RELEASE  -
|  1> !LC-BLYP RIJCOSX def2-TZVP def2/J TightSCF xyzfile
|  2>
|  3> *xyzfile 0 1 D1.xyz
|  4>
|  5> %MaxCore 64000
|  6>
|  7> %pal nprocs 18
|  8> end
|  9>
| 10> %scf
| 11>   MaxIter 150
| 12> end
| 13>
| 14>
| 15>                          ****END OF INPUT****

CARTESIAN COORDINATES (ANGSTROEM)
---------------------------------
  C      1.963365   -1.749150   -1.896887
  C      2.738490   -2.015170   -3.097113
  C      0.611877    1.657634   -4.500288
  C      1.694991    1.541794   -5.570447
  H      2.697326    1.734659   -5.183996
  H      1.506656    2.272239   -6.358076
  S      1.780287   -0.033128   -6.428739
  C      4.049736   -2.154717   -3.152044
  N      4.658206   -1.986293   -4.318655
  N      4.764231   -2.454435   -2.050491
  H      4.287363   -2.776259   -1.217496
  H      5.750825   -2.658351   -2.125988
  H      2.345176   -1.690274   -3.971447
  H      4.109004   -1.592677   -5.071760
  H      5.649095   -2.156462   -4.427237
  F      2.569287    0.213657   -7.607360
  O      0.416880   -0.462969   -6.618595
  C      2.088520   -0.300912   -1.415204
  H      2.231272   -2.451616   -1.102643
  H      0.930249   -1.977801   -2.155438
  C      0.680356    0.655418   -3.348038
  H     -0.356865    1.549231   -4.991128
  H      0.650228    2.675438   -4.096000
  C      1.968993    0.733582   -2.535654
  H      3.051356   -0.168602   -0.911868
  H      1.316501   -0.136231   -0.657252
  O      2.505129   -0.933263   -5.482570
  H      2.824195    0.624726   -3.208464
  H      2.058919    1.730331   -2.093112
  H      0.542252   -0.344731   -3.766662
  H     -0.174219    0.829692   -2.685182

 Total Charge           Charge          ....    0
 Multiplicity           Mult            ....    1
 Number of Electrons    NEL             ....  120
 Basis Dimension        Dim             ....  542

ORBITAL ENERGIES
----------------

  NO   OCC          E(Eh)            E(eV)
   0   2.0000     -88.528165     -2408.9738
   1   2.0000     -24.585501      -669.0055
   2   2.0000     -18.961952      -515.9809
   3   2.0000     -18.948335      -515.6104
   4   2.0000     -14.149811      -385.0359
   5   2.0000     -14.134015      -384.6061
   6   2.0000     -10.132349      -275.7152
   7   2.0000     -10.092141      -274.6211
   8   2.0000     -10.088007      -274.5086
   9   2.0000     -10.060288      -273.7543
  10   2.0000     -10.048746      -273.4403
  11   2.0000     -10.038204      -273.1534
  12   2.0000     -10.025873      -272.8179
  13   2.0000      -9.952292      -270.8156
  14   2.0000      -8.071164      -219.6275
  15   2.0000      -6.102854      -166.0671
  16   2.0000      -6.095964      -165.8796
  17   2.0000      -6.095721      -165.8730
  18   2.0000      -1.476745       -40.1843
  19   2.0000      -1.211154       -32.9572
  20   2.0000      -1.111089       -30.2343
  21   2.0000      -1.037069       -28.2201
  22   2.0000      -0.949111       -25.8266
  23   2.0000      -0.945653       -25.7325
  24   2.0000      -0.900374       -24.5004
  25   2.0000      -0.861972       -23.4554
  26   2.0000      -0.830938       -22.6110
  27   2.0000      -0.797587       -21.7034
  28   2.0000      -0.759738       -20.6735
  29   2.0000      -0.727376       -19.7929
  30   2.0000      -0.708148       -19.2697
  31   2.0000      -0.693868       -18.8811
  32   2.0000      -0.690514       -18.7898
  33   2.0000      -0.656169       -17.8553
  34   2.0000      -0.653017       -17.7695
  35   2.0000      -0.628974       -17.1152
  36   2.0000      -0.603642       -16.4259
  37   2.0000      -0.599811       -16.3217
  38   2.0000      -0.588174       -16.0050
  39   2.0000      -0.567387       -15.4394
  40   2.0000      -0.567104       -15.4317
  41   2.0000      -0.545540       -14.8449
  42   2.0000      -0.536487       -14.5986
  43   2.0000      -0.527724       -14.3601
  44   2.0000      -0.515633       -14.0311
  45   2.0000      -0.502825       -13.6826
  46   2.0000      -0.484023       -13.1709
  47   2.0000      -0.477506       -12.9936
  48   2.0000      -0.471012       -12.8169
  49   2.0000      -0.461870       -12.5681
  50   2.0000      -0.449411       -12.2291
  51   2.0000      -0.432684       -11.7739
  52   2.0000      -0.427178       -11.6241
  53   2.0000      -0.420713       -11.4482
  54   2.0000      -0.418645       -11.3919
  55   2.0000      -0.407418       -11.0864
  56   2.0000      -0.392734       -10.6868
  57   2.0000      -0.377733       -10.2786
  58   2.0000      -0.341740        -9.2992
  59   2.0000      -0.227903        -6.2016
  60   0.0000       0.083724         2.2783
  61   0.0000       0.095664         2.6032
  62   0.0000       0.099492         2.7073
  63   0.0000       0.117875         3.2076
  64   0.0000       0.121611         3.3092

MULLIKEN ATOMIC CHARGES
-----------------------
   0 C :   -0.426744
   1 C :   -0.301942
   2 C :   -0.259706
   3 C :   -0.345660
   4 H :    0.192046
   5 H :    0.177846
   6 S :    0.764951
   7 C :    0.265264
   8 N :   -0.428968
   9 N :   -0.443508
  10 H :    0.232288
  11 H :    0.205938
  12 H :    0.153195
  13 H :    0.230887
  14 H :    0.197526
  15 F :   -0.066795
  16 O :   -0.345673
  17 C :   -0.170580
  18 H :    0.106918
  19 H :    0.139857
  20 C :   -0.306554
  21 H :    0.168057
  22 H :    0.148720
  23 C :   -0.246942
  24 H :    0.115906
  25 H :    0.108524
  26 O :   -0.438206
  27 H :    0.147074
  28 H :    0.119669
  29 H :    0.174610
  30 H :    0.132002
Sum of atomic charges:    0.0000000

LOEWDIN ATOMIC CHARGES
----------------------
   0 C :   -0.303148
   1 C :   -0.295234
   2 C :   -0.287183
   3 C :   -0.380370
   4 H :    0.147465
   5 H :    0.144138
   6 S :    0.527399
   7 C :   -0.466341
   8 N :   -0.023559
   9 N :   -0.028143
  10 H :    0.172521
  11 H :    0.157691
  12 H :    0.121024
  13 H :    0.159810
  14 H :    0.154520
  15 F :    0.116529
  16 O :   -0.236194
  17 C :   -0.270342
  18 H :    0.130779
  19 H :    0.143868
  20 C :   -0.274131
  21 H :    0.151011
  22 H :    0.151911
  23 C :   -0.279115
  24 H :    0.138325
  25 H :    0.132673
  26 O :   -0.279102
  27 H :    0.142991
  28 H :    0.136023
  29 H :    0.149350
  30 H :    0.144837

  Mayer bond orders larger than 0.100000
B(  0-C ,  1-C ) :   0.9296 B(  0-C , 17-C ) :   0.8784 B(  0-C , 18-H ) :   1.0065
B(  0-C , 19-H ) :   1.0123 B(  1-C ,  7-C ) :   1.6177 B(  1-C , 12-H ) :   1.0302
B(  2-C ,  3-C ) :   0.9116 B(  2-C , 20-C ) :   0.9316 B(  2-C , 21-H ) :   0.9803
B(  2-C , 22-H ) :   0.9640 B(  3-C ,  4-H ) :   0.9376 B(  3-C ,  5-H ) :   0.9464
B(  3-C ,  6-S ) :   0.9282 B(  6-S , 15-F ) :   1.1984 B(  6-S , 16-O ) :   1.9836
B(  6-S , 26-O ) :   1.7583 B(  7-C ,  8-N ) :   1.1838 B(  7-C ,  9-N ) :   1.1426
B(  8-N , 13-H ) :   0.8880 B(  8-N , 14-H ) :   0.9399 B(  9-N , 10-H ) :   0.9250
B(  9-N , 11-H ) :   0.9359 B( 17-C , 23-C ) :   0.9527 B( 17-C , 24-H ) :   0.9840
B( 17-C , 25-H ) :   0.9913 B( 20-C , 23-C ) :   0.8579 B( 20-C , 29-H ) :   0.9796
B( 20-C , 30-H ) :   0.9820 B( 23-C , 27-H ) :   0.9810 B( 23-C , 28-H ) :   0.9839

FINAL SINGLE POINT ENERGY     -1071.509372361054

DIPOLE MOMENT
-------------
                                X             Y             Z
Electronic contribution:      0.81408      -0.99596     -23.57673
Nuclear contribution   :      0.18720       2.58739      22.98820
                        -----------------------------------------
Total Dipole Moment    :      1.00128       1.59143      -0.58853
                        -----------------------------------------
Magnitude (a.u.)       :      1.97017
Magnitude (Debye)      :      5.00778

Rotational constants in cm-1:     0.028798     0.014448     0.010940
Rotational constants in MHz :   863.355869   433.126694   327.985023

                             ****ORCA TERMINATED NORMALLY****
TOTAL RUN TIME: 0 days 0 hours 1 minutes 28 seconds 528 msec
