                         Program Version 5.0.0 -  RELEASE  -
|  1> !LC-BLYP RIJCOSX def2-TZVP def2/J TightSCF xyzfile
|  2>
|  3> *xyzfile 0 1 D3.xyz
|  4>
|  5> %MaxCore 64000
|  6>
|  7> %pal nprocs 18
|  8> end
|  9>
| 10> %scf
| 11>   MaxIter 150
| 12> end
| 13>
| 14>
| 15>                          ****END OF INPUT****

CARTESIAN COORDINATES (ANGSTROEM)
---------------------------------
  C      1.963365   -1.749150   -1.896887
  N      2.738490   -2.015170   -3.097113
  C      0.611877    1.657634   -4.500288
  C      1.694991    1.541794   -5.570447
  H      2.697326    1.734659   -5.183996
  H      1.506656    2.272239   -6.358076
  S      1.780287   -0.033128   -6.428739
  C      4.049736   -2.154717   -3.152044
  N      4.658206   -1.986293   -4.318655
  C      4.764231   -2.454435   -2.050491
  H      4.287363   -2.776259   -1.217496
  H      5.750825   -2.658351   -2.125988
  H      2.345176   -1.690274   -3.971447
  H      4.109004   -1.592677   -5.071760
  H      5.649095   -2.156462   -4.427237
  F      2.569287    0.213657   -7.607360
  O      0.416880   -0.462969   -6.618595
  C      2.088520   -0.300912   -1.415204
  H      2.231272   -2.451616   -1.102643
  H      0.930249   -1.977801   -2.155438
  C      0.680356    0.655418   -3.348038
  H     -0.356865    1.549231   -4.991128
  H      0.650228    2.675438   -4.096000
  C      1.968993    0.733582   -2.535654
  H      3.051356   -0.168602   -0.911868
  H      1.316501   -0.136231   -0.657252
  O      2.505129   -0.933263   -5.482570
  H      2.824195    0.624726   -3.208464
  H      2.058919    1.730331   -2.093112
  H      0.542252   -0.344731   -3.766662
  H     -0.174219    0.829692   -2.685182

 Total Charge           Charge          ....    0
 Multiplicity           Mult            ....    1
 Number of Electrons    NEL             ....  120
 Basis Dimension        Dim             ....  542

ORBITAL ENERGIES
----------------

  NO   OCC          E(Eh)            E(eV)
   0   2.0000     -88.548312     -2409.5221
   1   2.0000     -24.602609      -669.4710
   2   2.0000     -18.979229      -516.4511
   3   2.0000     -18.971053      -516.2286
   4   2.0000     -14.136086      -384.6624
   5   2.0000     -14.134604      -384.6221
   6   2.0000     -10.147310      -276.1223
   7   2.0000     -10.106815      -275.0204
   8   2.0000     -10.091636      -274.6074
   9   2.0000     -10.083010      -274.3727
  10   2.0000     -10.077955      -274.2351
  11   2.0000     -10.065669      -273.9008
  12   2.0000     -10.054232      -273.5896
  13   2.0000      -9.955357      -270.8990
  14   2.0000      -8.091042      -220.1684
  15   2.0000      -6.122599      -166.6044
  16   2.0000      -6.116173      -166.4295
  17   2.0000      -6.115462      -166.4102
  18   2.0000      -1.493534       -40.6411
  19   2.0000      -1.230177       -33.4748
  20   2.0000      -1.131933       -30.8015
  21   2.0000      -1.047224       -28.4964
  22   2.0000      -0.966581       -26.3020
  23   2.0000      -0.958921       -26.0936
  24   2.0000      -0.906210       -24.6592
  25   2.0000      -0.868635       -23.6367
  26   2.0000      -0.832099       -22.6426
  27   2.0000      -0.795855       -21.6563
  28   2.0000      -0.787859       -21.4387
  29   2.0000      -0.748205       -20.3597
  30   2.0000      -0.721983       -19.6462
  31   2.0000      -0.711034       -19.3482
  32   2.0000      -0.696263       -18.9463
  33   2.0000      -0.677826       -18.4446
  34   2.0000      -0.645867       -17.5749
  35   2.0000      -0.630095       -17.1458
  36   2.0000      -0.622397       -16.9363
  37   2.0000      -0.614983       -16.7345
  38   2.0000      -0.600811       -16.3489
  39   2.0000      -0.585035       -15.9196
  40   2.0000      -0.563435       -15.3318
  41   2.0000      -0.562213       -15.2986
  42   2.0000      -0.545671       -14.8485
  43   2.0000      -0.527661       -14.3584
  44   2.0000      -0.523079       -14.2337
  45   2.0000      -0.519769       -14.1436
  46   2.0000      -0.491900       -13.3853
  47   2.0000      -0.486281       -13.2324
  48   2.0000      -0.473892       -12.8953
  49   2.0000      -0.467685       -12.7263
  50   2.0000      -0.463709       -12.6182
  51   2.0000      -0.450160       -12.2495
  52   2.0000      -0.447593       -12.1796
  53   2.0000      -0.441508       -12.0140
  54   2.0000      -0.433897       -11.8069
  55   2.0000      -0.427411       -11.6304
  56   2.0000      -0.422870       -11.5069
  57   2.0000      -0.410544       -11.1715
  58   2.0000      -0.321179        -8.7397
  59   2.0000      -0.234675        -6.3858
  60   0.0000       0.070727         1.9246
  61   0.0000       0.080759         2.1976
  62   0.0000       0.105667         2.8753
  63   0.0000       0.111524         3.0347
  64   0.0000       0.117813         3.2058

MULLIKEN ATOMIC CHARGES
-----------------------
   0 C :   -0.326068
   1 N :   -0.209970
   2 C :   -0.261380
   3 C :   -0.351999
   4 H :    0.200500
   5 H :    0.185207
   6 S :    0.786684
   7 C :    0.288086
   8 N :   -0.437636
   9 C :   -0.565472
  10 H :    0.086881
  11 H :    0.080032
  12 H :    0.219791
  13 H :    0.222694
  14 H :    0.224220
  15 F :   -0.060048
  16 O :   -0.340982
  17 C :   -0.157980
  18 H :    0.154959
  19 H :    0.164708
  20 C :   -0.303192
  21 H :    0.172848
  22 H :    0.156140
  23 C :   -0.312075
  24 H :    0.149403
  25 H :    0.118974
  26 O :   -0.470991
  27 H :    0.150497
  28 H :    0.129970
  29 H :    0.166374
  30 H :    0.139824
Sum of atomic charges:   -0.0000000

LOEWDIN ATOMIC CHARGES
----------------------
   0 C :   -0.295553
   1 N :    0.124647
   2 C :   -0.285234
   3 C :   -0.377939
   4 H :    0.149611
   5 H :    0.146782
   6 S :    0.537255
   7 C :   -0.472626
   8 N :   -0.018855
   9 C :   -0.379711
  10 H :    0.096081
  11 H :    0.092228
  12 H :    0.163743
  13 H :    0.148024
  14 H :    0.170395
  15 F :    0.124408
  16 O :   -0.230802
  17 C :   -0.276462
  18 H :    0.140958
  19 H :    0.134924
  20 C :   -0.278355
  21 H :    0.152383
  22 H :    0.154560
  23 C :   -0.281658
  24 H :    0.148648
  25 H :    0.139003
  26 O :   -0.298934
  27 H :    0.142088
  28 H :    0.140554
  29 H :    0.142744
  30 H :    0.147091

  Mayer bond orders larger than 0.100000
B(  0-C ,  1-N ) :   0.9433 B(  0-C , 17-C ) :   0.8794 B(  0-C , 18-H ) :   0.9900
B(  0-C , 19-H ) :   0.9945 B(  1-N ,  7-C ) :   1.2094 B(  1-N , 12-H ) :   0.9080
B(  2-C ,  3-C ) :   0.9078 B(  2-C , 20-C ) :   0.9321 B(  2-C , 21-H ) :   0.9797
B(  2-C , 22-H ) :   0.9626 B(  3-C ,  4-H ) :   0.9345 B(  3-C ,  5-H ) :   0.9459
B(  3-C ,  6-S ) :   0.9294 B(  6-S , 15-F ) :   1.2120 B(  6-S , 16-O ) :   1.9889
B(  6-S , 26-O ) :   1.7171 B(  7-C ,  8-N ) :   1.1534 B(  7-C ,  9-C ) :   1.6166
B(  8-N , 13-H ) :   0.8991 B(  8-N , 14-H ) :   0.9344 B(  9-C , 10-H ) :   1.0040
B(  9-C , 11-H ) :   1.0024 B( 17-C , 23-C ) :   0.9410 B( 17-C , 24-H ) :   0.9727
B( 17-C , 25-H ) :   0.9861 B( 20-C , 23-C ) :   0.8572 B( 20-C , 29-H ) :   0.9805
B( 20-C , 30-H ) :   0.9814 B( 23-C , 27-H ) :   0.9752 B( 23-C , 28-H ) :   0.9799

FINAL SINGLE POINT ENERGY     -1071.518559507765

DIPOLE MOMENT
-------------
                                X             Y             Z
Electronic contribution:     -1.12132      -0.19122     -24.61049
Nuclear contribution   :      0.44707       2.53104      23.12246
                        -----------------------------------------
Total Dipole Moment    :     -0.67426       2.33983      -1.48802
                        -----------------------------------------
Magnitude (a.u.)       :      2.85370
Magnitude (Debye)      :      7.25354

Rotational constants in cm-1:     0.028906     0.014696     0.011110
Rotational constants in MHz :   866.591909   440.585554   333.081943

                             ****ORCA TERMINATED NORMALLY****
TOTAL RUN TIME: 0 days 0 hours 1 minutes 18 seconds 14 msec
