                         Program Version 5.0.0 -  RELEASE  -
|  1> !LC-BLYP RIJCOSX def2-TZVP def2/J TightSCF xyzfile
|  2>
|  3> *xyzfile 0 1 D8.xyz
|  4>
|  5> %MaxCore 64000
|  6>
|  7> %pal nprocs 18
|  8> end
|  9>
| 10> %scf
| 11>   MaxIter 150
| 12> end
| 13>
| 14>
| 15>                          ****END OF INPUT****

CARTESIAN COORDINATES (ANGSTROEM)
---------------------------------
  C      1.963365   -1.749150   -1.896887
  N      2.738490   -2.015170   -3.097113
  C      0.611877    1.657634   -4.500288
  C      1.694991    1.541794   -5.570447
  H      2.697326    1.734659   -5.183996
  H      1.506656    2.272239   -6.358076
  S      1.780287   -0.033128   -6.428739
  C      4.049736   -2.154717   -3.152044
  C      4.658206   -1.986293   -4.318655
  N      4.764231   -2.454435   -2.050491
  H      4.287363   -2.776259   -1.217496
  H      5.750825   -2.658351   -2.125988
  H      2.345176   -1.690274   -3.971447
  H      4.109004   -1.592677   -5.071760
  H      5.649095   -2.156462   -4.427237
  O      2.569287    0.213657   -7.607360
  O      0.416880   -0.462969   -6.618595
  C      2.088520   -0.300912   -1.415204
  H      2.231272   -2.451616   -1.102643
  H      0.930249   -1.977801   -2.155438
  C      0.680356    0.655418   -3.348038
  H     -0.356865    1.549231   -4.991128
  H      0.650228    2.675438   -4.096000
  C      1.968993    0.733582   -2.535654
  H      3.051356   -0.168602   -0.911868
  H      1.316501   -0.136231   -0.657252
  F      2.505129   -0.933263   -5.482570
  H      2.824195    0.624726   -3.208464
  H      2.058919    1.730331   -2.093112
  H      0.542252   -0.344731   -3.766662
  H     -0.174219    0.829692   -2.685182

 Total Charge           Charge          ....    0
 Multiplicity           Mult            ....    1
 Number of Electrons    NEL             ....  120
 Basis Dimension        Dim             ....  542

ORBITAL ENERGIES
----------------

  NO   OCC          E(Eh)            E(eV)
   0   2.0000     -88.519648     -2408.7421
   1   2.0000     -24.560996      -668.3387
   2   2.0000     -18.957459      -515.8587
   3   2.0000     -18.955355      -515.8014
   4   2.0000     -14.168411      -385.5421
   5   2.0000     -14.165024      -385.4499
   6   2.0000     -10.130194      -275.6566
   7   2.0000     -10.115165      -275.2476
   8   2.0000     -10.108828      -275.0752
   9   2.0000     -10.098358      -274.7903
  10   2.0000     -10.085434      -274.4386
  11   2.0000     -10.078360      -274.2461
  12   2.0000     -10.074423      -274.1390
  13   2.0000      -9.975896      -271.4579
  14   2.0000      -8.062619      -219.3950
  15   2.0000      -6.094736      -165.8462
  16   2.0000      -6.087479      -165.6487
  17   2.0000      -6.086803      -165.6303
  18   2.0000      -1.440184       -39.1894
  19   2.0000      -1.216694       -33.1079
  20   2.0000      -1.123706       -30.5776
  21   2.0000      -1.072005       -29.1707
  22   2.0000      -0.987811       -26.8797
  23   2.0000      -0.955659       -26.0048
  24   2.0000      -0.911007       -24.7898
  25   2.0000      -0.875287       -23.8178
  26   2.0000      -0.828437       -22.5429
  27   2.0000      -0.819976       -22.3127
  28   2.0000      -0.781250       -21.2589
  29   2.0000      -0.745624       -20.2895
  30   2.0000      -0.705363       -19.1939
  31   2.0000      -0.702665       -19.1205
  32   2.0000      -0.680220       -18.5097
  33   2.0000      -0.675809       -18.3897
  34   2.0000      -0.655866       -17.8470
  35   2.0000      -0.638476       -17.3738
  36   2.0000      -0.611778       -16.6473
  37   2.0000      -0.606484       -16.5033
  38   2.0000      -0.593165       -16.1408
  39   2.0000      -0.587290       -15.9810
  40   2.0000      -0.575517       -15.6606
  41   2.0000      -0.565211       -15.3802
  42   2.0000      -0.550942       -14.9919
  43   2.0000      -0.540510       -14.7080
  44   2.0000      -0.528211       -14.3733
  45   2.0000      -0.511756       -13.9256
  46   2.0000      -0.504668       -13.7327
  47   2.0000      -0.496707       -13.5161
  48   2.0000      -0.485731       -13.2174
  49   2.0000      -0.476973       -12.9791
  50   2.0000      -0.470386       -12.7998
  51   2.0000      -0.464534       -12.6406
  52   2.0000      -0.448557       -12.2058
  53   2.0000      -0.444745       -12.1021
  54   2.0000      -0.437919       -11.9164
  55   2.0000      -0.429864       -11.6972
  56   2.0000      -0.428637       -11.6638
  57   2.0000      -0.425449       -11.5771
  58   2.0000      -0.352792        -9.6000
  59   2.0000      -0.257870        -7.0170
  60   0.0000       0.078280         2.1301
  61   0.0000       0.088547         2.4095
  62   0.0000       0.101516         2.7624
  63   0.0000       0.105273         2.8646
  64   0.0000       0.115748         3.1497

MULLIKEN ATOMIC CHARGES
-----------------------
   0 C :   -0.368055
   1 N :   -0.209169
   2 C :   -0.236294
   3 C :   -0.373765
   4 H :    0.198008
   5 H :    0.200247
   6 S :    0.765167
   7 C :    0.344424
   8 C :   -0.588374
   9 N :   -0.461822
  10 H :    0.218078
  11 H :    0.236748
  12 H :    0.213894
  13 H :    0.101194
  14 H :    0.100565
  15 O :   -0.363324
  16 O :   -0.366036
  17 C :   -0.149668
  18 H :    0.145624
  19 H :    0.179965
  20 C :   -0.333141
  21 H :    0.173810
  22 H :    0.148257
  23 C :   -0.315269
  24 H :    0.138030
  25 H :    0.125282
  26 F :   -0.126780
  27 H :    0.163955
  28 H :    0.138926
  29 H :    0.156307
  30 H :    0.143214
Sum of atomic charges:   -0.0000000

LOEWDIN ATOMIC CHARGES
----------------------
   0 C :   -0.309393
   1 N :    0.122592
   2 C :   -0.293055
   3 C :   -0.376563
   4 H :    0.146680
   5 H :    0.158508
   6 S :    0.529258
   7 C :   -0.468520
   8 C :   -0.360004
   9 N :   -0.017649
  10 H :    0.161501
  11 H :    0.176271
  12 H :    0.174595
  13 H :    0.094369
  14 H :    0.097616
  15 O :   -0.244473
  16 O :   -0.248697
  17 C :   -0.278842
  18 H :    0.133247
  19 H :    0.140027
  20 C :   -0.282656
  21 H :    0.152461
  22 H :    0.151008
  23 C :   -0.281416
  24 H :    0.143480
  25 H :    0.141383
  26 F :    0.066346
  27 H :    0.142885
  28 H :    0.144181
  29 H :    0.137106
  30 H :    0.147751

  Mayer bond orders larger than 0.100000
B(  0-C ,  1-N ) :   0.9380 B(  0-C , 17-C ) :   0.8514 B(  0-C , 18-H ) :   1.0032
B(  0-C , 19-H ) :   0.9928 B(  1-N ,  7-C ) :   1.2155 B(  1-N , 12-H ) :   0.9268
B(  2-C ,  3-C ) :   0.8919 B(  2-C , 20-C ) :   0.9254 B(  2-C , 21-H ) :   0.9793
B(  2-C , 22-H ) :   0.9631 B(  3-C ,  4-H ) :   0.9437 B(  3-C ,  5-H ) :   0.9492
B(  3-C ,  6-S ) :   0.9171 B(  6-S , 15-O ) :   2.0213 B(  6-S , 16-O ) :   1.9592
B(  6-S , 26-F ) :   1.0407 B(  7-C ,  8-C ) :   1.5878 B(  7-C ,  9-N ) :   1.1164
B(  8-C , 13-H ) :   1.0106 B(  8-C , 14-H ) :   1.0082 B(  9-N , 10-H ) :   0.9267
B(  9-N , 11-H ) :   0.9323 B( 17-C , 23-C ) :   0.9281 B( 17-C , 24-H ) :   0.9801
B( 17-C , 25-H ) :   0.9806 B( 20-C , 23-C ) :   0.8478 B( 20-C , 29-H ) :   0.9889
B( 20-C , 30-H ) :   0.9805 B( 23-C , 27-H ) :   0.9765 B( 23-C , 28-H ) :   0.9810

FINAL SINGLE POINT ENERGY     -1071.524748970021

DIPOLE MOMENT
-------------
                                X             Y             Z
Electronic contribution:     -0.85340      -2.93879     -18.31640
Nuclear contribution   :      0.50676       3.90127      20.40426
                        -----------------------------------------
Total Dipole Moment    :     -0.34664       0.96248       2.08786
                        -----------------------------------------
Magnitude (a.u.)       :      2.32502
Magnitude (Debye)      :      5.90972

Rotational constants in cm-1:     0.029548     0.014706     0.011197
Rotational constants in MHz :   885.834387   440.871746   335.667619

                             ****ORCA TERMINATED NORMALLY****
TOTAL RUN TIME: 0 days 0 hours 1 minutes 28 seconds 220 msec
