                         Program Version 5.0.0 -  RELEASE  -
|  1> !LC-BLYP RIJCOSX def2-TZVP def2/J TightSCF xyzfile
|  2>
|  3> *xyzfile 0 1 D9.xyz
|  4>
|  5> %MaxCore 64000
|  6>
|  7> %pal nprocs 18
|  8> end
|  9>
| 10> %scf
| 11>   MaxIter 150
| 12> end
| 13>
| 14>
| 15>                          ****END OF INPUT****

CARTESIAN COORDINATES (ANGSTROEM)
---------------------------------
  C      1.963365   -1.749150   -1.896887
  N      2.738490   -2.015170   -3.097113
  C      0.611877    1.657634   -4.500288
  C      1.694991    1.541794   -5.570447
  H      2.697326    1.734659   -5.183996
  H      1.506656    2.272239   -6.358076
  S      1.780287   -0.033128   -6.428739
  C      4.049736   -2.154717   -3.152044
  N      4.658206   -1.986293   -4.318655
  C      4.764231   -2.454435   -2.050491
  H      4.287363   -2.776259   -1.217496
  H      5.750825   -2.658351   -2.125988
  H      2.345176   -1.690274   -3.971447
  H      4.109004   -1.592677   -5.071760
  H      5.649095   -2.156462   -4.427237
  O      2.569287    0.213657   -7.607360
  O      0.416880   -0.462969   -6.618595
  C      2.088520   -0.300912   -1.415204
  H      2.231272   -2.451616   -1.102643
  H      0.930249   -1.977801   -2.155438
  C      0.680356    0.655418   -3.348038
  H     -0.356865    1.549231   -4.991128
  H      0.650228    2.675438   -4.096000
  C      1.968993    0.733582   -2.535654
  H      3.051356   -0.168602   -0.911868
  H      1.316501   -0.136231   -0.657252
  F      2.505129   -0.933263   -5.482570
  H      2.824195    0.624726   -3.208464
  H      2.058919    1.730331   -2.093112
  H      0.542252   -0.344731   -3.766662
  H     -0.174219    0.829692   -2.685182

 Total Charge           Charge          ....    0
 Multiplicity           Mult            ....    1
 Number of Electrons    NEL             ....  120
 Basis Dimension        Dim             ....  542

ORBITAL ENERGIES
----------------

  NO   OCC          E(Eh)            E(eV)
   0   2.0000     -88.533768     -2409.1263
   1   2.0000     -24.583806      -668.9594
   2   2.0000     -18.970624      -516.2169
   3   2.0000     -18.970094      -516.2025
   4   2.0000     -14.166692      -385.4953
   5   2.0000     -14.165251      -385.4561
   6   2.0000     -10.140518      -275.9375
   7   2.0000     -10.115158      -275.2474
   8   2.0000     -10.103982      -274.9433
   9   2.0000     -10.101723      -274.8818
  10   2.0000     -10.087977      -274.5078
  11   2.0000     -10.078909      -274.2611
  12   2.0000     -10.068554      -273.9793
  13   2.0000      -9.977403      -271.4989
  14   2.0000      -8.076944      -219.7848
  15   2.0000      -6.109297      -166.2424
  16   2.0000      -6.101556      -166.0318
  17   2.0000      -6.101035      -166.0176
  18   2.0000      -1.462137       -39.7868
  19   2.0000      -1.231274       -33.5047
  20   2.0000      -1.137507       -30.9531
  21   2.0000      -1.075913       -29.2771
  22   2.0000      -0.990292       -26.9472
  23   2.0000      -0.961693       -26.1690
  24   2.0000      -0.911678       -24.8080
  25   2.0000      -0.872758       -23.7490
  26   2.0000      -0.843809       -22.9612
  27   2.0000      -0.805965       -21.9314
  28   2.0000      -0.804129       -21.8815
  29   2.0000      -0.750416       -20.4198
  30   2.0000      -0.716223       -19.4894
  31   2.0000      -0.709628       -19.3099
  32   2.0000      -0.692006       -18.8305
  33   2.0000      -0.672770       -18.3070
  34   2.0000      -0.654017       -17.7967
  35   2.0000      -0.646371       -17.5887
  36   2.0000      -0.625515       -17.0211
  37   2.0000      -0.615143       -16.7389
  38   2.0000      -0.609192       -16.5770
  39   2.0000      -0.590009       -16.0550
  40   2.0000      -0.577482       -15.7141
  41   2.0000      -0.567527       -15.4432
  42   2.0000      -0.552013       -15.0211
  43   2.0000      -0.543262       -14.7829
  44   2.0000      -0.532373       -14.4866
  45   2.0000      -0.517125       -14.0717
  46   2.0000      -0.505764       -13.7625
  47   2.0000      -0.502527       -13.6745
  48   2.0000      -0.483256       -13.1501
  49   2.0000      -0.475794       -12.9470
  50   2.0000      -0.472292       -12.8517
  51   2.0000      -0.465362       -12.6632
  52   2.0000      -0.459293       -12.4980
  53   2.0000      -0.448778       -12.2119
  54   2.0000      -0.441849       -12.0233
  55   2.0000      -0.439157       -11.9501
  56   2.0000      -0.435742       -11.8571
  57   2.0000      -0.424824       -11.5600
  58   2.0000      -0.347970        -9.4687
  59   2.0000      -0.257655        -7.0112
  60   0.0000       0.069703         1.8967
  61   0.0000       0.091909         2.5010
  62   0.0000       0.097246         2.6462
  63   0.0000       0.103221         2.8088
  64   0.0000       0.114350         3.1116

MULLIKEN ATOMIC CHARGES
-----------------------
   0 C :   -0.328012
   1 N :   -0.219072
   2 C :   -0.235521
   3 C :   -0.374080
   4 H :    0.197676
   5 H :    0.204670
   6 S :    0.761073
   7 C :    0.293959
   8 N :   -0.440710
   9 C :   -0.550374
  10 H :    0.094756
  11 H :    0.089665
  12 H :    0.195619
  13 H :    0.215167
  14 H :    0.240057
  15 O :   -0.360494
  16 O :   -0.354595
  17 C :   -0.155799
  18 H :    0.162931
  19 H :    0.173698
  20 C :   -0.334552
  21 H :    0.175493
  22 H :    0.151441
  23 C :   -0.317975
  24 H :    0.154880
  25 H :    0.127796
  26 F :   -0.150677
  27 H :    0.140064
  28 H :    0.139973
  29 H :    0.156259
  30 H :    0.146685
Sum of atomic charges:   -0.0000000

LOEWDIN ATOMIC CHARGES
----------------------
   0 C :   -0.291718
   1 N :    0.120607
   2 C :   -0.292478
   3 C :   -0.375865
   4 H :    0.146118
   5 H :    0.159940
   6 S :    0.527548
   7 C :   -0.476229
   8 N :   -0.014741
   9 C :   -0.359372
  10 H :    0.098958
  11 H :    0.095657
  12 H :    0.161043
  13 H :    0.150314
  14 H :    0.178336
  15 O :   -0.243777
  16 O :   -0.240135
  17 C :   -0.275303
  18 H :    0.143695
  19 H :    0.137341
  20 C :   -0.282807
  21 H :    0.152747
  22 H :    0.152301
  23 C :   -0.282592
  24 H :    0.149642
  25 H :    0.141935
  26 F :    0.051457
  27 H :    0.137334
  28 H :    0.144331
  29 H :    0.136599
  30 H :    0.149112

  Mayer bond orders larger than 0.100000
B(  0-C ,  1-N ) :   0.9248 B(  0-C , 17-C ) :   0.8776 B(  0-C , 18-H ) :   0.9885
B(  0-C , 19-H ) :   0.9917 B(  1-N ,  7-C ) :   1.1902 B(  1-N , 12-H ) :   0.9334
B(  2-C ,  3-C ) :   0.8901 B(  2-C , 20-C ) :   0.9216 B(  2-C , 21-H ) :   0.9795
B(  2-C , 22-H ) :   0.9615 B(  3-C ,  4-H ) :   0.9416 B(  3-C ,  5-H ) :   0.9476
B(  3-C ,  6-S ) :   0.9188 B(  6-S , 15-O ) :   2.0242 B(  6-S , 16-O ) :   1.9698
B(  6-S , 26-F ) :   1.0120 B(  7-C ,  8-N ) :   1.1359 B(  7-C ,  9-C ) :   1.6363
B(  8-N , 13-H ) :   0.9213 B(  8-N , 14-H ) :   0.9281 B(  9-C , 10-H ) :   1.0026
B(  9-C , 11-H ) :   1.0013 B( 17-C , 23-C ) :   0.9313 B( 17-C , 24-H ) :   0.9742
B( 17-C , 25-H ) :   0.9854 B( 20-C , 23-C ) :   0.8449 B( 20-C , 29-H ) :   0.9915
B( 20-C , 30-H ) :   0.9807 B( 23-C , 27-H ) :   0.9804 B( 23-C , 28-H ) :   0.9807

FINAL SINGLE POINT ENERGY     -1071.527463041841

DIPOLE MOMENT
-------------
                                X             Y             Z
Electronic contribution:     -1.04437      -2.35983     -20.38011
Nuclear contribution   :      0.52036       3.84122      20.69523
                        -----------------------------------------
Total Dipole Moment    :     -0.52401       1.48139       0.31512
                        -----------------------------------------
Magnitude (a.u.)       :      1.60262
Magnitude (Debye)      :      4.07355

Rotational constants in cm-1:     0.029184     0.014996     0.011314
Rotational constants in MHz :   874.907122   449.569665   339.178205

                             ****ORCA TERMINATED NORMALLY****
TOTAL RUN TIME: 0 days 0 hours 1 minutes 13 seconds 726 msec
