                         Program Version 5.0.0 -  RELEASE  -
|  1> !B3LYP D3BJ RIJCOSX def2-SVP def2/J TightSCF
|  2> *xyz -1 1
|  3> C          3.80351        1.37472       -3.26081
|  4> C          3.93993        0.32036       -4.36773
|  5> H          4.10504       -0.65508       -3.90773
|  6> H          3.02280        0.28052       -4.95712
|  7> C          5.10585        0.66802       -5.30546
|  8> O          4.80913        1.15019       -6.41436
|  9> O          6.26737        0.56500       -4.81948
| 10> H          3.64113        2.33595       -3.70189
| 11> H          4.69995        1.39701       -2.67703
| 12> H          2.97435        1.12625       -2.63180
| 13> *
| 14>
| 15> %MaxCore 64000
| 16>
| 17> %pal nprocs 4
| 18> end
| 19>
| 20> %scf
| 21>   MaxIter 150
| 22> end
| 23>
| 24>
| 25>                          ****END OF INPUT****

CARTESIAN COORDINATES (ANGSTROEM)
---------------------------------
  C      3.803510    1.374720   -3.260810
  C      3.939930    0.320360   -4.367730
  H      4.105040   -0.655080   -3.907730
  H      3.022800    0.280520   -4.957120
  C      5.105850    0.668020   -5.305460
  O      4.809130    1.150190   -6.414360
  O      6.267370    0.565000   -4.819480
  H      3.641130    2.335950   -3.701890
  H      4.699950    1.397010   -2.677030
  H      2.974350    1.126250   -2.631800

 Total Charge           Charge          ....   -1
 Multiplicity           Mult            ....    1
 Number of Electrons    NEL             ....   40
 Basis Dimension        Dim             ....   95

ORBITAL ENERGIES
----------------

  NO   OCC          E(Eh)            E(eV)
   0   2.0000     -18.832768      -512.4657
   1   2.0000     -18.829020      -512.3637
   2   2.0000     -10.032265      -272.9918
   3   2.0000     -10.011745      -272.4334
   4   2.0000      -9.988020      -271.7878
   5   2.0000      -0.772742       -21.0274
   6   2.0000      -0.680260       -18.5108
   7   2.0000      -0.581659       -15.8277
   8   2.0000      -0.448717       -12.2102
   9   2.0000      -0.297027        -8.0825
  10   2.0000      -0.276006        -7.5105
  11   2.0000      -0.233891        -6.3645
  12   2.0000      -0.207466        -5.6454
  13   2.0000      -0.191041        -5.1985
  14   2.0000      -0.181497        -4.9388
  15   2.0000      -0.148391        -4.0379
  16   2.0000      -0.135564        -3.6889
  17   2.0000      -0.010874        -0.2959
  18   2.0000      -0.004888        -0.1330
  19   2.0000       0.008806         0.2396
  20   0.0000       0.218198         5.9375
  21   0.0000       0.267574         7.2810
  22   0.0000       0.278211         7.5705
  23   0.0000       0.282928         7.6989
  24   0.0000       0.295610         8.0439

MULLIKEN ATOMIC CHARGES
-----------------------
   0 C :    0.042693
   1 C :    0.059686
   2 H :   -0.068474
   3 H :   -0.075759
   4 C :    0.012739
   5 O :   -0.416223
   6 O :   -0.448658
   7 H :   -0.025128
   8 H :   -0.021186
   9 H :   -0.059690
Sum of atomic charges:   -1.0000000

LOEWDIN ATOMIC CHARGES
----------------------
   0 C :   -0.051498
   1 C :   -0.082883
   2 H :   -0.008051
   3 H :   -0.011704
   4 C :   -0.056953
   5 O :   -0.381144
   6 O :   -0.409327
   7 H :    0.006552
   8 H :    0.006141
   9 H :   -0.011133

  Mayer bond orders larger than 0.100000
B(  0-C ,  1-C ) :   1.1110 B(  0-C ,  7-H ) :   0.9671 B(  0-C ,  8-H ) :   0.9617
B(  0-C ,  9-H ) :   0.9617 B(  1-C ,  2-H ) :   0.9222 B(  1-C ,  3-H ) :   0.9238
B(  1-C ,  4-C ) :   0.9194 B(  4-C ,  5-O ) :   1.8727 B(  4-C ,  6-O ) :   1.8223
B(  5-O ,  6-O ) :   0.1199

Dispersion correction           -0.011022954
FINAL SINGLE POINT ENERGY      -267.478679577899

DIPOLE MOMENT
-------------
                                X             Y             Z
Electronic contribution:      3.91665      -0.43287      -4.65231
Nuclear contribution   :     -5.15232       0.33441       5.87398
                        -----------------------------------------
Total Dipole Moment    :     -1.23567      -0.09846       1.22167
                        -----------------------------------------
Magnitude (a.u.)       :      1.74042
Magnitude (Debye)      :      4.42379

Rotational constants in cm-1:     0.295355     0.137164     0.110193
Rotational constants in MHz :  8854.523706  4112.077980  3303.490503

                             ****ORCA TERMINATED NORMALLY****
TOTAL RUN TIME: 0 days 0 hours 0 minutes 10 seconds 752 msec
