                         Program Version 5.0.0 -  RELEASE  -
|  1> !B3LYP D3BJ RIJCOSX def2-SVP def2/J TightSCF
|  2> *xyz 1 1
|  3> C          3.90595        2.81985       -3.75292
|  4> N          5.29562        3.13151       -4.10533
|  5> C          3.80351        1.37472       -3.26081
|  6> C          5.70862        3.46889       -5.32419
|  7> N          6.90470        3.03895       -5.71708
|  8> N          4.98188        4.29357       -6.09746
|  9> H          5.00055        4.10131       -7.08776
| 10> H          4.08469        4.59690       -5.73965
| 11> H          5.96336        2.52611       -3.64239
| 12> H          7.04716        2.06686       -5.47360
| 13> H          7.19815        3.30799       -6.64523
| 14> H          3.28202        2.94919       -4.64026
| 15> H          3.56525        3.51457       -2.98252
| 16> H          4.14157        0.71142       -4.02935
| 17> H          2.78528        1.15146       -3.01944
| 18> H          4.41205        1.25066       -2.38949
| 19> *
| 20>
| 21> %MaxCore 64000
| 22>
| 23> %pal nprocs 4
| 24> end
| 25>
| 26> %scf
| 27>   MaxIter 150
| 28> end
| 29>
| 30>
| 31>                          ****END OF INPUT****

CARTESIAN COORDINATES (ANGSTROEM)
---------------------------------
  C      3.905950    2.819850   -3.752920
  N      5.295620    3.131510   -4.105330
  C      3.803510    1.374720   -3.260810
  C      5.708620    3.468890   -5.324190
  N      6.904700    3.038950   -5.717080
  N      4.981880    4.293570   -6.097460
  H      5.000550    4.101310   -7.087760
  H      4.084690    4.596900   -5.739650
  H      5.963360    2.526110   -3.642390
  H      7.047160    2.066860   -5.473600
  H      7.198150    3.307990   -6.645230
  H      3.282020    2.949190   -4.640260
  H      3.565250    3.514570   -2.982520
  H      4.141570    0.711420   -4.029350
  H      2.785280    1.151460   -3.019440
  H      4.412050    1.250660   -2.389490

 Total Charge           Charge          ....    1
 Multiplicity           Mult            ....    1
 Number of Electrons    NEL             ....   48
 Basis Dimension        Dim             ....  134

ORBITAL ENERGIES
----------------

  NO   OCC          E(Eh)            E(eV)
   0   2.0000     -14.554782      -396.0558
   1   2.0000     -14.553433      -396.0190
   2   2.0000     -14.551443      -395.9649
   3   2.0000     -10.516228      -286.1611
   4   2.0000     -10.392313      -282.7892
   5   2.0000     -10.327894      -281.0363
   6   2.0000      -1.210848       -32.9488
   7   2.0000      -1.098741       -29.8983
   8   2.0000      -1.090271       -29.6678
   9   2.0000      -0.926519       -25.2119
  10   2.0000      -0.828808       -22.5530
  11   2.0000      -0.803645       -21.8683
  12   2.0000      -0.775022       -21.0894
  13   2.0000      -0.743233       -20.2244
  14   2.0000      -0.700187       -19.0531
  15   2.0000      -0.688206       -18.7270
  16   2.0000      -0.649435       -17.6720
  17   2.0000      -0.626778       -17.0555
  18   2.0000      -0.593441       -16.1483
  19   2.0000      -0.558436       -15.1958
  20   2.0000      -0.535670       -14.5763
  21   2.0000      -0.520980       -14.1766
  22   2.0000      -0.486577       -13.2404
  23   2.0000      -0.457624       -12.4526
  24   0.0000      -0.186324        -5.0701
  25   0.0000      -0.138326        -3.7640
  26   0.0000      -0.104292        -2.8379
  27   0.0000      -0.089678        -2.4403
  28   0.0000      -0.072069        -1.9611

MULLIKEN ATOMIC CHARGES
-----------------------
   0 C :    0.065015
   1 N :   -0.090038
   2 C :   -0.007032
   3 C :   -0.020452
   4 N :    0.005430
   5 N :   -0.006625
   6 H :    0.168655
   7 H :    0.166242
   8 H :    0.147470
   9 H :    0.168895
  10 H :    0.161427
  11 H :    0.032431
  12 H :    0.071452
  13 H :    0.024016
  14 H :    0.064880
  15 H :    0.048234
Sum of atomic charges:    1.0000000

LOEWDIN ATOMIC CHARGES
----------------------
   0 C :    0.048899
   1 N :    0.037978
   2 C :   -0.036488
   3 C :    0.131126
   4 N :    0.055467
   5 N :    0.055286
   6 H :    0.107281
   7 H :    0.106771
   8 H :    0.099224
   9 H :    0.107352
  10 H :    0.107713
  11 H :    0.025808
  12 H :    0.042002
  13 H :    0.025752
  14 H :    0.051013
  15 H :    0.034814

  Mayer bond orders larger than 0.100000
B(  0-C ,  1-N ) :   0.9315 B(  0-C ,  2-C ) :   1.1113 B(  0-C , 11-H ) :   0.9462
B(  0-C , 12-H ) :   0.9441 B(  1-N ,  3-C ) :   1.3978 B(  1-N ,  8-H ) :   0.9107
B(  2-C , 13-H ) :   0.9710 B(  2-C , 14-H ) :   0.9585 B(  2-C , 15-H ) :   0.9668
B(  3-C ,  4-N ) :   1.3751 B(  3-C ,  5-N ) :   1.3815 B(  4-N ,  9-H ) :   0.9293
B(  4-N , 10-H ) :   0.9281 B(  5-N ,  6-H ) :   0.9280 B(  5-N ,  7-H ) :   0.9233

Dispersion correction           -0.020056513
FINAL SINGLE POINT ENERGY      -284.022656149605

DIPOLE MOMENT
-------------
                                X             Y             Z
Electronic contribution:      3.55531       3.40838      -2.72265
Nuclear contribution   :     -3.31456      -3.64300       1.57303
                        -----------------------------------------
Total Dipole Moment    :      0.24074      -0.23462      -1.14962
                        -----------------------------------------
Magnitude (a.u.)       :      1.19775
Magnitude (Debye)      :      3.04445

Rotational constants in cm-1:     0.229487     0.071000     0.059428
Rotational constants in MHz :  6879.840828  2128.520047  1781.605314

                             ****ORCA TERMINATED NORMALLY****
TOTAL RUN TIME: 0 days 0 hours 0 minutes 16 seconds 494 msec
