                         Program Version 5.0.0 -  RELEASE  -
|  1> !B3LYP D3BJ RIJCOSX def2-SVP def2/J TightSCF
|  2> *xyz 0 1
|  3> C          3.80351        1.37472       -3.26081
|  4> C          3.93993        0.32036       -4.36773
|  5> H          4.10504       -0.65508       -3.90773
|  6> H          3.02280        0.28052       -4.95712
|  7> C          5.10585        0.66802       -5.30546
|  8> F          4.80913        1.15019       -6.41436
|  9> O          6.26737        0.56500       -4.81948
| 10> H          3.64113        2.33595       -3.70189
| 11> H          4.69995        1.39701       -2.67703
| 12> H          2.97435        1.12625       -2.63180
| 13> *
| 14>
| 15> %MaxCore 64000
| 16>
| 17> %pal nprocs 4
| 18> end
| 19>
| 20> %scf
| 21>   MaxIter 150
| 22> end
| 23>
| 24>
| 25>                          ****END OF INPUT****

CARTESIAN COORDINATES (ANGSTROEM)
---------------------------------
  C      3.803510    1.374720   -3.260810
  C      3.939930    0.320360   -4.367730
  H      4.105040   -0.655080   -3.907730
  H      3.022800    0.280520   -4.957120
  C      5.105850    0.668020   -5.305460
  F      4.809130    1.150190   -6.414360
  O      6.267370    0.565000   -4.819480
  H      3.641130    2.335950   -3.701890
  H      4.699950    1.397010   -2.677030
  H      2.974350    1.126250   -2.631800

 Total Charge           Charge          ....    0
 Multiplicity           Mult            ....    1
 Number of Electrons    NEL             ....   40
 Basis Dimension        Dim             ....   95

ORBITAL ENERGIES
----------------

  NO   OCC          E(Eh)            E(eV)
   0   2.0000     -24.755090      -673.6202
   1   2.0000     -19.130846      -520.5768
   2   2.0000     -10.353138      -281.7232
   3   2.0000     -10.209036      -277.8020
   4   2.0000     -10.189419      -277.2682
   5   2.0000      -1.302191       -35.4344
   6   2.0000      -1.008668       -27.4473
   7   2.0000      -0.788722       -21.4622
   8   2.0000      -0.678085       -18.4516
   9   2.0000      -0.632609       -17.2142
  10   2.0000      -0.546021       -14.8580
  11   2.0000      -0.531262       -14.4564
  12   2.0000      -0.496360       -13.5066
  13   2.0000      -0.460342       -12.5266
  14   2.0000      -0.428298       -11.6546
  15   2.0000      -0.395070       -10.7504
  16   2.0000      -0.374349       -10.1866
  17   2.0000      -0.370535       -10.0828
  18   2.0000      -0.338207        -9.2031
  19   2.0000      -0.281007        -7.6466
  20   0.0000      -0.023188        -0.6310
  21   0.0000       0.060880         1.6566
  22   0.0000       0.105845         2.8802
  23   0.0000       0.109006         2.9662
  24   0.0000       0.130391         3.5481

MULLIKEN ATOMIC CHARGES
-----------------------
   0 C :    0.022174
   1 C :   -0.026481
   2 H :    0.041938
   3 H :    0.008539
   4 C :    0.213522
   5 F :   -0.057873
   6 O :   -0.264709
   7 H :    0.012055
   8 H :    0.032786
   9 H :    0.018049
Sum of atomic charges:    0.0000000

LOEWDIN ATOMIC CHARGES
----------------------
   0 C :   -0.029340
   1 C :   -0.061720
   2 H :    0.043194
   3 H :    0.022278
   4 C :    0.096677
   5 F :    0.057315
   6 O :   -0.204107
   7 H :    0.021927
   8 H :    0.028272
   9 H :    0.025503

  Mayer bond orders larger than 0.100000
B(  0-C ,  1-C ) :   1.0970 B(  0-C ,  7-H ) :   0.9736 B(  0-C ,  8-H ) :   0.9712
B(  0-C ,  9-H ) :   0.9680 B(  1-C ,  2-H ) :   0.9359 B(  1-C ,  3-H ) :   0.9330
B(  1-C ,  4-C ) :   0.9993 B(  4-C ,  5-F ) :   1.2148 B(  4-C ,  6-O ) :   2.0613

Dispersion correction           -0.010433496
FINAL SINGLE POINT ENERGY      -292.029774888830

DIPOLE MOMENT
-------------
                                X             Y             Z
Electronic contribution:      4.09023       0.00047      -7.47515
Nuclear contribution   :     -5.17129      -0.01923       7.59895
                        -----------------------------------------
Total Dipole Moment    :     -1.08107      -0.01876       0.12380
                        -----------------------------------------
Magnitude (a.u.)       :      1.08829
Magnitude (Debye)      :      2.76622

Rotational constants in cm-1:     0.282073     0.131822     0.105134
Rotational constants in MHz :  8456.328792  3951.925810  3151.840112

                             ****ORCA TERMINATED NORMALLY****
TOTAL RUN TIME: 0 days 0 hours 0 minutes 10 seconds 404 msec
