                         Program Version 5.0.0 -  RELEASE  -
|  1> !B3LYP D3BJ RIJCOSX def2-SVP def2/J TightSCF
|  2> *xyz 0 1
|  3> C          3.90595        2.81985       -3.75292
|  4> C          5.29562        3.13151       -4.10533
|  5> C          3.80351        1.37472       -3.26081
|  6> C          5.70862        3.46889       -5.32419
|  7> N          6.90470        3.03895       -5.71708
|  8> N          4.98188        4.29357       -6.09746
|  9> H          5.00055        4.10131       -7.08776
| 10> H          4.08469        4.59690       -5.73965
| 11> H          5.96336        2.52611       -3.64239
| 12> H          7.04716        2.06686       -5.47360
| 13> H          7.19815        3.30799       -6.64523
| 14> H          3.28202        2.94919       -4.64026
| 15> H          3.56525        3.51457       -2.98252
| 16> H          4.14157        0.71142       -4.02935
| 17> H          2.78528        1.15146       -3.01944
| 18> H          4.41205        1.25066       -2.38949
| 19> *
| 20>
| 21> %MaxCore 64000
| 22>
| 23> %pal nprocs 4
| 24> end
| 25>
| 26> %scf
| 27>   MaxIter 150
| 28> end
| 29>
| 30>
| 31>                          ****END OF INPUT****

CARTESIAN COORDINATES (ANGSTROEM)
---------------------------------
  C      3.905950    2.819850   -3.752920
  C      5.295620    3.131510   -4.105330
  C      3.803510    1.374720   -3.260810
  C      5.708620    3.468890   -5.324190
  N      6.904700    3.038950   -5.717080
  N      4.981880    4.293570   -6.097460
  H      5.000550    4.101310   -7.087760
  H      4.084690    4.596900   -5.739650
  H      5.963360    2.526110   -3.642390
  H      7.047160    2.066860   -5.473600
  H      7.198150    3.307990   -6.645230
  H      3.282020    2.949190   -4.640260
  H      3.565250    3.514570   -2.982520
  H      4.141570    0.711420   -4.029350
  H      2.785280    1.151460   -3.019440
  H      4.412050    1.250660   -2.389490

 Total Charge           Charge          ....    0
 Multiplicity           Mult            ....    1
 Number of Electrons    NEL             ....   48
 Basis Dimension        Dim             ....  134

ORBITAL ENERGIES
----------------

  NO   OCC          E(Eh)            E(eV)
   0   2.0000     -14.324576      -389.7915
   1   2.0000     -14.320785      -389.6884
   2   2.0000     -10.216175      -277.9962
   3   2.0000     -10.154915      -276.3293
   4   2.0000     -10.151151      -276.2269
   5   2.0000     -10.098809      -274.8026
   6   2.0000      -0.947544       -25.7840
   7   2.0000      -0.859606       -23.3911
   8   2.0000      -0.761922       -20.7329
   9   2.0000      -0.681405       -18.5420
  10   2.0000      -0.601456       -16.3665
  11   2.0000      -0.566416       -15.4130
  12   2.0000      -0.527214       -14.3462
  13   2.0000      -0.501496       -13.6464
  14   2.0000      -0.470210       -12.7951
  15   2.0000      -0.438737       -11.9386
  16   2.0000      -0.414648       -11.2832
  17   2.0000      -0.380937       -10.3658
  18   2.0000      -0.361531        -9.8378
  19   2.0000      -0.344922        -9.3858
  20   2.0000      -0.321405        -8.7459
  21   2.0000      -0.316769        -8.6197
  22   2.0000      -0.263399        -7.1674
  23   2.0000      -0.158789        -4.3209
  24   0.0000       0.041223         1.1217
  25   0.0000       0.072489         1.9725
  26   0.0000       0.084533         2.3003
  27   0.0000       0.090735         2.4690
  28   0.0000       0.108347         2.9483

MULLIKEN ATOMIC CHARGES
-----------------------
   0 C :    0.054571
   1 C :   -0.065430
   2 C :    0.037246
   3 C :   -0.152459
   4 N :   -0.044532
   5 N :   -0.041920
   6 H :    0.088248
   7 H :    0.110210
   8 H :   -0.107740
   9 H :    0.123561
  10 H :    0.084824
  11 H :   -0.044888
  12 H :   -0.016248
  13 H :   -0.014669
  14 H :   -0.012785
  15 H :    0.002011
Sum of atomic charges:   -0.0000000

LOEWDIN ATOMIC CHARGES
----------------------
   0 C :   -0.033638
   1 C :   -0.201169
   2 C :   -0.042190
   3 C :    0.004540
   4 N :   -0.012259
   5 N :   -0.017805
   6 H :    0.054848
   7 H :    0.075683
   8 H :   -0.013437
   9 H :    0.077857
  10 H :    0.058694
  11 H :   -0.000356
  12 H :    0.009506
  13 H :    0.010627
  14 H :    0.012376
  15 H :    0.016725

  Mayer bond orders larger than 0.100000
B(  0-C ,  1-C ) :   1.0736 B(  0-C ,  2-C ) :   1.1014 B(  0-C , 11-H ) :   0.9354
B(  0-C , 12-H ) :   0.9212 B(  1-C ,  3-C ) :   1.7142 B(  1-C ,  8-H ) :   0.9122
B(  2-C , 13-H ) :   0.9697 B(  2-C , 14-H ) :   0.9608 B(  2-C , 15-H ) :   0.9715
B(  3-C ,  4-N ) :   1.2002 B(  3-C ,  5-N ) :   1.2403 B(  4-N ,  9-H ) :   0.9487
B(  4-N , 10-H ) :   0.9524 B(  5-N ,  6-H ) :   0.9398 B(  5-N ,  7-H ) :   0.9423

Dispersion correction           -0.020987934
FINAL SINGLE POINT ENERGY      -267.551234544068

DIPOLE MOMENT
-------------
                                X             Y             Z
Electronic contribution:      3.24946       3.30796      -2.95328
Nuclear contribution   :     -3.27358      -3.61654       1.70633
                        -----------------------------------------
Total Dipole Moment    :     -0.02412      -0.30858      -1.24695
                        -----------------------------------------
Magnitude (a.u.)       :      1.28480
Magnitude (Debye)      :      3.26569

Rotational constants in cm-1:     0.231961     0.071249     0.059473
Rotational constants in MHz :  6954.024434  2135.976855  1782.962814

                             ****ORCA TERMINATED NORMALLY****
TOTAL RUN TIME: 0 days 0 hours 0 minutes 16 seconds 26 msec
