                         Program Version 5.0.0 -  RELEASE  -
|  1> !B3LYP D3BJ RIJCOSX def2-SVP def2/J TightSCF
|  2> *xyz 0 1
|  3> C          3.80351        1.37472       -3.26081
|  4> C          3.93993        0.32036       -4.36773
|  5> H          4.10504       -0.65508       -3.90773
|  6> H          3.02280        0.28052       -4.95712
|  7> C          5.10585        0.66802       -5.30546
|  8> O          4.80913        1.15019       -6.41436
|  9> F          6.26737        0.56500       -4.81948
| 10> H          3.64113        2.33595       -3.70189
| 11> H          4.69995        1.39701       -2.67703
| 12> H          2.97435        1.12625       -2.63180
| 13> *
| 14>
| 15> %MaxCore 64000
| 16>
| 17> %pal nprocs 4
| 18> end
| 19>
| 20> %scf
| 21>   MaxIter 150
| 22> end
| 23>
| 24>
| 25>                          ****END OF INPUT****

CARTESIAN COORDINATES (ANGSTROEM)
---------------------------------
  C      3.803510    1.374720   -3.260810
  C      3.939930    0.320360   -4.367730
  H      4.105040   -0.655080   -3.907730
  H      3.022800    0.280520   -4.957120
  C      5.105850    0.668020   -5.305460
  O      4.809130    1.150190   -6.414360
  F      6.267370    0.565000   -4.819480
  H      3.641130    2.335950   -3.701890
  H      4.699950    1.397010   -2.677030
  H      2.974350    1.126250   -2.631800

 Total Charge           Charge          ....    0
 Multiplicity           Mult            ....    1
 Number of Electrons    NEL             ....   40
 Basis Dimension        Dim             ....   95

ORBITAL ENERGIES
----------------

  NO   OCC          E(Eh)            E(eV)
   0   2.0000     -24.748528      -673.4417
   1   2.0000     -19.133674      -520.6537
   2   2.0000     -10.351369      -281.6751
   3   2.0000     -10.208431      -277.7855
   4   2.0000     -10.192144      -277.3423
   5   2.0000      -1.288539       -35.0629
   6   2.0000      -1.019685       -27.7470
   7   2.0000      -0.790671       -21.5152
   8   2.0000      -0.672719       -18.3056
   9   2.0000      -0.630272       -17.1506
  10   2.0000      -0.540506       -14.7079
  11   2.0000      -0.526831       -14.3358
  12   2.0000      -0.493347       -13.4246
  13   2.0000      -0.459620       -12.5069
  14   2.0000      -0.430270       -11.7082
  15   2.0000      -0.397771       -10.8239
  16   2.0000      -0.379711       -10.3324
  17   2.0000      -0.371247       -10.1022
  18   2.0000      -0.347056        -9.4439
  19   2.0000      -0.282124        -7.6770
  20   0.0000      -0.018657        -0.5077
  21   0.0000       0.058398         1.5891
  22   0.0000       0.103758         2.8234
  23   0.0000       0.110776         3.0144
  24   0.0000       0.134161         3.6507

MULLIKEN ATOMIC CHARGES
-----------------------
   0 C :    0.008062
   1 C :   -0.021706
   2 H :    0.020944
   3 H :    0.035358
   4 C :    0.214881
   5 O :   -0.238386
   6 F :   -0.084806
   7 H :    0.025562
   8 H :    0.017841
   9 H :    0.022250
Sum of atomic charges:    0.0000000

LOEWDIN ATOMIC CHARGES
----------------------
   0 C :   -0.034607
   1 C :   -0.059401
   2 H :    0.029842
   3 H :    0.039211
   4 C :    0.098751
   5 O :   -0.181723
   6 F :    0.032971
   7 H :    0.025812
   8 H :    0.021779
   9 H :    0.027365

  Mayer bond orders larger than 0.100000
B(  0-C ,  1-C ) :   1.0875 B(  0-C ,  7-H ) :   0.9734 B(  0-C ,  8-H ) :   0.9732
B(  0-C ,  9-H ) :   0.9679 B(  1-C ,  2-H ) :   0.9283 B(  1-C ,  3-H ) :   0.9458
B(  1-C ,  4-C ) :   1.0070 B(  4-C ,  5-O ) :   2.0982 B(  4-C ,  6-F ) :   1.1810

Dispersion correction           -0.010394963
FINAL SINGLE POINT ENERGY      -292.035072621792

DIPOLE MOMENT
-------------
                                X             Y             Z
Electronic contribution:      6.46999      -0.95707      -4.85195
Nuclear contribution   :     -6.76123       0.61881       5.86003
                        -----------------------------------------
Total Dipole Moment    :     -0.29124      -0.33827       1.00807
                        -----------------------------------------
Magnitude (a.u.)       :      1.10248
Magnitude (Debye)      :      2.80227

Rotational constants in cm-1:     0.275298     0.134631     0.105723
Rotational constants in MHz :  8253.224169  4036.137572  3169.487264

                             ****ORCA TERMINATED NORMALLY****
TOTAL RUN TIME: 0 days 0 hours 0 minutes 10 seconds 750 msec
