                         Program Version 5.0.0 -  RELEASE  -
|  1> !B3LYP D3BJ RIJCOSX def2-SVP def2/J TightSCF
|  2> *xyz 0 1
|  3> C          3.90595        2.81985       -3.75292
|  4> N          5.29562        3.13151       -4.10533
|  5> C          3.80351        1.37472       -3.26081
|  6> C          5.70862        3.46889       -5.32419
|  7> C          6.90470        3.03895       -5.71708
|  8> N          4.98188        4.29357       -6.09746
|  9> H          5.00055        4.10131       -7.08776
| 10> H          4.08469        4.59690       -5.73965
| 11> H          5.96336        2.52611       -3.64239
| 12> H          7.04716        2.06686       -5.47360
| 13> H          7.19815        3.30799       -6.64523
| 14> H          3.28202        2.94919       -4.64026
| 15> H          3.56525        3.51457       -2.98252
| 16> H          4.14157        0.71142       -4.02935
| 17> H          2.78528        1.15146       -3.01944
| 18> H          4.41205        1.25066       -2.38949
| 19> *
| 20>
| 21> %MaxCore 64000
| 22>
| 23> %pal nprocs 4
| 24> end
| 25>
| 26> %scf
| 27>   MaxIter 150
| 28> end
| 29>
| 30>
| 31>                          ****END OF INPUT****

CARTESIAN COORDINATES (ANGSTROEM)
---------------------------------
  C      3.905950    2.819850   -3.752920
  N      5.295620    3.131510   -4.105330
  C      3.803510    1.374720   -3.260810
  C      5.708620    3.468890   -5.324190
  C      6.904700    3.038950   -5.717080
  N      4.981880    4.293570   -6.097460
  H      5.000550    4.101310   -7.087760
  H      4.084690    4.596900   -5.739650
  H      5.963360    2.526110   -3.642390
  H      7.047160    2.066860   -5.473600
  H      7.198150    3.307990   -6.645230
  H      3.282020    2.949190   -4.640260
  H      3.565250    3.514570   -2.982520
  H      4.141570    0.711420   -4.029350
  H      2.785280    1.151460   -3.019440
  H      4.412050    1.250660   -2.389490

 Total Charge           Charge          ....    0
 Multiplicity           Mult            ....    1
 Number of Electrons    NEL             ....   48
 Basis Dimension        Dim             ....  134

ORBITAL ENERGIES
----------------

  NO   OCC          E(Eh)            E(eV)
   0   2.0000     -14.324520      -389.7900
   1   2.0000     -14.320601      -389.6834
   2   2.0000     -10.220534      -278.1149
   3   2.0000     -10.219956      -278.0991
   4   2.0000     -10.182521      -277.0805
   5   2.0000     -10.088503      -274.5221
   6   2.0000      -0.953437       -25.9443
   7   2.0000      -0.872026       -23.7290
   8   2.0000      -0.762275       -20.7426
   9   2.0000      -0.692990       -18.8572
  10   2.0000      -0.620569       -16.8866
  11   2.0000      -0.587521       -15.9873
  12   2.0000      -0.526483       -14.3263
  13   2.0000      -0.488356       -13.2888
  14   2.0000      -0.478884       -13.0311
  15   2.0000      -0.447895       -12.1879
  16   2.0000      -0.417333       -11.3562
  17   2.0000      -0.395714       -10.7679
  18   2.0000      -0.375875       -10.2281
  19   2.0000      -0.369723       -10.0607
  20   2.0000      -0.368918       -10.0388
  21   2.0000      -0.330023        -8.9804
  22   2.0000      -0.252058        -6.8589
  23   2.0000      -0.162848        -4.4313
  24   0.0000       0.045559         1.2397
  25   0.0000       0.064943         1.7672
  26   0.0000       0.077553         2.1103
  27   0.0000       0.089002         2.4219
  28   0.0000       0.106498         2.8980

MULLIKEN ATOMIC CHARGES
-----------------------
   0 C :    0.105671
   1 N :   -0.122143
   2 C :    0.002516
   3 C :   -0.090651
   4 C :   -0.053046
   5 N :   -0.063694
   6 H :    0.121687
   7 H :    0.092061
   8 H :    0.102819
   9 H :   -0.053384
  10 H :   -0.077917
  11 H :   -0.010501
  12 H :    0.007633
  13 H :    0.015950
  14 H :    0.008484
  15 H :    0.014514
Sum of atomic charges:    0.0000000

LOEWDIN ATOMIC CHARGES
----------------------
   0 C :    0.035201
   1 N :   -0.024563
   2 C :   -0.051048
   3 C :    0.027613
   4 C :   -0.252422
   5 N :   -0.011963
   6 H :    0.077399
   7 H :    0.059085
   8 H :    0.077513
   9 H :   -0.010642
  10 H :   -0.014758
  11 H :    0.009381
  12 H :    0.012183
  13 H :    0.022291
  14 H :    0.024133
  15 H :    0.020598

  Mayer bond orders larger than 0.100000
B(  0-C ,  1-N ) :   0.9988 B(  0-C ,  2-C ) :   1.1150 B(  0-C , 11-H ) :   0.9400
B(  0-C , 12-H ) :   0.9482 B(  1-N ,  3-C ) :   1.2292 B(  1-N ,  8-H ) :   0.9300
B(  2-C , 13-H ) :   0.9723 B(  2-C , 14-H ) :   0.9608 B(  2-C , 15-H ) :   0.9687
B(  3-C ,  4-C ) :   1.7262 B(  3-C ,  5-N ) :   1.2060 B(  4-C ,  9-H ) :   0.9402
B(  4-C , 10-H ) :   0.9391 B(  5-N ,  6-H ) :   0.9501 B(  5-N ,  7-H ) :   0.9512

Dispersion correction           -0.020752750
FINAL SINGLE POINT ENERGY      -267.541532217851

DIPOLE MOMENT
-------------
                                X             Y             Z
Electronic contribution:      1.52072       3.28663      -1.29234
Nuclear contribution   :     -2.93222      -3.63618       1.36440
                        -----------------------------------------
Total Dipole Moment    :     -1.41150      -0.34955       0.07207
                        -----------------------------------------
Magnitude (a.u.)       :      1.45592
Magnitude (Debye)      :      3.70065

Rotational constants in cm-1:     0.237993     0.072843     0.061284
Rotational constants in MHz :  7134.860770  2183.763760  1837.240960

                             ****ORCA TERMINATED NORMALLY****
TOTAL RUN TIME: 0 days 0 hours 0 minutes 15 seconds 820 msec
