                         Program Version 5.0.0 -  RELEASE  -
|  1> !B3LYP D3BJ RIJCOSX def2-SVP def2/J TightSCF
|  2> *xyz 0 1
|  3> C          3.90595        2.81985       -3.75292
|  4> N          5.29562        3.13151       -4.10533
|  5> C          3.80351        1.37472       -3.26081
|  6> C          5.70862        3.46889       -5.32419
|  7> N          6.90470        3.03895       -5.71708
|  8> C          4.98188        4.29357       -6.09746
|  9> H          5.00055        4.10131       -7.08776
| 10> H          4.08469        4.59690       -5.73965
| 11> H          5.96336        2.52611       -3.64239
| 12> H          7.04716        2.06686       -5.47360
| 13> H          7.19815        3.30799       -6.64523
| 14> H          3.28202        2.94919       -4.64026
| 15> H          3.56525        3.51457       -2.98252
| 16> H          4.14157        0.71142       -4.02935
| 17> H          2.78528        1.15146       -3.01944
| 18> H          4.41205        1.25066       -2.38949
| 19> *
| 20>
| 21> %MaxCore 64000
| 22>
| 23> %pal nprocs 4
| 24> end
| 25>
| 26> %scf
| 27>   MaxIter 150
| 28> end
| 29>
| 30>
| 31>                          ****END OF INPUT****

CARTESIAN COORDINATES (ANGSTROEM)
---------------------------------
  C      3.905950    2.819850   -3.752920
  N      5.295620    3.131510   -4.105330
  C      3.803510    1.374720   -3.260810
  C      5.708620    3.468890   -5.324190
  N      6.904700    3.038950   -5.717080
  C      4.981880    4.293570   -6.097460
  H      5.000550    4.101310   -7.087760
  H      4.084690    4.596900   -5.739650
  H      5.963360    2.526110   -3.642390
  H      7.047160    2.066860   -5.473600
  H      7.198150    3.307990   -6.645230
  H      3.282020    2.949190   -4.640260
  H      3.565250    3.514570   -2.982520
  H      4.141570    0.711420   -4.029350
  H      2.785280    1.151460   -3.019440
  H      4.412050    1.250660   -2.389490

 Total Charge           Charge          ....    0
 Multiplicity           Mult            ....    1
 Number of Electrons    NEL             ....   48
 Basis Dimension        Dim             ....  134

ORBITAL ENERGIES
----------------

  NO   OCC          E(Eh)            E(eV)
   0   2.0000     -14.323367      -389.7586
   1   2.0000     -14.322989      -389.7483
   2   2.0000     -10.219975      -278.0997
   3   2.0000     -10.213279      -277.9175
   4   2.0000     -10.180195      -277.0172
   5   2.0000     -10.094188      -274.6768
   6   2.0000      -0.958450       -26.0808
   7   2.0000      -0.874043       -23.7839
   8   2.0000      -0.751483       -20.4489
   9   2.0000      -0.693599       -18.8738
  10   2.0000      -0.634287       -17.2598
  11   2.0000      -0.558025       -15.1846
  12   2.0000      -0.529262       -14.4020
  13   2.0000      -0.509408       -13.8617
  14   2.0000      -0.466572       -12.6961
  15   2.0000      -0.452448       -12.3117
  16   2.0000      -0.398896       -10.8545
  17   2.0000      -0.398549       -10.8451
  18   2.0000      -0.386921       -10.5287
  19   2.0000      -0.368817       -10.0360
  20   2.0000      -0.359812        -9.7910
  21   2.0000      -0.331857        -9.0303
  22   2.0000      -0.249662        -6.7936
  23   2.0000      -0.166605        -4.5335
  24   0.0000       0.043035         1.1710
  25   0.0000       0.070327         1.9137
  26   0.0000       0.079105         2.1525
  27   0.0000       0.092317         2.5121
  28   0.0000       0.106108         2.8873

MULLIKEN ATOMIC CHARGES
-----------------------
   0 C :    0.130067
   1 N :   -0.137704
   2 C :   -0.002099
   3 C :   -0.087959
   4 N :   -0.043130
   5 C :   -0.061905
   6 H :   -0.057705
   7 H :   -0.060087
   8 H :    0.079606
   9 H :    0.088473
  10 H :    0.107676
  11 H :    0.012651
  12 H :    0.007982
  13 H :    0.004730
  14 H :    0.010606
  15 H :    0.008797
Sum of atomic charges:   -0.0000000

LOEWDIN ATOMIC CHARGES
----------------------
   0 C :    0.049255
   1 N :   -0.021695
   2 C :   -0.053877
   3 C :    0.019292
   4 N :   -0.014562
   5 C :   -0.240891
   6 H :   -0.011554
   7 H :   -0.012153
   8 H :    0.056342
   9 H :    0.054883
  10 H :    0.078352
  11 H :    0.021537
  12 H :    0.014738
  13 H :    0.017358
  14 H :    0.025612
  15 H :    0.017362

  Mayer bond orders larger than 0.100000
B(  0-C ,  1-N ) :   0.9991 B(  0-C ,  2-C ) :   1.1143 B(  0-C , 11-H ) :   0.9354
B(  0-C , 12-H ) :   0.9509 B(  1-N ,  3-C ) :   1.1971 B(  1-N ,  8-H ) :   0.9353
B(  2-C , 13-H ) :   0.9714 B(  2-C , 14-H ) :   0.9604 B(  2-C , 15-H ) :   0.9679
B(  3-C ,  4-N ) :   1.2284 B(  3-C ,  5-C ) :   1.7217 B(  4-N ,  9-H ) :   0.9438
B(  4-N , 10-H ) :   0.9451 B(  5-C ,  6-H ) :   0.9361 B(  5-C ,  7-H ) :   0.9350

Dispersion correction           -0.020819231
FINAL SINGLE POINT ENERGY      -267.545974633853

DIPOLE MOMENT
-------------
                                X             Y             Z
Electronic contribution:      3.49046       2.06197      -0.99525
Nuclear contribution   :     -3.34013      -3.37002       1.28371
                        -----------------------------------------
Total Dipole Moment    :      0.15033      -1.30805       0.28846
                        -----------------------------------------
Magnitude (a.u.)       :      1.34789
Magnitude (Debye)      :      3.42606

Rotational constants in cm-1:     0.239537     0.072280     0.060961
Rotational constants in MHz :  7181.153552  2166.902802  1827.551447

                             ****ORCA TERMINATED NORMALLY****
TOTAL RUN TIME: 0 days 0 hours 0 minutes 15 seconds 108 msec
