                         Program Version 5.0.0 -  RELEASE  -
|  1> !B3LYP D3BJ RIJCOSX def2-TZVP def2/J TightSCF xyzfile
|  2>
|  3> *xyzfile 0 1 D2.xyz
|  4>
|  5> %MaxCore 64000
|  6>
|  7> %pal nprocs 18
|  8> end
|  9>
| 10> %scf
| 11>   MaxIter 150
| 12> end
| 13>
| 14>
| 15>                          ****END OF INPUT****

CARTESIAN COORDINATES (ANGSTROEM)
---------------------------------
  C      3.905947    2.819855   -3.752920
  N      5.295615    3.131515   -4.105334
  C      3.803511    1.374716   -3.260807
  C      3.939934    0.320362   -4.367729
  H      4.105043   -0.655085   -3.907733
  H      3.022801    0.280517   -4.957117
  C      5.105846    0.668022   -5.305463
  C      5.708619    3.468885   -5.324190
  C      6.904696    3.038954   -5.717084
  N      4.981884    4.293570   -6.097457
  H      5.000546    4.101311   -7.087761
  H      4.084693    4.596899   -5.739652
  H      5.963358    2.526112   -3.642391
  H      7.047164    2.066861   -5.473604
  H      7.198145    3.307994   -6.645225
  H      3.282025    2.949187   -4.640259
  H      3.565254    3.514574   -2.982523
  H      4.574833    1.215157   -2.500443
  H      2.843514    1.260845   -2.751465
  F      4.809132    1.150187   -6.414361
  O      6.267366    0.564999   -4.819481

 Total Charge           Charge          ....    0
 Multiplicity           Mult            ....    1
 Number of Electrons    NEL             ....   78
 Basis Dimension        Dim             ....  376

ORBITAL ENERGIES
----------------

  NO   OCC          E(Eh)            E(eV)
   0   2.0000     -24.759250      -673.7334
   1   2.0000     -19.131330      -520.5899
   2   2.0000     -14.315306      -389.5393
   3   2.0000     -14.312144      -389.4532
   4   2.0000     -10.354711      -281.7660
   5   2.0000     -10.216390      -278.0021
   6   2.0000     -10.207988      -277.7735
   7   2.0000     -10.203679      -277.6562
   8   2.0000     -10.198791      -277.5232
   9   2.0000     -10.061348      -273.7832
  10   2.0000      -1.332324       -36.2544
  11   2.0000      -1.038655       -28.2632
  12   2.0000      -0.968276       -26.3481
  13   2.0000      -0.888320       -24.1724
  14   2.0000      -0.818847       -22.2820
  15   2.0000      -0.743544       -20.2329
  16   2.0000      -0.699821       -19.0431
  17   2.0000      -0.666034       -18.1237
  18   2.0000      -0.622000       -16.9255
  19   2.0000      -0.594135       -16.1672
  20   2.0000      -0.561905       -15.2902
  21   2.0000      -0.547160       -14.8890
  22   2.0000      -0.534744       -14.5511
  23   2.0000      -0.511347       -13.9145
  24   2.0000      -0.497129       -13.5276
  25   2.0000      -0.482527       -13.1302
  26   2.0000      -0.469097       -12.7648
  27   2.0000      -0.442816       -12.0496
  28   2.0000      -0.419392       -11.4122
  29   2.0000      -0.405545       -11.0354
  30   2.0000      -0.394954       -10.7473
  31   2.0000      -0.391524       -10.6539
  32   2.0000      -0.369305       -10.0493
  33   2.0000      -0.368477       -10.0268
  34   2.0000      -0.344703        -9.3799
  35   2.0000      -0.335937        -9.1413
  36   2.0000      -0.283456        -7.7132
  37   2.0000      -0.258268        -7.0278
  38   2.0000      -0.164450        -4.4749
  39   0.0000      -0.042049        -1.1442
  40   0.0000       0.018663         0.5078
  41   0.0000       0.037600         1.0231
  42   0.0000       0.052404         1.4260
  43   0.0000       0.058431         1.5900

MULLIKEN ATOMIC CHARGES
-----------------------
   0 C :   -0.104455
   1 N :   -0.270879
   2 C :   -0.226141
   3 C :   -0.194425
   4 H :    0.125912
   5 H :    0.102824
   6 C :    0.416458
   7 C :    0.236388
   8 C :   -0.452456
   9 N :   -0.455188
  10 H :    0.234695
  11 H :    0.203615
  12 H :    0.224056
  13 H :    0.131928
  14 H :    0.048963
  15 H :    0.085188
  16 H :    0.115734
  17 H :    0.120670
  18 H :    0.104858
  19 F :   -0.090488
  20 O :   -0.357256
Sum of atomic charges:    0.0000000

LOEWDIN ATOMIC CHARGES
----------------------
   0 C :   -0.281366
   1 N :    0.124001
   2 C :   -0.255439
   3 C :   -0.224728
   4 H :    0.153667
   5 H :    0.139220
   6 C :   -0.499332
   7 C :   -0.493508
   8 C :   -0.334422
   9 N :   -0.012489
  10 H :    0.171477
  11 H :    0.154773
  12 H :    0.199103
  13 H :    0.103056
  14 H :    0.092163
  15 H :    0.127538
  16 H :    0.126799
  17 H :    0.143132
  18 H :    0.139908
  19 F :    0.360823
  20 O :    0.065624

  Mayer bond orders larger than 0.100000
B(  0-C ,  1-N ) :   0.9518 B(  0-C ,  2-C ) :   0.9621 B(  0-C , 15-H ) :   0.9708
B(  0-C , 16-H ) :   0.9660 B(  1-N ,  7-C ) :   1.1791 B(  1-N , 12-H ) :   0.9194
B(  2-C ,  3-C ) :   0.9656 B(  2-C , 17-H ) :   0.9667 B(  2-C , 18-H ) :   0.9620
B(  3-C ,  4-H ) :   0.9510 B(  3-C ,  5-H ) :   0.9522 B(  3-C ,  6-C ) :   0.9794
B(  6-C , 19-F ) :   1.1689 B(  6-C , 20-O ) :   1.9826 B(  7-C ,  8-C ) :   1.6710
B(  7-C ,  9-N ) :   1.0565 B(  8-C , 13-H ) :   0.9610 B(  8-C , 14-H ) :   1.0177
B(  9-N , 10-H ) :   0.9249 B(  9-N , 11-H ) :   0.9350

Dispersion correction           -0.037581372
FINAL SINGLE POINT ENERGY      -519.709343984002

DIPOLE MOMENT
-------------
                                X             Y             Z
Electronic contribution:      2.07583      -3.75546      -5.19110
Nuclear contribution   :     -4.40347       3.21582       5.36161
                        -----------------------------------------
Total Dipole Moment    :     -2.32765      -0.53965       0.17051
                        -----------------------------------------
Magnitude (a.u.)       :      2.39546
Magnitude (Debye)      :      6.08877

Rotational constants in cm-1:     0.061226     0.043199     0.033926
Rotational constants in MHz :  1835.503528  1295.087558  1017.061512

                             ****ORCA TERMINATED NORMALLY****
TOTAL RUN TIME: 0 days 0 hours 0 minutes 36 seconds 536 msec
