                         Program Version 5.0.0 -  RELEASE  -
|  1> !B3LYP D3BJ RIJCOSX def2-TZVP def2/J TightSCF xyzfile
|  2>
|  3> *xyzfile 0 1 D6.xyz
|  4>
|  5> %MaxCore 64000
|  6>
|  7> %pal nprocs 18
|  8> end
|  9>
| 10> %scf
| 11>   MaxIter 150
| 12> end
| 13>
| 14>
| 15>                          ****END OF INPUT****

CARTESIAN COORDINATES (ANGSTROEM)
---------------------------------
  C      3.905947    2.819855   -3.752920
  N      5.295615    3.131515   -4.105334
  C      3.803511    1.374716   -3.260807
  C      3.939934    0.320362   -4.367729
  H      4.105043   -0.655085   -3.907733
  H      3.022801    0.280517   -4.957117
  C      5.105846    0.668022   -5.305463
  C      5.708619    3.468885   -5.324190
  N      6.904696    3.038954   -5.717084
  C      4.981884    4.293570   -6.097457
  H      5.000546    4.101311   -7.087761
  H      4.084693    4.596899   -5.739652
  H      5.963358    2.526112   -3.642391
  H      7.047164    2.066861   -5.473604
  H      7.198145    3.307994   -6.645225
  H      3.282025    2.949187   -4.640259
  H      3.565254    3.514574   -2.982523
  H      4.574833    1.215157   -2.500443
  H      2.843514    1.260845   -2.751465
  O      4.809132    1.150187   -6.414361
  F      6.267366    0.564999   -4.819481

 Total Charge           Charge          ....    0
 Multiplicity           Mult            ....    1
 Number of Electrons    NEL             ....   78
 Basis Dimension        Dim             ....  376

ORBITAL ENERGIES
----------------

  NO   OCC          E(Eh)            E(eV)
   0   2.0000     -24.769756      -674.0193
   1   2.0000     -19.141118      -520.8563
   2   2.0000     -14.323429      -389.7603
   3   2.0000     -14.301462      -389.1626
   4   2.0000     -10.354966      -281.7730
   5   2.0000     -10.211926      -277.8806
   6   2.0000     -10.208766      -277.7946
   7   2.0000     -10.207260      -277.7537
   8   2.0000     -10.199512      -277.5428
   9   2.0000     -10.078480      -274.2494
  10   2.0000      -1.339074       -36.4380
  11   2.0000      -1.050999       -28.5991
  12   2.0000      -0.974013       -26.5042
  13   2.0000      -0.889947       -24.2167
  14   2.0000      -0.816891       -22.2287
  15   2.0000      -0.737840       -20.0777
  16   2.0000      -0.702585       -19.1183
  17   2.0000      -0.680832       -18.5264
  18   2.0000      -0.634364       -17.2619
  19   2.0000      -0.577350       -15.7105
  20   2.0000      -0.572663       -15.5830
  21   2.0000      -0.562925       -15.3180
  22   2.0000      -0.523637       -14.2489
  23   2.0000      -0.511066       -13.9068
  24   2.0000      -0.501797       -13.6546
  25   2.0000      -0.483450       -13.1553
  26   2.0000      -0.479126       -13.0377
  27   2.0000      -0.431643       -11.7456
  28   2.0000      -0.427226       -11.6254
  29   2.0000      -0.404431       -11.0051
  30   2.0000      -0.393328       -10.7030
  31   2.0000      -0.389311       -10.5937
  32   2.0000      -0.382557       -10.4099
  33   2.0000      -0.367894       -10.0109
  34   2.0000      -0.361652        -9.8411
  35   2.0000      -0.331686        -9.0256
  36   2.0000      -0.299633        -8.1534
  37   2.0000      -0.256785        -6.9875
  38   2.0000      -0.171703        -4.6723
  39   0.0000      -0.039749        -1.0816
  40   0.0000       0.020134         0.5479
  41   0.0000       0.048205         1.3117
  42   0.0000       0.057454         1.5634
  43   0.0000       0.062895         1.7115

MULLIKEN ATOMIC CHARGES
-----------------------
   0 C :   -0.057205
   1 N :   -0.261333
   2 C :   -0.258754
   3 C :   -0.183914
   4 H :    0.115966
   5 H :    0.122586
   6 C :    0.358839
   7 C :    0.241871
   8 N :   -0.400403
   9 C :   -0.442970
  10 H :    0.088015
  11 H :    0.055318
  12 H :    0.174065
  13 H :    0.202528
  14 H :    0.226813
  15 H :    0.117755
  16 H :    0.114074
  17 H :    0.114708
  18 H :    0.109787
  19 O :   -0.288646
  20 F :   -0.149097
Sum of atomic charges:    0.0000000

LOEWDIN ATOMIC CHARGES
----------------------
   0 C :   -0.262501
   1 N :    0.130042
   2 C :   -0.261607
   3 C :   -0.223204
   4 H :    0.144132
   5 H :    0.153510
   6 C :   -0.520556
   7 C :   -0.492233
   8 N :   -0.004765
   9 C :   -0.321295
  10 H :    0.098283
  11 H :    0.093572
  12 H :    0.173389
  13 H :    0.149711
  14 H :    0.174601
  15 H :    0.143735
  16 H :    0.129124
  17 H :    0.136853
  18 H :    0.141789
  19 O :    0.112117
  20 F :    0.305303

  Mayer bond orders larger than 0.100000
B(  0-C ,  1-N ) :   0.9370 B(  0-C ,  2-C ) :   0.9559 B(  0-C , 15-H ) :   0.9641
B(  0-C , 16-H ) :   0.9697 B(  1-N ,  7-C ) :   1.1404 B(  1-N , 12-H ) :   0.9307
B(  2-C ,  3-C ) :   0.9552 B(  2-C , 17-H ) :   0.9730 B(  2-C , 18-H ) :   0.9614
B(  3-C ,  4-H ) :   0.9477 B(  3-C ,  5-H ) :   0.9633 B(  3-C ,  6-C ) :   0.9872
B(  6-C , 19-O ) :   2.0703 B(  6-C , 20-F ) :   1.0610 B(  7-C ,  8-N ) :   1.1866
B(  7-C ,  9-C ) :   1.6399 B(  8-N , 13-H ) :   0.9212 B(  8-N , 14-H ) :   0.9278
B(  9-C , 10-H ) :   0.9801 B(  9-C , 11-H ) :   1.0106

Dispersion correction           -0.037629016
FINAL SINGLE POINT ENERGY      -519.725802681284

DIPOLE MOMENT
-------------
                                X             Y             Z
Electronic contribution:      5.98871      -5.63988      -2.35320
Nuclear contribution   :     -6.29470       4.03423       3.50525
                        -----------------------------------------
Total Dipole Moment    :     -0.30600      -1.60565       1.15205
                        -----------------------------------------
Magnitude (a.u.)       :      1.99974
Magnitude (Debye)      :      5.08293

Rotational constants in cm-1:     0.061094     0.043661     0.033867
Rotational constants in MHz :  1831.559881  1308.929520  1015.295167

                             ****ORCA TERMINATED NORMALLY****
TOTAL RUN TIME: 0 days 0 hours 0 minutes 30 seconds 492 msec
