                         Program Version 5.0.0 -  RELEASE  -
|  1> !wB97X-D3 RIJCOSX def2-SVPD def2/J TightSCF
|  2> *xyz 1 1
|  3> C          5.55821       -1.99291       -6.21505
|  4> C          4.18188       -2.58967       -6.29891
|  5> N          3.14587       -1.76843       -6.48675
|  6> N          4.01910       -3.86431       -6.22743
|  7> H          4.76849       -4.59115       -5.99077
|  8> H          3.12241       -4.33339       -6.31462
|  9> H          3.28164       -0.77779       -6.56655
| 10> H          2.21255       -2.13419       -6.56225
| 11> C          6.41926       -2.54294       -5.07763
| 12> C          5.89651       -2.16931       -3.69455
| 13> H          7.42888       -2.14367       -5.20808
| 14> H          6.50589       -3.62754       -5.17550
| 15> H          6.03683       -2.19819       -7.17685
| 16> H          5.46761       -0.90737       -6.12797
| 17> H          5.81870       -1.10488       -3.61824
| 18> H          6.57185       -2.53200       -2.94804
| 19> H          4.93221       -2.60892       -3.54698
| 20> *
| 21>
| 22> %MaxCore 64000
| 23>
| 24> %pal nprocs 8
| 25> end
| 26>
| 27> %scf
| 28>   MaxIter 150
| 29> end
| 30>
| 31>
| 32>                          ****END OF INPUT****

CARTESIAN COORDINATES (ANGSTROEM)
---------------------------------
  C      5.558210   -1.992910   -6.215050
  C      4.181880   -2.589670   -6.298910
  N      3.145870   -1.768430   -6.486750
  N      4.019100   -3.864310   -6.227430
  H      4.768490   -4.591150   -5.990770
  H      3.122410   -4.333390   -6.314620
  H      3.281640   -0.777790   -6.566550
  H      2.212550   -2.134190   -6.562250
  C      6.419260   -2.542940   -5.077630
  C      5.896510   -2.169310   -3.694550
  H      7.428880   -2.143670   -5.208080
  H      6.505890   -3.627540   -5.175500
  H      6.036830   -2.198190   -7.176850
  H      5.467610   -0.907370   -6.127970
  H      5.818700   -1.104880   -3.618240
  H      6.571850   -2.532000   -2.948040
  H      4.932210   -2.608920   -3.546980

 Total Charge           Charge          ....    1
 Multiplicity           Mult            ....    1
 Number of Electrons    NEL             ....   48
 Basis Dimension        Dim             ....  208

ORBITAL ENERGIES
----------------

  NO   OCC          E(Eh)            E(eV)
   0   2.0000     -14.687793      -399.6752
   1   2.0000     -14.676323      -399.3631
   2   2.0000     -10.615059      -288.8504
   3   2.0000     -10.482987      -285.2566
   4   2.0000     -10.450585      -284.3749
   5   2.0000     -10.413183      -283.3571
   6   2.0000      -1.312374       -35.7115
   7   2.0000      -1.211534       -32.9675
   8   2.0000      -1.084589       -29.5132
   9   2.0000      -0.997102       -27.1325
  10   2.0000      -0.942680       -25.6516
  11   2.0000      -0.886564       -24.1246
  12   2.0000      -0.873644       -23.7731
  13   2.0000      -0.833353       -22.6767
  14   2.0000      -0.796267       -21.6675
  15   2.0000      -0.757557       -20.6142
  16   2.0000      -0.727605       -19.7991
  17   2.0000      -0.687720       -18.7138
  18   2.0000      -0.672975       -18.3126
  19   2.0000      -0.658437       -17.9170
  20   2.0000      -0.595522       -16.2050
  21   2.0000      -0.593399       -16.1472
  22   2.0000      -0.587655       -15.9909
  23   2.0000      -0.583970       -15.8906
  24   0.0000      -0.124533        -3.3887
  25   0.0000      -0.077690        -2.1140
  26   0.0000      -0.044359        -1.2071
  27   0.0000      -0.032459        -0.8832
  28   0.0000      -0.012471        -0.3393

MULLIKEN ATOMIC CHARGES
-----------------------
   0 C :   -0.004219
   1 C :    0.907433
   2 N :   -0.044368
   3 N :   -0.027776
   4 H :    0.113707
   5 H :   -0.120825
   6 H :    0.033052
   7 H :   -0.104790
   8 C :   -0.349284
   9 C :    0.625168
  10 H :   -0.059056
  11 H :   -0.095749
  12 H :   -0.003424
  13 H :    0.150064
  14 H :    0.045714
  15 H :   -0.021049
  16 H :   -0.044598
Sum of atomic charges:    1.0000000

LOEWDIN ATOMIC CHARGES
----------------------
   0 C :    0.041491
   1 C :   -0.035972
   2 N :    0.280145
   3 N :    0.258554
   4 H :    0.099669
   5 H :    0.052944
   6 H :    0.041917
   7 H :    0.041540
   8 C :   -0.057115
   9 C :    0.141536
  10 H :    0.042764
  11 H :    0.013904
  12 H :    0.056879
  13 H :    0.041322
  14 H :   -0.003208
  15 H :    0.001397
  16 H :   -0.017766

  Mayer bond orders larger than 0.100000
B(  0-C ,  1-C ) :   1.0498 B(  0-C ,  8-C ) :   1.2143 B(  0-C , 10-H ) :   0.1208
B(  0-C , 11-H ) :   0.1342 B(  0-C , 12-H ) :   0.8908 B(  0-C , 13-H ) :   0.8173
B(  1-C ,  2-N ) :   0.9334 B(  1-C ,  3-N ) :   1.0867 B(  1-C ,  5-H ) :  -0.2295
B(  1-C ,  7-H ) :  -0.2073 B(  1-C , 12-H ) :   0.1541 B(  1-C , 13-H ) :   0.1035
B(  2-N ,  3-N ) :   0.1537 B(  2-N ,  6-H ) :   1.1162 B(  2-N ,  7-H ) :   1.3247
B(  3-N ,  4-H ) :   1.0832 B(  3-N ,  5-H ) :   1.3243 B(  4-H ,  5-H ) :  -0.1803
B(  6-H ,  7-H ) :  -0.1774 B(  8-C ,  9-C ) :   1.3144 B(  8-C , 10-H ) :   0.9813
B(  8-C , 11-H ) :   0.9255 B(  8-C , 13-H ) :   0.1333 B(  8-C , 14-H ) :   0.1976
B(  8-C , 15-H ) :   0.1936 B(  8-C , 16-H ) :   0.1936 B(  9-C , 14-H ) :   0.7835
B(  9-C , 15-H ) :   0.8064 B(  9-C , 16-H ) :   0.8473

Dispersion correction           -0.004499177
FINAL SINGLE POINT ENERGY      -268.097987739246

DIPOLE MOMENT
-------------
                                X             Y             Z
Electronic contribution:     -4.02223      -0.94214      -3.72726
Nuclear contribution   :      2.70373       0.48594       2.85544
                        -----------------------------------------
Total Dipole Moment    :     -1.31850      -0.45620      -0.87182
                        -----------------------------------------
Magnitude (a.u.)       :      1.64518
Magnitude (Debye)      :      4.18173

Rotational constants in cm-1:     0.185545     0.074107     0.068805
Rotational constants in MHz :  5562.487769  2221.680591  2062.713441

                             ****ORCA TERMINATED NORMALLY****
TOTAL RUN TIME: 0 days 0 hours 0 minutes 20 seconds 985 msec
