                         Program Version 5.0.0 -  RELEASE  -
|  1> !wB97X-D3 RIJCOSX def2-SVPD def2/J TightSCF xyzfile
|  2>
|  3> *xyzfile 0 1 B.xyz
|  4>
|  5> %MaxCore 64000
|  6>
|  7> %pal nprocs 18
|  8> end
|  9>
| 10> %scf
| 11>   MaxIter 150
| 12> end
| 13>
| 14>
| 15>                          ****END OF INPUT****

CARTESIAN COORDINATES (ANGSTROEM)
---------------------------------
  C      5.558206   -1.992914   -6.215054
  C      4.930199   -7.375319   -2.649623
  C      3.841892   -6.951611   -3.632829
  H      3.458144   -5.954425   -3.407121
  H      2.988484   -7.643606   -3.567078
  S      4.318115   -6.915930   -5.368692
  C      4.181880   -2.589671   -6.298911
  N      3.145873   -1.768431   -6.486753
  N      4.019102   -3.864307   -6.227427
  H      4.768490   -4.591153   -5.990773
  H      3.122405   -4.333392   -6.314620
  H      3.281635   -0.777786   -6.566549
  H      2.212549   -2.134193   -6.562246
  O      5.406154   -5.899480   -5.512972
  O      3.111910   -6.445079   -6.043792
  C      6.419260   -2.542944   -5.077630
  C      5.872267   -5.002756   -2.427819
  C      6.173994   -6.485522   -2.606315
  H      6.734852   -6.613767   -3.534015
  H      6.821463   -6.831018   -1.793617
  H      4.469612   -7.406168   -1.655876
  H      5.230134   -8.398678   -2.885906
  C      5.896512   -2.169314   -3.694552
  H      7.428880   -2.143665   -5.208078
  H      6.505894   -3.627541   -5.175502
  C      6.807804   -2.623428   -2.551019
  H      4.894708   -2.589732   -3.557501
  H      5.778823   -1.081255   -3.635790
  C      7.111544   -4.122463   -2.520363
  H      7.751615   -2.071393   -2.614406
  H      6.345837   -2.326401   -1.604086
  H      5.362882   -4.828697   -1.471335
  H      5.174429   -4.702577   -3.211298
  H      7.778329   -4.329347   -1.677651
  H      7.673189   -4.402845   -3.417586
  O      4.763396   -8.239424   -5.698629
  H      6.036826   -2.198189   -7.176852
  H      5.467610   -0.907371   -6.127968

 Total Charge           Charge          ....    0
 Multiplicity           Mult            ....    1
 Number of Electrons    NEL             ....  136
 Basis Dimension        Dim             ....  512

ORBITAL ENERGIES
----------------

  NO   OCC          E(Eh)            E(eV)
   0   2.0000     -89.133325     -2425.4411
   1   2.0000     -19.190190      -522.1916
   2   2.0000     -19.179577      -521.9028
   3   2.0000     -19.172957      -521.7227
   4   2.0000     -14.530323      -395.3902
   5   2.0000     -14.490778      -394.3141
   6   2.0000     -10.453408      -284.4517
   7   2.0000     -10.349330      -281.6196
   8   2.0000     -10.316435      -280.7245
   9   2.0000     -10.304453      -280.3984
  10   2.0000     -10.292744      -280.0798
  11   2.0000     -10.287290      -279.9314
  12   2.0000     -10.280418      -279.7444
  13   2.0000     -10.274621      -279.5867
  14   2.0000     -10.272421      -279.5268
  15   2.0000     -10.265042      -279.3260
  16   2.0000      -8.205790      -223.2909
  17   2.0000      -6.166277      -167.7929
  18   2.0000      -6.165067      -167.7600
  19   2.0000      -6.164189      -167.7361
  20   2.0000      -1.204579       -32.7783
  21   2.0000      -1.151408       -31.3314
  22   2.0000      -1.061564       -28.8866
  23   2.0000      -1.052958       -28.6524
  24   2.0000      -1.043488       -28.3948
  25   2.0000      -0.954827       -25.9822
  26   2.0000      -0.919311       -25.0157
  27   2.0000      -0.895874       -24.3780
  28   2.0000      -0.854778       -23.2597
  29   2.0000      -0.818870       -22.2826
  30   2.0000      -0.785347       -21.3704
  31   2.0000      -0.764337       -20.7987
  32   2.0000      -0.736470       -20.0404
  33   2.0000      -0.715407       -19.4672
  34   2.0000      -0.703448       -19.1418
  35   2.0000      -0.684243       -18.6192
  36   2.0000      -0.667001       -18.1500
  37   2.0000      -0.646300       -17.5867
  38   2.0000      -0.619397       -16.8546
  39   2.0000      -0.608808       -16.5665
  40   2.0000      -0.593050       -16.1377
  41   2.0000      -0.576934       -15.6992
  42   2.0000      -0.572735       -15.5849
  43   2.0000      -0.557725       -15.1765
  44   2.0000      -0.550111       -14.9693
  45   2.0000      -0.542045       -14.7498
  46   2.0000      -0.532936       -14.5019
  47   2.0000      -0.528076       -14.3697
  48   2.0000      -0.514269       -13.9940
  49   2.0000      -0.499898       -13.6029
  50   2.0000      -0.495856       -13.4929
  51   2.0000      -0.493200       -13.4206
  52   2.0000      -0.472002       -12.8438
  53   2.0000      -0.464993       -12.6531
  54   2.0000      -0.459056       -12.4916
  55   2.0000      -0.440066       -11.9748
  56   2.0000      -0.431502       -11.7418
  57   2.0000      -0.424786       -11.5590
  58   2.0000      -0.422839       -11.5060
  59   2.0000      -0.413082       -11.2405
  60   2.0000      -0.408026       -11.1029
  61   2.0000      -0.405012       -11.0209
  62   2.0000      -0.396961       -10.8019
  63   2.0000      -0.394582       -10.7371
  64   2.0000      -0.362240        -9.8570
  65   2.0000      -0.359780        -9.7901
  66   2.0000      -0.345487        -9.4012
  67   2.0000      -0.326107        -8.8738
  68   0.0000       0.028835         0.7847
  69   0.0000       0.049008         1.3336
  70   0.0000       0.081864         2.2276
  71   0.0000       0.090094         2.4516
  72   0.0000       0.096007         2.6125

MULLIKEN ATOMIC CHARGES
-----------------------
   0 C :    0.412248
   1 C :    0.457852
   2 C :   -0.025637
   3 H :    0.208852
   4 H :   -0.199014
   5 S :    1.400633
   6 C :    0.726031
   7 N :    0.040240
   8 N :    0.559528
   9 H :   -0.077325
  10 H :   -0.246841
  11 H :   -0.057426
  12 H :   -0.134336
  13 O :   -1.018798
  14 O :   -0.851688
  15 C :    0.307637
  16 C :   -0.019856
  17 C :    0.176409
  18 H :    0.095903
  19 H :   -0.311614
  20 H :    0.066051
  21 H :    0.013776
  22 C :   -0.104960
  23 H :   -0.106533
  24 H :   -0.529393
  25 C :    0.582148
  26 H :    0.153183
  27 H :   -0.318217
  28 C :    0.076997
  29 H :    0.041272
  30 H :   -0.029937
  31 H :    0.014753
  32 H :   -0.330757
  33 H :   -0.282837
  34 H :    0.095774
  35 O :   -0.843975
  36 H :   -0.042311
  37 H :    0.102168
Sum of atomic charges:   -0.0000000

LOEWDIN ATOMIC CHARGES
----------------------
   0 C :    0.042612
   1 C :   -0.031987
   2 C :   -0.070970
   3 H :    0.003076
   4 H :    0.027513
   5 S :    0.956200
   6 C :   -0.042036
   7 N :    0.244827
   8 N :    0.298424
   9 H :   -0.087838
  10 H :    0.002909
  11 H :    0.018323
  12 H :    0.026989
  13 O :   -0.522583
  14 O :   -0.546058
  15 C :   -0.008790
  16 C :   -0.037329
  17 C :   -0.029768
  18 H :    0.015467
  19 H :    0.026069
  20 H :    0.025919
  21 H :    0.029176
  22 C :   -0.035461
  23 H :    0.038788
  24 H :    0.002536
  25 C :   -0.030577
  26 H :    0.013838
  27 H :    0.022041
  28 C :   -0.031793
  29 H :    0.023177
  30 H :    0.024564
  31 H :    0.036147
  32 H :   -0.020237
  33 H :    0.026323
  34 H :    0.021922
  35 O :   -0.506624
  36 H :    0.049227
  37 H :    0.025983

  Mayer bond orders larger than 0.100000
B(  0-C ,  6-C ) :   1.0084 B(  0-C , 15-C ) :   1.2203 B(  0-C , 24-H ) :   0.1195
B(  0-C , 36-H ) :   0.6728 B(  0-C , 37-H ) :   0.7583 B(  1-C ,  2-C ) :   1.2093
B(  1-C ,  4-H ) :   0.1423 B(  1-C , 17-C ) :   1.2271 B(  1-C , 20-H ) :   0.7272
B(  1-C , 21-H ) :   0.6921 B(  2-C ,  3-H ) :   0.8071 B(  2-C ,  4-H ) :   0.9063
B(  2-C ,  5-S ) :   0.9802 B(  2-C , 20-H ) :   0.1692 B(  2-C , 21-H ) :   0.1187
B(  2-C , 35-O ) :   0.1415 B(  4-H ,  5-S ) :   0.1290 B(  5-S , 13-O ) :   0.9929
B(  5-S , 14-O ) :   1.2660 B(  5-S , 35-O ) :   1.3491 B(  6-C ,  7-N ) :   0.9291
B(  6-C ,  8-N ) :   1.2833 B(  6-C ,  9-H ) :  -0.2216 B(  6-C , 10-H ) :  -0.3275
B(  6-C , 12-H ) :  -0.1749 B(  6-C , 36-H ) :   0.1957 B(  6-C , 37-H ) :   0.1334
B(  7-N ,  8-N ) :   0.1460 B(  7-N , 11-H ) :   1.1761 B(  7-N , 12-H ) :   1.3158
B(  8-N ,  9-H ) :   0.9150 B(  8-N , 10-H ) :   1.1793 B(  9-H , 10-H ) :  -0.2367
B(  9-H , 13-O ) :   0.2072 B( 10-H , 14-O ) :   0.1728 B( 11-H , 12-H ) :  -0.1719
B( 13-O , 14-O ) :   0.1300 B( 13-O , 18-H ) :   0.1024 B( 13-O , 24-H ) :   0.1898
B( 13-O , 35-O ) :   0.1020 B( 15-C , 22-C ) :   1.1945 B( 15-C , 23-H ) :   0.7908
B( 15-C , 24-H ) :   0.7064 B( 15-C , 26-H ) :   0.1142 B( 15-C , 27-H ) :   0.1700
B( 15-C , 36-H ) :   0.2630 B( 15-C , 37-H ) :   0.1595 B( 16-C , 17-C ) :   1.1984
B( 16-C , 18-H ) :   0.1206 B( 16-C , 19-H ) :   0.1647 B( 16-C , 28-C ) :   1.2068
B( 16-C , 31-H ) :   0.7897 B( 16-C , 32-H ) :   1.0119 B( 16-C , 33-H ) :   0.1998
B( 16-C , 34-H ) :   0.1289 B( 17-C , 18-H ) :   0.8389 B( 17-C , 19-H ) :   0.8970
B( 17-C , 20-H ) :   0.1044 B( 17-C , 21-H ) :   0.2326 B( 17-C , 28-C ) :   0.1146
B( 22-C , 23-H ) :   0.1528 B( 22-C , 24-H ) :   0.1849 B( 22-C , 25-C ) :   1.0901
B( 22-C , 26-H ) :   0.8230 B( 22-C , 27-H ) :   1.0659 B( 22-C , 29-H ) :   0.1386
B( 22-C , 30-H ) :   0.2223 B( 25-C , 28-C ) :   1.1274 B( 25-C , 29-H ) :   0.6964
B( 25-C , 30-H ) :   0.7299 B( 26-H , 32-H ) :   0.1433 B( 28-C , 29-H ) :   0.2057
B( 28-C , 30-H ) :   0.1293 B( 28-C , 31-H ) :   0.1040 B( 28-C , 33-H ) :   0.9876
B( 28-C , 34-H ) :   0.8267 B( 31-H , 32-H ) :   0.1340

Dispersion correction           -0.020898093
FINAL SINGLE POINT ENERGY     -1126.884403602418

DIPOLE MOMENT
-------------
                                X             Y             Z
Electronic contribution:     -9.20598     -11.37855     -14.12566
Nuclear contribution   :      8.53517      16.50844      14.36520
                        -----------------------------------------
Total Dipole Moment    :     -0.67082       5.12989       0.23954
                        -----------------------------------------
Magnitude (a.u.)       :      5.17911
Magnitude (Debye)      :     13.16425

Rotational constants in cm-1:     0.017951     0.012436     0.008288
Rotational constants in MHz :   538.163255   372.824050   248.467077

                             ****ORCA TERMINATED NORMALLY****
TOTAL RUN TIME: 0 days 0 hours 2 minutes 17 seconds 936 msec
