                         Program Version 5.0.0 -  RELEASE  -
|  1> !wB97X-D3 RIJCOSX def2-SVPD def2/J TightSCF
|  2> *xyz 0 1
|  3> C          4.93020       -7.37532       -2.64962
|  4> C          3.84189       -6.95161       -3.63283
|  5> H          3.45814       -5.95442       -3.40712
|  6> H          2.98848       -7.64361       -3.56708
|  7> S          4.31812       -6.91593       -5.36869
|  8> F          5.40615       -5.89948       -5.51297
|  9> O          3.11191       -6.44508       -6.04379
| 10> C          6.17399       -6.48552       -2.60631
| 11> H          4.46961       -7.40617       -1.65588
| 12> H          5.23013       -8.39868       -2.88591
| 13> O          4.76340       -8.23942       -5.69863
| 14> H          6.62449       -6.45478       -3.57637
| 15> H          6.87304       -6.88376       -1.90088
| 16> H          5.89434       -5.49571       -2.31140
| 17> *
| 18>
| 19> %MaxCore 64000
| 20>
| 21> %pal nprocs 8
| 22> end
| 23>
| 24> %scf
| 25>   MaxIter 150
| 26> end
| 27>
| 28>
| 29>                          ****END OF INPUT****

CARTESIAN COORDINATES (ANGSTROEM)
---------------------------------
  C      4.930200   -7.375320   -2.649620
  C      3.841890   -6.951610   -3.632830
  H      3.458140   -5.954420   -3.407120
  H      2.988480   -7.643610   -3.567080
  S      4.318120   -6.915930   -5.368690
  F      5.406150   -5.899480   -5.512970
  O      3.111910   -6.445080   -6.043790
  C      6.173990   -6.485520   -2.606310
  H      4.469610   -7.406170   -1.655880
  H      5.230130   -8.398680   -2.885910
  O      4.763400   -8.239420   -5.698630
  H      6.624490   -6.454780   -3.576370
  H      6.873040   -6.883760   -1.900880
  H      5.894340   -5.495710   -2.311400

 Total Charge           Charge          ....    0
 Multiplicity           Mult            ....    1
 Number of Electrons    NEL             ....   66
 Basis Dimension        Dim             ....  212

ORBITAL ENERGIES
----------------

  NO   OCC          E(Eh)            E(eV)
   0   2.0000     -89.234310     -2428.1890
   1   2.0000     -24.899741      -677.5564
   2   2.0000     -19.264948      -524.2259
   3   2.0000     -19.254648      -523.9456
   4   2.0000     -10.356771      -281.8221
   5   2.0000     -10.323682      -280.9217
   6   2.0000     -10.298021      -280.2234
   7   2.0000      -8.308349      -226.0817
   8   2.0000      -6.271893      -170.6669
   9   2.0000      -6.265742      -170.4995
  10   2.0000      -6.264527      -170.4664
  11   2.0000      -1.453476       -39.5511
  12   2.0000      -1.233733       -33.5716
  13   2.0000      -1.135107       -30.8878
  14   2.0000      -0.950459       -25.8633
  15   2.0000      -0.864724       -23.5303
  16   2.0000      -0.809493       -22.0274
  17   2.0000      -0.749378       -20.3916
  18   2.0000      -0.679858       -18.4999
  19   2.0000      -0.668560       -18.1924
  20   2.0000      -0.655151       -17.8276
  21   2.0000      -0.599454       -16.3120
  22   2.0000      -0.583795       -15.8859
  23   2.0000      -0.569161       -15.4876
  24   2.0000      -0.557146       -15.1607
  25   2.0000      -0.537996       -14.6396
  26   2.0000      -0.498019       -13.5518
  27   2.0000      -0.485280       -13.2051
  28   2.0000      -0.471944       -12.8422
  29   2.0000      -0.462028       -12.5724
  30   2.0000      -0.439019       -11.9463
  31   2.0000      -0.423070       -11.5123
  32   2.0000      -0.416097       -11.3226
  33   0.0000       0.065856         1.7920
  34   0.0000       0.090431         2.4607
  35   0.0000       0.096170         2.6169
  36   0.0000       0.096748         2.6326
  37   0.0000       0.111996         3.0476

MULLIKEN ATOMIC CHARGES
-----------------------
   0 C :   -0.272686
   1 C :   -0.098275
   2 H :    0.079158
   3 H :    0.093486
   4 S :    1.506947
   5 F :   -0.425168
   6 O :   -0.700791
   7 C :    0.708437
   8 H :   -0.049593
   9 H :   -0.004417
  10 O :   -0.667284
  11 H :   -0.137632
  12 H :   -0.028949
  13 H :   -0.003233
Sum of atomic charges:   -0.0000000

LOEWDIN ATOMIC CHARGES
----------------------
   0 C :   -0.078309
   1 C :   -0.053249
   2 H :    0.027320
   3 H :    0.044350
   4 S :    1.126734
   5 F :   -0.277816
   6 O :   -0.477766
   7 C :    0.133461
   8 H :    0.032150
   9 H :    0.029743
  10 O :   -0.460623
  11 H :   -0.031655
  12 H :   -0.007796
  13 H :   -0.006542

  Mayer bond orders larger than 0.100000
B(  0-C ,  1-C ) :   1.2405 B(  0-C ,  2-H ) :   0.1298 B(  0-C ,  3-H ) :   0.1204
B(  0-C ,  7-C ) :   1.2518 B(  0-C ,  8-H ) :   0.8868 B(  0-C ,  9-H ) :   0.9392
B(  0-C , 11-H ) :   0.2030 B(  0-C , 12-H ) :   0.1795 B(  0-C , 13-H ) :   0.1965
B(  1-C ,  2-H ) :   0.9455 B(  1-C ,  3-H ) :   0.8961 B(  1-C ,  4-S ) :   1.0072
B(  1-C ,  8-H ) :   0.1318 B(  1-C ,  9-H ) :   0.1301 B(  4-S ,  5-F ) :   0.6010
B(  4-S ,  6-O ) :   1.5521 B(  4-S , 10-O ) :   1.5265 B(  7-C , 11-H ) :   0.8408
B(  7-C , 12-H ) :   0.7975 B(  7-C , 13-H ) :   0.7693 B( 11-H , 13-H ) :   0.1108

Dispersion correction           -0.004510730
FINAL SINGLE POINT ENERGY      -766.472999368368

DIPOLE MOMENT
-------------
                                X             Y             Z
Electronic contribution:     -1.88471       1.40564     -11.70376
Nuclear contribution   :      2.27444      -1.01744      13.40618
                        -----------------------------------------
Total Dipole Moment    :      0.38973       0.38820       1.70242
                        -----------------------------------------
Magnitude (a.u.)       :      1.78908
Magnitude (Debye)      :      4.54749

Rotational constants in cm-1:     0.126966     0.054929     0.051005
Rotational constants in MHz :  3806.345018  1646.729702  1529.089209

                             ****ORCA TERMINATED NORMALLY****
TOTAL RUN TIME: 0 days 0 hours 0 minutes 22 seconds 544 msec
