                         Program Version 5.0.0 -  RELEASE  -
|  1> !wB97X-D3 RIJCOSX def2-SVPD def2/J TightSCF
|  2> *xyz 0 1
|  3> C          5.55821       -1.99291       -6.21505
|  4> C          4.18188       -2.58967       -6.29891
|  5> C          3.14587       -1.76843       -6.48675
|  6> N          4.01910       -3.86431       -6.22743
|  7> H          4.76849       -4.59115       -5.99077
|  8> H          3.12241       -4.33339       -6.31462
|  9> H          3.28164       -0.77779       -6.56655
| 10> H          2.21255       -2.13419       -6.56225
| 11> C          6.41926       -2.54294       -5.07763
| 12> C          5.89651       -2.16931       -3.69455
| 13> H          7.42888       -2.14367       -5.20808
| 14> H          6.50589       -3.62754       -5.17550
| 15> H          6.03683       -2.19819       -7.17685
| 16> H          5.46761       -0.90737       -6.12797
| 17> H          5.81870       -1.10488       -3.61824
| 18> H          6.57185       -2.53200       -2.94804
| 19> H          4.93221       -2.60892       -3.54698
| 20> *
| 21>
| 22> %MaxCore 64000
| 23>
| 24> %pal nprocs 8
| 25> end
| 26>
| 27> %scf
| 28>   MaxIter 150
| 29> end
| 30>
| 31>
| 32>                          ****END OF INPUT****

CARTESIAN COORDINATES (ANGSTROEM)
---------------------------------
  C      5.558210   -1.992910   -6.215050
  C      4.181880   -2.589670   -6.298910
  C      3.145870   -1.768430   -6.486750
  N      4.019100   -3.864310   -6.227430
  H      4.768490   -4.591150   -5.990770
  H      3.122410   -4.333390   -6.314620
  H      3.281640   -0.777790   -6.566550
  H      2.212550   -2.134190   -6.562250
  C      6.419260   -2.542940   -5.077630
  C      5.896510   -2.169310   -3.694550
  H      7.428880   -2.143670   -5.208080
  H      6.505890   -3.627540   -5.175500
  H      6.036830   -2.198190   -7.176850
  H      5.467610   -0.907370   -6.127970
  H      5.818700   -1.104880   -3.618240
  H      6.571850   -2.532000   -2.948040
  H      4.932210   -2.608920   -3.546980

 Total Charge           Charge          ....    0
 Multiplicity           Mult            ....    1
 Number of Electrons    NEL             ....   48
 Basis Dimension        Dim             ....  208

ORBITAL ENERGIES
----------------

  NO   OCC          E(Eh)            E(eV)
   0   2.0000     -14.446452      -393.1079
   1   2.0000     -10.313175      -280.6357
   2   2.0000     -10.288913      -279.9756
   3   2.0000     -10.286693      -279.9151
   4   2.0000     -10.269625      -279.4507
   5   2.0000     -10.216976      -278.0180
   6   2.0000      -1.044209       -28.4144
   7   2.0000      -0.904618       -24.6159
   8   2.0000      -0.842485       -22.9252
   9   2.0000      -0.787805       -21.4373
  10   2.0000      -0.706720       -19.2308
  11   2.0000      -0.682978       -18.5848
  12   2.0000      -0.622174       -16.9302
  13   2.0000      -0.567797       -15.4505
  14   2.0000      -0.556563       -15.1448
  15   2.0000      -0.547601       -14.9010
  16   2.0000      -0.493011       -13.4155
  17   2.0000      -0.487572       -13.2675
  18   2.0000      -0.470799       -12.8111
  19   2.0000      -0.465292       -12.6612
  20   2.0000      -0.431876       -11.7519
  21   2.0000      -0.421066       -11.4578
  22   2.0000      -0.415117       -11.2959
  23   2.0000      -0.273548        -7.4436
  24   0.0000       0.085767         2.3338
  25   0.0000       0.111541         3.0352
  26   0.0000       0.115666         3.1474
  27   0.0000       0.117892         3.2080
  28   0.0000       0.140591         3.8257

MULLIKEN ATOMIC CHARGES
-----------------------
   0 C :    0.228741
   1 C :   -0.068491
   2 C :    0.547565
   3 N :    0.085640
   4 H :   -0.031706
   5 H :   -0.207623
   6 H :   -0.216268
   7 H :   -0.448592
   8 C :   -0.351403
   9 C :    0.647650
  10 H :   -0.096904
  11 H :   -0.113443
  12 H :   -0.097710
  13 H :    0.191178
  14 H :    0.021416
  15 H :   -0.043109
  16 H :   -0.046940
Sum of atomic charges:   -0.0000000

LOEWDIN ATOMIC CHARGES
----------------------
   0 C :    0.002589
   1 C :   -0.267370
   2 C :    0.175058
   3 N :    0.145005
   4 H :    0.044028
   5 H :    0.013074
   6 H :   -0.092102
   7 H :   -0.090651
   8 C :   -0.080828
   9 C :    0.123420
  10 H :    0.020326
  11 H :    0.001377
  12 H :    0.028978
  13 H :    0.027662
  14 H :   -0.012975
  15 H :   -0.018860
  16 H :   -0.018730

  Mayer bond orders larger than 0.100000
B(  0-C ,  1-C ) :   1.0980 B(  0-C ,  2-C ) :   0.1102 B(  0-C ,  6-H ) :  -0.1024
B(  0-C ,  8-C ) :   1.1823 B(  0-C , 10-H ) :   0.1485 B(  0-C , 11-H ) :   0.1545
B(  0-C , 12-H ) :   0.8440 B(  0-C , 13-H ) :   0.7786 B(  1-C ,  2-C ) :   1.6767
B(  1-C ,  3-N ) :   1.2023 B(  1-C ,  5-H ) :  -0.1223 B(  1-C ,  7-H ) :   0.2311
B(  1-C , 12-H ) :   0.2402 B(  2-C ,  3-N ) :   0.2556 B(  2-C ,  6-H ) :   1.0613
B(  2-C ,  7-H ) :   0.6351 B(  3-N ,  4-H ) :   1.1607 B(  3-N ,  5-H ) :   1.2639
B(  4-H ,  5-H ) :  -0.1680 B(  8-C ,  9-C ) :   1.2850 B(  8-C , 10-H ) :   0.9512
B(  8-C , 11-H ) :   0.9200 B(  8-C , 13-H ) :   0.1560 B(  8-C , 14-H ) :   0.2151
B(  8-C , 15-H ) :   0.1996 B(  8-C , 16-H ) :   0.2098 B(  9-C , 14-H ) :   0.7840
B(  9-C , 15-H ) :   0.7856 B(  9-C , 16-H ) :   0.8419

Dispersion correction           -0.004522724
FINAL SINGLE POINT ENERGY      -251.634626606581

DIPOLE MOMENT
-------------
                                X             Y             Z
Electronic contribution:     -1.92603      -1.40923      -2.51475
Nuclear contribution   :      2.30279       0.65856       2.66048
                        -----------------------------------------
Total Dipole Moment    :      0.37676      -0.75067       0.14573
                        -----------------------------------------
Magnitude (a.u.)       :      0.85246
Magnitude (Debye)      :      2.16678

Rotational constants in cm-1:     0.189707     0.076319     0.071159
Rotational constants in MHz :  5687.269526  2287.988194  2133.283230

                             ****ORCA TERMINATED NORMALLY****
TOTAL RUN TIME: 0 days 0 hours 0 minutes 22 seconds 788 msec
