                         Program Version 5.0.0 -  RELEASE  -
|  1> !wB97X-D3 RIJCOSX def2-SVPD def2/J TightSCF
|  2> *xyz 0 1
|  3> C          4.93020       -7.37532       -2.64962
|  4> C          3.84189       -6.95161       -3.63283
|  5> H          3.45814       -5.95442       -3.40712
|  6> H          2.98848       -7.64361       -3.56708
|  7> S          4.31812       -6.91593       -5.36869
|  8> O          5.40615       -5.89948       -5.51297
|  9> F          3.11191       -6.44508       -6.04379
| 10> C          6.17399       -6.48552       -2.60631
| 11> H          4.46961       -7.40617       -1.65588
| 12> H          5.23013       -8.39868       -2.88591
| 13> O          4.76340       -8.23942       -5.69863
| 14> H          6.62449       -6.45478       -3.57637
| 15> H          6.87304       -6.88376       -1.90088
| 16> H          5.89434       -5.49571       -2.31140
| 17> *
| 18>
| 19> %MaxCore 64000
| 20>
| 21> %pal nprocs 8
| 22> end
| 23>
| 24> %scf
| 25>   MaxIter 150
| 26> end
| 27>
| 28>
| 29>                          ****END OF INPUT****

CARTESIAN COORDINATES (ANGSTROEM)
---------------------------------
  C      4.930200   -7.375320   -2.649620
  C      3.841890   -6.951610   -3.632830
  H      3.458140   -5.954420   -3.407120
  H      2.988480   -7.643610   -3.567080
  S      4.318120   -6.915930   -5.368690
  O      5.406150   -5.899480   -5.512970
  F      3.111910   -6.445080   -6.043790
  C      6.173990   -6.485520   -2.606310
  H      4.469610   -7.406170   -1.655880
  H      5.230130   -8.398680   -2.885910
  O      4.763400   -8.239420   -5.698630
  H      6.624490   -6.454780   -3.576370
  H      6.873040   -6.883760   -1.900880
  H      5.894340   -5.495710   -2.311400

 Total Charge           Charge          ....    0
 Multiplicity           Mult            ....    1
 Number of Electrons    NEL             ....   66
 Basis Dimension        Dim             ....  212

ORBITAL ENERGIES
----------------

  NO   OCC          E(Eh)            E(eV)
   0   2.0000     -89.236673     -2428.2533
   1   2.0000     -24.914961      -677.9706
   2   2.0000     -19.265122      -524.2306
   3   2.0000     -19.247530      -523.7519
   4   2.0000     -10.357894      -281.8526
   5   2.0000     -10.321784      -280.8700
   6   2.0000     -10.281028      -279.7610
   7   2.0000      -8.310794      -226.1482
   8   2.0000      -6.274424      -170.7357
   9   2.0000      -6.268147      -170.5650
  10   2.0000      -6.266793      -170.5281
  11   2.0000      -1.481058       -40.3016
  12   2.0000      -1.228355       -33.4252
  13   2.0000      -1.117441       -30.4071
  14   2.0000      -0.947183       -25.7742
  15   2.0000      -0.868845       -23.6425
  16   2.0000      -0.813322       -22.1316
  17   2.0000      -0.744434       -20.2571
  18   2.0000      -0.688336       -18.7306
  19   2.0000      -0.681098       -18.5336
  20   2.0000      -0.664146       -18.0723
  21   2.0000      -0.599601       -16.3160
  22   2.0000      -0.589723       -16.0472
  23   2.0000      -0.554932       -15.1005
  24   2.0000      -0.549595       -14.9552
  25   2.0000      -0.531344       -14.4586
  26   2.0000      -0.490919       -13.3586
  27   2.0000      -0.472271       -12.8511
  28   2.0000      -0.470953       -12.8153
  29   2.0000      -0.455549       -12.3961
  30   2.0000      -0.435718       -11.8565
  31   2.0000      -0.412504       -11.2248
  32   2.0000      -0.404680       -11.0119
  33   0.0000       0.066034         1.7969
  34   0.0000       0.085621         2.3299
  35   0.0000       0.095282         2.5928
  36   0.0000       0.099754         2.7144
  37   0.0000       0.117574         3.1993

MULLIKEN ATOMIC CHARGES
-----------------------
   0 C :   -0.326185
   1 C :   -0.103883
   2 H :    0.076537
   3 H :    0.099163
   4 S :    1.559618
   5 O :   -0.726668
   6 F :   -0.443171
   7 C :    0.729684
   8 H :   -0.056433
   9 H :   -0.003662
  10 O :   -0.657561
  11 H :   -0.110835
  12 H :   -0.032425
  13 H :   -0.004179
Sum of atomic charges:   -0.0000000

LOEWDIN ATOMIC CHARGES
----------------------
   0 C :   -0.065521
   1 C :   -0.064999
   2 H :    0.025869
   3 H :    0.030320
   4 S :    1.137752
   5 O :   -0.486916
   6 F :   -0.266908
   7 C :    0.137220
   8 H :    0.033458
   9 H :    0.030986
  10 O :   -0.461940
  11 H :   -0.033028
  12 H :   -0.010411
  13 H :   -0.005882

  Mayer bond orders larger than 0.100000
B(  0-C ,  1-C ) :   1.2665 B(  0-C ,  2-H ) :   0.1301 B(  0-C ,  3-H ) :   0.1375
B(  0-C ,  7-C ) :   1.2522 B(  0-C ,  8-H ) :   0.8991 B(  0-C ,  9-H ) :   0.9302
B(  0-C , 11-H ) :   0.2118 B(  0-C , 12-H ) :   0.1803 B(  0-C , 13-H ) :   0.2018
B(  1-C ,  2-H ) :   0.9342 B(  1-C ,  3-H ) :   0.8744 B(  1-C ,  4-S ) :   0.9675
B(  1-C ,  8-H ) :   0.1302 B(  1-C ,  9-H ) :   0.1271 B(  4-S ,  5-O ) :   1.4475
B(  4-S ,  6-F ) :   0.6545 B(  4-S , 10-O ) :   1.5137 B(  7-C , 11-H ) :   0.8416
B(  7-C , 12-H ) :   0.7855 B(  7-C , 13-H ) :   0.7567 B( 11-H , 13-H ) :   0.1207

Dispersion correction           -0.004531135
FINAL SINGLE POINT ENERGY      -766.461377971214

DIPOLE MOMENT
-------------
                                X             Y             Z
Electronic contribution:     -5.87227       0.47093     -12.70601
Nuclear contribution   :      4.74176      -0.43068      13.97705
                        -----------------------------------------
Total Dipole Moment    :     -1.13051       0.04025       1.27103
                        -----------------------------------------
Magnitude (a.u.)       :      1.70153
Magnitude (Debye)      :      4.32495

Rotational constants in cm-1:     0.131248     0.052952     0.050354
Rotational constants in MHz :  3934.713341  1587.473971  1509.583923

                             ****ORCA TERMINATED NORMALLY****
TOTAL RUN TIME: 0 days 0 hours 0 minutes 22 seconds 403 msec
