                         Program Version 5.0.0 -  RELEASE  -
|  1> !wB97X-D3 RIJCOSX def2-SVPD def2/J TightSCF
|  2> *xyz 0 1
|  3> C          5.55821       -1.99291       -6.21505
|  4> C          4.18188       -2.58967       -6.29891
|  5> N          3.14587       -1.76843       -6.48675
|  6> C          4.01910       -3.86431       -6.22743
|  7> H          4.76849       -4.59115       -5.99077
|  8> H          3.12241       -4.33339       -6.31462
|  9> H          3.28164       -0.77779       -6.56655
| 10> H          2.21255       -2.13419       -6.56225
| 11> C          6.41926       -2.54294       -5.07763
| 12> C          5.89651       -2.16931       -3.69455
| 13> H          7.42888       -2.14367       -5.20808
| 14> H          6.50589       -3.62754       -5.17550
| 15> H          6.03683       -2.19819       -7.17685
| 16> H          5.46761       -0.90737       -6.12797
| 17> H          5.81870       -1.10488       -3.61824
| 18> H          6.57185       -2.53200       -2.94804
| 19> H          4.93221       -2.60892       -3.54698
| 20> *
| 21>
| 22> %MaxCore 64000
| 23>
| 24> %pal nprocs 8
| 25> end
| 26>
| 27> %scf
| 28>   MaxIter 150
| 29> end
| 30>
| 31>
| 32>                          ****END OF INPUT****

CARTESIAN COORDINATES (ANGSTROEM)
---------------------------------
  C      5.558210   -1.992910   -6.215050
  C      4.181880   -2.589670   -6.298910
  N      3.145870   -1.768430   -6.486750
  C      4.019100   -3.864310   -6.227430
  H      4.768490   -4.591150   -5.990770
  H      3.122410   -4.333390   -6.314620
  H      3.281640   -0.777790   -6.566550
  H      2.212550   -2.134190   -6.562250
  C      6.419260   -2.542940   -5.077630
  C      5.896510   -2.169310   -3.694550
  H      7.428880   -2.143670   -5.208080
  H      6.505890   -3.627540   -5.175500
  H      6.036830   -2.198190   -7.176850
  H      5.467610   -0.907370   -6.127970
  H      5.818700   -1.104880   -3.618240
  H      6.571850   -2.532000   -2.948040
  H      4.932210   -2.608920   -3.546980

 Total Charge           Charge          ....    0
 Multiplicity           Mult            ....    1
 Number of Electrons    NEL             ....   48
 Basis Dimension        Dim             ....  208

ORBITAL ENERGIES
----------------

  NO   OCC          E(Eh)            E(eV)
   0   2.0000     -14.435475      -392.8092
   1   2.0000     -10.310820      -280.5717
   2   2.0000     -10.287892      -279.9478
   3   2.0000     -10.283187      -279.8197
   4   2.0000     -10.265738      -279.3449
   5   2.0000     -10.224519      -278.2233
   6   2.0000      -1.033887       -28.1335
   7   2.0000      -0.905855       -24.6496
   8   2.0000      -0.840180       -22.8625
   9   2.0000      -0.791606       -21.5407
  10   2.0000      -0.712461       -19.3870
  11   2.0000      -0.655923       -17.8486
  12   2.0000      -0.623977       -16.9793
  13   2.0000      -0.592957       -16.1352
  14   2.0000      -0.554603       -15.0915
  15   2.0000      -0.537298       -14.6206
  16   2.0000      -0.498176       -13.5560
  17   2.0000      -0.487500       -13.2655
  18   2.0000      -0.463791       -12.6204
  19   2.0000      -0.446951       -12.1622
  20   2.0000      -0.427331       -11.6283
  21   2.0000      -0.420450       -11.4410
  22   2.0000      -0.415314       -11.3013
  23   2.0000      -0.282457        -7.6860
  24   0.0000       0.092928         2.5287
  25   0.0000       0.111294         3.0285
  26   0.0000       0.114703         3.1212
  27   0.0000       0.122137         3.3235
  28   0.0000       0.141663         3.8549

MULLIKEN ATOMIC CHARGES
-----------------------
   0 C :    0.334089
   1 C :    0.322117
   2 N :    0.107407
   3 C :    0.142231
   4 H :    0.025588
   5 H :   -0.556464
   6 H :   -0.142246
   7 H :   -0.166887
   8 C :   -0.381254
   9 C :    0.644284
  10 H :   -0.094233
  11 H :   -0.060050
  12 H :   -0.089120
  13 H :   -0.018832
  14 H :    0.026027
  15 H :   -0.074753
  16 H :   -0.017904
Sum of atomic charges:   -0.0000000

LOEWDIN ATOMIC CHARGES
----------------------
   0 C :    0.000402
   1 C :   -0.253211
   2 N :    0.170725
   3 C :    0.148795
   4 H :   -0.043221
   5 H :   -0.082641
   6 H :   -0.011946
   7 H :    0.002819
   8 C :   -0.073578
   9 C :    0.122590
  10 H :    0.019885
  11 H :    0.008391
  12 H :    0.030768
  13 H :    0.015371
  14 H :   -0.017438
  15 H :   -0.018608
  16 H :   -0.019106

  Mayer bond orders larger than 0.100000
B(  0-C ,  1-C ) :   0.9312 B(  0-C ,  8-C ) :   1.2047 B(  0-C , 10-H ) :   0.1247
B(  0-C , 11-H ) :   0.1511 B(  0-C , 12-H ) :   0.8874 B(  0-C , 13-H ) :   0.7404
B(  1-C ,  2-N ) :   0.9772 B(  1-C ,  3-C ) :   1.6666 B(  1-C ,  7-H ) :  -0.1363
B(  1-C , 12-H ) :   0.1516 B(  1-C , 13-H ) :   0.1369 B(  2-N ,  3-C ) :   0.2962
B(  2-N ,  6-H ) :   1.1406 B(  2-N ,  7-H ) :   1.2851 B(  3-C ,  4-H ) :   0.8429
B(  3-C ,  5-H ) :   0.8492 B(  4-H ,  5-H ) :  -0.1483 B(  6-H ,  7-H ) :  -0.1563
B(  8-C ,  9-C ) :   1.3016 B(  8-C , 10-H ) :   0.9499 B(  8-C , 11-H ) :   0.9074
B(  8-C , 12-H ) :   0.1127 B(  8-C , 13-H ) :   0.1567 B(  8-C , 14-H ) :   0.2139
B(  8-C , 15-H ) :   0.2046 B(  8-C , 16-H ) :   0.2092 B(  9-C , 14-H ) :   0.7897
B(  9-C , 15-H ) :   0.8023 B(  9-C , 16-H ) :   0.8402

Dispersion correction           -0.004481361
FINAL SINGLE POINT ENERGY      -251.644688186044

DIPOLE MOMENT
-------------
                                X             Y             Z
Electronic contribution:     -2.69004       0.42723      -2.78202
Nuclear contribution   :      2.50934       0.16282       2.72182
                        -----------------------------------------
Total Dipole Moment    :     -0.18070       0.59005      -0.06020
                        -----------------------------------------
Magnitude (a.u.)       :      0.62003
Magnitude (Debye)      :      1.57599

Rotational constants in cm-1:     0.192764     0.074934     0.070466
Rotational constants in MHz :  5778.908020  2246.454937  2112.518546

                             ****ORCA TERMINATED NORMALLY****
TOTAL RUN TIME: 0 days 0 hours 0 minutes 21 seconds 519 msec
