                         Program Version 5.0.0 -  RELEASE  -
|  1> !wB97X-D3 RIJCOSX def2-SVPD def2/J TightSCF
|  2> *xyz 0 1
|  3> C          4.93020       -7.37532       -2.64962
|  4> C          3.84189       -6.95161       -3.63283
|  5> H          3.45814       -5.95442       -3.40712
|  6> H          2.98848       -7.64361       -3.56708
|  7> S          4.31812       -6.91593       -5.36869
|  8> O          5.40615       -5.89948       -5.51297
|  9> O          3.11191       -6.44508       -6.04379
| 10> C          6.17399       -6.48552       -2.60631
| 11> H          4.46961       -7.40617       -1.65588
| 12> H          5.23013       -8.39868       -2.88591
| 13> F          4.76340       -8.23942       -5.69863
| 14> H          6.62449       -6.45478       -3.57637
| 15> H          6.87304       -6.88376       -1.90088
| 16> H          5.89434       -5.49571       -2.31140
| 17> *
| 18>
| 19> %MaxCore 64000
| 20>
| 21> %pal nprocs 8
| 22> end
| 23>
| 24> %scf
| 25>   MaxIter 150
| 26> end
| 27>
| 28>
| 29>                          ****END OF INPUT****

CARTESIAN COORDINATES (ANGSTROEM)
---------------------------------
  C      4.930200   -7.375320   -2.649620
  C      3.841890   -6.951610   -3.632830
  H      3.458140   -5.954420   -3.407120
  H      2.988480   -7.643610   -3.567080
  S      4.318120   -6.915930   -5.368690
  O      5.406150   -5.899480   -5.512970
  O      3.111910   -6.445080   -6.043790
  C      6.173990   -6.485520   -2.606310
  H      4.469610   -7.406170   -1.655880
  H      5.230130   -8.398680   -2.885910
  F      4.763400   -8.239420   -5.698630
  H      6.624490   -6.454780   -3.576370
  H      6.873040   -6.883760   -1.900880
  H      5.894340   -5.495710   -2.311400

 Total Charge           Charge          ....    0
 Multiplicity           Mult            ....    1
 Number of Electrons    NEL             ....   66
 Basis Dimension        Dim             ....  212

ORBITAL ENERGIES
----------------

  NO   OCC          E(Eh)            E(eV)
   0   2.0000     -89.238049     -2428.2908
   1   2.0000     -24.928785      -678.3467
   2   2.0000     -19.255431      -523.9669
   3   2.0000     -19.248013      -523.7651
   4   2.0000     -10.358187      -281.8606
   5   2.0000     -10.324501      -280.9440
   6   2.0000     -10.285333      -279.8781
   7   2.0000      -8.312174      -226.1857
   8   2.0000      -6.276096      -170.7813
   9   2.0000      -6.269273      -170.5956
  10   2.0000      -6.268009      -170.5612
  11   2.0000      -1.503860       -40.9221
  12   2.0000      -1.216755       -33.1096
  13   2.0000      -1.109504       -30.1911
  14   2.0000      -0.950593       -25.8669
  15   2.0000      -0.869375       -23.6569
  16   2.0000      -0.825727       -22.4692
  17   2.0000      -0.748899       -20.3786
  18   2.0000      -0.708119       -19.2689
  19   2.0000      -0.701767       -19.0961
  20   2.0000      -0.653795       -17.7907
  21   2.0000      -0.597297       -16.2533
  22   2.0000      -0.591353       -16.0915
  23   2.0000      -0.560479       -15.2514
  24   2.0000      -0.541873       -14.7451
  25   2.0000      -0.533972       -14.5301
  26   2.0000      -0.485833       -13.2202
  27   2.0000      -0.480750       -13.0819
  28   2.0000      -0.474422       -12.9097
  29   2.0000      -0.456996       -12.4355
  30   2.0000      -0.424869       -11.5613
  31   2.0000      -0.413684       -11.2569
  32   2.0000      -0.396450       -10.7880
  33   0.0000       0.061501         1.6735
  34   0.0000       0.088959         2.4207
  35   0.0000       0.096011         2.6126
  36   0.0000       0.096658         2.6302
  37   0.0000       0.115368         3.1393

MULLIKEN ATOMIC CHARGES
-----------------------
   0 C :   -0.284755
   1 C :   -0.093238
   2 H :    0.071770
   3 H :    0.084528
   4 S :    1.518345
   5 O :   -0.712262
   6 O :   -0.686879
   7 C :    0.742074
   8 H :   -0.061694
   9 H :   -0.029978
  10 F :   -0.398702
  11 H :   -0.116226
  12 H :   -0.031890
  13 H :   -0.001095
Sum of atomic charges:   -0.0000000

LOEWDIN ATOMIC CHARGES
----------------------
   0 C :   -0.080925
   1 C :   -0.053717
   2 H :    0.039781
   3 H :    0.031411
   4 S :    1.137835
   5 O :   -0.482553
   6 O :   -0.477164
   7 C :    0.134213
   8 H :    0.031235
   9 H :    0.024014
  10 F :   -0.251144
  11 H :   -0.038243
  12 H :   -0.011145
  13 H :   -0.003599

  Mayer bond orders larger than 0.100000
B(  0-C ,  1-C ) :   1.2130 B(  0-C ,  2-H ) :   0.1261 B(  0-C ,  3-H ) :   0.1216
B(  0-C ,  7-C ) :   1.2613 B(  0-C ,  8-H ) :   0.8985 B(  0-C ,  9-H ) :   0.9240
B(  0-C , 11-H ) :   0.2179 B(  0-C , 12-H ) :   0.1796 B(  0-C , 13-H ) :   0.2046
B(  1-C ,  2-H ) :   0.9472 B(  1-C ,  3-H ) :   0.9093 B(  1-C ,  4-S ) :   0.9986
B(  1-C ,  8-H ) :   0.1268 B(  1-C ,  9-H ) :   0.1215 B(  4-S ,  5-O ) :   1.4773
B(  4-S ,  6-O ) :   1.5614 B(  4-S , 10-F ) :   0.6545 B(  7-C , 11-H ) :   0.8341
B(  7-C , 12-H ) :   0.7890 B(  7-C , 13-H ) :   0.7603 B( 11-H , 13-H ) :   0.1226

Dispersion correction           -0.004476074
FINAL SINGLE POINT ENERGY      -766.448890651758

DIPOLE MOMENT
-------------
                                X             Y             Z
Electronic contribution:     -3.01088      -2.60441     -12.08561
Nuclear contribution   :      2.96568       1.49902      13.60585
                        -----------------------------------------
Total Dipole Moment    :     -0.04520      -1.10539       1.52024
                        -----------------------------------------
Magnitude (a.u.)       :      1.88017
Magnitude (Debye)      :      4.77902

Rotational constants in cm-1:     0.127173     0.053596     0.051689
Rotational constants in MHz :  3812.547794  1606.772866  1549.597841

                             ****ORCA TERMINATED NORMALLY****
TOTAL RUN TIME: 0 days 0 hours 0 minutes 22 seconds 929 msec
