                         Program Version 5.0.0 -  RELEASE  -
|  1> !wB97X-D3 RIJCOSX def2-SVPD def2/J TightSCF xyzfile
|  2>
|  3> *xyzfile 0 1 D2.xyz
|  4>
|  5> %MaxCore 64000
|  6>
|  7> %pal nprocs 18
|  8> end
|  9>
| 10> %scf
| 11>   MaxIter 150
| 12> end
| 13>
| 14>
| 15>                          ****END OF INPUT****

CARTESIAN COORDINATES (ANGSTROEM)
---------------------------------
  C      5.558206   -1.992914   -6.215054
  C      4.930199   -7.375319   -2.649623
  C      3.841892   -6.951611   -3.632829
  H      3.458144   -5.954425   -3.407121
  H      2.988484   -7.643606   -3.567078
  S      4.318115   -6.915930   -5.368692
  C      4.181880   -2.589671   -6.298911
  N      3.145873   -1.768431   -6.486753
  C      4.019102   -3.864307   -6.227427
  H      4.768490   -4.591153   -5.990773
  H      3.122405   -4.333392   -6.314620
  H      3.281635   -0.777786   -6.566549
  H      2.212549   -2.134193   -6.562246
  F      5.406154   -5.899480   -5.512972
  O      3.111910   -6.445079   -6.043792
  C      6.419260   -2.542944   -5.077630
  C      5.872267   -5.002756   -2.427819
  C      6.173994   -6.485522   -2.606315
  H      6.734852   -6.613767   -3.534015
  H      6.821463   -6.831018   -1.793617
  H      4.469612   -7.406168   -1.655876
  H      5.230134   -8.398678   -2.885906
  C      5.896512   -2.169314   -3.694552
  H      7.428880   -2.143665   -5.208078
  H      6.505894   -3.627541   -5.175502
  C      6.807804   -2.623428   -2.551019
  H      4.894708   -2.589732   -3.557501
  H      5.778823   -1.081255   -3.635790
  C      7.111544   -4.122463   -2.520363
  H      7.751615   -2.071393   -2.614406
  H      6.345837   -2.326401   -1.604086
  H      5.362882   -4.828697   -1.471335
  H      5.174429   -4.702577   -3.211298
  H      7.778329   -4.329347   -1.677651
  H      7.673189   -4.402845   -3.417586
  O      4.763396   -8.239424   -5.698629
  H      6.036826   -2.198189   -7.176852
  H      5.467610   -0.907371   -6.127968

 Total Charge           Charge          ....    0
 Multiplicity           Mult            ....    1
 Number of Electrons    NEL             ....  136
 Basis Dimension        Dim             ....  512

ORBITAL ENERGIES
----------------

  NO   OCC          E(Eh)            E(eV)
   0   2.0000     -89.234003     -2428.1807
   1   2.0000     -24.900745      -677.5837
   2   2.0000     -19.263103      -524.1757
   3   2.0000     -19.250280      -523.8268
   4   2.0000     -14.428730      -392.6257
   5   2.0000     -10.351792      -281.6866
   6   2.0000     -10.317685      -280.7585
   7   2.0000     -10.301960      -280.3306
   8   2.0000     -10.301030      -280.3053
   9   2.0000     -10.293897      -280.1112
  10   2.0000     -10.289151      -279.9820
  11   2.0000     -10.286067      -279.8981
  12   2.0000     -10.285668      -279.8872
  13   2.0000     -10.285093      -279.8716
  14   2.0000     -10.281488      -279.7735
  15   2.0000     -10.201754      -277.6038
  16   2.0000      -8.306752      -226.0382
  17   2.0000      -6.270560      -170.6306
  18   2.0000      -6.264115      -170.4552
  19   2.0000      -6.262911      -170.4225
  20   2.0000      -1.459794       -39.7230
  21   2.0000      -1.232046       -33.5257
  22   2.0000      -1.132852       -30.8265
  23   2.0000      -1.026531       -27.9333
  24   2.0000      -0.956131       -26.0176
  25   2.0000      -0.928817       -25.2744
  26   2.0000      -0.899060       -24.4647
  27   2.0000      -0.870525       -23.6882
  28   2.0000      -0.832984       -22.6667
  29   2.0000      -0.822492       -22.3811
  30   2.0000      -0.795092       -21.6355
  31   2.0000      -0.768748       -20.9187
  32   2.0000      -0.731329       -19.9005
  33   2.0000      -0.714143       -19.4328
  34   2.0000      -0.699284       -19.0285
  35   2.0000      -0.674281       -18.3481
  36   2.0000      -0.669031       -18.2053
  37   2.0000      -0.652847       -17.7649
  38   2.0000      -0.643881       -17.5209
  39   2.0000      -0.617945       -16.8151
  40   2.0000      -0.600643       -16.3443
  41   2.0000      -0.596040       -16.2191
  42   2.0000      -0.589214       -16.0333
  43   2.0000      -0.574978       -15.6459
  44   2.0000      -0.560584       -15.2543
  45   2.0000      -0.558568       -15.1994
  46   2.0000      -0.552366       -15.0306
  47   2.0000      -0.536231       -14.5916
  48   2.0000      -0.519211       -14.1284
  49   2.0000      -0.513743       -13.9797
  50   2.0000      -0.508314       -13.8319
  51   2.0000      -0.500049       -13.6070
  52   2.0000      -0.477624       -12.9968
  53   2.0000      -0.471946       -12.8423
  54   2.0000      -0.464503       -12.6398
  55   2.0000      -0.458438       -12.4747
  56   2.0000      -0.447836       -12.1862
  57   2.0000      -0.445321       -12.1178
  58   2.0000      -0.439733       -11.9657
  59   2.0000      -0.433297       -11.7906
  60   2.0000      -0.425667       -11.5830
  61   2.0000      -0.424529       -11.5520
  62   2.0000      -0.416584       -11.3358
  63   2.0000      -0.410764       -11.1775
  64   2.0000      -0.406395       -11.0586
  65   2.0000      -0.401862       -10.9352
  66   2.0000      -0.398419       -10.8415
  67   2.0000      -0.273028        -7.4295
  68   0.0000       0.071742         1.9522
  69   0.0000       0.084443         2.2978
  70   0.0000       0.092279         2.5110
  71   0.0000       0.094692         2.5767
  72   0.0000       0.107065         2.9134

MULLIKEN ATOMIC CHARGES
-----------------------
   0 C :    0.772620
   1 C :    0.470697
   2 C :   -0.081666
   3 H :    0.286921
   4 H :   -0.175883
   5 S :    1.545974
   6 C :    0.188312
   7 N :    0.097132
   8 C :    1.363461
   9 H :   -0.380352
  10 H :   -1.087741
  11 H :   -0.130794
  12 H :   -0.175207
  13 F :   -0.618667
  14 O :   -0.710651
  15 C :    0.222575
  16 C :    0.006515
  17 C :    0.157192
  18 H :    0.033836
  19 H :   -0.271884
  20 H :    0.091658
  21 H :    0.012915
  22 C :   -0.139267
  23 H :   -0.119440
  24 H :   -0.522579
  25 C :    0.604219
  26 H :    0.182371
  27 H :   -0.301196
  28 C :    0.091667
  29 H :    0.041517
  30 H :   -0.030126
  31 H :    0.020075
  32 H :   -0.378730
  33 H :   -0.282965
  34 H :    0.077848
  35 O :   -0.786445
  36 H :   -0.102622
  37 H :    0.028709
Sum of atomic charges:    0.0000000

LOEWDIN ATOMIC CHARGES
----------------------
   0 C :    0.014039
   1 C :   -0.031028
   2 C :   -0.036222
   3 H :    0.019786
   4 H :    0.044320
   5 S :    1.144437
   6 C :   -0.233450
   7 N :    0.172221
   8 C :    0.178058
   9 H :   -0.124718
  10 H :   -0.095321
  11 H :   -0.014074
  12 H :    0.003998
  13 F :   -0.290963
  14 O :   -0.457232
  15 C :   -0.023669
  16 C :   -0.034896
  17 C :   -0.030686
  18 H :    0.016615
  19 H :    0.033017
  20 H :    0.036527
  21 H :    0.031057
  22 C :   -0.032566
  23 H :    0.029818
  24 H :   -0.005764
  25 C :   -0.033074
  26 H :    0.014125
  27 H :    0.024512
  28 C :   -0.034296
  29 H :    0.023096
  30 H :    0.022695
  31 H :    0.040951
  32 H :   -0.015791
  33 H :    0.025737
  34 H :    0.018074
  35 O :   -0.447686
  36 H :    0.033133
  37 H :    0.015219

  Mayer bond orders larger than 0.100000
B(  0-C ,  6-C ) :   0.9518 B(  0-C ,  8-C ) :   0.1383 B(  0-C ,  9-H ) :  -0.1300
B(  0-C , 15-C ) :   1.2151 B(  0-C , 24-H ) :   0.1002 B(  0-C , 36-H ) :   0.5966
B(  0-C , 37-H ) :   0.7033 B(  1-C ,  2-C ) :   1.2185 B(  1-C ,  4-H ) :   0.1505
B(  1-C , 17-C ) :   1.2164 B(  1-C , 20-H ) :   0.7232 B(  1-C , 21-H ) :   0.7000
B(  2-C ,  3-H ) :   0.8195 B(  2-C ,  4-H ) :   0.8670 B(  2-C ,  5-S ) :   1.0347
B(  2-C , 20-H ) :   0.1638 B(  2-C , 21-H ) :   0.1222 B(  2-C , 35-O ) :   0.1154
B(  4-H ,  5-S ) :   0.1224 B(  5-S , 13-F ) :   0.5741 B(  5-S , 14-O ) :   1.5144
B(  5-S , 35-O ) :   1.4801 B(  6-C ,  7-N ) :   0.8340 B(  6-C ,  8-C ) :   1.9121
B(  6-C , 12-H ) :  -0.1475 B(  6-C , 36-H ) :   0.2532 B(  6-C , 37-H ) :   0.1013
B(  7-N ,  8-C ) :   0.4651 B(  7-N , 10-H ) :  -0.1163 B(  7-N , 11-H ) :   1.1337
B(  7-N , 12-H ) :   1.3005 B(  8-C ,  9-H ) :   0.1593 B(  8-C , 10-H ) :  -0.1857
B(  8-C , 14-O ) :  -0.2721 B(  8-C , 24-H ) :   0.1085 B(  9-H , 10-H ) :  -0.1355
B(  9-H , 14-O ) :   0.1073 B(  9-H , 24-H ) :   0.1687 B( 10-H , 14-O ) :   0.2961
B( 10-H , 24-H ) :  -0.1149 B( 11-H , 12-H ) :  -0.1534 B( 13-F , 24-H ) :   0.1222
B( 13-F , 35-O ) :   0.1046 B( 15-C , 22-C ) :   1.1984 B( 15-C , 23-H ) :   0.7836
B( 15-C , 24-H ) :   0.7594 B( 15-C , 26-H ) :   0.1166 B( 15-C , 27-H ) :   0.1706
B( 15-C , 36-H ) :   0.2895 B( 15-C , 37-H ) :   0.1535 B( 16-C , 17-C ) :   1.1826
B( 16-C , 18-H ) :   0.1183 B( 16-C , 19-H ) :   0.1732 B( 16-C , 28-C ) :   1.2046
B( 16-C , 31-H ) :   0.7850 B( 16-C , 32-H ) :   1.0299 B( 16-C , 33-H ) :   0.1990
B( 16-C , 34-H ) :   0.1325 B( 17-C , 18-H ) :   0.8762 B( 17-C , 19-H ) :   0.9051
B( 17-C , 20-H ) :   0.1010 B( 17-C , 21-H ) :   0.2370 B( 17-C , 28-C ) :   0.1061
B( 22-C , 23-H ) :   0.1599 B( 22-C , 24-H ) :   0.1722 B( 22-C , 25-C ) :   1.0885
B( 22-C , 26-H ) :   0.8275 B( 22-C , 27-H ) :   1.0886 B( 22-C , 29-H ) :   0.1553
B( 22-C , 30-H ) :   0.2285 B( 25-C , 28-C ) :   1.1258 B( 25-C , 29-H ) :   0.6813
B( 25-C , 30-H ) :   0.7197 B( 26-H , 32-H ) :   0.1499 B( 28-C , 29-H ) :   0.2119
B( 28-C , 30-H ) :   0.1189 B( 28-C , 31-H ) :   0.1070 B( 28-C , 33-H ) :   0.9857
B( 28-C , 34-H ) :   0.8321 B( 31-H , 32-H ) :   0.1154 B( 36-H , 37-H ) :  -0.1096

Dispersion correction           -0.020708039
FINAL SINGLE POINT ENERGY     -1134.735160202216

DIPOLE MOMENT
-------------
                                X             Y             Z
Electronic contribution:     -7.72317     -16.94170     -13.55633
Nuclear contribution   :      7.91684      17.85507      15.13212
                        -----------------------------------------
Total Dipole Moment    :      0.19367       0.91337       1.57578
                        -----------------------------------------
Magnitude (a.u.)       :      1.83162
Magnitude (Debye)      :      4.65561

Rotational constants in cm-1:     0.018015     0.012410     0.008313
Rotational constants in MHz :   540.084467   372.038374   249.228144

                             ****ORCA TERMINATED NORMALLY****
TOTAL RUN TIME: 0 days 0 hours 2 minutes 45 seconds 818 msec
