                         Program Version 5.0.0 -  RELEASE  -
|  1> !wB97X-D3 RIJCOSX def2-SVPD def2/J TightSCF xyzfile
|  2>
|  3> *xyzfile 0 1 D3.xyz
|  4>
|  5> %MaxCore 64000
|  6>
|  7> %pal nprocs 18
|  8> end
|  9>
| 10> %scf
| 11>   MaxIter 150
| 12> end
| 13>
| 14>
| 15>                          ****END OF INPUT****

CARTESIAN COORDINATES (ANGSTROEM)
---------------------------------
  C      5.558206   -1.992914   -6.215054
  C      4.930199   -7.375319   -2.649623
  C      3.841892   -6.951611   -3.632829
  H      3.458144   -5.954425   -3.407121
  H      2.988484   -7.643606   -3.567078
  S      4.318115   -6.915930   -5.368692
  C      4.181880   -2.589671   -6.298911
  C      3.145873   -1.768431   -6.486753
  N      4.019102   -3.864307   -6.227427
  H      4.768490   -4.591153   -5.990773
  H      3.122405   -4.333392   -6.314620
  H      3.281635   -0.777786   -6.566549
  H      2.212549   -2.134193   -6.562246
  O      5.406154   -5.899480   -5.512972
  F      3.111910   -6.445079   -6.043792
  C      6.419260   -2.542944   -5.077630
  C      5.872267   -5.002756   -2.427819
  C      6.173994   -6.485522   -2.606315
  H      6.734852   -6.613767   -3.534015
  H      6.821463   -6.831018   -1.793617
  H      4.469612   -7.406168   -1.655876
  H      5.230134   -8.398678   -2.885906
  C      5.896512   -2.169314   -3.694552
  H      7.428880   -2.143665   -5.208078
  H      6.505894   -3.627541   -5.175502
  C      6.807804   -2.623428   -2.551019
  H      4.894708   -2.589732   -3.557501
  H      5.778823   -1.081255   -3.635790
  C      7.111544   -4.122463   -2.520363
  H      7.751615   -2.071393   -2.614406
  H      6.345837   -2.326401   -1.604086
  H      5.362882   -4.828697   -1.471335
  H      5.174429   -4.702577   -3.211298
  H      7.778329   -4.329347   -1.677651
  H      7.673189   -4.402845   -3.417586
  O      4.763396   -8.239424   -5.698629
  H      6.036826   -2.198189   -7.176852
  H      5.467610   -0.907371   -6.127968

 Total Charge           Charge          ....    0
 Multiplicity           Mult            ....    1
 Number of Electrons    NEL             ....  136
 Basis Dimension        Dim             ....  512

ORBITAL ENERGIES
----------------

  NO   OCC          E(Eh)            E(eV)
   0   2.0000     -89.264479     -2429.0100
   1   2.0000     -24.940536      -678.6665
   2   2.0000     -19.288092      -524.8557
   3   2.0000     -19.279585      -524.6242
   4   2.0000     -14.408575      -392.0773
   5   2.0000     -10.372285      -282.2442
   6   2.0000     -10.330723      -281.1133
   7   2.0000     -10.299611      -280.2667
   8   2.0000     -10.295400      -280.1521
   9   2.0000     -10.290157      -280.0094
  10   2.0000     -10.283801      -279.8365
  11   2.0000     -10.280204      -279.7386
  12   2.0000     -10.274987      -279.5966
  13   2.0000     -10.274430      -279.5815
  14   2.0000     -10.273770      -279.5635
  15   2.0000     -10.201008      -277.5835
  16   2.0000      -8.337474      -226.8742
  17   2.0000      -6.301210      -171.4646
  18   2.0000      -6.295112      -171.2987
  19   2.0000      -6.293267      -171.2485
  20   2.0000      -1.507072       -41.0095
  21   2.0000      -1.254909       -34.1478
  22   2.0000      -1.153254       -31.3816
  23   2.0000      -1.021429       -27.7945
  24   2.0000      -0.966912       -26.3110
  25   2.0000      -0.926032       -25.1986
  26   2.0000      -0.900750       -24.5106
  27   2.0000      -0.871784       -23.7224
  28   2.0000      -0.849121       -23.1058
  29   2.0000      -0.820040       -22.3144
  30   2.0000      -0.799754       -21.7624
  31   2.0000      -0.763964       -20.7885
  32   2.0000      -0.731409       -19.9026
  33   2.0000      -0.721334       -19.6285
  34   2.0000      -0.709185       -19.2979
  35   2.0000      -0.700602       -19.0643
  36   2.0000      -0.684773       -18.6336
  37   2.0000      -0.665287       -18.1034
  38   2.0000      -0.656776       -17.8718
  39   2.0000      -0.627739       -17.0816
  40   2.0000      -0.611894       -16.6505
  41   2.0000      -0.600875       -16.3506
  42   2.0000      -0.586749       -15.9663
  43   2.0000      -0.570144       -15.5144
  44   2.0000      -0.562930       -15.3181
  45   2.0000      -0.559157       -15.2154
  46   2.0000      -0.548626       -14.9289
  47   2.0000      -0.532315       -14.4850
  48   2.0000      -0.524531       -14.2732
  49   2.0000      -0.518668       -14.1137
  50   2.0000      -0.512693       -13.9511
  51   2.0000      -0.502317       -13.6687
  52   2.0000      -0.489385       -13.3168
  53   2.0000      -0.483226       -13.1492
  54   2.0000      -0.470391       -12.8000
  55   2.0000      -0.460821       -12.5396
  56   2.0000      -0.456979       -12.4350
  57   2.0000      -0.454183       -12.3589
  58   2.0000      -0.446483       -12.1494
  59   2.0000      -0.432696       -11.7743
  60   2.0000      -0.428284       -11.6542
  61   2.0000      -0.424610       -11.5542
  62   2.0000      -0.421090       -11.4584
  63   2.0000      -0.410531       -11.1711
  64   2.0000      -0.402558       -10.9542
  65   2.0000      -0.395827       -10.7710
  66   2.0000      -0.392460       -10.6794
  67   2.0000      -0.256065        -6.9679
  68   0.0000       0.054345         1.4788
  69   0.0000       0.073677         2.0049
  70   0.0000       0.082731         2.2512
  71   0.0000       0.092919         2.5285
  72   0.0000       0.098990         2.6937

MULLIKEN ATOMIC CHARGES
-----------------------
   0 C :    0.707483
   1 C :    0.414243
   2 C :   -0.147571
   3 H :    0.289363
   4 H :   -0.123061
   5 S :    1.602738
   6 C :   -0.379640
   7 C :    0.435302
   8 N :    0.915429
   9 H :   -0.346627
  10 H :   -0.285154
  11 H :   -0.294158
  12 H :   -0.373746
  13 O :   -0.945293
  14 F :   -0.464249
  15 C :    0.321119
  16 C :   -0.034794
  17 C :    0.188439
  18 H :    0.074618
  19 H :   -0.294021
  20 H :    0.096410
  21 H :    0.025173
  22 C :   -0.100700
  23 H :   -0.125471
  24 H :   -0.585804
  25 C :    0.588767
  26 H :    0.147819
  27 H :   -0.296091
  28 C :    0.067595
  29 H :    0.048465
  30 H :   -0.046880
  31 H :    0.018644
  32 H :   -0.304719
  33 H :   -0.298240
  34 H :    0.106523
  35 O :   -0.741481
  36 H :   -0.119918
  37 H :    0.259487
Sum of atomic charges:   -0.0000000

LOEWDIN ATOMIC CHARGES
----------------------
   0 C :    0.016849
   1 C :   -0.015484
   2 C :   -0.043551
   3 H :    0.020153
   4 H :    0.034197
   5 S :    1.184909
   6 C :   -0.254286
   7 C :    0.166897
   8 N :    0.173389
   9 H :   -0.111931
  10 H :   -0.014891
  11 H :   -0.098778
  12 H :   -0.095829
  13 O :   -0.447325
  14 F :   -0.251521
  15 C :   -0.024972
  16 C :   -0.034635
  17 C :   -0.026410
  18 H :    0.016985
  19 H :    0.032891
  20 H :    0.041196
  21 H :    0.033703
  22 C :   -0.031383
  23 H :    0.028742
  24 H :   -0.009592
  25 C :   -0.033547
  26 H :    0.014594
  27 H :    0.026837
  28 C :   -0.032046
  29 H :    0.023074
  30 H :    0.021688
  31 H :    0.038668
  32 H :   -0.016769
  33 H :    0.024765
  34 H :    0.020861
  35 O :   -0.434361
  36 H :    0.031381
  37 H :    0.025534

  Mayer bond orders larger than 0.100000
B(  0-C ,  6-C ) :   1.0015 B(  0-C ,  8-N ) :   0.1473 B(  0-C , 15-C ) :   1.1611
B(  0-C , 24-H ) :   0.1467 B(  0-C , 36-H ) :   0.5469 B(  0-C , 37-H ) :   0.6722
B(  1-C ,  2-C ) :   1.2803 B(  1-C ,  4-H ) :   0.1680 B(  1-C , 17-C ) :   1.2189
B(  1-C , 20-H ) :   0.7296 B(  1-C , 21-H ) :   0.6958 B(  2-C ,  3-H ) :   0.7738
B(  2-C ,  4-H ) :   0.8866 B(  2-C ,  5-S ) :   1.0117 B(  2-C , 20-H ) :   0.1726
B(  2-C , 21-H ) :   0.1113 B(  2-C , 35-O ) :   0.1127 B(  5-S , 13-O ) :   1.2459
B(  5-S , 14-F ) :   0.6159 B(  5-S , 35-O ) :   1.5080 B(  6-C ,  7-C ) :   1.7777
B(  6-C ,  8-N ) :   1.3144 B(  6-C , 10-H ) :  -0.1443 B(  6-C , 11-H ) :   0.1455
B(  6-C , 12-H ) :   0.2796 B(  6-C , 24-H ) :  -0.1093 B(  6-C , 36-H ) :   0.2859
B(  6-C , 37-H ) :   0.1142 B(  7-C ,  8-N ) :   0.1404 B(  7-C , 11-H ) :   0.8773
B(  7-C , 12-H ) :   0.6529 B(  8-N ,  9-H ) :   0.6698 B(  8-N , 10-H ) :   0.9174
B(  8-N , 13-O ) :  -0.1518 B(  9-H , 10-H ) :  -0.1796 B(  9-H , 13-O ) :   0.1848
B( 10-H , 14-F ) :   0.1149 B( 13-O , 24-H ) :   0.1993 B( 13-O , 35-O ) :   0.1408
B( 15-C , 22-C ) :   1.1866 B( 15-C , 23-H ) :   0.7724 B( 15-C , 24-H ) :   0.6268
B( 15-C , 26-H ) :   0.1172 B( 15-C , 27-H ) :   0.1957 B( 15-C , 36-H ) :   0.2363
B( 15-C , 37-H ) :   0.1538 B( 16-C , 17-C ) :   1.1821 B( 16-C , 18-H ) :   0.1207
B( 16-C , 19-H ) :   0.1693 B( 16-C , 28-C ) :   1.2211 B( 16-C , 31-H ) :   0.7979
B( 16-C , 32-H ) :   1.0106 B( 16-C , 33-H ) :   0.1937 B( 16-C , 34-H ) :   0.1296
B( 17-C , 18-H ) :   0.8523 B( 17-C , 19-H ) :   0.9074 B( 17-C , 20-H ) :   0.1059
B( 17-C , 21-H ) :   0.2389 B( 17-C , 28-C ) :   0.1144 B( 22-C , 23-H ) :   0.1486
B( 22-C , 24-H ) :   0.1957 B( 22-C , 25-C ) :   1.0806 B( 22-C , 26-H ) :   0.8316
B( 22-C , 27-H ) :   1.0506 B( 22-C , 29-H ) :   0.1387 B( 22-C , 30-H ) :   0.2164
B( 25-C , 28-C ) :   1.1307 B( 25-C , 29-H ) :   0.7056 B( 25-C , 30-H ) :   0.7323
B( 26-H , 32-H ) :   0.1417 B( 28-C , 29-H ) :   0.2065 B( 28-C , 30-H ) :   0.1274
B( 28-C , 31-H ) :   0.1058 B( 28-C , 33-H ) :   0.9947 B( 28-C , 34-H ) :   0.8193
B( 31-H , 32-H ) :   0.1218

Dispersion correction           -0.020916184
FINAL SINGLE POINT ENERGY     -1134.738895261022

DIPOLE MOMENT
-------------
                                X             Y             Z
Electronic contribution:    -10.98688     -20.02803     -14.17399
Nuclear contribution   :     10.48431      18.81367      15.71750
                        -----------------------------------------
Total Dipole Moment    :     -0.50256      -1.21436       1.54350
                        -----------------------------------------
Magnitude (a.u.)       :      2.02723
Magnitude (Debye)      :      5.15280

Rotational constants in cm-1:     0.017977     0.012528     0.008321
Rotational constants in MHz :   538.924099   375.570730   249.458530

                             ****ORCA TERMINATED NORMALLY****
TOTAL RUN TIME: 0 days 0 hours 2 minutes 11 seconds 345 msec
