                         Program Version 5.0.0 -  RELEASE  -
|  1> !LC-BLYP RIJCOSX def2-SVPD def2/J TightSCF
|  2> *xyz -1 1
|  3> C         -2.45380        0.05510        6.94145
|  4> C         -2.07842        1.48042        6.56410
|  5> O         -0.90125        1.85816        6.82810
|  6> O         -2.93658        2.17731        5.96415
|  7> H         -3.47026       -0.13135        6.66407
|  8> H         -2.34265       -0.07527        7.99765
|  9> H         -1.81248       -0.63046        6.42801
| 10> *
| 11> %MaxCore 64000
| 12>
| 13> %pal nprocs 4
| 14> end
| 15>
| 16> %scf
| 17>   MaxIter 150
| 18> end
| 19>
| 20>
| 21>                          ****END OF INPUT****

CARTESIAN COORDINATES (ANGSTROEM)
---------------------------------
  C     -2.453800    0.055100    6.941450
  C     -2.078420    1.480420    6.564100
  O     -0.901250    1.858160    6.828100
  O     -2.936580    2.177310    5.964150
  H     -3.470260   -0.131350    6.664070
  H     -2.342650   -0.075270    7.997650
  H     -1.812480   -0.630460    6.428010

 Total Charge           Charge          ....   -1
 Multiplicity           Mult            ....    1
 Number of Electrons    NEL             ....   32
 Basis Dimension        Dim             ....  110

ORBITAL ENERGIES
----------------

  NO   OCC          E(Eh)            E(eV)
   0   2.0000     -18.694844      -508.7126
   1   2.0000     -18.692249      -508.6420
   2   2.0000      -9.975538      -271.4482
   3   2.0000      -9.900823      -269.4151
   4   2.0000      -0.902669       -24.5629
   5   2.0000      -0.806837       -21.9552
   6   2.0000      -0.651144       -17.7185
   7   2.0000      -0.408129       -11.1058
   8   2.0000      -0.370043       -10.0694
   9   2.0000      -0.351751        -9.5716
  10   2.0000      -0.329398        -8.9634
  11   2.0000      -0.285951        -7.7811
  12   2.0000      -0.271629        -7.3914
  13   2.0000      -0.147519        -4.0142
  14   2.0000      -0.143709        -3.9105
  15   2.0000      -0.125907        -3.4261
  16   0.0000       0.220897         6.0109
  17   0.0000       0.257316         7.0019
  18   0.0000       0.280210         7.6249
  19   0.0000       0.291804         7.9404
  20   0.0000       0.316459         8.6113

MULLIKEN ATOMIC CHARGES
-----------------------
   0 C :    0.711461
   1 C :   -0.195078
   2 O :   -0.566626
   3 O :   -0.530710
   4 H :   -0.147882
   5 H :   -0.134196
   6 H :   -0.136969
Sum of atomic charges:   -1.0000000

LOEWDIN ATOMIC CHARGES
----------------------
   0 C :    0.130308
   1 C :   -0.374637
   2 O :   -0.332349
   3 O :   -0.323756
   4 H :   -0.038180
   5 H :   -0.031551
   6 H :   -0.029836

  Mayer bond orders larger than 0.100000
B(  0-C ,  1-C ) :   1.1878 B(  0-C ,  4-H ) :   0.8115 B(  0-C ,  5-H ) :   0.7621
B(  0-C ,  6-H ) :   0.7717 B(  1-C ,  2-O ) :   1.6243 B(  1-C ,  3-O ) :   1.6253
B(  1-C ,  4-H ) :   0.2896 B(  1-C ,  5-H ) :   0.1985 B(  1-C ,  6-H ) :   0.1900

FINAL SINGLE POINT ENERGY      -227.894808255580

DIPOLE MOMENT
-------------
                                X             Y             Z
Electronic contribution:      0.85041       3.28262      -0.88886
Nuclear contribution   :     -1.26064      -4.68337       1.27880
                        -----------------------------------------
Total Dipole Moment    :     -0.41023      -1.40075       0.38994
                        -----------------------------------------
Magnitude (a.u.)       :      1.51078
Magnitude (Debye)      :      3.84010

Rotational constants in cm-1:     0.391994     0.333933     0.186475
Rotational constants in MHz : 11751.676689 10011.065304  5590.392476

                             ****ORCA TERMINATED NORMALLY****
TOTAL RUN TIME: 0 days 0 hours 0 minutes 8 seconds 63 msec
