                         Program Version 5.0.0 -  RELEASE  -
|  1> !LC-BLYP RIJCOSX def2-SVPD def2/J TightSCF
|  2> *xyz 1 1
|  3> C         -0.69912        3.48945        3.75516
|  4> N         -1.08067        3.79296        5.15686
|  5> H         -0.87449        4.76274        5.42734
|  6> H         -0.68079        3.13476        5.83900
|  7> H         -2.05755        3.53169        5.34620
|  8> H         -1.14600        4.20803        3.10030
|  9> H         -1.04188        2.50941        3.49644
| 10> H          0.36562        3.53208        3.65813
| 11> *
| 12> %MaxCore 64000
| 13>
| 14> %pal nprocs 4
| 15> end
| 16>
| 17> %scf
| 18>   MaxIter 150
| 19> end
| 20>
| 21>
| 22>                          ****END OF INPUT****

CARTESIAN COORDINATES (ANGSTROEM)
---------------------------------
  C     -0.699120    3.489450    3.755160
  N     -1.080670    3.792960    5.156860
  H     -0.874490    4.762740    5.427340
  H     -0.680790    3.134760    5.839000
  H     -2.057550    3.531690    5.346200
  H     -1.146000    4.208030    3.100300
  H     -1.041880    2.509410    3.496440
  H      0.365620    3.532080    3.658130

 Total Charge           Charge          ....    1
 Multiplicity           Mult            ....    1
 Number of Electrons    NEL             ....   18
 Basis Dimension        Dim             ....   88

ORBITAL ENERGIES
----------------

  NO   OCC          E(Eh)            E(eV)
   0   2.0000     -14.535977      -395.5440
   1   2.0000     -10.342964      -281.4464
   2   2.0000      -1.320605       -35.9355
   3   2.0000      -1.045460       -28.4484
   4   2.0000      -0.929552       -25.2944
   5   2.0000      -0.892525       -24.2868
   6   2.0000      -0.821316       -22.3492
   7   2.0000      -0.729427       -19.8487
   8   2.0000      -0.722952       -19.6725
   9   0.0000      -0.143481        -3.9043
  10   0.0000      -0.075208        -2.0465
  11   0.0000      -0.070434        -1.9166
  12   0.0000      -0.069519        -1.8917
  13   0.0000      -0.023099        -0.6285

MULLIKEN ATOMIC CHARGES
-----------------------
   0 C :    1.160080
   1 N :   -0.723698
   2 H :    0.334290
   3 H :    0.315675
   4 H :    0.329896
   5 H :   -0.142012
   6 H :   -0.140710
   7 H :   -0.133522
Sum of atomic charges:    1.0000000

LOEWDIN ATOMIC CHARGES
----------------------
   0 C :    0.266820
   1 N :    0.306663
   2 H :    0.116923
   3 H :    0.111232
   4 H :    0.110735
   5 H :    0.029352
   6 H :    0.029487
   7 H :    0.028786

  Mayer bond orders larger than 0.100000
B(  0-C ,  1-N ) :   0.8203 B(  0-C ,  5-H ) :   0.8461 B(  0-C ,  6-H ) :   0.8409
B(  0-C ,  7-H ) :   0.8513 B(  1-N ,  2-H ) :   0.8038 B(  1-N ,  3-H ) :   0.8480
B(  1-N ,  4-H ) :   0.8237 B(  1-N ,  5-H ) :   0.1097 B(  1-N ,  6-H ) :   0.1127
B(  1-N ,  7-H ) :   0.1006

FINAL SINGLE POINT ENERGY       -95.867323741338

DIPOLE MOMENT
-------------
                                X             Y             Z
Electronic contribution:     -0.25243       0.28221       1.00180
Nuclear contribution   :     -0.00699      -0.18064      -0.14199
                        -----------------------------------------
Total Dipole Moment    :     -0.25942       0.10157       0.85981
                        -----------------------------------------
Magnitude (a.u.)       :      0.90382
Magnitude (Debye)      :      2.29733

Rotational constants in cm-1:     2.906310     0.688008     0.676648
Rotational constants in MHz : 87128.982229 20625.947414 20285.402367

                             ****ORCA TERMINATED NORMALLY****
TOTAL RUN TIME: 0 days 0 hours 0 minutes 4 seconds 543 msec
