                         Program Version 5.0.0 -  RELEASE  -
|  1> !LC-BLYP RIJCOSX def2-SVPD def2/J TightSCF xyzfile
|  2>
|  3> *xyzfile 0 1 B.xyz
|  4>
|  5> %MaxCore 64000
|  6>
|  7> %pal nprocs 4
|  8> end
|  9>
| 10> %scf
| 11>   MaxIter 150
| 12> end
| 13>
| 14>
| 15>                          ****END OF INPUT****

CARTESIAN COORDINATES (ANGSTROEM)
---------------------------------
  C     -0.699123    3.489451    3.755163
  H     -0.966716    4.349013    3.140491
  N     -1.080669    3.792957    5.156857
  C      0.776956    3.138391    3.617408
  H     -1.331455    2.656510    3.446323
  H      1.371398    3.888342    4.149744
  H      1.046926    3.232057    2.561331
  C      1.118917    1.731170    4.115155
  H      2.200573    1.654226    4.254882
  C      0.659466    0.635182    3.153306
  H      0.677024    1.576674    5.103150
  H      1.312288    0.638870    2.274207
  H     -0.339563    0.868049    2.772876
  C      0.639957   -0.771175    3.755619
  C     -0.341821   -0.965537    4.915046
  H      1.648266   -1.028665    4.097015
  H      0.398568   -1.482386    2.958453
  H     -0.279892   -2.005646    5.252547
  C     -1.789164   -0.639231    4.557496
  H     -0.032380   -0.352918    5.765118
  H     -2.107151   -1.270102    3.719619
  H     -1.856352    0.391636    4.197604
  C     -2.790700   -0.785275    5.702812
  H     -2.867308   -1.835651    6.001675
  H     -3.774554   -0.486577    5.334807
  C     -2.453797    0.055101    6.941445
  C     -2.078419    1.480421    6.564098
  H     -1.625584   -0.382163    7.498914
  H     -3.325274    0.087746    7.599175
  H     -0.874488    4.762737    5.427344
  H     -0.680793    3.134762    5.839000
  H     -2.057550    3.531691    5.346197
  O     -0.901252    1.858156    6.828104
  O     -2.936582    2.177309    5.964151

 Total Charge           Charge          ....    0
 Multiplicity           Mult            ....    1
 Number of Electrons    NEL             ....  104
 Basis Dimension        Dim             ....  434

ORBITAL ENERGIES
----------------

  NO   OCC          E(Eh)            E(eV)
   0   2.0000     -18.897338      -514.2227
   1   2.0000     -18.896256      -514.1933
   2   2.0000     -14.267381      -388.2352
   3   2.0000     -10.166665      -276.6490
   4   2.0000     -10.154854      -276.3276
   5   2.0000     -10.108000      -275.0527
   6   2.0000     -10.083281      -274.3800
   7   2.0000     -10.080328      -274.2997
   8   2.0000     -10.073726      -274.1200
   9   2.0000     -10.065261      -273.8897
  10   2.0000     -10.065038      -273.8836
  11   2.0000     -10.063419      -273.8396
  12   2.0000     -10.058012      -273.6924
  13   2.0000      -1.118324       -30.4311
  14   2.0000      -1.075559       -29.2674
  15   2.0000      -1.014462       -27.6049
  16   2.0000      -0.928096       -25.2548
  17   2.0000      -0.899542       -24.4778
  18   2.0000      -0.871472       -23.7140
  19   2.0000      -0.823807       -22.4169
  20   2.0000      -0.792807       -21.5734
  21   2.0000      -0.754460       -20.5299
  22   2.0000      -0.716504       -19.4971
  23   2.0000      -0.702490       -19.1157
  24   2.0000      -0.682257       -18.5652
  25   2.0000      -0.659656       -17.9501
  26   2.0000      -0.649161       -17.6646
  27   2.0000      -0.607492       -16.5307
  28   2.0000      -0.586590       -15.9619
  29   2.0000      -0.582802       -15.8589
  30   2.0000      -0.580690       -15.8014
  31   2.0000      -0.553597       -15.0641
  32   2.0000      -0.547582       -14.9005
  33   2.0000      -0.539215       -14.6728
  34   2.0000      -0.527183       -14.3454
  35   2.0000      -0.511992       -13.9320
  36   2.0000      -0.504625       -13.7316
  37   2.0000      -0.502525       -13.6744
  38   2.0000      -0.489734       -13.3263
  39   2.0000      -0.484112       -13.1733
  40   2.0000      -0.463875       -12.6227
  41   2.0000      -0.457594       -12.4518
  42   2.0000      -0.451315       -12.2809
  43   2.0000      -0.435271       -11.8443
  44   2.0000      -0.423644       -11.5279
  45   2.0000      -0.420011       -11.4291
  46   2.0000      -0.405682       -11.0392
  47   2.0000      -0.398953       -10.8561
  48   2.0000      -0.392974       -10.6934
  49   2.0000      -0.351629        -9.5683
  50   2.0000      -0.336990        -9.1700
  51   2.0000      -0.335546        -9.1307
  52   0.0000       0.049705         1.3525
  53   0.0000       0.076677         2.0865
  54   0.0000       0.081593         2.2202
  55   0.0000       0.087166         2.3719
  56   0.0000       0.100428         2.7328

MULLIKEN ATOMIC CHARGES
-----------------------
   0 C :    1.281736
   1 H :   -0.317640
   2 N :   -0.485978
   3 C :    0.511837
   4 H :   -0.439684
   5 H :   -0.166611
   6 H :   -0.145965
   7 C :    1.111436
   8 H :   -0.070491
   9 C :    0.220340
  10 H :   -1.016474
  11 H :   -0.355974
  12 H :   -0.262982
  13 C :    0.908410
  14 C :    0.210920
  15 H :   -0.224701
  16 H :   -0.043069
  17 H :   -0.392872
  18 C :    0.646387
  19 H :   -0.130740
  20 H :   -0.149517
  21 H :   -0.846332
  22 C :    0.626068
  23 H :   -0.282867
  24 H :    0.000091
  25 C :    0.554866
  26 C :    0.014678
  27 H :    0.056508
  28 H :   -0.260159
  29 H :    0.331109
  30 H :    0.110292
  31 H :    0.167652
  32 O :   -0.595708
  33 O :   -0.564564
Sum of atomic charges:   -0.0000000

LOEWDIN ATOMIC CHARGES
----------------------
   0 C :    0.083261
   1 H :    0.038143
   2 N :    0.326904
   3 C :   -0.020392
   4 H :    0.029098
   5 H :    0.030079
   6 H :    0.033699
   7 C :   -0.016734
   8 H :    0.036218
   9 C :   -0.042387
  10 H :   -0.011468
  11 H :    0.028964
  12 H :    0.003125
  13 C :   -0.036860
  14 C :   -0.032308
  15 H :    0.028663
  16 H :    0.027170
  17 H :    0.032386
  18 C :   -0.037151
  19 H :    0.002849
  20 H :    0.033591
  21 H :   -0.002312
  22 C :   -0.027142
  23 H :    0.025537
  24 H :    0.029421
  25 C :    0.025974
  26 C :   -0.224346
  27 H :    0.024380
  28 H :    0.035723
  29 H :    0.098112
  30 H :   -0.060007
  31 H :   -0.023583
  32 O :   -0.223794
  33 O :   -0.214815

  Mayer bond orders larger than 0.100000
B(  0-C ,  1-H ) :   0.6244 B(  0-C ,  2-N ) :   0.7048 B(  0-C ,  3-C ) :   1.1339
B(  0-C ,  4-H ) :   0.5237 B(  0-C ,  6-H ) :   0.1330 B(  0-C ,  7-C ) :   0.3367
B(  0-C , 10-H ) :  -0.2648 B(  0-C , 18-C ) :   0.1335 B(  0-C , 21-H ) :  -0.1102
B(  1-H ,  3-C ) :   0.1454 B(  1-H ,  8-H ) :   0.1177 B(  1-H , 10-H ) :  -0.1028
B(  2-N ,  4-H ) :   0.3087 B(  2-N , 29-H ) :   0.8459 B(  2-N , 30-H ) :   0.8664
B(  2-N , 31-H ) :   0.8138 B(  2-N , 32-O ) :   0.1036 B(  3-C ,  4-H ) :   0.1753
B(  3-C ,  5-H ) :   0.6582 B(  3-C ,  6-H ) :   0.7413 B(  3-C ,  7-C ) :   1.1161
B(  3-C ,  9-C ) :   0.1014 B(  3-C , 10-H ) :   0.2341 B(  3-C , 13-C ) :   0.1078
B(  4-H ,  7-C ) :  -0.1400 B(  4-H ,  8-H ) :  -0.1022 B(  4-H , 10-H ) :   0.1333
B(  4-H , 12-H ) :   0.1412 B(  4-H , 18-C ) :  -0.1170 B(  4-H , 21-H ) :   0.2646
B(  5-H ,  7-C ) :   0.1474 B(  5-H , 10-H ) :   0.1004 B(  7-C ,  8-H ) :   0.6219
B(  7-C ,  9-C ) :   1.0158 B(  7-C , 10-H ) :  -0.1634 B(  7-C , 11-H ) :   0.2338
B(  8-H ,  9-C ) :   0.2121 B(  9-C , 10-H ) :   0.3782 B(  9-C , 11-H ) :   0.8084
B(  9-C , 12-H ) :   0.8067 B(  9-C , 13-C ) :   1.1765 B(  9-C , 14-C ) :   0.1702
B(  9-C , 15-H ) :   0.1314 B(  9-C , 16-H ) :   0.2953 B( 10-H , 12-H ) :   0.1231
B( 10-H , 13-C ) :  -0.1559 B( 10-H , 19-H ) :   0.1534 B( 12-H , 21-H ) :   0.1060
B( 13-C , 14-C ) :   1.1259 B( 13-C , 15-H ) :   0.5690 B( 13-C , 16-H ) :   0.6006
B( 14-C , 15-H ) :   0.3448 B( 14-C , 17-H ) :   0.8305 B( 14-C , 18-C ) :   1.0935
B( 14-C , 19-H ) :   0.8516 B( 14-C , 20-H ) :   0.1867 B( 14-C , 21-H ) :   0.3243
B( 15-H , 16-H ) :  -0.1670 B( 17-H , 18-C ) :   0.1565 B( 18-C , 19-H ) :   0.1248
B( 18-C , 20-H ) :   0.6347 B( 18-C , 21-H ) :   0.3052 B( 18-C , 22-C ) :   1.1759
B( 18-C , 23-H ) :   0.1917 B( 18-C , 24-H ) :   0.3143 B( 18-C , 25-C ) :   0.1737
B( 20-H , 21-H ) :   0.1079 B( 21-H , 22-C ) :   0.1918 B( 22-C , 23-H ) :   0.7152
B( 22-C , 24-H ) :   0.5990 B( 22-C , 25-C ) :   1.1127 B( 22-C , 26-C ) :   0.1224
B( 22-C , 27-H ) :   0.1045 B( 22-C , 28-H ) :   0.1795 B( 23-H , 24-H ) :  -0.1882
B( 23-H , 25-C ) :   0.1548 B( 24-H , 25-C ) :   0.1077 B( 25-C , 26-C ) :   1.1560
B( 25-C , 27-H ) :   0.7444 B( 25-C , 28-H ) :   0.5623 B( 26-C , 27-H ) :   0.2430
B( 26-C , 28-H ) :   0.3051 B( 26-C , 32-O ) :   1.5171 B( 26-C , 33-O ) :   1.5077
B( 30-H , 32-O ) :   0.2758 B( 31-H , 33-O ) :   0.2179 B( 32-O , 33-O ) :   0.1118

FINAL SINGLE POINT ENERGY      -596.996506715364

DIPOLE MOMENT
-------------
                                X             Y             Z
Electronic contribution:     -4.66240       4.82380       6.69310
Nuclear contribution   :      5.60885      -3.40606      -8.06960
                        -----------------------------------------
Total Dipole Moment    :      0.94644       1.41774      -1.37650
                        -----------------------------------------
Magnitude (a.u.)       :      2.19100
Magnitude (Debye)      :      5.56909

Rotational constants in cm-1:     0.028465     0.023505     0.015110
Rotational constants in MHz :   853.363165   704.655786   452.976312

                             ****ORCA TERMINATED NORMALLY****
TOTAL RUN TIME: 0 days 0 hours 3 minutes 35 seconds 962 msec
