                         Program Version 5.0.0 -  RELEASE  -
|  1> !LC-BLYP RIJCOSX def2-SVPD def2/J TightSCF
|  2> *xyz 0 1
|  3> C         -2.45380        0.05510        6.94145
|  4> C         -2.07842        1.48042        6.56410
|  5> F         -0.90125        1.85816        6.82810
|  6> O         -2.93658        2.17731        5.96415
|  7> H         -3.47026       -0.13135        6.66407
|  8> H         -2.34265       -0.07527        7.99765
|  9> H         -1.81248       -0.63046        6.42801
| 10> *
| 11> %MaxCore 64000
| 12>
| 13> %pal nprocs 4
| 14> end
| 15>
| 16> %scf
| 17>   MaxIter 150
| 18> end
| 19>
| 20>
| 21>                          ****END OF INPUT****

CARTESIAN COORDINATES (ANGSTROEM)
---------------------------------
  C     -2.453800    0.055100    6.941450
  C     -2.078420    1.480420    6.564100
  F     -0.901250    1.858160    6.828100
  O     -2.936580    2.177310    5.964150
  H     -3.470260   -0.131350    6.664070
  H     -2.342650   -0.075270    7.997650
  H     -1.812480   -0.630460    6.428010

 Total Charge           Charge          ....    0
 Multiplicity           Mult            ....    1
 Number of Electrons    NEL             ....   32
 Basis Dimension        Dim             ....  110

ORBITAL ENERGIES
----------------

  NO   OCC          E(Eh)            E(eV)
   0   2.0000     -24.549096      -668.0149
   1   2.0000     -18.972178      -516.2592
   2   2.0000     -10.278088      -279.6810
   3   2.0000     -10.116181      -275.2753
   4   2.0000      -1.386432       -37.7267
   5   2.0000      -1.122900       -30.5556
   6   2.0000      -0.881808       -23.9952
   7   2.0000      -0.761927       -20.7331
   8   2.0000      -0.660775       -17.9806
   9   2.0000      -0.652492       -17.7552
  10   2.0000      -0.608905       -16.5691
  11   2.0000      -0.551131       -14.9970
  12   2.0000      -0.540114       -14.6972
  13   2.0000      -0.508999       -13.8506
  14   2.0000      -0.464808       -12.6481
  15   2.0000      -0.400812       -10.9067
  16   0.0000       0.048358         1.3159
  17   0.0000       0.061582         1.6757
  18   0.0000       0.103187         2.8079
  19   0.0000       0.134760         3.6670
  20   0.0000       0.142479         3.8770

MULLIKEN ATOMIC CHARGES
-----------------------
   0 C :    0.670246
   1 C :    0.186046
   2 F :   -0.286565
   3 O :   -0.319028
   4 H :   -0.123725
   5 H :   -0.064253
   6 H :   -0.062721
Sum of atomic charges:   -0.0000000

LOEWDIN ATOMIC CHARGES
----------------------
   0 C :    0.202262
   1 C :   -0.075711
   2 F :   -0.020872
   3 O :   -0.118484
   4 H :    0.004718
   5 H :    0.003060
   6 H :    0.005027

  Mayer bond orders larger than 0.100000
B(  0-C ,  1-C ) :   1.2253 B(  0-C ,  4-H ) :   0.8307 B(  0-C ,  5-H ) :   0.7614
B(  0-C ,  6-H ) :   0.7679 B(  1-C ,  2-F ) :   0.8831 B(  1-C ,  3-O ) :   1.9720
B(  1-C ,  4-H ) :   0.2473 B(  1-C ,  5-H ) :   0.1603 B(  1-C ,  6-H ) :   0.1548

FINAL SINGLE POINT ENERGY      -252.414408223508

DIPOLE MOMENT
-------------
                                X             Y             Z
Electronic contribution:      2.82333       4.10232      -0.48216
Nuclear contribution   :     -2.49112      -5.16552       1.01592
                        -----------------------------------------
Total Dipole Moment    :      0.33222      -1.06320       0.53376
                        -----------------------------------------
Magnitude (a.u.)       :      1.23517
Magnitude (Debye)      :      3.13956

Rotational constants in cm-1:     0.367635     0.321184     0.176974
Rotational constants in MHz : 11021.414238  9628.842971  5305.560130

                             ****ORCA TERMINATED NORMALLY****
TOTAL RUN TIME: 0 days 0 hours 0 minutes 8 seconds 207 msec
