                         Program Version 5.0.0 -  RELEASE  -
|  1> !LC-BLYP RIJCOSX def2-SVPD def2/J TightSCF
|  2> *xyz 0 1
|  3> C         -0.69912        3.48945        3.75516
|  4> C         -1.08067        3.79296        5.15686
|  5> H         -0.87449        4.76274        5.42734
|  6> H         -0.68079        3.13476        5.83900
|  7> H         -2.05755        3.53169        5.34620
|  8> H         -1.14600        4.20803        3.10030
|  9> H         -1.04188        2.50941        3.49644
| 10> H          0.36562        3.53208        3.65813
| 11> *
| 12> %MaxCore 64000
| 13>
| 14> %pal nprocs 4
| 15> end
| 16>
| 17> %scf
| 18>   MaxIter 150
| 19> end
| 20>
| 21>
| 22>                          ****END OF INPUT****

CARTESIAN COORDINATES (ANGSTROEM)
---------------------------------
  C     -0.699120    3.489450    3.755160
  C     -1.080670    3.792960    5.156860
  H     -0.874490    4.762740    5.427340
  H     -0.680790    3.134760    5.839000
  H     -2.057550    3.531690    5.346200
  H     -1.146000    4.208030    3.100300
  H     -1.041880    2.509410    3.496440
  H      0.365620    3.532080    3.658130

 Total Charge           Charge          ....    0
 Multiplicity           Mult            ....    1
 Number of Electrons    NEL             ....   18
 Basis Dimension        Dim             ....   88

ORBITAL ENERGIES
----------------

  NO   OCC          E(Eh)            E(eV)
   0   2.0000     -10.063343      -273.8375
   1   2.0000     -10.050336      -273.4835
   2   2.0000      -0.873044       -23.7567
   3   2.0000      -0.727482       -19.7958
   4   2.0000      -0.563198       -15.3254
   5   2.0000      -0.542378       -14.7589
   6   2.0000      -0.475993       -12.9524
   7   2.0000      -0.451794       -12.2939
   8   2.0000      -0.429448       -11.6859
   9   0.0000       0.079326         2.1586
  10   0.0000       0.108922         2.9639
  11   0.0000       0.158695         4.3183
  12   0.0000       0.164689         4.4814
  13   0.0000       0.181864         4.9488

MULLIKEN ATOMIC CHARGES
-----------------------
   0 C :    0.531769
   1 C :    0.775262
   2 H :   -0.299528
   3 H :   -0.294348
   4 H :   -0.289796
   5 H :   -0.148230
   6 H :   -0.129587
   7 H :   -0.145541
Sum of atomic charges:    0.0000000

LOEWDIN ATOMIC CHARGES
----------------------
   0 C :    0.069602
   1 C :    0.064503
   2 H :   -0.026626
   3 H :   -0.034331
   4 H :   -0.034355
   5 H :   -0.013113
   6 H :   -0.011794
   7 H :   -0.013885

  Mayer bond orders larger than 0.100000
B(  0-C ,  1-C ) :   1.4034 B(  0-C ,  2-H ) :   0.1780 B(  0-C ,  3-H ) :   0.1670
B(  0-C ,  4-H ) :   0.1726 B(  0-C ,  5-H ) :   0.8012 B(  0-C ,  6-H ) :   0.8087
B(  0-C ,  7-H ) :   0.8052 B(  1-C ,  2-H ) :   0.7239 B(  1-C ,  3-H ) :   0.6440
B(  1-C ,  4-H ) :   0.6469 B(  1-C ,  5-H ) :   0.1790 B(  1-C ,  6-H ) :   0.1922
B(  1-C ,  7-H ) :   0.1748 B(  3-H ,  4-H ) :   0.3041

FINAL SINGLE POINT ENERGY       -79.482981030678

DIPOLE MOMENT
-------------
                                X             Y             Z
Electronic contribution:      0.05159       0.09918      -0.05978
Nuclear contribution   :     -0.07174      -0.12630       0.09844
                        -----------------------------------------
Total Dipole Moment    :     -0.02015      -0.02712       0.03866
                        -----------------------------------------
Magnitude (a.u.)       :      0.05134
Magnitude (Debye)      :      0.13051

Rotational constants in cm-1:     2.906543     0.717882     0.705537
Rotational constants in MHz : 87135.978289 21521.550473 21151.459355

                             ****ORCA TERMINATED NORMALLY****
TOTAL RUN TIME: 0 days 0 hours 0 minutes 4 seconds 433 msec
