                         Program Version 5.0.0 -  RELEASE  -
|  1> !LC-BLYP RIJCOSX def2-SVPD def2/J TightSCF
|  2> *xyz 0 1
|  3> C         -2.45380        0.05510        6.94145
|  4> C         -2.07842        1.48042        6.56410
|  5> O         -0.90125        1.85816        6.82810
|  6> F         -2.93658        2.17731        5.96415
|  7> H         -3.47026       -0.13135        6.66407
|  8> H         -2.34265       -0.07527        7.99765
|  9> H         -1.81248       -0.63046        6.42801
| 10> *
| 11> %MaxCore 64000
| 12>
| 13> %pal nprocs 4
| 14> end
| 15>
| 16> %scf
| 17>   MaxIter 150
| 18> end
| 19>
| 20>
| 21>                          ****END OF INPUT****

CARTESIAN COORDINATES (ANGSTROEM)
---------------------------------
  C     -2.453800    0.055100    6.941450
  C     -2.078420    1.480420    6.564100
  O     -0.901250    1.858160    6.828100
  F     -2.936580    2.177310    5.964150
  H     -3.470260   -0.131350    6.664070
  H     -2.342650   -0.075270    7.997650
  H     -1.812480   -0.630460    6.428010

 Total Charge           Charge          ....    0
 Multiplicity           Mult            ....    1
 Number of Electrons    NEL             ....   32
 Basis Dimension        Dim             ....  110

ORBITAL ENERGIES
----------------

  NO   OCC          E(Eh)            E(eV)
   0   2.0000     -24.551817      -668.0889
   1   2.0000     -18.970502      -516.2136
   2   2.0000     -10.278704      -279.6977
   3   2.0000     -10.116452      -275.2827
   4   2.0000      -1.391429       -37.8627
   5   2.0000      -1.118877       -30.4462
   6   2.0000      -0.881645       -23.9908
   7   2.0000      -0.764864       -20.8130
   8   2.0000      -0.662779       -18.0351
   9   2.0000      -0.654990       -17.8232
  10   2.0000      -0.609584       -16.5876
  11   2.0000      -0.552518       -15.0348
  12   2.0000      -0.539366       -14.6769
  13   2.0000      -0.508265       -13.8306
  14   2.0000      -0.459548       -12.5049
  15   2.0000      -0.400298       -10.8927
  16   0.0000       0.044438         1.2092
  17   0.0000       0.061195         1.6652
  18   0.0000       0.103213         2.8086
  19   0.0000       0.137427         3.7396
  20   0.0000       0.140027         3.8103

MULLIKEN ATOMIC CHARGES
-----------------------
   0 C :    0.652215
   1 C :    0.173628
   2 O :   -0.350262
   3 F :   -0.253692
   4 H :   -0.111622
   5 H :   -0.056259
   6 H :   -0.054008
Sum of atomic charges:    0.0000000

LOEWDIN ATOMIC CHARGES
----------------------
   0 C :    0.202383
   1 C :   -0.073950
   2 O :   -0.124203
   3 F :   -0.016603
   4 H :   -0.007634
   5 H :    0.009544
   6 H :    0.010463

  Mayer bond orders larger than 0.100000
B(  0-C ,  1-C ) :   1.2471 B(  0-C ,  4-H ) :   0.8317 B(  0-C ,  5-H ) :   0.7571
B(  0-C ,  6-H ) :   0.7676 B(  1-C ,  2-O ) :   1.9395 B(  1-C ,  3-F ) :   0.9312
B(  1-C ,  4-H ) :   0.1925 B(  1-C ,  5-H ) :   0.1765 B(  1-C ,  6-H ) :   0.1657

FINAL SINGLE POINT ENERGY      -252.411631480081

DIPOLE MOMENT
-------------
                                X             Y             Z
Electronic contribution:     -0.49254       4.62323      -1.88955
Nuclear contribution   :     -0.38801      -5.49530       1.90863
                        -----------------------------------------
Total Dipole Moment    :     -0.88055      -0.87207       0.01908
                        -----------------------------------------
Magnitude (a.u.)       :      1.23945
Magnitude (Debye)      :      3.15042

Rotational constants in cm-1:     0.368583     0.320435     0.176966
Rotational constants in MHz : 11049.843408  9606.394840  5305.299921

                             ****ORCA TERMINATED NORMALLY****
TOTAL RUN TIME: 0 days 0 hours 0 minutes 8 seconds 20 msec
