                         Program Version 5.0.0 -  RELEASE  -
|  1> !LC-PBE RIJCOSX def2-SVP def2/J TightSCF
|  2>
|  3> *xyz -1 1
|  4> C          2.95263        1.86308       -3.57485
|  5> C          4.12921        0.89839       -3.41895
|  6> H          3.73369       -0.10060       -3.23763
|  7> H          4.71910        0.86256       -4.33901
|  8> C          5.01734        1.31521       -2.22130
|  9> O          4.73706        0.85411       -1.12283
| 10> O          5.92815        2.16811       -2.49136
| 11> H          2.35067        1.56005       -4.40594
| 12> H          3.32277        2.85258       -3.74453
| 13> H          2.36134        1.85149       -2.68315
| 14> *
| 15> %MaxCore 64000
| 16>
| 17> %pal nprocs 4
| 18> end
| 19>
| 20> %scf
| 21>   MaxIter 150
| 22> end
| 23>
| 24>
| 25>                          ****END OF INPUT****

CARTESIAN COORDINATES (ANGSTROEM)
---------------------------------
  C      2.952630    1.863080   -3.574850
  C      4.129210    0.898390   -3.418950
  H      3.733690   -0.100600   -3.237630
  H      4.719100    0.862560   -4.339010
  C      5.017340    1.315210   -2.221300
  O      4.737060    0.854110   -1.122830
  O      5.928150    2.168110   -2.491360
  H      2.350670    1.560050   -4.405940
  H      3.322770    2.852580   -3.744530
  H      2.361340    1.851490   -2.683150

 Total Charge           Charge          ....   -1
 Multiplicity           Mult            ....    1
 Number of Electrons    NEL             ....   40
 Basis Dimension        Dim             ....   95

ORBITAL ENERGIES
----------------

  NO   OCC          E(Eh)            E(eV)
   0   2.0000     -18.692198      -508.6406
   1   2.0000     -18.678615      -508.2710
   2   2.0000      -9.985395      -271.7164
   3   2.0000      -9.958244      -270.9776
   4   2.0000      -9.934875      -270.3417
   5   2.0000      -0.951342       -25.8873
   6   2.0000      -0.843127       -22.9426
   7   2.0000      -0.766101       -20.8467
   8   2.0000      -0.617043       -16.7906
   9   2.0000      -0.453778       -12.3479
  10   2.0000      -0.426309       -11.6005
  11   2.0000      -0.381462       -10.3801
  12   2.0000      -0.355927        -9.6853
  13   2.0000      -0.332356        -9.0439
  14   2.0000      -0.328514        -8.9393
  15   2.0000      -0.290690        -7.9101
  16   2.0000      -0.286160        -7.7868
  17   2.0000      -0.143141        -3.8951
  18   2.0000      -0.140610        -3.8262
  19   2.0000      -0.129686        -3.5289
  20   0.0000       0.306753         8.3472
  21   0.0000       0.359081         9.7711
  22   0.0000       0.371881        10.1194
  23   0.0000       0.374469        10.1898
  24   0.0000       0.400554        10.8996

MULLIKEN ATOMIC CHARGES
-----------------------
   0 C :   -0.125797
   1 C :   -0.122747
   2 H :    0.000917
   3 H :    0.008616
   4 C :    0.012933
   5 O :   -0.391414
   6 O :   -0.470451
   7 H :    0.006018
   8 H :    0.042343
   9 H :    0.039583
Sum of atomic charges:   -1.0000000

LOEWDIN ATOMIC CHARGES
----------------------
   0 C :   -0.093438
   1 C :   -0.120606
   2 H :    0.008404
   3 H :    0.011987
   4 C :   -0.063049
   5 O :   -0.363963
   6 O :   -0.436117
   7 H :    0.007115
   8 H :    0.025105
   9 H :    0.024561

  Mayer bond orders larger than 0.100000
B(  0-C ,  1-C ) :   1.0820 B(  0-C ,  7-H ) :   0.9805 B(  0-C ,  8-H ) :   0.9724
B(  0-C ,  9-H ) :   0.9739 B(  1-C ,  2-H ) :   0.9543 B(  1-C ,  3-H ) :   0.9564
B(  1-C ,  4-C ) :   0.9121 B(  4-C ,  5-O ) :   1.9140 B(  4-C ,  6-O ) :   1.8308
B(  5-O ,  6-O ) :   0.1103

FINAL SINGLE POINT ENERGY      -266.830839460643

DIPOLE MOMENT
-------------
                                X             Y             Z
Electronic contribution:      4.46112      -0.15455       3.95885
Nuclear contribution   :     -5.85873      -0.10793      -5.24103
                        -----------------------------------------
Total Dipole Moment    :     -1.39761      -0.26248      -1.28218
                        -----------------------------------------
Magnitude (a.u.)       :      1.91473
Magnitude (Debye)      :      4.86686

Rotational constants in cm-1:     0.292505     0.135951     0.110253
Rotational constants in MHz :  8769.065873  4075.717001  3305.311891

                             ****ORCA TERMINATED NORMALLY****
TOTAL RUN TIME: 0 days 0 hours 0 minutes 11 seconds 720 msec
