                         Program Version 5.0.0 -  RELEASE  -
|  1> !LC-PBE RIJCOSX def2-SVP def2/J TightSCF
|  2>
|  3> *xyz 1 1
|  4> C          3.34350        3.35457       -3.59200
|  5> C          2.95263        1.86308       -3.57485
|  6> C          4.25587        3.70385       -4.72605
|  7> N          3.73403        4.29378       -5.80077
|  8> N          5.51504        3.40725       -4.63718
|  9> H          6.14919        3.60120       -5.39905
| 10> H          5.81358        2.89950       -3.80879
| 11> H          2.74138        4.51311       -5.82470
| 12> H          4.28755        4.52126       -6.61434
| 13> H          3.86125        3.59725       -2.66298
| 14> H          2.44649        3.97346       -3.65656
| 15> H          2.44395        1.61721       -4.48352
| 16> H          2.30781        1.67290       -2.74242
| 17> H          3.83491        1.26414       -3.48670
| 18> *
| 19> %MaxCore 64000
| 20>
| 21> %pal nprocs 4
| 22> end
| 23>
| 24> %scf
| 25>   MaxIter 150
| 26> end
| 27>
| 28>
| 29>                          ****END OF INPUT****

CARTESIAN COORDINATES (ANGSTROEM)
---------------------------------
  C      3.343500    3.354570   -3.592000
  C      2.952630    1.863080   -3.574850
  C      4.255870    3.703850   -4.726050
  N      3.734030    4.293780   -5.800770
  N      5.515040    3.407250   -4.637180
  H      6.149190    3.601200   -5.399050
  H      5.813580    2.899500   -3.808790
  H      2.741380    4.513110   -5.824700
  H      4.287550    4.521260   -6.614340
  H      3.861250    3.597250   -2.662980
  H      2.446490    3.973460   -3.656560
  H      2.443950    1.617210   -4.483520
  H      2.307810    1.672900   -2.742420
  H      3.834910    1.264140   -3.486700

 Total Charge           Charge          ....    1
 Multiplicity           Mult            ....    1
 Number of Electrons    NEL             ....   40
 Basis Dimension        Dim             ....  115

ORBITAL ENERGIES
----------------

  NO   OCC          E(Eh)            E(eV)
   0   2.0000     -14.478485      -393.9796
   1   2.0000     -14.472737      -393.8232
   2   2.0000     -10.457678      -284.5679
   3   2.0000     -10.325822      -280.9799
   4   2.0000     -10.282311      -279.7959
   5   2.0000      -1.376739       -37.4630
   6   2.0000      -1.270995       -34.5855
   7   2.0000      -1.141122       -31.0515
   8   2.0000      -1.018682       -27.7197
   9   2.0000      -0.972237       -26.4559
  10   2.0000      -0.929166       -25.2839
  11   2.0000      -0.900124       -24.4936
  12   2.0000      -0.843541       -22.9539
  13   2.0000      -0.800289       -21.7770
  14   2.0000      -0.767691       -20.8899
  15   2.0000      -0.757059       -20.6006
  16   2.0000      -0.679397       -18.4873
  17   2.0000      -0.668872       -18.2009
  18   2.0000      -0.659207       -17.9379
  19   2.0000      -0.623515       -16.9667
  20   0.0000      -0.107830        -2.9342
  21   0.0000      -0.048562        -1.3214
  22   0.0000      -0.003368        -0.0917
  23   0.0000       0.000008         0.0002
  24   0.0000       0.026349         0.7170

MULLIKEN ATOMIC CHARGES
-----------------------
   0 C :   -0.161872
   1 C :   -0.116049
   2 C :   -0.016907
   3 N :   -0.081008
   4 N :   -0.025570
   5 H :    0.206497
   6 H :    0.216769
   7 H :    0.216087
   8 H :    0.201336
   9 H :    0.134364
  10 H :    0.117625
  11 H :    0.095336
  12 H :    0.129401
  13 H :    0.083992
Sum of atomic charges:    1.0000000

LOEWDIN ATOMIC CHARGES
----------------------
   0 C :   -0.063464
   1 C :   -0.056244
   2 C :    0.159112
   3 N :    0.067321
   4 N :    0.093545
   5 H :    0.123602
   6 H :    0.133110
   7 H :    0.129950
   8 H :    0.118273
   9 H :    0.071942
  10 H :    0.066657
  11 H :    0.048933
  12 H :    0.064752
  13 H :    0.042511

  Mayer bond orders larger than 0.100000
B(  0-C ,  1-C ) :   1.0440 B(  0-C ,  2-C ) :   1.0098 B(  0-C ,  9-H ) :   0.9336
B(  0-C , 10-H ) :   0.9361 B(  1-C , 11-H ) :   0.9702 B(  1-C , 12-H ) :   0.9650
B(  1-C , 13-H ) :   0.9736 B(  2-C ,  3-N ) :   1.4965 B(  2-C ,  4-N ) :   1.5388
B(  3-N ,  7-H ) :   0.9164 B(  3-N ,  8-H ) :   0.9280 B(  4-N ,  5-H ) :   0.9231
B(  4-N ,  6-H ) :   0.9110

FINAL SINGLE POINT ENERGY      -228.122361787758

DIPOLE MOMENT
-------------
                                X             Y             Z
Electronic contribution:      2.40577       2.59495      -2.31253
Nuclear contribution   :     -1.74195      -2.09431       1.58516
                        -----------------------------------------
Total Dipole Moment    :      0.66382       0.50065      -0.72737
                        -----------------------------------------
Magnitude (a.u.)       :      1.10471
Magnitude (Debye)      :      2.80795

Rotational constants in cm-1:     0.258965     0.126500     0.098780
Rotational constants in MHz :  7763.584551  3792.383135  2961.336502

                             ****ORCA TERMINATED NORMALLY****
TOTAL RUN TIME: 0 days 0 hours 0 minutes 14 seconds 248 msec
