                         Program Version 5.0.0 -  RELEASE  -
|  1> !LC-PBE RIJCOSX def2-SVP def2/J TightSCF
|  2>
|  3> *xyz 0 1
|  4> C          2.95263        1.86308       -3.57485
|  5> C          4.12921        0.89839       -3.41895
|  6> H          3.73369       -0.10060       -3.23763
|  7> H          4.71910        0.86256       -4.33901
|  8> C          5.01734        1.31521       -2.22130
|  9> F          4.73706        0.85411       -1.12283
| 10> O          5.92815        2.16811       -2.49136
| 11> H          2.35067        1.56005       -4.40594
| 12> H          3.32277        2.85258       -3.74453
| 13> H          2.36134        1.85149       -2.68315
| 14> *
| 15> %MaxCore 64000
| 16>
| 17> %pal nprocs 4
| 18> end
| 19>
| 20> %scf
| 21>   MaxIter 150
| 22> end
| 23>
| 24>
| 25>                          ****END OF INPUT****

CARTESIAN COORDINATES (ANGSTROEM)
---------------------------------
  C      2.952630    1.863080   -3.574850
  C      4.129210    0.898390   -3.418950
  H      3.733690   -0.100600   -3.237630
  H      4.719100    0.862560   -4.339010
  C      5.017340    1.315210   -2.221300
  F      4.737060    0.854110   -1.122830
  O      5.928150    2.168110   -2.491360
  H      2.350670    1.560050   -4.405940
  H      3.322770    2.852580   -3.744530
  H      2.361340    1.851490   -2.683150

 Total Charge           Charge          ....    0
 Multiplicity           Mult            ....    1
 Number of Electrons    NEL             ....   40
 Basis Dimension        Dim             ....   95

ORBITAL ENERGIES
----------------

  NO   OCC          E(Eh)            E(eV)
   0   2.0000     -24.578166      -668.8059
   1   2.0000     -18.983420      -516.5651
   2   2.0000     -10.307682      -280.4863
   3   2.0000     -10.154538      -276.3190
   4   2.0000     -10.133468      -275.7457
   5   2.0000      -1.481374       -40.3102
   6   2.0000      -1.169094       -31.8127
   7   2.0000      -0.972068       -26.4513
   8   2.0000      -0.845475       -23.0066
   9   2.0000      -0.801221       -21.8023
  10   2.0000      -0.715627       -19.4732
  11   2.0000      -0.698270       -19.0009
  12   2.0000      -0.648535       -17.6475
  13   2.0000      -0.607911       -16.5421
  14   2.0000      -0.572105       -15.5678
  15   2.0000      -0.535566       -14.5735
  16   2.0000      -0.510312       -13.8863
  17   2.0000      -0.501580       -13.6487
  18   2.0000      -0.472055       -12.8453
  19   2.0000      -0.413964       -11.2645
  20   0.0000       0.079511         2.1636
  21   0.0000       0.154128         4.1940
  22   0.0000       0.199852         5.4382
  23   0.0000       0.203206         5.5295
  24   0.0000       0.228467         6.2169

MULLIKEN ATOMIC CHARGES
-----------------------
   0 C :   -0.147637
   1 C :   -0.193724
   2 H :    0.077874
   3 H :    0.108981
   4 C :    0.210922
   5 F :   -0.017683
   6 O :   -0.276324
   7 H :    0.080179
   8 H :    0.087549
   9 H :    0.069862
Sum of atomic charges:   -0.0000000

LOEWDIN ATOMIC CHARGES
----------------------
   0 C :   -0.076327
   1 C :   -0.097689
   2 H :    0.040141
   3 H :    0.058564
   4 C :    0.084462
   5 F :    0.092605
   6 O :   -0.222637
   7 H :    0.041647
   8 H :    0.042825
   9 H :    0.036409

  Mayer bond orders larger than 0.100000
B(  0-C ,  1-C ) :   1.0616 B(  0-C ,  7-H ) :   0.9758 B(  0-C ,  8-H ) :   0.9727
B(  0-C ,  9-H ) :   0.9766 B(  1-C ,  2-H ) :   0.9478 B(  1-C ,  3-H ) :   0.9520
B(  1-C ,  4-C ) :   0.9833 B(  4-C ,  5-F ) :   1.2614 B(  4-C ,  6-O ) :   2.0692

FINAL SINGLE POINT ENERGY      -291.346049873811

DIPOLE MOMENT
-------------
                                X             Y             Z
Electronic contribution:      5.07866      -1.17160       6.55279
Nuclear contribution   :     -6.06116       0.51860      -6.80802
                        -----------------------------------------
Total Dipole Moment    :     -0.98249      -0.65300      -0.25523
                        -----------------------------------------
Magnitude (a.u.)       :      1.20700
Magnitude (Debye)      :      3.06795

Rotational constants in cm-1:     0.276196     0.132056     0.105465
Rotational constants in MHz :  8280.156449  3958.940601  3161.775929

                             ****ORCA TERMINATED NORMALLY****
TOTAL RUN TIME: 0 days 0 hours 0 minutes 11 seconds 571 msec
