                         Program Version 5.0.0 -  RELEASE  -
|  1> !LC-PBE RIJCOSX def2-SVP def2/J TightSCF
|  2>
|  3> *xyz 0 1
|  4> C          3.34350        3.35457       -3.59200
|  5> C          2.95263        1.86308       -3.57485
|  6> C          4.25587        3.70385       -4.72605
|  7> C          3.73403        4.29378       -5.80077
|  8> N          5.51504        3.40725       -4.63718
|  9> H          6.14919        3.60120       -5.39905
| 10> H          5.81358        2.89950       -3.80879
| 11> H          2.74138        4.51311       -5.82470
| 12> H          4.28755        4.52126       -6.61434
| 13> H          3.86125        3.59725       -2.66298
| 14> H          2.44649        3.97346       -3.65656
| 15> H          2.44395        1.61721       -4.48352
| 16> H          2.30781        1.67290       -2.74242
| 17> H          3.83491        1.26414       -3.48670
| 18> *
| 19> %MaxCore 64000
| 20>
| 21> %pal nprocs 4
| 22> end
| 23>
| 24> %scf
| 25>   MaxIter 150
| 26> end
| 27>
| 28>
| 29>                          ****END OF INPUT****

CARTESIAN COORDINATES (ANGSTROEM)
---------------------------------
  C      3.343500    3.354570   -3.592000
  C      2.952630    1.863080   -3.574850
  C      4.255870    3.703850   -4.726050
  C      3.734030    4.293780   -5.800770
  N      5.515040    3.407250   -4.637180
  H      6.149190    3.601200   -5.399050
  H      5.813580    2.899500   -3.808790
  H      2.741380    4.513110   -5.824700
  H      4.287550    4.521260   -6.614340
  H      3.861250    3.597250   -2.662980
  H      2.446490    3.973460   -3.656560
  H      2.443950    1.617210   -4.483520
  H      2.307810    1.672900   -2.742420
  H      3.834910    1.264140   -3.486700

 Total Charge           Charge          ....    0
 Multiplicity           Mult            ....    1
 Number of Electrons    NEL             ....   40
 Basis Dimension        Dim             ....  115

ORBITAL ENERGIES
----------------

  NO   OCC          E(Eh)            E(eV)
   0   2.0000     -14.224572      -387.0703
   1   2.0000     -10.146223      -276.0928
   2   2.0000     -10.124269      -275.4954
   3   2.0000     -10.112311      -275.1700
   4   2.0000     -10.052473      -273.5417
   5   2.0000      -1.098825       -29.9005
   6   2.0000      -0.946257       -25.7490
   7   2.0000      -0.873725       -23.7753
   8   2.0000      -0.792426       -21.5630
   9   2.0000      -0.715486       -19.4694
  10   2.0000      -0.674053       -18.3419
  11   2.0000      -0.623093       -16.9552
  12   2.0000      -0.577988       -15.7278
  13   2.0000      -0.560685       -15.2570
  14   2.0000      -0.528248       -14.3744
  15   2.0000      -0.515280       -14.0215
  16   2.0000      -0.482506       -13.1297
  17   2.0000      -0.465588       -12.6693
  18   2.0000      -0.458750       -12.4832
  19   2.0000      -0.299800        -8.1580
  20   0.0000       0.138490         3.7685
  21   0.0000       0.159038         4.3276
  22   0.0000       0.189910         5.1677
  23   0.0000       0.197433         5.3724
  24   0.0000       0.211706         5.7608

MULLIKEN ATOMIC CHARGES
-----------------------
   0 C :   -0.101985
   1 C :   -0.099538
   2 C :   -0.122477
   3 C :   -0.150596
   4 N :   -0.117668
   5 H :    0.148966
   6 H :    0.140814
   7 H :    0.007800
   8 H :   -0.005745
   9 H :    0.054255
  10 H :    0.070604
  11 H :    0.065662
  12 H :    0.064765
  13 H :    0.045143
Sum of atomic charges:    0.0000000

LOEWDIN ATOMIC CHARGES
----------------------
   0 C :   -0.056426
   1 C :   -0.079678
   2 C :    0.001407
   3 C :   -0.211106
   4 N :   -0.013834
   5 H :    0.088481
   6 H :    0.081747
   7 H :    0.009348
   8 H :    0.000858
   9 H :    0.032102
  10 H :    0.047552
  11 H :    0.037749
  12 H :    0.034409
  13 H :    0.027390

  Mayer bond orders larger than 0.100000
B(  0-C ,  1-C ) :   1.0638 B(  0-C ,  2-C ) :   1.0114 B(  0-C ,  9-H ) :   0.9516
B(  0-C , 10-H ) :   0.9509 B(  1-C , 11-H ) :   0.9732 B(  1-C , 12-H ) :   0.9764
B(  1-C , 13-H ) :   0.9753 B(  2-C ,  3-C ) :   1.8641 B(  2-C ,  4-N ) :   1.2728
B(  3-C ,  7-H ) :   0.9532 B(  3-C ,  8-H ) :   0.9669 B(  4-N ,  5-H ) :   0.9480
B(  4-N ,  6-H ) :   0.9486

FINAL SINGLE POINT ENERGY      -211.680626379599

DIPOLE MOMENT
-------------
                                X             Y             Z
Electronic contribution:      2.37633       1.43780      -0.81235
Nuclear contribution   :     -1.79713      -1.86925       1.28073
                        -----------------------------------------
Total Dipole Moment    :      0.57921      -0.43144       0.46838
                        -----------------------------------------
Magnitude (a.u.)       :      0.86082
Magnitude (Debye)      :      2.18802

Rotational constants in cm-1:     0.269040     0.129645     0.102087
Rotational constants in MHz :  8065.609820  3886.645139  3060.489045

                             ****ORCA TERMINATED NORMALLY****
TOTAL RUN TIME: 0 days 0 hours 0 minutes 14 seconds 458 msec
