                         Program Version 5.0.0 -  RELEASE  -
|  1> !LC-PBE RIJCOSX def2-SVP def2/J TightSCF
|  2>
|  3> *xyz 0 1
|  4> C          2.95263        1.86308       -3.57485
|  5> C          4.12921        0.89839       -3.41895
|  6> H          3.73369       -0.10060       -3.23763
|  7> H          4.71910        0.86256       -4.33901
|  8> C          5.01734        1.31521       -2.22130
|  9> O          4.73706        0.85411       -1.12283
| 10> F          5.92815        2.16811       -2.49136
| 11> H          2.35067        1.56005       -4.40594
| 12> H          3.32277        2.85258       -3.74453
| 13> H          2.36134        1.85149       -2.68315
| 14> *
| 15> %MaxCore 64000
| 16>
| 17> %pal nprocs 4
| 18> end
| 19>
| 20> %scf
| 21>   MaxIter 150
| 22> end
| 23>
| 24>
| 25>                          ****END OF INPUT****

CARTESIAN COORDINATES (ANGSTROEM)
---------------------------------
  C      2.952630    1.863080   -3.574850
  C      4.129210    0.898390   -3.418950
  H      3.733690   -0.100600   -3.237630
  H      4.719100    0.862560   -4.339010
  C      5.017340    1.315210   -2.221300
  O      4.737060    0.854110   -1.122830
  F      5.928150    2.168110   -2.491360
  H      2.350670    1.560050   -4.405940
  H      3.322770    2.852580   -3.744530
  H      2.361340    1.851490   -2.683150

 Total Charge           Charge          ....    0
 Multiplicity           Mult            ....    1
 Number of Electrons    NEL             ....   40
 Basis Dimension        Dim             ....   95

ORBITAL ENERGIES
----------------

  NO   OCC          E(Eh)            E(eV)
   0   2.0000     -24.556094      -668.2053
   1   2.0000     -18.994679      -516.8715
   2   2.0000     -10.303932      -280.3842
   3   2.0000     -10.154064      -276.3061
   4   2.0000     -10.133816      -275.7551
   5   2.0000      -1.440146       -39.1884
   6   2.0000      -1.202608       -32.7246
   7   2.0000      -0.972135       -26.4531
   8   2.0000      -0.837091       -22.7784
   9   2.0000      -0.784909       -21.3585
  10   2.0000      -0.695262       -18.9190
  11   2.0000      -0.678240       -18.4559
  12   2.0000      -0.648149       -17.6370
  13   2.0000      -0.606580       -16.5059
  14   2.0000      -0.576451       -15.6860
  15   2.0000      -0.540116       -14.6973
  16   2.0000      -0.519205       -14.1283
  17   2.0000      -0.501597       -13.6491
  18   2.0000      -0.490105       -13.3364
  19   2.0000      -0.425079       -11.5670
  20   0.0000       0.085211         2.3187
  21   0.0000       0.154538         4.2052
  22   0.0000       0.198759         5.4085
  23   0.0000       0.204237         5.5576
  24   0.0000       0.228439         6.2161

MULLIKEN ATOMIC CHARGES
-----------------------
   0 C :   -0.150033
   1 C :   -0.195306
   2 H :    0.102960
   3 H :    0.085286
   4 C :    0.217331
   5 O :   -0.211343
   6 F :   -0.087529
   7 H :    0.080571
   8 H :    0.073027
   9 H :    0.085035
Sum of atomic charges:   -0.0000000

LOEWDIN ATOMIC CHARGES
----------------------
   0 C :   -0.076713
   1 C :   -0.098308
   2 H :    0.055769
   3 H :    0.043904
   4 C :    0.092390
   5 O :   -0.162118
   6 F :    0.024025
   7 H :    0.041793
   8 H :    0.036981
   9 H :    0.042277

  Mayer bond orders larger than 0.100000
B(  0-C ,  1-C ) :   1.0618 B(  0-C ,  7-H ) :   0.9759 B(  0-C ,  8-H ) :   0.9766
B(  0-C ,  9-H ) :   0.9732 B(  1-C ,  2-H ) :   0.9537 B(  1-C ,  3-H ) :   0.9481
B(  1-C ,  4-C ) :   0.9814 B(  4-C ,  5-O ) :   2.1440 B(  4-C ,  6-F ) :   1.1883

FINAL SINGLE POINT ENERGY      -291.363461373813

DIPOLE MOMENT
-------------
                                X             Y             Z
Electronic contribution:      7.05900       1.01639       4.26549
Nuclear contribution   :     -7.35982      -0.91407      -5.31589
                        -----------------------------------------
Total Dipole Moment    :     -0.30081       0.10232      -1.05041
                        -----------------------------------------
Magnitude (a.u.)       :      1.09741
Magnitude (Debye)      :      2.78940

Rotational constants in cm-1:     0.275433     0.132201     0.105422
Rotational constants in MHz :  8257.268192  3963.279062  3160.465566

                             ****ORCA TERMINATED NORMALLY****
TOTAL RUN TIME: 0 days 0 hours 0 minutes 10 seconds 700 msec
