                         Program Version 5.0.0 -  RELEASE  -
|  1> !LC-PBE RIJCOSX def2-SVP def2/J TightSCF
|  2>
|  3> *xyz 0 1
|  4> C          3.34350        3.35457       -3.59200
|  5> C          2.95263        1.86308       -3.57485
|  6> C          4.25587        3.70385       -4.72605
|  7> N          3.73403        4.29378       -5.80077
|  8> C          5.51504        3.40725       -4.63718
|  9> H          6.14919        3.60120       -5.39905
| 10> H          5.81358        2.89950       -3.80879
| 11> H          2.74138        4.51311       -5.82470
| 12> H          4.28755        4.52126       -6.61434
| 13> H          3.86125        3.59725       -2.66298
| 14> H          2.44649        3.97346       -3.65656
| 15> H          2.44395        1.61721       -4.48352
| 16> H          2.30781        1.67290       -2.74242
| 17> H          3.83491        1.26414       -3.48670
| 18> *
| 19> %MaxCore 64000
| 20>
| 21> %pal nprocs 4
| 22> end
| 23>
| 24> %scf
| 25>   MaxIter 150
| 26> end
| 27>
| 28>
| 29>                          ****END OF INPUT****

CARTESIAN COORDINATES (ANGSTROEM)
---------------------------------
  C      3.343500    3.354570   -3.592000
  C      2.952630    1.863080   -3.574850
  C      4.255870    3.703850   -4.726050
  N      3.734030    4.293780   -5.800770
  C      5.515040    3.407250   -4.637180
  H      6.149190    3.601200   -5.399050
  H      5.813580    2.899500   -3.808790
  H      2.741380    4.513110   -5.824700
  H      4.287550    4.521260   -6.614340
  H      3.861250    3.597250   -2.662980
  H      2.446490    3.973460   -3.656560
  H      2.443950    1.617210   -4.483520
  H      2.307810    1.672900   -2.742420
  H      3.834910    1.264140   -3.486700

 Total Charge           Charge          ....    0
 Multiplicity           Mult            ....    1
 Number of Electrons    NEL             ....   40
 Basis Dimension        Dim             ....  115

ORBITAL ENERGIES
----------------

  NO   OCC          E(Eh)            E(eV)
   0   2.0000     -14.219466      -386.9313
   1   2.0000     -10.143353      -276.0147
   2   2.0000     -10.123610      -275.4774
   3   2.0000     -10.109839      -275.1027
   4   2.0000     -10.051705      -273.5208
   5   2.0000      -1.083994       -29.4970
   6   2.0000      -0.947914       -25.7940
   7   2.0000      -0.877275       -23.8719
   8   2.0000      -0.793813       -21.6008
   9   2.0000      -0.708459       -19.2782
  10   2.0000      -0.661336       -17.9959
  11   2.0000      -0.626497       -17.0478
  12   2.0000      -0.580663       -15.8007
  13   2.0000      -0.551631       -15.0107
  14   2.0000      -0.527356       -14.3501
  15   2.0000      -0.517494       -14.0817
  16   2.0000      -0.477351       -12.9894
  17   2.0000      -0.464110       -12.6291
  18   2.0000      -0.460664       -12.5353
  19   2.0000      -0.305504        -8.3132
  20   0.0000       0.141715         3.8563
  21   0.0000       0.160797         4.3755
  22   0.0000       0.189809         5.1650
  23   0.0000       0.195735         5.3262
  24   0.0000       0.215360         5.8602

MULLIKEN ATOMIC CHARGES
-----------------------
   0 C :   -0.100076
   1 C :   -0.100655
   2 C :   -0.086679
   3 N :   -0.170886
   4 C :   -0.131255
   5 H :   -0.003732
   6 H :    0.008160
   7 H :    0.138780
   8 H :    0.142798
   9 H :    0.078658
  10 H :    0.043578
  11 H :    0.056283
  12 H :    0.061259
  13 H :    0.063769
Sum of atomic charges:    0.0000000

LOEWDIN ATOMIC CHARGES
----------------------
   0 C :   -0.057427
   1 C :   -0.076353
   2 C :    0.008189
   3 N :   -0.037218
   4 C :   -0.193908
   5 H :    0.005094
   6 H :    0.012181
   7 H :    0.078016
   8 H :    0.082543
   9 H :    0.047999
  10 H :    0.029780
  11 H :    0.032868
  12 H :    0.032518
  13 H :    0.035718

  Mayer bond orders larger than 0.100000
B(  0-C ,  1-C ) :   1.0715 B(  0-C ,  2-C ) :   0.9942 B(  0-C ,  9-H ) :   0.9531
B(  0-C , 10-H ) :   0.9538 B(  1-C , 11-H ) :   0.9736 B(  1-C , 12-H ) :   0.9765
B(  1-C , 13-H ) :   0.9762 B(  2-C ,  3-N ) :   1.2323 B(  2-C ,  4-C ) :   1.9046
B(  3-N ,  7-H ) :   0.9530 B(  3-N ,  8-H ) :   0.9539 B(  4-C ,  5-H ) :   0.9647
B(  4-C ,  6-H ) :   0.9461

FINAL SINGLE POINT ENERGY      -211.680852093089

DIPOLE MOMENT
-------------
                                X             Y             Z
Electronic contribution:      0.71651       2.28617      -1.88627
Nuclear contribution   :     -1.38463      -2.07457       1.55023
                        -----------------------------------------
Total Dipole Moment    :     -0.66811       0.21160      -0.33603
                        -----------------------------------------
Magnitude (a.u.)       :      0.77722
Magnitude (Debye)      :      1.97553

Rotational constants in cm-1:     0.272312     0.128195     0.101724
Rotational constants in MHz :  8163.717141  3843.180148  3049.598073

                             ****ORCA TERMINATED NORMALLY****
TOTAL RUN TIME: 0 days 0 hours 0 minutes 16 seconds 423 msec
