                         Program Version 5.0.0 -  RELEASE  -
|  1> !LC-PBE RIJCOSX def2-TZVP def2/J TightSCF xyzfile
|  2>
|  3> *xyzfile 0 1 D1.xyz
|  4>
|  5> %MaxCore 64000
|  6>
|  7> %pal nprocs 18
|  8> end
|  9>
| 10> %scf
| 11>   MaxIter 150
| 12> end
| 13>
| 14>
| 15>                          ****END OF INPUT****

CARTESIAN COORDINATES (ANGSTROEM)
---------------------------------
  C      3.343500    3.354571   -3.591998
  C      2.952633    1.863077   -3.574849
  C      4.129209    0.898394   -3.418950
  H      3.733687   -0.100605   -3.237633
  H      4.719095    0.862556   -4.339005
  C      5.017344    1.315212   -2.221305
  C      4.255868    3.703851   -4.726054
  C      3.734032    4.293783   -5.800770
  N      5.515039    3.407255   -4.637185
  H      6.149187    3.601203   -5.399053
  H      5.813584    2.899504   -3.808785
  H      2.741380    4.513109   -5.824701
  H      4.287548    4.521260   -6.614341
  H      2.278938    1.735250   -2.725496
  H      2.377466    1.625787   -4.475869
  F      4.737055    0.854112   -1.122825
  O      5.928146    2.168108   -2.491365
  H      3.861246    3.597252   -2.662979
  H      2.446493    3.973461   -3.656556

 Total Charge           Charge          ....    0
 Multiplicity           Mult            ....    1
 Number of Electrons    NEL             ....   70
 Basis Dimension        Dim             ....  339

ORBITAL ENERGIES
----------------

  NO   OCC          E(Eh)            E(eV)
   0   2.0000     -24.598653      -669.3634
   1   2.0000     -19.010085      -517.2907
   2   2.0000     -14.175883      -385.7454
   3   2.0000     -10.334367      -281.2124
   4   2.0000     -10.157913      -276.4109
   5   2.0000     -10.140276      -275.9309
   6   2.0000     -10.129553      -275.6391
   7   2.0000     -10.117807      -275.3195
   8   2.0000     -10.031698      -272.9764
   9   2.0000      -1.526145       -41.5285
  10   2.0000      -1.227018       -33.3888
  11   2.0000      -1.091118       -29.6908
  12   2.0000      -1.004526       -27.3346
  13   2.0000      -0.924693       -25.1622
  14   2.0000      -0.876779       -23.8584
  15   2.0000      -0.842977       -22.9386
  16   2.0000      -0.795412       -21.6443
  17   2.0000      -0.744844       -20.2682
  18   2.0000      -0.733371       -19.9560
  19   2.0000      -0.700764       -19.0688
  20   2.0000      -0.697584       -18.9822
  21   2.0000      -0.656515       -17.8647
  22   2.0000      -0.633637       -17.2421
  23   2.0000      -0.604356       -16.4454
  24   2.0000      -0.585196       -15.9240
  25   2.0000      -0.573299       -15.6003
  26   2.0000      -0.533297       -14.5117
  27   2.0000      -0.520205       -14.1555
  28   2.0000      -0.511596       -13.9212
  29   2.0000      -0.506686       -13.7876
  30   2.0000      -0.488576       -13.2948
  31   2.0000      -0.462868       -12.5953
  32   2.0000      -0.454158       -12.3583
  33   2.0000      -0.437087       -11.8937
  34   2.0000      -0.290377        -7.9016
  35   0.0000       0.042664         1.1610
  36   0.0000       0.112147         3.0517
  37   0.0000       0.135571         3.6891
  38   0.0000       0.148904         4.0519
  39   0.0000       0.154370         4.2006

MULLIKEN ATOMIC CHARGES
-----------------------
   0 C :   -0.467910
   1 C :   -0.242538
   2 C :   -0.404573
   3 H :    0.174088
   4 H :    0.218273
   5 C :    0.358023
   6 C :    0.216376
   7 C :   -0.517229
   8 N :   -0.464241
   9 H :    0.236630
  10 H :    0.285473
  11 H :    0.122571
  12 H :    0.127201
  13 H :    0.158389
  14 H :    0.170332
  15 F :   -0.023015
  16 O :   -0.326288
  17 H :    0.205691
  18 H :    0.172744
Sum of atomic charges:    0.0000000

LOEWDIN ATOMIC CHARGES
----------------------
   0 C :   -0.227568
   1 C :   -0.264854
   2 C :   -0.247375
   3 H :    0.153230
   4 H :    0.166742
   5 C :   -0.488039
   6 C :   -0.386034
   7 C :   -0.309358
   8 N :    0.007475
   9 H :    0.173341
  10 H :    0.133483
  11 H :    0.107091
  12 H :    0.099521
  13 H :    0.148330
  14 H :    0.155935
  15 F :    0.401892
  16 O :    0.063276
  17 H :    0.152708
  18 H :    0.160205

  Mayer bond orders larger than 0.100000
B(  0-C ,  1-C ) :   0.8993 B(  0-C ,  6-C ) :   0.8832 B(  0-C , 17-H ) :   0.9994
B(  0-C , 18-H ) :   0.9802 B(  1-C ,  2-C ) :   0.9366 B(  1-C , 13-H ) :   0.9780
B(  1-C , 14-H ) :   0.9626 B(  2-C ,  3-H ) :   0.9612 B(  2-C ,  4-H ) :   0.9466
B(  2-C ,  5-C ) :   0.9823 B(  5-C , 15-F ) :   1.2628 B(  5-C , 16-O ) :   1.8928
B(  6-C ,  7-C ) :   1.7201 B(  6-C ,  8-N ) :   1.2141 B(  7-C , 11-H ) :   0.9952
B(  7-C , 12-H ) :   0.9966 B(  8-N ,  9-H ) :   0.9282 B(  8-N , 10-H ) :   0.8338
B( 10-H , 16-O ) :   0.1295

FINAL SINGLE POINT ENERGY      -463.219318100808

DIPOLE MOMENT
-------------
                                X             Y             Z
Electronic contribution:      5.49566      -6.00533      10.57226
Nuclear contribution   :     -5.86483       4.68058     -10.07545
                        -----------------------------------------
Total Dipole Moment    :     -0.36917      -1.32475       0.49682
                        -----------------------------------------
Magnitude (a.u.)       :      1.46221
Magnitude (Debye)      :      3.71665

Rotational constants in cm-1:     0.107256     0.035474     0.030113
Rotational constants in MHz :  3215.453922  1063.481574   902.777619

                             ****ORCA TERMINATED NORMALLY****
TOTAL RUN TIME: 0 days 0 hours 0 minutes 28 seconds 160 msec
