                         Program Version 5.0.0 -  RELEASE  -
|  1> !LC-PBE RIJCOSX def2-TZVP def2/J TightSCF xyzfile
|  2>
|  3> *xyzfile 0 1 D3.xyz
|  4>
|  5> %MaxCore 64000
|  6>
|  7> %pal nprocs 18
|  8> end
|  9>
| 10> %scf
| 11>   MaxIter 150
| 12> end
| 13>
| 14>
| 15>                          ****END OF INPUT****

CARTESIAN COORDINATES (ANGSTROEM)
---------------------------------
  C      3.343500    3.354571   -3.591998
  C      2.952633    1.863077   -3.574849
  C      4.129209    0.898394   -3.418950
  H      3.733687   -0.100605   -3.237633
  H      4.719095    0.862556   -4.339005
  C      5.017344    1.315212   -2.221305
  C      4.255868    3.703851   -4.726054
  C      3.734032    4.293783   -5.800770
  N      5.515039    3.407255   -4.637185
  H      6.149187    3.601203   -5.399053
  H      5.813584    2.899504   -3.808785
  H      2.741380    4.513109   -5.824701
  H      4.287548    4.521260   -6.614341
  H      2.278938    1.735250   -2.725496
  H      2.377466    1.625787   -4.475869
  O      4.737055    0.854112   -1.122825
  F      5.928146    2.168108   -2.491365
  H      3.861246    3.597252   -2.662979
  H      2.446493    3.973461   -3.656556

 Total Charge           Charge          ....    0
 Multiplicity           Mult            ....    1
 Number of Electrons    NEL             ....   70
 Basis Dimension        Dim             ....  339

ORBITAL ENERGIES
----------------

  NO   OCC          E(Eh)            E(eV)
   0   2.0000     -24.586637      -669.0364
   1   2.0000     -19.007492      -517.2201
   2   2.0000     -14.204494      -386.5239
   3   2.0000     -10.317652      -280.7576
   4   2.0000     -10.153626      -276.2942
   5   2.0000     -10.143598      -276.0213
   6   2.0000     -10.138938      -275.8945
   7   2.0000     -10.127031      -275.5705
   8   2.0000     -10.046179      -273.3704
   9   2.0000      -1.501202       -40.8498
  10   2.0000      -1.237022       -33.6611
  11   2.0000      -1.114296       -30.3215
  12   2.0000      -1.004732       -27.3401
  13   2.0000      -0.931829       -25.3564
  14   2.0000      -0.884895       -24.0792
  15   2.0000      -0.842878       -22.9359
  16   2.0000      -0.803677       -21.8692
  17   2.0000      -0.744607       -20.2618
  18   2.0000      -0.728601       -19.8262
  19   2.0000      -0.706365       -19.2212
  20   2.0000      -0.678830       -18.4719
  21   2.0000      -0.655542       -17.8382
  22   2.0000      -0.633362       -17.2347
  23   2.0000      -0.616622       -16.7791
  24   2.0000      -0.590818       -16.0770
  25   2.0000      -0.567984       -15.4556
  26   2.0000      -0.540102       -14.6969
  27   2.0000      -0.534045       -14.5321
  28   2.0000      -0.524942       -14.2844
  29   2.0000      -0.514419       -13.9981
  30   2.0000      -0.490947       -13.3594
  31   2.0000      -0.472456       -12.8562
  32   2.0000      -0.463624       -12.6159
  33   2.0000      -0.444035       -12.0828
  34   2.0000      -0.307563        -8.3692
  35   0.0000       0.058833         1.6009
  36   0.0000       0.113428         3.0865
  37   0.0000       0.126543         3.4434
  38   0.0000       0.142373         3.8742
  39   0.0000       0.151531         4.1234

MULLIKEN ATOMIC CHARGES
-----------------------
   0 C :   -0.480683
   1 C :   -0.221482
   2 C :   -0.408120
   3 H :    0.182695
   4 H :    0.207912
   5 C :    0.307857
   6 C :    0.217683
   7 C :   -0.501347
   8 N :   -0.463066
   9 H :    0.248298
  10 H :    0.261919
  11 H :    0.128853
  12 H :    0.130917
  13 H :    0.165568
  14 H :    0.164412
  15 O :   -0.237529
  16 F :   -0.086674
  17 H :    0.205153
  18 H :    0.177634
Sum of atomic charges:    0.0000000

LOEWDIN ATOMIC CHARGES
----------------------
   0 C :   -0.227205
   1 C :   -0.262666
   2 C :   -0.248869
   3 H :    0.162233
   4 H :    0.155885
   5 C :   -0.507581
   6 C :   -0.386301
   7 C :   -0.293371
   8 N :    0.003461
   9 H :    0.178385
  10 H :    0.143715
  11 H :    0.110061
  12 H :    0.100994
  13 H :    0.153261
  14 H :    0.154031
  15 O :    0.126223
  16 F :    0.323804
  17 H :    0.151658
  18 H :    0.162282

  Mayer bond orders larger than 0.100000
B(  0-C ,  1-C ) :   0.9105 B(  0-C ,  6-C ) :   0.8810 B(  0-C , 17-H ) :   0.9994
B(  0-C , 18-H ) :   0.9799 B(  1-C ,  2-C ) :   0.9414 B(  1-C , 13-H ) :   0.9715
B(  1-C , 14-H ) :   0.9616 B(  2-C ,  3-H ) :   0.9602 B(  2-C ,  4-H ) :   0.9439
B(  2-C ,  5-C ) :   0.9658 B(  5-C , 15-O ) :   2.1532 B(  5-C , 16-F ) :   1.0793
B(  6-C ,  7-C ) :   1.7388 B(  6-C ,  8-N ) :   1.1792 B(  7-C , 11-H ) :   0.9942
B(  7-C , 12-H ) :   0.9943 B(  8-N ,  9-H ) :   0.9225 B(  8-N , 10-H ) :   0.8856

FINAL SINGLE POINT ENERGY      -463.225310006035

DIPOLE MOMENT
-------------
                                X             Y             Z
Electronic contribution:      7.43274      -3.60138       8.03217
Nuclear contribution   :     -7.21688       3.18902      -8.52197
                        -----------------------------------------
Total Dipole Moment    :      0.21586      -0.41236      -0.48980
                        -----------------------------------------
Magnitude (a.u.)       :      0.67568
Magnitude (Debye)      :      1.71743

Rotational constants in cm-1:     0.103917     0.036987     0.030872
Rotational constants in MHz :  3115.342573  1108.839114   925.506342

                             ****ORCA TERMINATED NORMALLY****
TOTAL RUN TIME: 0 days 0 hours 0 minutes 27 seconds 969 msec
