                         Program Version 5.0.0 -  RELEASE  -
|  1> !B3LYP D3BJ RIJCOSX def2-SVP def2/J TightSCF
|  2> *xyz -1 1
|  3> C          0.13297        2.38587       -4.02462
|  4> C         -1.36646        2.47911       -4.31393
|  5> C         -2.35773        2.30686       -3.13675
|  6> H         -1.63680        1.72709       -5.06399
|  7> H         -1.58235        3.44561       -4.76869
|  8> O         -3.44376        2.84652       -3.25274
|  9> O         -1.97092        1.58304       -2.15123
| 10> H          0.68084        2.52514       -4.93310
| 11> H          0.35823        1.42282       -3.61633
| 12> H          0.40851        3.14443       -3.32208
| 13> *
| 14> %MaxCore 64000
| 15>
| 16> %pal nprocs 4
| 17> end
| 18>
| 19> %scf
| 20>   MaxIter 150
| 21> end
| 22>
| 23>
| 24>                          ****END OF INPUT****

CARTESIAN COORDINATES (ANGSTROEM)
---------------------------------
  C      0.132970    2.385870   -4.024620
  C     -1.366460    2.479110   -4.313930
  C     -2.357730    2.306860   -3.136750
  H     -1.636800    1.727090   -5.063990
  H     -1.582350    3.445610   -4.768690
  O     -3.443760    2.846520   -3.252740
  O     -1.970920    1.583040   -2.151230
  H      0.680840    2.525140   -4.933100
  H      0.358230    1.422820   -3.616330
  H      0.408510    3.144430   -3.322080

 Total Charge           Charge          ....   -1
 Multiplicity           Mult            ....    1
 Number of Electrons    NEL             ....   40
 Basis Dimension        Dim             ....   95

ORBITAL ENERGIES
----------------

  NO   OCC          E(Eh)            E(eV)
   0   2.0000     -18.836828      -512.5761
   1   2.0000     -18.826954      -512.3075
   2   2.0000     -10.034222      -273.0450
   3   2.0000     -10.008550      -272.3465
   4   2.0000      -9.989579      -271.8303
   5   2.0000      -0.779706       -21.2169
   6   2.0000      -0.679091       -18.4790
   7   2.0000      -0.579527       -15.7697
   8   2.0000      -0.449632       -12.2351
   9   2.0000      -0.291236        -7.9249
  10   2.0000      -0.277706        -7.5568
  11   2.0000      -0.235907        -6.4194
  12   2.0000      -0.204171        -5.5558
  13   2.0000      -0.194955        -5.3050
  14   2.0000      -0.181479        -4.9383
  15   2.0000      -0.149962        -4.0807
  16   2.0000      -0.135222        -3.6796
  17   2.0000      -0.011209        -0.3050
  18   2.0000      -0.007546        -0.2053
  19   2.0000       0.008170         0.2223
  20   0.0000       0.216166         5.8822
  21   0.0000       0.266205         7.2438
  22   0.0000       0.272996         7.4286
  23   0.0000       0.282699         7.6926
  24   0.0000       0.291712         7.9379

MULLIKEN ATOMIC CHARGES
-----------------------
   0 C :    0.078455
   1 C :   -0.004206
   2 C :    0.019493
   3 H :   -0.050357
   4 H :   -0.067631
   5 O :   -0.381357
   6 O :   -0.463511
   7 H :   -0.072459
   8 H :   -0.026973
   9 H :   -0.031452
Sum of atomic charges:   -1.0000000

LOEWDIN ATOMIC CHARGES
----------------------
   0 C :   -0.058714
   1 C :   -0.092698
   2 C :   -0.060879
   3 H :    0.002494
   4 H :   -0.008177
   5 O :   -0.350018
   6 O :   -0.428400
   7 H :   -0.012892
   8 H :    0.004391
   9 H :    0.004893

  Mayer bond orders larger than 0.100000
B(  0-C ,  1-C ) :   1.0767 B(  0-C ,  7-H ) :   0.9486 B(  0-C ,  8-H ) :   0.9572
B(  0-C ,  9-H ) :   0.9711 B(  1-C ,  2-C ) :   0.9005 B(  1-C ,  3-H ) :   0.9339
B(  1-C ,  4-H ) :   0.9330 B(  2-C ,  5-O ) :   1.9070 B(  2-C ,  6-O ) :   1.8265
B(  5-O ,  6-O ) :   0.1186

Dispersion correction           -0.010839796
FINAL SINGLE POINT ENERGY      -267.478434355544

DIPOLE MOMENT
-------------
                                X             Y             Z
Electronic contribution:     -5.44805      -0.42806       3.38888
Nuclear contribution   :      6.75610       0.63068      -4.53972
                        -----------------------------------------
Total Dipole Moment    :      1.30804       0.20262      -1.15085
                        -----------------------------------------
Magnitude (a.u.)       :      1.75399
Magnitude (Debye)      :      4.45829

Rotational constants in cm-1:     0.335096     0.130241     0.099025
Rotational constants in MHz : 10045.924902  3904.536250  2968.708333

                             ****ORCA TERMINATED NORMALLY****
TOTAL RUN TIME: 0 days 0 hours 0 minutes 11 seconds 86 msec
