                         Program Version 5.0.0 -  RELEASE  -
|  1> !B3LYP D3BJ RIJCOSX def2-SVP def2/J TightSCF
|  2> *xyz 1 1
|  3> C          0.64866        1.00359       -3.64560
|  4> N          0.28128        0.67645       -2.24018
|  5> C          0.13297        2.38587       -4.02462
|  6> H          0.39079       -0.31925       -2.02649
|  7> H         -0.69269        0.99010       -2.13812
|  8> H          0.85421        1.21221       -1.57528
|  9> H          0.19099        0.23965       -4.27575
| 10> H          1.73157        0.93173       -3.75075
| 11> H          0.40589        2.60338       -5.03610
| 12> H          0.56342        3.11797       -3.37374
| 13> H         -0.93265        2.40724       -3.93025
| 14> *
| 15> %MaxCore 64000
| 16>
| 17> %pal nprocs 4
| 18> end
| 19>
| 20> %scf
| 21>   MaxIter 150
| 22> end
| 23>
| 24>
| 25>                          ****END OF INPUT****

CARTESIAN COORDINATES (ANGSTROEM)
---------------------------------
  C      0.648660    1.003590   -3.645600
  N      0.281280    0.676450   -2.240180
  C      0.132970    2.385870   -4.024620
  H      0.390790   -0.319250   -2.026490
  H     -0.692690    0.990100   -2.138120
  H      0.854210    1.212210   -1.575280
  H      0.190990    0.239650   -4.275750
  H      1.731570    0.931730   -3.750750
  H      0.405890    2.603380   -5.036100
  H      0.563420    3.117970   -3.373740
  H     -0.932650    2.407240   -3.930250

 Total Charge           Charge          ....    1
 Multiplicity           Mult            ....    1
 Number of Electrons    NEL             ....   26
 Basis Dimension        Dim             ....   82

ORBITAL ENERGIES
----------------

  NO   OCC          E(Eh)            E(eV)
   0   2.0000     -14.667702      -399.1285
   1   2.0000     -10.437684      -284.0238
   2   2.0000     -10.362269      -281.9717
   3   2.0000      -1.210132       -32.9294
   4   2.0000      -0.959332       -26.1047
   5   2.0000      -0.841335       -22.8939
   6   2.0000      -0.802883       -21.8476
   7   2.0000      -0.795206       -21.6386
   8   2.0000      -0.695759       -18.9326
   9   2.0000      -0.642271       -17.4771
  10   2.0000      -0.584873       -15.9152
  11   2.0000      -0.571223       -15.5438
  12   2.0000      -0.553701       -15.0670
  13   0.0000      -0.185183        -5.0391
  14   0.0000      -0.125673        -3.4197
  15   0.0000      -0.121997        -3.3197
  16   0.0000      -0.091193        -2.4815
  17   0.0000      -0.051022        -1.3884

MULLIKEN ATOMIC CHARGES
-----------------------
   0 C :   -0.024692
   1 N :    0.027434
   2 C :   -0.011614
   3 H :    0.215056
   4 H :    0.204923
   5 H :    0.208866
   6 H :    0.091689
   7 H :    0.095941
   8 H :    0.088926
   9 H :    0.051727
  10 H :    0.051744
Sum of atomic charges:    1.0000000

LOEWDIN ATOMIC CHARGES
----------------------
   0 C :    0.056497
   1 N :    0.300587
   2 C :   -0.033665
   3 H :    0.145941
   4 H :    0.142234
   5 H :    0.144649
   6 H :    0.052677
   7 H :    0.053011
   8 H :    0.063331
   9 H :    0.037723
  10 H :    0.037015

  Mayer bond orders larger than 0.100000
B(  0-C ,  1-N ) :   0.9339 B(  0-C ,  2-C ) :   1.1058 B(  0-C ,  6-H ) :   0.9512
B(  0-C ,  7-H ) :   0.9519 B(  1-N ,  3-H ) :   0.9317 B(  1-N ,  4-H ) :   0.9367
B(  1-N ,  5-H ) :   0.9368 B(  2-C ,  8-H ) :   0.9555 B(  2-C ,  9-H ) :   0.9712
B(  2-C , 10-H ) :   0.9643

Dispersion correction           -0.010093854
FINAL SINGLE POINT ENERGY      -135.349261759876

DIPOLE MOMENT
-------------
                                X             Y             Z
Electronic contribution:      0.16297      -1.32955       1.37241
Nuclear contribution   :     -0.22655       0.48066      -0.09136
                        -----------------------------------------
Total Dipole Moment    :     -0.06357      -0.84889       1.28106
                        -----------------------------------------
Magnitude (a.u.)       :      1.53811
Magnitude (Debye)      :      3.90956

Rotational constants in cm-1:     0.998155     0.284845     0.251232
Rotational constants in MHz : 29923.943568  8539.431565  7531.732866

                             ****ORCA TERMINATED NORMALLY****
TOTAL RUN TIME: 0 days 0 hours 0 minutes 8 seconds 783 msec
