                         Program Version 5.0.0 -  RELEASE  -
|  1> !B3LYP D3BJ RIJCOSX def2-TZVP def2/J TightSCF xyzfile
|  2>
|  3> *xyzfile 0 1 B.xyz
|  4>
|  5> %MaxCore 64000
|  6>
|  7> %pal nprocs 18
|  8> end
|  9>
| 10> %scf
| 11>   MaxIter 150
| 12> end
| 13>
| 14>
| 15>                          ****END OF INPUT****

CARTESIAN COORDINATES (ANGSTROEM)
---------------------------------
  C      0.648656    1.003595   -3.645601
  N      0.281280    0.676454   -2.240179
  C      0.132968    2.385869   -4.024618
  C     -1.366462    2.479106   -4.313932
  C     -2.357732    2.306858   -3.136753
  H     -1.636802    1.727095   -5.063993
  H     -1.582347    3.445605   -4.768687
  H      0.390790   -0.319253   -2.026495
  H     -0.692686    0.990104   -2.138123
  H      0.854206    1.212214   -1.575279
  O     -3.443763    2.846518   -3.252744
  O     -1.970922    1.583042   -2.151229
  H      0.190993    0.239655   -4.275752
  H      1.731572    0.931729   -3.750751
  H      0.414839    3.102847   -3.245165
  H      0.683167    2.687560   -4.919721

 Total Charge           Charge          ....    0
 Multiplicity           Mult            ....    1
 Number of Electrons    NEL             ....   56
 Basis Dimension        Dim             ....  271

ORBITAL ENERGIES
----------------

  NO   OCC          E(Eh)            E(eV)
   0   2.0000     -19.047398      -518.3061
   1   2.0000     -19.026092      -517.7263
   2   2.0000     -14.424804      -392.5189
   3   2.0000     -10.256552      -279.0950
   4   2.0000     -10.225609      -278.2530
   5   2.0000     -10.195997      -277.4472
   6   2.0000     -10.157300      -276.3942
   7   2.0000      -1.020782       -27.7769
   8   2.0000      -0.997095       -27.1323
   9   2.0000      -0.916069       -24.9275
  10   2.0000      -0.810712       -22.0606
  11   2.0000      -0.715582       -19.4720
  12   2.0000      -0.636702       -17.3255
  13   2.0000      -0.603679       -16.4270
  14   2.0000      -0.594237       -16.1700
  15   2.0000      -0.523043       -14.2327
  16   2.0000      -0.480855       -13.0847
  17   2.0000      -0.478097       -13.0097
  18   2.0000      -0.436036       -11.8651
  19   2.0000      -0.422140       -11.4870
  20   2.0000      -0.387693       -10.5497
  21   2.0000      -0.384204       -10.4547
  22   2.0000      -0.376170       -10.2361
  23   2.0000      -0.356727        -9.7070
  24   2.0000      -0.333502        -9.0751
  25   2.0000      -0.231059        -6.2874
  26   2.0000      -0.230328        -6.2675
  27   2.0000      -0.199879        -5.4390
  28   0.0000      -0.028429        -0.7736
  29   0.0000       0.017384         0.4731
  30   0.0000       0.025767         0.7011
  31   0.0000       0.055110         1.4996
  32   0.0000       0.064472         1.7544

MULLIKEN ATOMIC CHARGES
-----------------------
   0 C :   -0.145536
   1 N :   -0.282076
   2 C :   -0.182898
   3 C :   -0.235439
   4 C :    0.268278
   5 H :    0.086048
   6 H :    0.109860
   7 H :    0.261044
   8 H :    0.300880
   9 H :    0.258902
  10 O :   -0.380251
  11 O :   -0.540780
  12 H :    0.136108
  13 H :    0.133957
  14 H :    0.102172
  15 H :    0.109731
Sum of atomic charges:   -0.0000000

LOEWDIN ATOMIC CHARGES
----------------------
   0 C :   -0.267690
   1 N :    0.143663
   2 C :   -0.268844
   3 C :   -0.248897
   4 C :   -0.643356
   5 H :    0.140750
   6 H :    0.146005
   7 H :    0.187003
   8 H :    0.111009
   9 H :    0.192713
  10 O :    0.026515
  11 O :   -0.073720
  12 H :    0.140872
  13 H :    0.129966
  14 H :    0.139688
  15 H :    0.144325

  Mayer bond orders larger than 0.100000
B(  0-C ,  1-N ) :   0.8962 B(  0-C ,  2-C ) :   0.9639 B(  0-C , 12-H ) :   0.9630
B(  0-C , 13-H ) :   0.9736 B(  1-N ,  7-H ) :   0.9050 B(  1-N ,  8-H ) :   0.6720
B(  1-N ,  9-H ) :   0.9068 B(  2-C ,  3-C ) :   0.9264 B(  2-C , 14-H ) :   0.9633
B(  2-C , 15-H ) :   0.9605 B(  3-C ,  4-C ) :   0.9549 B(  3-C ,  5-H ) :   0.9563
B(  3-C ,  6-H ) :   0.9586 B(  4-C , 10-O ) :   2.0205 B(  4-C , 11-O ) :   1.4612
B(  8-H , 11-O ) :   0.3390

Dispersion correction           -0.022616319
FINAL SINGLE POINT ENERGY      -363.000342597811

DIPOLE MOMENT
-------------
                                X             Y             Z
Electronic contribution:     -5.85958       0.94240       2.55698
Nuclear contribution   :      9.92875      -2.62114      -2.63866
                        -----------------------------------------
Total Dipole Moment    :      4.06918      -1.67874      -0.08168
                        -----------------------------------------
Magnitude (a.u.)       :      4.40261
Magnitude (Debye)      :     11.19056

Rotational constants in cm-1:     0.159108     0.062474     0.047603
Rotational constants in MHz :  4769.938632  1872.932224  1427.103830

                             ****ORCA TERMINATED NORMALLY****
TOTAL RUN TIME: 0 days 0 hours 0 minutes 20 seconds 64 msec
