                         Program Version 5.0.0 -  RELEASE  -
|  1> !B3LYP D3BJ RIJCOSX def2-SVP def2/J TightSCF
|  2> *xyz 0 1
|  3> C          0.13297        2.38587       -4.02462
|  4> C         -1.36646        2.47911       -4.31393
|  5> C         -2.35773        2.30686       -3.13675
|  6> H         -1.63680        1.72709       -5.06399
|  7> H         -1.58235        3.44561       -4.76869
|  8> F         -3.44376        2.84652       -3.25274
|  9> O         -1.97092        1.58304       -2.15123
| 10> H          0.68084        2.52514       -4.93310
| 11> H          0.35823        1.42282       -3.61633
| 12> H          0.40851        3.14443       -3.32208
| 13> *
| 14> %MaxCore 64000
| 15>
| 16> %pal nprocs 4
| 17> end
| 18>
| 19> %scf
| 20>   MaxIter 150
| 21> end
| 22>
| 23>
| 24>                          ****END OF INPUT****

CARTESIAN COORDINATES (ANGSTROEM)
---------------------------------
  C      0.132970    2.385870   -4.024620
  C     -1.366460    2.479110   -4.313930
  C     -2.357730    2.306860   -3.136750
  H     -1.636800    1.727090   -5.063990
  H     -1.582350    3.445610   -4.768690
  F     -3.443760    2.846520   -3.252740
  O     -1.970920    1.583040   -2.151230
  H      0.680840    2.525140   -4.933100
  H      0.358230    1.422820   -3.616330
  H      0.408510    3.144430   -3.322080

 Total Charge           Charge          ....    0
 Multiplicity           Mult            ....    1
 Number of Electrons    NEL             ....   40
 Basis Dimension        Dim             ....   95

ORBITAL ENERGIES
----------------

  NO   OCC          E(Eh)            E(eV)
   0   2.0000     -24.764987      -673.8895
   1   2.0000     -19.127641      -520.4896
   2   2.0000     -10.356238      -281.8076
   3   2.0000     -10.210963      -277.8544
   4   2.0000     -10.182819      -277.0886
   5   2.0000      -1.323381       -36.0110
   6   2.0000      -0.996081       -27.1047
   7   2.0000      -0.784128       -21.3372
   8   2.0000      -0.686837       -18.6898
   9   2.0000      -0.636620       -17.3233
  10   2.0000      -0.557429       -15.1684
  11   2.0000      -0.539353       -14.6766
  12   2.0000      -0.495182       -13.4746
  13   2.0000      -0.461635       -12.5617
  14   2.0000      -0.422845       -11.5062
  15   2.0000      -0.388364       -10.5679
  16   2.0000      -0.369916       -10.0659
  17   2.0000      -0.366229        -9.9656
  18   2.0000      -0.333875        -9.0852
  19   2.0000      -0.277073        -7.5395
  20   0.0000      -0.020185        -0.5493
  21   0.0000       0.058105         1.5811
  22   0.0000       0.104406         2.8410
  23   0.0000       0.114091         3.1046
  24   0.0000       0.128161         3.4874

MULLIKEN ATOMIC CHARGES
-----------------------
   0 C :    0.056634
   1 C :   -0.079824
   2 C :    0.218065
   3 H :    0.043440
   4 H :    0.014770
   5 F :   -0.023375
   6 O :   -0.279854
   7 H :    0.006528
   8 H :    0.028062
   9 H :    0.015554
Sum of atomic charges:    0.0000000

LOEWDIN ATOMIC CHARGES
----------------------
   0 C :   -0.032675
   1 C :   -0.070973
   2 C :    0.087316
   3 H :    0.045503
   4 H :    0.026230
   5 F :    0.091227
   6 O :   -0.223980
   7 H :    0.024472
   8 H :    0.028067
   9 H :    0.024814

  Mayer bond orders larger than 0.100000
B(  0-C ,  1-C ) :   1.1043 B(  0-C ,  7-H ) :   0.9603 B(  0-C ,  8-H ) :   0.9673
B(  0-C ,  9-H ) :   0.9775 B(  1-C ,  2-C ) :   0.9940 B(  1-C ,  3-H ) :   0.9227
B(  1-C ,  4-H ) :   0.9354 B(  2-C ,  5-F ) :   1.2480 B(  2-C ,  6-O ) :   2.0546

Dispersion correction           -0.010289897
FINAL SINGLE POINT ENERGY      -292.022598779440

DIPOLE MOMENT
-------------
                                X             Y             Z
Electronic contribution:     -8.43967       0.43299       3.66142
Nuclear contribution   :      8.54799       0.05434      -4.66633
                        -----------------------------------------
Total Dipole Moment    :      0.10831       0.48733      -1.00491
                        -----------------------------------------
Magnitude (a.u.)       :      1.12208
Magnitude (Debye)      :      2.85210

Rotational constants in cm-1:     0.325803     0.123345     0.094275
Rotational constants in MHz :  9767.324172  3697.779805  2826.305733

                             ****ORCA TERMINATED NORMALLY****
TOTAL RUN TIME: 0 days 0 hours 0 minutes 11 seconds 5 msec
