                         Program Version 5.0.0 -  RELEASE  -
|  1> !B3LYP D3BJ RIJCOSX def2-SVP def2/J TightSCF
|  2> *xyz 0 1
|  3> C          0.64866        1.00359       -3.64560
|  4> C          0.28128        0.67645       -2.24018
|  5> C          0.13297        2.38587       -4.02462
|  6> H          0.39079       -0.31925       -2.02649
|  7> H         -0.69269        0.99010       -2.13812
|  8> H          0.85421        1.21221       -1.57528
|  9> H          0.19099        0.23965       -4.27575
| 10> H          1.73157        0.93173       -3.75075
| 11> H          0.40589        2.60338       -5.03610
| 12> H          0.56342        3.11797       -3.37374
| 13> H         -0.93265        2.40724       -3.93025
| 14> *
| 15> %MaxCore 64000
| 16>
| 17> %pal nprocs 4
| 18> end
| 19>
| 20> %scf
| 21>   MaxIter 150
| 22> end
| 23>
| 24>
| 25>                          ****END OF INPUT****

CARTESIAN COORDINATES (ANGSTROEM)
---------------------------------
  C      0.648660    1.003590   -3.645600
  C      0.281280    0.676450   -2.240180
  C      0.132970    2.385870   -4.024620
  H      0.390790   -0.319250   -2.026490
  H     -0.692690    0.990100   -2.138120
  H      0.854210    1.212210   -1.575280
  H      0.190990    0.239650   -4.275750
  H      1.731570    0.931730   -3.750750
  H      0.405890    2.603380   -5.036100
  H      0.563420    3.117970   -3.373740
  H     -0.932650    2.407240   -3.930250

 Total Charge           Charge          ....    0
 Multiplicity           Mult            ....    1
 Number of Electrons    NEL             ....   26
 Basis Dimension        Dim             ....   82

ORBITAL ENERGIES
----------------

  NO   OCC          E(Eh)            E(eV)
   0   2.0000     -10.167518      -276.6722
   1   2.0000     -10.162057      -276.5236
   2   2.0000     -10.144872      -276.0560
   3   2.0000      -0.782683       -21.2979
   4   2.0000      -0.679121       -18.4798
   5   2.0000      -0.576986       -15.7006
   6   2.0000      -0.464529       -12.6405
   7   2.0000      -0.446313       -12.1448
   8   2.0000      -0.400026       -10.8853
   9   2.0000      -0.384074       -10.4512
  10   2.0000      -0.336596        -9.1592
  11   2.0000      -0.332481        -9.0473
  12   2.0000      -0.325434        -8.8555
  13   0.0000       0.064940         1.7671
  14   0.0000       0.112158         3.0520
  15   0.0000       0.114288         3.1099
  16   0.0000       0.118740         3.2311
  17   0.0000       0.146364         3.9828

MULLIKEN ATOMIC CHARGES
-----------------------
   0 C :   -0.050665
   1 C :    0.100563
   2 C :    0.028988
   3 H :   -0.018057
   4 H :   -0.026535
   5 H :   -0.021884
   6 H :   -0.006623
   7 H :   -0.004914
   8 H :   -0.000144
   9 H :   -0.001167
  10 H :    0.000438
Sum of atomic charges:   -0.0000000

LOEWDIN ATOMIC CHARGES
----------------------
   0 C :   -0.032508
   1 C :   -0.035942
   2 C :   -0.044824
   3 H :    0.010837
   4 H :    0.010857
   5 H :    0.010766
   6 H :    0.015418
   7 H :    0.014258
   8 H :    0.017738
   9 H :    0.016759
  10 H :    0.016642

  Mayer bond orders larger than 0.100000
B(  0-C ,  1-C ) :   1.1132 B(  0-C ,  2-C ) :   1.1115 B(  0-C ,  6-H ) :   0.9515
B(  0-C ,  7-H ) :   0.9524 B(  1-C ,  3-H ) :   0.9606 B(  1-C ,  4-H ) :   0.9669
B(  1-C ,  5-H ) :   0.9651 B(  2-C ,  8-H ) :   0.9666 B(  2-C ,  9-H ) :   0.9744
B(  2-C , 10-H ) :   0.9701

Dispersion correction           -0.010170709
FINAL SINGLE POINT ENERGY      -118.953778699713

DIPOLE MOMENT
-------------
                                X             Y             Z
Electronic contribution:      0.25155      -0.27041      -0.23934
Nuclear contribution   :     -0.24754       0.26111       0.24628
                        -----------------------------------------
Total Dipole Moment    :      0.00402      -0.00930       0.00694
                        -----------------------------------------
Magnitude (a.u.)       :      0.01228
Magnitude (Debye)      :      0.03121

Rotational constants in cm-1:     1.006509     0.299509     0.263145
Rotational constants in MHz : 30174.379724  8979.049324  7888.875355

                             ****ORCA TERMINATED NORMALLY****
TOTAL RUN TIME: 0 days 0 hours 0 minutes 9 seconds 294 msec
