                         Program Version 5.0.0 -  RELEASE  -
|  1> !B3LYP D3BJ RIJCOSX def2-SVP def2/J TightSCF
|  2> *xyz 0 1
|  3> C          0.13297        2.38587       -4.02462
|  4> C         -1.36646        2.47911       -4.31393
|  5> C         -2.35773        2.30686       -3.13675
|  6> H         -1.63680        1.72709       -5.06399
|  7> H         -1.58235        3.44561       -4.76869
|  8> O         -3.44376        2.84652       -3.25274
|  9> F         -1.97092        1.58304       -2.15123
| 10> H          0.68084        2.52514       -4.93310
| 11> H          0.35823        1.42282       -3.61633
| 12> H          0.40851        3.14443       -3.32208
| 13> *
| 14> %MaxCore 64000
| 15>
| 16> %pal nprocs 4
| 17> end
| 18>
| 19> %scf
| 20>   MaxIter 150
| 21> end
| 22>
| 23>
| 24>                          ****END OF INPUT****

CARTESIAN COORDINATES (ANGSTROEM)
---------------------------------
  C      0.132970    2.385870   -4.024620
  C     -1.366460    2.479110   -4.313930
  C     -2.357730    2.306860   -3.136750
  H     -1.636800    1.727090   -5.063990
  H     -1.582350    3.445610   -4.768690
  O     -3.443760    2.846520   -3.252740
  F     -1.970920    1.583040   -2.151230
  H      0.680840    2.525140   -4.933100
  H      0.358230    1.422820   -3.616330
  H      0.408510    3.144430   -3.322080

 Total Charge           Charge          ....    0
 Multiplicity           Mult            ....    1
 Number of Electrons    NEL             ....   40
 Basis Dimension        Dim             ....   95

ORBITAL ENERGIES
----------------

  NO   OCC          E(Eh)            E(eV)
   0   2.0000     -24.741340      -673.2461
   1   2.0000     -19.137151      -520.7484
   2   2.0000     -10.351461      -281.6776
   3   2.0000     -10.209486      -277.8142
   4   2.0000     -10.187887      -277.2265
   5   2.0000      -1.274358       -34.6771
   6   2.0000      -1.036734       -28.2110
   7   2.0000      -0.786835       -21.4109
   8   2.0000      -0.668853       -18.2004
   9   2.0000      -0.626643       -17.0518
  10   2.0000      -0.532381       -14.4868
  11   2.0000      -0.526862       -14.3366
  12   2.0000      -0.484469       -13.1831
  13   2.0000      -0.461213       -12.5503
  14   2.0000      -0.427883       -11.6433
  15   2.0000      -0.399801       -10.8791
  16   2.0000      -0.384474       -10.4621
  17   2.0000      -0.371201       -10.1009
  18   2.0000      -0.348693        -9.4884
  19   2.0000      -0.288831        -7.8595
  20   0.0000      -0.015049        -0.4095
  21   0.0000       0.052975         1.4415
  22   0.0000       0.103784         2.8241
  23   0.0000       0.114773         3.1231
  24   0.0000       0.126182         3.4336

MULLIKEN ATOMIC CHARGES
-----------------------
   0 C :    0.032497
   1 C :   -0.080360
   2 C :    0.227986
   3 H :    0.046016
   4 H :    0.039998
   5 O :   -0.207082
   6 F :   -0.105327
   7 H :    0.013328
   8 H :    0.016180
   9 H :    0.016765
Sum of atomic charges:   -0.0000000

LOEWDIN ATOMIC CHARGES
----------------------
   0 C :   -0.045832
   1 C :   -0.068198
   2 C :    0.098460
   3 H :    0.045965
   4 H :    0.041765
   5 O :   -0.153887
   6 F :    0.010151
   7 H :    0.027171
   8 H :    0.021524
   9 H :    0.022882

  Mayer bond orders larger than 0.100000
B(  0-C ,  1-C ) :   1.0747 B(  0-C ,  7-H ) :   0.9608 B(  0-C ,  8-H ) :   0.9712
B(  0-C ,  9-H ) :   0.9782 B(  1-C ,  2-C ) :   0.9936 B(  1-C ,  3-H ) :   0.9306
B(  1-C ,  4-H ) :   0.9477 B(  2-C ,  5-O ) :   2.1301 B(  2-C ,  6-F ) :   1.1670

Dispersion correction           -0.010203597
FINAL SINGLE POINT ENERGY      -292.039937408481

DIPOLE MOMENT
-------------
                                X             Y             Z
Electronic contribution:     -5.99366      -1.63243       5.44728
Nuclear contribution   :      6.94213       1.43193      -5.86732
                        -----------------------------------------
Total Dipole Moment    :      0.94847      -0.20050      -0.42004
                        -----------------------------------------
Magnitude (a.u.)       :      1.05652
Magnitude (Debye)      :      2.68546

Rotational constants in cm-1:     0.306336     0.129048     0.095707
Rotational constants in MHz :  9183.725605  3868.769583  2869.236577

                             ****ORCA TERMINATED NORMALLY****
TOTAL RUN TIME: 0 days 0 hours 0 minutes 10 seconds 857 msec
