                         Program Version 5.0.0 -  RELEASE  -
|  1> !B3LYP D3BJ RIJCOSX def2-TZVP def2/J TightSCF xyzfile
|  2>
|  3> *xyzfile 0 1 D2.xyz
|  4>
|  5> %MaxCore 64000
|  6>
|  7> %pal nprocs 18
|  8> end
|  9>
| 10> %scf
| 11>   MaxIter 150
| 12> end
| 13>
| 14>
| 15>                          ****END OF INPUT****

CARTESIAN COORDINATES (ANGSTROEM)
---------------------------------
  C      0.648656    1.003595   -3.645601
  C      0.281280    0.676454   -2.240179
  C      0.132968    2.385869   -4.024618
  C     -1.366462    2.479106   -4.313932
  C     -2.357732    2.306858   -3.136753
  H     -1.636802    1.727095   -5.063993
  H     -1.582347    3.445605   -4.768687
  H      0.390790   -0.319253   -2.026495
  H     -0.692686    0.990104   -2.138123
  H      0.854206    1.212214   -1.575279
  O     -3.443763    2.846518   -3.252744
  F     -1.970922    1.583042   -2.151229
  H      0.190993    0.239655   -4.275752
  H      1.731572    0.931729   -3.750751
  H      0.414839    3.102847   -3.245165
  H      0.683167    2.687560   -4.919721

 Total Charge           Charge          ....    0
 Multiplicity           Mult            ....    1
 Number of Electrons    NEL             ....   56
 Basis Dimension        Dim             ....  271

ORBITAL ENERGIES
----------------

  NO   OCC          E(Eh)            E(eV)
   0   2.0000     -24.752946      -673.5619
   1   2.0000     -19.141851      -520.8763
   2   2.0000     -10.352431      -281.7040
   3   2.0000     -10.202683      -277.6291
   4   2.0000     -10.179351      -276.9942
   5   2.0000     -10.160637      -276.4850
   6   2.0000     -10.107649      -275.0431
   7   2.0000      -1.322313       -35.9820
   8   2.0000      -1.063882       -28.9497
   9   2.0000      -0.822731       -22.3877
  10   2.0000      -0.763493       -20.7757
  11   2.0000      -0.679412       -18.4878
  12   2.0000      -0.676142       -18.3988
  13   2.0000      -0.584579       -15.9072
  14   2.0000      -0.561748       -15.2860
  15   2.0000      -0.550485       -14.9795
  16   2.0000      -0.507742       -13.8164
  17   2.0000      -0.471448       -12.8287
  18   2.0000      -0.452856       -12.3228
  19   2.0000      -0.448245       -12.1974
  20   2.0000      -0.422185       -11.4882
  21   2.0000      -0.391352       -10.6492
  22   2.0000      -0.384673       -10.4675
  23   2.0000      -0.365789        -9.9536
  24   2.0000      -0.337774        -9.1913
  25   2.0000      -0.333038        -9.0624
  26   2.0000      -0.324867        -8.8401
  27   2.0000      -0.292854        -7.9690
  28   0.0000      -0.032520        -0.8849
  29   0.0000       0.026748         0.7278
  30   0.0000       0.059291         1.6134
  31   0.0000       0.065247         1.7755
  32   0.0000       0.075150         2.0449

MULLIKEN ATOMIC CHARGES
-----------------------
   0 C :   -0.136488
   1 C :   -0.392943
   2 C :   -0.158990
   3 C :   -0.250819
   4 C :    0.341415
   5 H :    0.123009
   6 H :    0.137064
   7 H :    0.097653
   8 H :    0.148965
   9 H :    0.095815
  10 O :   -0.269654
  11 F :   -0.088410
  12 H :    0.072102
  13 H :    0.085137
  14 H :    0.097344
  15 H :    0.098802
Sum of atomic charges:    0.0000000

LOEWDIN ATOMIC CHARGES
----------------------
   0 C :   -0.295116
   1 C :   -0.311202
   2 C :   -0.262610
   3 C :   -0.226134
   4 C :   -0.485278
   5 H :    0.155733
   6 H :    0.155750
   7 H :    0.101505
   8 H :    0.079835
   9 H :    0.104001
  10 O :    0.120487
  11 F :    0.323390
  12 H :    0.131848
  13 H :    0.130237
  14 H :    0.138496
  15 H :    0.139059

  Mayer bond orders larger than 0.100000
B(  0-C ,  1-C ) :   0.9436 B(  0-C ,  2-C ) :   0.9506 B(  0-C , 12-H ) :   0.9716
B(  0-C , 13-H ) :   0.9689 B(  1-C ,  7-H ) :   0.9819 B(  1-C ,  8-H ) :   0.9752
B(  1-C ,  9-H ) :   0.9807 B(  2-C ,  3-C ) :   0.9420 B(  2-C , 14-H ) :   0.9718
B(  2-C , 15-H ) :   0.9598 B(  3-C ,  4-C ) :   1.0069 B(  3-C ,  5-H ) :   0.9419
B(  3-C ,  6-H ) :   0.9613 B(  4-C , 10-O ) :   2.1262 B(  4-C , 11-F ) :   1.0790

Dispersion correction           -0.021806028
FINAL SINGLE POINT ENERGY      -370.937747876123

DIPOLE MOMENT
-------------
                                X             Y             Z
Electronic contribution:    -10.29501       2.34232       3.30478
Nuclear contribution   :     11.08738      -2.45618      -3.73478
                        -----------------------------------------
Total Dipole Moment    :      0.79237      -0.11387      -0.43000
                        -----------------------------------------
Magnitude (a.u.)       :      0.90869
Magnitude (Debye)      :      2.30971

Rotational constants in cm-1:     0.156244     0.063730     0.048063
Rotational constants in MHz :  4684.071402  1910.571278  1440.877811

                             ****ORCA TERMINATED NORMALLY****
TOTAL RUN TIME: 0 days 0 hours 0 minutes 16 seconds 10 msec
