                         Program Version 5.0.0 -  RELEASE  -
|  1> !PBE D3BJ RIJCOSX def2-SVP def2/J TightSCF
|  2> *xyz -1 1
|  3> C          3.76678       -2.26611       -6.51175
|  4> C          2.49670       -1.84416       -5.73570
|  5> H          1.62642       -2.21743       -6.30895
|  6> H          2.48182       -2.45607       -4.79341
|  7> O          2.45973       -0.50920       -5.50576
|  8> H          3.82914       -1.70941       -7.42340
|  9> H          3.71764       -3.31144       -6.73483
| 10> H          4.63199       -2.06931       -5.91377
| 11> *
| 12>
| 13> %MaxCore 64000
| 14>
| 15> %pal nprocs 4
| 16> end
| 17>
| 18> %scf
| 19>   MaxIter 150
| 20> end
| 21>
| 22>
| 23>                          ****END OF INPUT****

CARTESIAN COORDINATES (ANGSTROEM)
---------------------------------
  C      3.766780   -2.266110   -6.511750
  C      2.496700   -1.844160   -5.735700
  H      1.626420   -2.217430   -6.308950
  H      2.481820   -2.456070   -4.793410
  O      2.459730   -0.509200   -5.505760
  H      3.829140   -1.709410   -7.423400
  H      3.717640   -3.311440   -6.734830
  H      4.631990   -2.069310   -5.913770

 Total Charge           Charge          ....   -1
 Multiplicity           Mult            ....    1
 Number of Electrons    NEL             ....   26
 Basis Dimension        Dim             ....   67

ORBITAL ENERGIES
----------------

  NO   OCC          E(Eh)            E(eV)
   0   2.0000     -18.383261      -500.2340
   1   2.0000      -9.682570      -263.4761
   2   2.0000      -9.668624      -263.0966
   3   2.0000      -0.554847       -15.0982
   4   2.0000      -0.426520       -11.6062
   5   2.0000      -0.283342        -7.7101
   6   2.0000      -0.180134        -4.9017
   7   2.0000      -0.158909        -4.3241
   8   2.0000      -0.107226        -2.9178
   9   2.0000      -0.089412        -2.4330
  10   2.0000      -0.030091        -0.8188
  11   2.0000       0.113805         3.0968
  12   2.0000       0.118007         3.2111
  13   0.0000       0.234385         6.3779
  14   0.0000       0.274866         7.4795
  15   0.0000       0.286517         7.7965
  16   0.0000       0.297165         8.0863
  17   0.0000       0.336976         9.1696

MULLIKEN ATOMIC CHARGES
-----------------------
   0 C :    0.068043
   1 C :    0.206655
   2 H :   -0.176541
   3 H :   -0.183311
   4 O :   -0.630234
   5 H :   -0.074516
   6 H :   -0.139392
   7 H :   -0.070704
Sum of atomic charges:   -1.0000000

LOEWDIN ATOMIC CHARGES
----------------------
   0 C :   -0.121430
   1 C :   -0.010403
   2 H :   -0.089662
   3 H :   -0.092175
   4 O :   -0.602453
   5 H :   -0.020197
   6 H :   -0.045313
   7 H :   -0.018366

  Mayer bond orders larger than 0.100000
B(  0-C ,  1-C ) :   0.9963 B(  0-C ,  4-O ) :  -0.1031 B(  0-C ,  5-H ) :   0.9449
B(  0-C ,  6-H ) :   0.8887 B(  0-C ,  7-H ) :   0.9506 B(  1-C ,  2-H ) :   0.8431
B(  1-C ,  3-H ) :   0.8298 B(  1-C ,  4-O ) :   1.5565 B(  4-O ,  6-H ) :   0.1090

Dispersion correction           -0.003763250
FINAL SINGLE POINT ENERGY      -154.087583280386

DIPOLE MOMENT
-------------
                                X             Y             Z
Electronic contribution:     -1.14007       3.09493       1.09071
Nuclear contribution   :      1.63615      -3.79938      -1.48621
                        -----------------------------------------
Total Dipole Moment    :      0.49609      -0.70445      -0.39550
                        -----------------------------------------
Magnitude (a.u.)       :      0.94803
Magnitude (Debye)      :      2.40971

Rotational constants in cm-1:     1.265582     0.329289     0.289024
Rotational constants in MHz : 37941.194363  9871.829581  8664.719106

                             ****ORCA TERMINATED NORMALLY****
TOTAL RUN TIME: 0 days 0 hours 0 minutes 6 seconds 174 msec
