                         Program Version 5.0.0 -  RELEASE  -
|  1> !PBE D3BJ RIJCOSX def2-SVP def2/J TightSCF
|  2> *xyz 1 1
|  3> C          4.99986       -1.59613       -5.92488
|  4> N          5.28156       -1.97413       -4.53576
|  5> C          3.76678       -2.26611       -6.51175
|  6> C          4.79250       -1.36132       -3.45730
|  7> N          3.93990       -0.37492       -3.55736
|  8> N          5.25986       -1.75422       -2.23913
|  9> H          5.92282       -2.52145       -2.18672
| 10> H          4.65468       -1.64040       -1.44202
| 11> H          5.70914       -2.87560       -4.38702
| 12> H          3.33010       -0.31764       -4.36125
| 13> H          3.69849        0.11447       -2.70833
| 14> H          4.84333       -0.51793       -5.94302
| 15> H          5.90170       -1.82250       -6.49647
| 16> H          3.63046       -1.94025       -7.52177
| 17> H          2.90710       -2.00116       -5.93240
| 18> H          3.89538       -3.32820       -6.49392
| 19> *
| 20>
| 21> %MaxCore 64000
| 22>
| 23> %pal nprocs 4
| 24> end
| 25>
| 26> %scf
| 27>   MaxIter 150
| 28> end
| 29>
| 30>
| 31>                          ****END OF INPUT****

CARTESIAN COORDINATES (ANGSTROEM)
---------------------------------
  C      4.999860   -1.596130   -5.924880
  N      5.281560   -1.974130   -4.535760
  C      3.766780   -2.266110   -6.511750
  C      4.792500   -1.361320   -3.457300
  N      3.939900   -0.374920   -3.557360
  N      5.259860   -1.754220   -2.239130
  H      5.922820   -2.521450   -2.186720
  H      4.654680   -1.640400   -1.442020
  H      5.709140   -2.875600   -4.387020
  H      3.330100   -0.317640   -4.361250
  H      3.698490    0.114470   -2.708330
  H      4.843330   -0.517930   -5.943020
  H      5.901700   -1.822500   -6.496470
  H      3.630460   -1.940250   -7.521770
  H      2.907100   -2.001160   -5.932400
  H      3.895380   -3.328200   -6.493920

 Total Charge           Charge          ....    1
 Multiplicity           Mult            ....    1
 Number of Electrons    NEL             ....   48
 Basis Dimension        Dim             ....  134

ORBITAL ENERGIES
----------------

  NO   OCC          E(Eh)            E(eV)
   0   2.0000     -14.223269      -387.0348
   1   2.0000     -14.219430      -386.9304
   2   2.0000     -14.214266      -386.7899
   3   2.0000     -10.214653      -277.9548
   4   2.0000     -10.099172      -274.8124
   5   2.0000     -10.035498      -273.0798
   6   2.0000      -1.120229       -30.4830
   7   2.0000      -1.017852       -27.6972
   8   2.0000      -1.002924       -27.2909
   9   2.0000      -0.855127       -23.2692
  10   2.0000      -0.775279       -21.0964
  11   2.0000      -0.739271       -20.1166
  12   2.0000      -0.731692       -19.9104
  13   2.0000      -0.682743       -18.5784
  14   2.0000      -0.644589       -17.5402
  15   2.0000      -0.641351       -17.4521
  16   2.0000      -0.593889       -16.1606
  17   2.0000      -0.577830       -15.7236
  18   2.0000      -0.556914       -15.1544
  19   2.0000      -0.515551       -14.0289
  20   2.0000      -0.487581       -13.2678
  21   2.0000      -0.469353       -12.7717
  22   2.0000      -0.434371       -11.8198
  23   2.0000      -0.409935       -11.1549
  24   0.0000      -0.199318        -5.4237
  25   0.0000      -0.157392        -4.2828
  26   0.0000      -0.128190        -3.4882
  27   0.0000      -0.115333        -3.1384
  28   0.0000      -0.102847        -2.7986

MULLIKEN ATOMIC CHARGES
-----------------------
   0 C :   -0.010150
   1 N :   -0.093502
   2 C :   -0.002262
   3 C :   -0.008053
   4 N :    0.024875
   5 N :   -0.026099
   6 H :    0.161836
   7 H :    0.163863
   8 H :    0.157765
   9 H :    0.168976
  10 H :    0.166604
  11 H :    0.057863
  12 H :    0.081234
  13 H :    0.077863
  14 H :    0.024750
  15 H :    0.054437
Sum of atomic charges:    1.0000000

LOEWDIN ATOMIC CHARGES
----------------------
   0 C :    0.031270
   1 N :    0.049286
   2 C :   -0.054123
   3 C :    0.105705
   4 N :    0.082776
   5 N :    0.043833
   6 H :    0.108134
   7 H :    0.102462
   8 H :    0.101505
   9 H :    0.109314
  10 H :    0.112909
  11 H :    0.037241
  12 H :    0.052573
  13 H :    0.054093
  14 H :    0.024163
  15 H :    0.038859

  Mayer bond orders larger than 0.100000
B(  0-C ,  1-N ) :   0.9586 B(  0-C ,  2-C ) :   1.1131 B(  0-C , 11-H ) :   0.9420
B(  0-C , 12-H ) :   0.9379 B(  1-N ,  3-C ) :   1.3692 B(  1-N ,  8-H ) :   0.9081
B(  2-C , 13-H ) :   0.9550 B(  2-C , 14-H ) :   0.9590 B(  2-C , 15-H ) :   0.9621
B(  3-C ,  4-N ) :   1.4188 B(  3-C ,  5-N ) :   1.3564 B(  4-N ,  9-H ) :   0.9169
B(  4-N , 10-H ) :   0.9217 B(  5-N ,  6-H ) :   0.9254 B(  5-N ,  7-H ) :   0.9300

Dispersion correction           -0.012363524
FINAL SINGLE POINT ENERGY      -283.840708539214

DIPOLE MOMENT
-------------
                                X             Y             Z
Electronic contribution:      1.75100       1.08729       4.81400
Nuclear contribution   :     -1.95709      -1.20097      -3.70214
                        -----------------------------------------
Total Dipole Moment    :     -0.20609      -0.11368       1.11187
                        -----------------------------------------
Magnitude (a.u.)       :      1.13650
Magnitude (Debye)      :      2.88876

Rotational constants in cm-1:     0.241661     0.071598     0.061743
Rotational constants in MHz :  7244.800091  2146.442409  1851.001864

                             ****ORCA TERMINATED NORMALLY****
TOTAL RUN TIME: 0 days 0 hours 0 minutes 9 seconds 129 msec
