                         Program Version 5.0.0 -  RELEASE  -
|  1> !PBE D3BJ RIJCOSX def2-SVP def2/J TightSCF
|  2> *xyz 0 1
|  3> C          3.76678       -2.26611       -6.51175
|  4> C          2.49670       -1.84416       -5.73570
|  5> H          1.62642       -2.21743       -6.30895
|  6> H          2.48182       -2.45607       -4.79341
|  7> F          2.45973       -0.50920       -5.50576
|  8> H          3.82914       -1.70941       -7.42340
|  9> H          3.71764       -3.31144       -6.73483
| 10> H          4.63199       -2.06931       -5.91377
| 11> *
| 12>
| 13> %MaxCore 64000
| 14>
| 15> %pal nprocs 4
| 16> end
| 17>
| 18> %scf
| 19>   MaxIter 150
| 20> end
| 21>
| 22>
| 23>                          ****END OF INPUT****

CARTESIAN COORDINATES (ANGSTROEM)
---------------------------------
  C      3.766780   -2.266110   -6.511750
  C      2.496700   -1.844160   -5.735700
  H      1.626420   -2.217430   -6.308950
  H      2.481820   -2.456070   -4.793410
  F      2.459730   -0.509200   -5.505760
  H      3.829140   -1.709410   -7.423400
  H      3.717640   -3.311440   -6.734830
  H      4.631990   -2.069310   -5.913770

 Total Charge           Charge          ....    0
 Multiplicity           Mult            ....    1
 Number of Electrons    NEL             ....   26
 Basis Dimension        Dim             ....   67

ORBITAL ENERGIES
----------------

  NO   OCC          E(Eh)            E(eV)
   0   2.0000     -24.242212      -659.6641
   1   2.0000      -9.965571      -271.1770
   2   2.0000      -9.887391      -269.0496
   3   2.0000      -1.074844       -29.2480
   4   2.0000      -0.679188       -18.4817
   5   2.0000      -0.556215       -15.1354
   6   2.0000      -0.447846       -12.1865
   7   2.0000      -0.432061       -11.7570
   8   2.0000      -0.395527       -10.7628
   9   2.0000      -0.349628        -9.5139
  10   2.0000      -0.345836        -9.4107
  11   2.0000      -0.275034        -7.4840
  12   2.0000      -0.271004        -7.3744
  13   0.0000       0.044271         1.2047
  14   0.0000       0.087833         2.3900
  15   0.0000       0.092168         2.5080
  16   0.0000       0.104766         2.8508
  17   0.0000       0.121086         3.2949

MULLIKEN ATOMIC CHARGES
-----------------------
   0 C :   -0.065980
   1 C :    0.176550
   2 H :    0.010687
   3 H :    0.011411
   4 F :   -0.217772
   5 H :    0.032611
   6 H :    0.019855
   7 H :    0.032640
Sum of atomic charges:   -0.0000000

LOEWDIN ATOMIC CHARGES
----------------------
   0 C :   -0.082900
   1 C :    0.083444
   2 H :    0.007784
   3 H :    0.010180
   4 F :   -0.101732
   5 H :    0.026482
   6 H :    0.030798
   7 H :    0.025946

  Mayer bond orders larger than 0.100000
B(  0-C ,  1-C ) :   1.1030 B(  0-C ,  5-H ) :   0.9672 B(  0-C ,  6-H ) :   0.9552
B(  0-C ,  7-H ) :   0.9693 B(  1-C ,  2-H ) :   0.9484 B(  1-C ,  3-H ) :   0.9451
B(  1-C ,  4-F ) :   1.0482

Dispersion correction           -0.003481210
FINAL SINGLE POINT ENERGY      -178.707886786649

DIPOLE MOMENT
-------------
                                X             Y             Z
Electronic contribution:     -2.09503       4.44632       1.83876
Nuclear contribution   :      2.16248      -5.01128      -1.96962
                        -----------------------------------------
Total Dipole Moment    :      0.06744      -0.56496      -0.13086
                        -----------------------------------------
Magnitude (a.u.)       :      0.58383
Magnitude (Debye)      :      1.48397

Rotational constants in cm-1:     1.244010     0.306580     0.270375
Rotational constants in MHz : 37294.476802  9191.037795  8105.639967

                             ****ORCA TERMINATED NORMALLY****
TOTAL RUN TIME: 0 days 0 hours 0 minutes 5 seconds 471 msec
