                         Program Version 5.0.0 -  RELEASE  -
|  1> !PBE D3BJ RIJCOSX def2-SVP def2/J TightSCF
|  2> *xyz 0 1
|  3> C          4.99986       -1.59613       -5.92488
|  4> C          5.28156       -1.97413       -4.53576
|  5> C          3.76678       -2.26611       -6.51175
|  6> C          4.79250       -1.36132       -3.45730
|  7> N          3.93990       -0.37492       -3.55736
|  8> N          5.25986       -1.75422       -2.23913
|  9> H          5.92282       -2.52145       -2.18672
| 10> H          4.65468       -1.64040       -1.44202
| 11> H          5.70914       -2.87560       -4.38702
| 12> H          3.33010       -0.31764       -4.36125
| 13> H          3.69849        0.11447       -2.70833
| 14> H          4.84333       -0.51793       -5.94302
| 15> H          5.90170       -1.82250       -6.49647
| 16> H          3.63046       -1.94025       -7.52177
| 17> H          2.90710       -2.00116       -5.93240
| 18> H          3.89538       -3.32820       -6.49392
| 19> *
| 20>
| 21> %MaxCore 64000
| 22>
| 23> %pal nprocs 4
| 24> end
| 25>
| 26> %scf
| 27>   MaxIter 150
| 28> end
| 29>
| 30>
| 31>                          ****END OF INPUT****

CARTESIAN COORDINATES (ANGSTROEM)
---------------------------------
  C      4.999860   -1.596130   -5.924880
  C      5.281560   -1.974130   -4.535760
  C      3.766780   -2.266110   -6.511750
  C      4.792500   -1.361320   -3.457300
  N      3.939900   -0.374920   -3.557360
  N      5.259860   -1.754220   -2.239130
  H      5.922820   -2.521450   -2.186720
  H      4.654680   -1.640400   -1.442020
  H      5.709140   -2.875600   -4.387020
  H      3.330100   -0.317640   -4.361250
  H      3.698490    0.114470   -2.708330
  H      4.843330   -0.517930   -5.943020
  H      5.901700   -1.822500   -6.496470
  H      3.630460   -1.940250   -7.521770
  H      2.907100   -2.001160   -5.932400
  H      3.895380   -3.328200   -6.493920

 Total Charge           Charge          ....    0
 Multiplicity           Mult            ....    1
 Number of Electrons    NEL             ....   48
 Basis Dimension        Dim             ....  134

ORBITAL ENERGIES
----------------

  NO   OCC          E(Eh)            E(eV)
   0   2.0000     -13.995262      -380.8304
   1   2.0000     -13.985816      -380.5734
   2   2.0000      -9.922377      -270.0016
   3   2.0000      -9.862633      -268.3759
   4   2.0000      -9.860231      -268.3105
   5   2.0000      -9.810487      -266.9569
   6   2.0000      -0.862913       -23.4811
   7   2.0000      -0.777282       -21.1509
   8   2.0000      -0.685871       -18.6635
   9   2.0000      -0.612866       -16.6769
  10   2.0000      -0.543108       -14.7787
  11   2.0000      -0.511193       -13.9103
  12   2.0000      -0.485242       -13.2041
  13   2.0000      -0.442333       -12.0365
  14   2.0000      -0.422284       -11.4909
  15   2.0000      -0.387122       -10.5341
  16   2.0000      -0.360848        -9.8192
  17   2.0000      -0.338594        -9.2136
  18   2.0000      -0.328599        -8.9416
  19   2.0000      -0.300882        -8.1874
  20   2.0000      -0.276418        -7.5217
  21   2.0000      -0.268844        -7.3156
  22   2.0000      -0.210664        -5.7325
  23   2.0000      -0.119877        -3.2620
  24   0.0000       0.019383         0.5274
  25   0.0000       0.050659         1.3785
  26   0.0000       0.065878         1.7926
  27   0.0000       0.075533         2.0554
  28   0.0000       0.088976         2.4212

MULLIKEN ATOMIC CHARGES
-----------------------
   0 C :    0.021657
   1 C :   -0.157802
   2 C :    0.042914
   3 C :   -0.103983
   4 N :   -0.013979
   5 N :   -0.061657
   6 H :    0.106997
   7 H :    0.084263
   8 H :   -0.096739
   9 H :    0.120863
  10 H :    0.094548
  11 H :   -0.020379
  12 H :   -0.005055
  13 H :    0.000528
  14 H :   -0.013853
  15 H :    0.001677
Sum of atomic charges:   -0.0000000

LOEWDIN ATOMIC CHARGES
----------------------
   0 C :   -0.049532
   1 C :   -0.206563
   2 C :   -0.062490
   3 C :   -0.007653
   4 N :    0.011972
   5 N :   -0.026537
   6 H :    0.078881
   7 H :    0.050765
   8 H :   -0.012705
   9 H :    0.079688
  10 H :    0.065187
  11 H :    0.011376
  12 H :    0.024508
  13 H :    0.014258
  14 H :    0.009737
  15 H :    0.019109

  Mayer bond orders larger than 0.100000
B(  0-C ,  1-C ) :   1.1104 B(  0-C ,  2-C ) :   1.1021 B(  0-C , 11-H ) :   0.9212
B(  0-C , 12-H ) :   0.9082 B(  1-C ,  3-C ) :   1.6479 B(  1-C ,  8-H ) :   0.9362
B(  2-C , 13-H ) :   0.9549 B(  2-C , 14-H ) :   0.9628 B(  2-C , 15-H ) :   0.9608
B(  3-C ,  4-N ) :   1.2705 B(  3-C ,  5-N ) :   1.2251 B(  4-N ,  9-H ) :   0.9320
B(  4-N , 10-H ) :   0.9413 B(  5-N ,  6-H ) :   0.9397 B(  5-N ,  7-H ) :   0.9421

Dispersion correction           -0.012825878
FINAL SINGLE POINT ENERGY      -267.371678625067

DIPOLE MOMENT
-------------
                                X             Y             Z
Electronic contribution:      1.19511       1.45951       4.68668
Nuclear contribution   :     -1.82485      -1.28952      -3.74132
                        -----------------------------------------
Total Dipole Moment    :     -0.62974       0.16999       0.94536
                        -----------------------------------------
Magnitude (a.u.)       :      1.14856
Magnitude (Debye)      :      2.91940

Rotational constants in cm-1:     0.245790     0.071632     0.062004
Rotational constants in MHz :  7368.599517  2147.482078  1858.844841

                             ****ORCA TERMINATED NORMALLY****
TOTAL RUN TIME: 0 days 0 hours 0 minutes 9 seconds 218 msec
