                         Program Version 5.0.0 -  RELEASE  -
|  1> !PBE D3BJ RIJCOSX def2-SVP def2/J TightSCF
|  2> *xyz 0 1
|  3> C          4.99986       -1.59613       -5.92488
|  4> N          5.28156       -1.97413       -4.53576
|  5> C          3.76678       -2.26611       -6.51175
|  6> C          4.79250       -1.36132       -3.45730
|  7> C          3.93990       -0.37492       -3.55736
|  8> N          5.25986       -1.75422       -2.23913
|  9> H          5.92282       -2.52145       -2.18672
| 10> H          4.65468       -1.64040       -1.44202
| 11> H          5.70914       -2.87560       -4.38702
| 12> H          3.33010       -0.31764       -4.36125
| 13> H          3.69849        0.11447       -2.70833
| 14> H          4.84333       -0.51793       -5.94302
| 15> H          5.90170       -1.82250       -6.49647
| 16> H          3.63046       -1.94025       -7.52177
| 17> H          2.90710       -2.00116       -5.93240
| 18> H          3.89538       -3.32820       -6.49392
| 19> *
| 20>
| 21> %MaxCore 64000
| 22>
| 23> %pal nprocs 4
| 24> end
| 25>
| 26> %scf
| 27>   MaxIter 150
| 28> end
| 29>
| 30>
| 31>                          ****END OF INPUT****

CARTESIAN COORDINATES (ANGSTROEM)
---------------------------------
  C      4.999860   -1.596130   -5.924880
  N      5.281560   -1.974130   -4.535760
  C      3.766780   -2.266110   -6.511750
  C      4.792500   -1.361320   -3.457300
  C      3.939900   -0.374920   -3.557360
  N      5.259860   -1.754220   -2.239130
  H      5.922820   -2.521450   -2.186720
  H      4.654680   -1.640400   -1.442020
  H      5.709140   -2.875600   -4.387020
  H      3.330100   -0.317640   -4.361250
  H      3.698490    0.114470   -2.708330
  H      4.843330   -0.517930   -5.943020
  H      5.901700   -1.822500   -6.496470
  H      3.630460   -1.940250   -7.521770
  H      2.907100   -2.001160   -5.932400
  H      3.895380   -3.328200   -6.493920

 Total Charge           Charge          ....    0
 Multiplicity           Mult            ....    1
 Number of Electrons    NEL             ....   48
 Basis Dimension        Dim             ....  134

ORBITAL ENERGIES
----------------

  NO   OCC          E(Eh)            E(eV)
   0   2.0000     -13.993001      -380.7689
   1   2.0000     -13.987589      -380.6216
   2   2.0000      -9.924139      -270.0495
   3   2.0000      -9.920429      -269.9486
   4   2.0000      -9.878023      -268.7947
   5   2.0000      -9.802446      -266.7381
   6   2.0000      -0.863861       -23.5069
   7   2.0000      -0.786206       -21.3938
   8   2.0000      -0.674464       -18.3531
   9   2.0000      -0.632341       -17.2069
  10   2.0000      -0.566090       -15.4041
  11   2.0000      -0.499025       -13.5792
  12   2.0000      -0.482876       -13.1397
  13   2.0000      -0.452265       -12.3068
  14   2.0000      -0.404843       -11.0163
  15   2.0000      -0.391679       -10.6581
  16   2.0000      -0.370395       -10.0790
  17   2.0000      -0.344059        -9.3623
  18   2.0000      -0.330760        -9.0004
  19   2.0000      -0.321890        -8.7591
  20   2.0000      -0.303501        -8.2587
  21   2.0000      -0.294474        -8.0131
  22   2.0000      -0.198649        -5.4055
  23   2.0000      -0.130135        -3.5412
  24   0.0000       0.022890         0.6229
  25   0.0000       0.054440         1.4814
  26   0.0000       0.059219         1.6114
  27   0.0000       0.077145         2.0992
  28   0.0000       0.091265         2.4834

MULLIKEN ATOMIC CHARGES
-----------------------
   0 C :    0.051949
   1 N :   -0.131485
   2 C :    0.010302
   3 C :   -0.036074
   4 C :   -0.085988
   5 N :   -0.082062
   6 H :    0.087667
   7 H :    0.115838
   8 H :    0.087400
   9 H :   -0.042887
  10 H :   -0.065541
  11 H :    0.028512
  12 H :    0.011049
  13 H :    0.016013
  14 H :    0.029547
  15 H :    0.005761
Sum of atomic charges:   -0.0000000

LOEWDIN ATOMIC CHARGES
----------------------
   0 C :    0.030389
   1 N :   -0.012840
   2 C :   -0.069457
   3 C :    0.012953
   4 C :   -0.239388
   5 N :   -0.023759
   6 H :    0.059790
   7 H :    0.073761
   8 H :    0.057201
   9 H :   -0.004991
  10 H :   -0.005557
  11 H :    0.030024
  12 H :    0.020202
  13 H :    0.026186
  14 H :    0.027334
  15 H :    0.018150

  Mayer bond orders larger than 0.100000
B(  0-C ,  1-N ) :   1.0246 B(  0-C ,  2-C ) :   1.1178 B(  0-C , 11-H ) :   0.9226
B(  0-C , 12-H ) :   0.9478 B(  1-N ,  3-C ) :   1.1825 B(  1-N ,  8-H ) :   0.9260
B(  2-C , 13-H ) :   0.9553 B(  2-C , 14-H ) :   0.9616 B(  2-C , 15-H ) :   0.9615
B(  3-C ,  4-C ) :   1.7522 B(  3-C ,  5-N ) :   1.2030 B(  4-C ,  9-H ) :   0.9191
B(  4-C , 10-H ) :   0.9238 B(  5-N ,  6-H ) :   0.9495 B(  5-N ,  7-H ) :   0.9480

Dispersion correction           -0.012782707
FINAL SINGLE POINT ENERGY      -267.364012706548

DIPOLE MOMENT
-------------
                                X             Y             Z
Electronic contribution:      2.48367      -0.15659       3.61109
Nuclear contribution   :     -2.10948      -0.95026      -3.53375
                        -----------------------------------------
Total Dipole Moment    :      0.37419      -1.10685       0.07734
                        -----------------------------------------
Magnitude (a.u.)       :      1.17095
Magnitude (Debye)      :      2.97632

Rotational constants in cm-1:     0.255209     0.072067     0.062929
Rotational constants in MHz :  7650.964615  2160.525743  1886.569524

                             ****ORCA TERMINATED NORMALLY****
TOTAL RUN TIME: 0 days 0 hours 0 minutes 8 seconds 174 msec
