                         Program Version 5.0.0 -  RELEASE  -
|  1> !PBE D3BJ RIJCOSX def2-SVP def2/J TightSCF
|  2> *xyz 0 1
|  3> C          4.99986       -1.59613       -5.92488
|  4> N          5.28156       -1.97413       -4.53576
|  5> C          3.76678       -2.26611       -6.51175
|  6> C          4.79250       -1.36132       -3.45730
|  7> N          3.93990       -0.37492       -3.55736
|  8> C          5.25986       -1.75422       -2.23913
|  9> H          5.92282       -2.52145       -2.18672
| 10> H          4.65468       -1.64040       -1.44202
| 11> H          5.70914       -2.87560       -4.38702
| 12> H          3.33010       -0.31764       -4.36125
| 13> H          3.69849        0.11447       -2.70833
| 14> H          4.84333       -0.51793       -5.94302
| 15> H          5.90170       -1.82250       -6.49647
| 16> H          3.63046       -1.94025       -7.52177
| 17> H          2.90710       -2.00116       -5.93240
| 18> H          3.89538       -3.32820       -6.49392
| 19> *
| 20>
| 21> %MaxCore 64000
| 22>
| 23> %pal nprocs 4
| 24> end
| 25>
| 26> %scf
| 27>   MaxIter 150
| 28> end
| 29>
| 30>
| 31>                          ****END OF INPUT****

CARTESIAN COORDINATES (ANGSTROEM)
---------------------------------
  C      4.999860   -1.596130   -5.924880
  N      5.281560   -1.974130   -4.535760
  C      3.766780   -2.266110   -6.511750
  C      4.792500   -1.361320   -3.457300
  N      3.939900   -0.374920   -3.557360
  C      5.259860   -1.754220   -2.239130
  H      5.922820   -2.521450   -2.186720
  H      4.654680   -1.640400   -1.442020
  H      5.709140   -2.875600   -4.387020
  H      3.330100   -0.317640   -4.361250
  H      3.698490    0.114470   -2.708330
  H      4.843330   -0.517930   -5.943020
  H      5.901700   -1.822500   -6.496470
  H      3.630460   -1.940250   -7.521770
  H      2.907100   -2.001160   -5.932400
  H      3.895380   -3.328200   -6.493920

 Total Charge           Charge          ....    0
 Multiplicity           Mult            ....    1
 Number of Electrons    NEL             ....   48
 Basis Dimension        Dim             ....  134

ORBITAL ENERGIES
----------------

  NO   OCC          E(Eh)            E(eV)
   0   2.0000     -13.995687      -380.8420
   1   2.0000     -13.993347      -380.7783
   2   2.0000      -9.930120      -270.2123
   3   2.0000      -9.927485      -270.1406
   4   2.0000      -9.889489      -269.1067
   5   2.0000      -9.800002      -266.6716
   6   2.0000      -0.873683       -23.7741
   7   2.0000      -0.797044       -21.6887
   8   2.0000      -0.691509       -18.8169
   9   2.0000      -0.616290       -16.7701
  10   2.0000      -0.556940       -15.1551
  11   2.0000      -0.538391       -14.6504
  12   2.0000      -0.484791       -13.1918
  13   2.0000      -0.443300       -12.0628
  14   2.0000      -0.428711       -11.6658
  15   2.0000      -0.393841       -10.7169
  16   2.0000      -0.377918       -10.2837
  17   2.0000      -0.352626        -9.5955
  18   2.0000      -0.333047        -9.0627
  19   2.0000      -0.317925        -8.6512
  20   2.0000      -0.316023        -8.5994
  21   2.0000      -0.295673        -8.0457
  22   2.0000      -0.206222        -5.6116
  23   2.0000      -0.118964        -3.2372
  24   0.0000       0.017185         0.4676
  25   0.0000       0.050504         1.3743
  26   0.0000       0.058319         1.5869
  27   0.0000       0.068210         1.8561
  28   0.0000       0.085545         2.3278

MULLIKEN ATOMIC CHARGES
-----------------------
   0 C :    0.023403
   1 N :   -0.117889
   2 C :    0.018335
   3 C :   -0.106311
   4 N :   -0.019039
   5 C :   -0.081718
   6 H :   -0.068138
   7 H :   -0.053080
   8 H :    0.115654
   9 H :    0.095762
  10 H :    0.115196
  11 H :    0.015017
  12 H :    0.020174
  13 H :    0.017336
  14 H :    0.007672
  15 H :    0.017625
Sum of atomic charges:    0.0000000

LOEWDIN ATOMIC CHARGES
----------------------
   0 C :    0.017184
   1 N :   -0.007195
   2 C :   -0.072212
   3 C :    0.004514
   4 N :    0.013919
   5 C :   -0.267180
   6 H :   -0.011664
   7 H :   -0.013616
   8 H :    0.078937
   9 H :    0.061038
  10 H :    0.084617
  11 H :    0.020742
  12 H :    0.024544
  13 H :    0.025961
  14 H :    0.017164
  15 H :    0.023246

  Mayer bond orders larger than 0.100000
B(  0-C ,  1-N ) :   1.0363 B(  0-C ,  2-C ) :   1.1029 B(  0-C , 11-H ) :   0.9382
B(  0-C , 12-H ) :   0.9448 B(  1-N ,  3-C ) :   1.2002 B(  1-N ,  8-H ) :   0.9248
B(  2-C , 13-H ) :   0.9529 B(  2-C , 14-H ) :   0.9588 B(  2-C , 15-H ) :   0.9613
B(  3-C ,  4-N ) :   1.2734 B(  3-C ,  5-C ) :   1.6839 B(  4-N ,  9-H ) :   0.9354
B(  4-N , 10-H ) :   0.9366 B(  5-C ,  6-H ) :   0.9304 B(  5-C ,  7-H ) :   0.9356

Dispersion correction           -0.012709443
FINAL SINGLE POINT ENERGY      -267.360829432416

DIPOLE MOMENT
-------------
                                X             Y             Z
Electronic contribution:      1.15075       1.29677       2.20722
Nuclear contribution   :     -1.82946      -1.24287      -3.25410
                        -----------------------------------------
Total Dipole Moment    :     -0.67871       0.05390      -1.04687
                        -----------------------------------------
Magnitude (a.u.)       :      1.24880
Magnitude (Debye)      :      3.17419

Rotational constants in cm-1:     0.244672     0.074506     0.064043
Rotational constants in MHz :  7335.067153  2233.624025  1919.970379

                             ****ORCA TERMINATED NORMALLY****
TOTAL RUN TIME: 0 days 0 hours 0 minutes 8 seconds 940 msec
