                         Program Version 5.0.0 -  RELEASE  -
|  1> !PBE D3BJ RIJCOSX def2-TZVP def2/J TightSCF xyzfile
|  2>
|  3> *xyzfile 0 1 D2.xyz
|  4>
|  5> %MaxCore 64000
|  6>
|  7> %pal nprocs 18
|  8> end
|  9>
| 10> %scf
| 11>   MaxIter 150
| 12> end
| 13>
| 14>
| 15>                          ****END OF INPUT****

CARTESIAN COORDINATES (ANGSTROEM)
---------------------------------
  C      4.999862   -1.596133   -5.924876
  N      5.281560   -1.974132   -4.535764
  C      3.766779   -2.266110   -6.511752
  C      2.496702   -1.844161   -5.735704
  H      1.626416   -2.217434   -6.308950
  H      2.481824   -2.456069   -4.793414
  F      2.459729   -0.509204   -5.505757
  C      4.792500   -1.361316   -3.457295
  C      3.939898   -0.374925   -3.557359
  N      5.259860   -1.754224   -2.239133
  H      5.922824   -2.521451   -2.186720
  H      4.654678   -1.640404   -1.442016
  H      5.709139   -2.875599   -4.387021
  H      3.330101   -0.317639   -4.361247
  H      3.698494    0.114468   -2.708333
  H      4.843333   -0.517930   -5.943019
  H      5.901695   -1.822503   -6.496467
  H      3.886191   -3.357076   -6.533604
  H      3.685602   -1.922168   -7.547128

 Total Charge           Charge          ....    0
 Multiplicity           Mult            ....    1
 Number of Electrons    NEL             ....   64
 Basis Dimension        Dim             ....  314

ORBITAL ENERGIES
----------------

  NO   OCC          E(Eh)            E(eV)
   0   2.0000     -24.257143      -660.0704
   1   2.0000     -13.983564      -380.5121
   2   2.0000     -13.971714      -380.1897
   3   2.0000      -9.957932      -270.9691
   4   2.0000      -9.912293      -269.7272
   5   2.0000      -9.906226      -269.5621
   6   2.0000      -9.890188      -269.1257
   7   2.0000      -9.767582      -265.7894
   8   2.0000      -1.124596       -30.6018
   9   2.0000      -0.874163       -23.7872
  10   2.0000      -0.797406       -21.6985
  11   2.0000      -0.711714       -19.3667
  12   2.0000      -0.640948       -17.4411
  13   2.0000      -0.625495       -17.0206
  14   2.0000      -0.552549       -15.0356
  15   2.0000      -0.510528       -13.8922
  16   2.0000      -0.492632       -13.4052
  17   2.0000      -0.462838       -12.5945
  18   2.0000      -0.460587       -12.5332
  19   2.0000      -0.443354       -12.0643
  20   2.0000      -0.427929       -11.6445
  21   2.0000      -0.408103       -11.1051
  22   2.0000      -0.375734       -10.2242
  23   2.0000      -0.357984        -9.7412
  24   2.0000      -0.339146        -9.2286
  25   2.0000      -0.329988        -8.9794
  26   2.0000      -0.315785        -8.5930
  27   2.0000      -0.298487        -8.1222
  28   2.0000      -0.288399        -7.8477
  29   2.0000      -0.256138        -6.9699
  30   2.0000      -0.204213        -5.5569
  31   2.0000      -0.130535        -3.5520
  32   0.0000      -0.000442        -0.0120
  33   0.0000       0.025943         0.7060
  34   0.0000       0.040699         1.1075
  35   0.0000       0.049566         1.3488
  36   0.0000       0.056311         1.5323

MULLIKEN ATOMIC CHARGES
-----------------------
   0 C :   -0.143045
   1 N :   -0.284819
   2 C :   -0.157460
   3 C :   -0.034152
   4 H :    0.106035
   5 H :    0.116370
   6 F :   -0.144948
   7 C :    0.344564
   8 C :   -0.587834
   9 N :   -0.464662
  10 H :    0.195280
  11 H :    0.229882
  12 H :    0.169702
  13 H :    0.159000
  14 H :    0.066544
  15 H :    0.141233
  16 H :    0.113100
  17 H :    0.087951
  18 H :    0.087258
Sum of atomic charges:   -0.0000000

LOEWDIN ATOMIC CHARGES
----------------------
   0 C :   -0.285131
   1 N :    0.123853
   2 C :   -0.284542
   3 C :   -0.375249
   4 H :    0.122523
   5 H :    0.133594
   6 F :    0.190435
   7 C :   -0.489833
   8 C :   -0.326241
   9 N :   -0.028849
  10 H :    0.151920
  11 H :    0.166338
  12 H :    0.167250
  13 H :    0.077554
  14 H :    0.098584
  15 H :    0.148756
  16 H :    0.132351
  17 H :    0.138000
  18 H :    0.138686

  Mayer bond orders larger than 0.100000
B(  0-C ,  1-N ) :   0.9578 B(  0-C ,  2-C ) :   1.0082 B(  0-C , 15-H ) :   0.9488
B(  0-C , 16-H ) :   0.9593 B(  1-N ,  7-C ) :   1.1523 B(  1-N , 12-H ) :   0.9163
B(  2-C ,  3-C ) :   1.0191 B(  2-C , 17-H ) :   0.9321 B(  2-C , 18-H ) :   0.9338
B(  3-C ,  4-H ) :   0.9482 B(  3-C ,  5-H ) :   0.9651 B(  3-C ,  6-F ) :   1.0083
B(  7-C ,  8-C ) :   1.6437 B(  7-C ,  9-N ) :   1.0813 B(  8-C , 13-H ) :   0.9465
B(  8-C , 14-H ) :   0.9989 B(  9-N , 10-H ) :   0.9273 B(  9-N , 11-H ) :   0.9185

Dispersion correction           -0.017515688
FINAL SINGLE POINT ENERGY      -406.096723471662

DIPOLE MOMENT
-------------
                                X             Y             Z
Electronic contribution:     -2.23303       2.71408      -0.08404
Nuclear contribution   :      2.43398      -4.26587      -0.19921
                        -----------------------------------------
Total Dipole Moment    :      0.20096      -1.55179      -0.28325
                        -----------------------------------------
Magnitude (a.u.)       :      1.59018
Magnitude (Debye)      :      4.04191

Rotational constants in cm-1:     0.110089     0.049944     0.039407
Rotational constants in MHz :  3300.378855  1497.273856  1181.385913

                             ****ORCA TERMINATED NORMALLY****
TOTAL RUN TIME: 0 days 0 hours 0 minutes 8 seconds 841 msec
