                         Program Version 5.0.0 -  RELEASE  -
|  1> !PBE D3BJ RIJCOSX def2-TZVP def2/J TightSCF xyzfile
|  2>
|  3> *xyzfile 0 1 D3.xyz
|  4>
|  5> %MaxCore 64000
|  6>
|  7> %pal nprocs 18
|  8> end
|  9>
| 10> %scf
| 11>   MaxIter 150
| 12> end
| 13>
| 14>
| 15>                          ****END OF INPUT****

CARTESIAN COORDINATES (ANGSTROEM)
---------------------------------
  C      4.999862   -1.596133   -5.924876
  N      5.281560   -1.974132   -4.535764
  C      3.766779   -2.266110   -6.511752
  C      2.496702   -1.844161   -5.735704
  H      1.626416   -2.217434   -6.308950
  H      2.481824   -2.456069   -4.793414
  F      2.459729   -0.509204   -5.505757
  C      4.792500   -1.361316   -3.457295
  N      3.939898   -0.374925   -3.557359
  C      5.259860   -1.754224   -2.239133
  H      5.922824   -2.521451   -2.186720
  H      4.654678   -1.640404   -1.442016
  H      5.709139   -2.875599   -4.387021
  H      3.330101   -0.317639   -4.361247
  H      3.698494    0.114468   -2.708333
  H      4.843333   -0.517930   -5.943019
  H      5.901695   -1.822503   -6.496467
  H      3.886191   -3.357076   -6.533604
  H      3.685602   -1.922168   -7.547128

 Total Charge           Charge          ....    0
 Multiplicity           Mult            ....    1
 Number of Electrons    NEL             ....   64
 Basis Dimension        Dim             ....  314

ORBITAL ENERGIES
----------------

  NO   OCC          E(Eh)            E(eV)
   0   2.0000     -24.294261      -661.0804
   1   2.0000     -13.984700      -380.5430
   2   2.0000     -13.957810      -379.8113
   3   2.0000      -9.978297      -271.5233
   4   2.0000      -9.921009      -269.9644
   5   2.0000      -9.911262      -269.6991
   6   2.0000      -9.902189      -269.4523
   7   2.0000      -9.781006      -266.1547
   8   2.0000      -1.159640       -31.5554
   9   2.0000      -0.880173       -23.9507
  10   2.0000      -0.803138       -21.8545
  11   2.0000      -0.727164       -19.7871
  12   2.0000      -0.660206       -17.9651
  13   2.0000      -0.604336       -16.4448
  14   2.0000      -0.560567       -15.2538
  15   2.0000      -0.539832       -14.6896
  16   2.0000      -0.514331       -13.9957
  17   2.0000      -0.490151       -13.3377
  18   2.0000      -0.460560       -12.5325
  19   2.0000      -0.450745       -12.2654
  20   2.0000      -0.422980       -11.5099
  21   2.0000      -0.420369       -11.4388
  22   2.0000      -0.386393       -10.5143
  23   2.0000      -0.375165       -10.2088
  24   2.0000      -0.340727        -9.2717
  25   2.0000      -0.332699        -9.0532
  26   2.0000      -0.326686        -8.8896
  27   2.0000      -0.310753        -8.4560
  28   2.0000      -0.299776        -8.1573
  29   2.0000      -0.294303        -8.0084
  30   2.0000      -0.206441        -5.6175
  31   2.0000      -0.120548        -3.2803
  32   0.0000       0.001476         0.0402
  33   0.0000       0.026516         0.7215
  34   0.0000       0.036775         1.0007
  35   0.0000       0.039435         1.0731
  36   0.0000       0.050746         1.3809

MULLIKEN ATOMIC CHARGES
-----------------------
   0 C :   -0.205414
   1 N :   -0.266920
   2 C :   -0.143206
   3 C :   -0.050281
   4 H :    0.118831
   5 H :    0.131668
   6 F :   -0.168387
   7 C :    0.318103
   8 N :   -0.445171
   9 C :   -0.547445
  10 H :    0.060944
  11 H :    0.080069
  12 H :    0.205126
  13 H :    0.237666
  14 H :    0.218808
  15 H :    0.142224
  16 H :    0.122981
  17 H :    0.099633
  18 H :    0.090769
Sum of atomic charges:   -0.0000000

LOEWDIN ATOMIC CHARGES
----------------------
   0 C :   -0.300400
   1 N :    0.131967
   2 C :   -0.284049
   3 C :   -0.373851
   4 H :    0.127571
   5 H :    0.137990
   6 F :    0.186838
   7 C :   -0.494846
   8 N :    0.020436
   9 C :   -0.374851
  10 H :    0.090728
  11 H :    0.090676
  12 H :    0.187291
  13 H :    0.120206
  14 H :    0.175614
  15 H :    0.142327
  16 H :    0.135096
  17 H :    0.142222
  18 H :    0.139034

  Mayer bond orders larger than 0.100000
B(  0-C ,  1-N ) :   0.9763 B(  0-C ,  2-C ) :   0.9833 B(  0-C , 15-H ) :   0.9627
B(  0-C , 16-H ) :   0.9608 B(  1-N ,  7-C ) :   1.1636 B(  1-N , 12-H ) :   0.9215
B(  2-C ,  3-C ) :   1.0160 B(  2-C , 17-H ) :   0.9307 B(  2-C , 18-H ) :   0.9347
B(  3-C ,  4-H ) :   0.9540 B(  3-C ,  5-H ) :   0.9656 B(  3-C ,  6-F ) :   0.9713
B(  6-F , 13-H ) :   0.1226 B(  7-C ,  8-N ) :   1.2236 B(  7-C ,  9-C ) :   1.5826
B(  8-N , 13-H ) :   0.8504 B(  8-N , 14-H ) :   0.9228 B(  9-C , 10-H ) :   1.0069
B(  9-C , 11-H ) :   0.9751

Dispersion correction           -0.017401008
FINAL SINGLE POINT ENERGY      -406.111753384401

DIPOLE MOMENT
-------------
                                X             Y             Z
Electronic contribution:     -3.48505       3.92937      -1.47388
Nuclear contribution   :      2.63642      -4.47741       0.00296
                        -----------------------------------------
Total Dipole Moment    :     -0.84863      -0.54803      -1.47092
                        -----------------------------------------
Magnitude (a.u.)       :      1.78441
Magnitude (Debye)      :      4.53562

Rotational constants in cm-1:     0.108041     0.051979     0.040387
Rotational constants in MHz :  3238.993235  1558.297571  1210.782552

                             ****ORCA TERMINATED NORMALLY****
TOTAL RUN TIME: 0 days 0 hours 0 minutes 9 seconds 424 msec
