                         Program Version 5.0.0 -  RELEASE  -
|  1> !wB97X-D3 RIJCOSX def2-SVP def2/J TightSCF
|  2> *xyz -1 1
|  3> C          0.69721        3.22791       -0.52513
|  4> O          1.48929        2.37470        0.19919
|  5> H          0.26505        2.70007       -1.34946
|  6> H          1.28994        4.03943       -0.89255
|  7> H         -0.08148        3.61005        0.10138
|  8> *
|  9>
| 10> %MaxCore 64000
| 11> %pal nprocs 8
| 12> end
| 13>
| 14> %scf
| 15>   MaxIter 150
| 16> end
| 17>
| 18>
| 19>                          ****END OF INPUT****

CARTESIAN COORDINATES (ANGSTROEM)
---------------------------------
  C      0.697210    3.227910   -0.525130
  O      1.489290    2.374700    0.199190
  H      0.265050    2.700070   -1.349460
  H      1.289940    4.039430   -0.892550
  H     -0.081480    3.610050    0.101380

 Total Charge           Charge          ....   -1
 Multiplicity           Mult            ....    1
 Number of Electrons    NEL             ....   18
 Basis Dimension        Dim             ....   43

ORBITAL ENERGIES
----------------

  NO   OCC          E(Eh)            E(eV)
   0   2.0000     -18.809500      -511.8325
   1   2.0000     -10.044413      -273.3224
   2   2.0000      -0.705480       -19.1971
   3   2.0000      -0.468980       -12.7616
   4   2.0000      -0.267086        -7.2678
   5   2.0000      -0.267059        -7.2670
   6   2.0000      -0.137207        -3.7336
   7   2.0000       0.020031         0.5451
   8   2.0000       0.020049         0.5456
   9   0.0000       0.370491        10.0816
  10   0.0000       0.445395        12.1198
  11   0.0000       0.445409        12.1202
  12   0.0000       0.537655        14.6303
  13   0.0000       0.815174        22.1820

MULLIKEN ATOMIC CHARGES
-----------------------
   0 C :    0.296573
   1 O :   -0.815946
   2 H :   -0.160162
   3 H :   -0.160211
   4 H :   -0.160253
Sum of atomic charges:   -1.0000000

LOEWDIN ATOMIC CHARGES
----------------------
   0 C :   -0.010290
   1 O :   -0.744386
   2 H :   -0.081750
   3 H :   -0.081784
   4 H :   -0.081790

  Mayer bond orders larger than 0.100000
B(  0-C ,  1-O ) :   1.3945 B(  0-C ,  2-H ) :   0.9146 B(  0-C ,  3-H ) :   0.9145
B(  0-C ,  4-H ) :   0.9145

Dispersion correction           -0.000090821
FINAL SINGLE POINT ENERGY      -114.929982168617

DIPOLE MOMENT
-------------
                                X             Y             Z
Electronic contribution:      1.23440      -1.32973       1.12867
Nuclear contribution   :     -1.66672       1.79535      -1.52413
                        -----------------------------------------
Total Dipole Moment    :     -0.43231       0.46561      -0.39547
                        -----------------------------------------
Magnitude (a.u.)       :      0.74839
Magnitude (Debye)      :      1.90226

Rotational constants in cm-1:     5.477728     0.937442     0.937441
Rotational constants in MHz : 164218.159175 28103.818547 28103.787504

                             ****ORCA TERMINATED NORMALLY****
TOTAL RUN TIME: 0 days 0 hours 0 minutes 3 seconds 35 msec
