                         Program Version 5.0.0 -  RELEASE  -
|  1> !wB97X-D3 RIJCOSX def2-SVP def2/J TightSCF
|  2> *xyz 1 1
|  3> C          3.95643        0.50147       -0.37910
|  4> N          3.80389        1.96157       -0.15675
|  5> H          4.20643        2.24441        0.74536
|  6> H          2.80827        2.21132       -0.09610
|  7> H          4.28076        2.50155       -0.89104
|  8> H          3.52890        0.23799       -1.32393
|  9> H          3.45469       -0.03240        0.40073
| 10> H          4.99562        0.24661       -0.37434
| 11> *
| 12>
| 13> %MaxCore 64000
| 14> %pal nprocs 8
| 15> end
| 16>
| 17> %scf
| 18>   MaxIter 150
| 19> end
| 20>
| 21>
| 22>                          ****END OF INPUT****

CARTESIAN COORDINATES (ANGSTROEM)
---------------------------------
  C      3.956430    0.501470   -0.379100
  N      3.803890    1.961570   -0.156750
  H      4.206430    2.244410    0.745360
  H      2.808270    2.211320   -0.096100
  H      4.280760    2.501550   -0.891040
  H      3.528900    0.237990   -1.323930
  H      3.454690   -0.032400    0.400730
  H      4.995620    0.246610   -0.374340

 Total Charge           Charge          ....    1
 Multiplicity           Mult            ....    1
 Number of Electrons    NEL             ....   18
 Basis Dimension        Dim             ....   58

ORBITAL ENERGIES
----------------

  NO   OCC          E(Eh)            E(eV)
   0   2.0000     -14.789644      -402.4467
   1   2.0000     -10.546926      -286.9965
   2   2.0000      -1.337210       -36.3873
   3   2.0000      -1.047502       -28.5040
   4   2.0000      -0.919983       -25.0340
   5   2.0000      -0.908508       -24.7218
   6   2.0000      -0.815783       -22.1986
   7   2.0000      -0.725000       -19.7283
   8   2.0000      -0.723244       -19.6805
   9   0.0000      -0.102722        -2.7952
  10   0.0000      -0.034006        -0.9254
  11   0.0000      -0.032178        -0.8756
  12   0.0000      -0.001898        -0.0517
  13   0.0000       0.041378         1.1260

MULLIKEN ATOMIC CHARGES
-----------------------
   0 C :   -0.007635
   1 N :   -0.055194
   2 H :    0.227705
   3 H :    0.231845
   4 H :    0.235090
   5 H :    0.123771
   6 H :    0.121848
   7 H :    0.122571
Sum of atomic charges:    1.0000000

LOEWDIN ATOMIC CHARGES
----------------------
   0 C :    0.067579
   1 N :    0.292904
   2 H :    0.151316
   3 H :    0.152566
   4 H :    0.153160
   5 H :    0.061066
   6 H :    0.060700
   7 H :    0.060710

  Mayer bond orders larger than 0.100000
B(  0-C ,  1-N ) :   0.9358 B(  0-C ,  5-H ) :   0.9723 B(  0-C ,  6-H ) :   0.9725
B(  0-C ,  7-H ) :   0.9728 B(  1-N ,  2-H ) :   0.9333 B(  1-N ,  3-H ) :   0.9319
B(  1-N ,  4-H ) :   0.9302

Dispersion correction           -0.000504075
FINAL SINGLE POINT ENERGY       -96.118634635534

DIPOLE MOMENT
-------------
                                X             Y             Z
Electronic contribution:     -0.11428       1.11088       0.14715
Nuclear contribution   :      0.02154      -0.23654       0.01355
                        -----------------------------------------
Total Dipole Moment    :     -0.09274       0.87435       0.16069
                        -----------------------------------------
Magnitude (a.u.)       :      0.89382
Magnitude (Debye)      :      2.27190

Rotational constants in cm-1:     2.873586     0.687737     0.684128
Rotational constants in MHz : 86147.950763 20617.847271 20509.632222

                             ****ORCA TERMINATED NORMALLY****
TOTAL RUN TIME: 0 days 0 hours 0 minutes 3 seconds 448 msec
