                         Program Version 5.0.0 -  RELEASE  -
|  1> !wB97X-D3 RIJCOSX def2-SVP def2/J TightSCF
|  2> *xyz 0 1
|  3> C          0.69721        3.22791       -0.52513
|  4> F          1.48929        2.37470        0.19919
|  5> H          0.26505        2.70007       -1.34946
|  6> H          1.28994        4.03943       -0.89255
|  7> H         -0.08148        3.61005        0.10138
|  8> *
|  9>
| 10> %MaxCore 64000
| 11> %pal nprocs 8
| 12> end
| 13>
| 14> %scf
| 15>   MaxIter 150
| 16> end
| 17>
| 18>
| 19>                          ****END OF INPUT****

CARTESIAN COORDINATES (ANGSTROEM)
---------------------------------
  C      0.697210    3.227910   -0.525130
  F      1.489290    2.374700    0.199190
  H      0.265050    2.700070   -1.349460
  H      1.289940    4.039430   -0.892550
  H     -0.081480    3.610050    0.101380

 Total Charge           Charge          ....    0
 Multiplicity           Mult            ....    1
 Number of Electrons    NEL             ....   18
 Basis Dimension        Dim             ....   43

ORBITAL ENERGIES
----------------

  NO   OCC          E(Eh)            E(eV)
   0   2.0000     -24.758723      -673.7191
   1   2.0000     -10.351621      -281.6819
   2   2.0000      -1.277238       -34.7554
   3   2.0000      -0.806708       -21.9516
   4   2.0000      -0.582741       -15.8572
   5   2.0000      -0.582726       -15.8568
   6   2.0000      -0.582571       -15.8526
   7   2.0000      -0.435506       -11.8507
   8   2.0000      -0.435497       -11.8505
   9   0.0000       0.165307         4.4982
  10   0.0000       0.218300         5.9403
  11   0.0000       0.225882         6.1466
  12   0.0000       0.225891         6.1468
  13   0.0000       0.544701        14.8221

MULLIKEN ATOMIC CHARGES
-----------------------
   0 C :    0.228748
   1 F :   -0.301249
   2 H :    0.024167
   3 H :    0.024190
   4 H :    0.024144
Sum of atomic charges:   -0.0000000

LOEWDIN ATOMIC CHARGES
----------------------
   0 C :    0.126500
   1 F :   -0.157623
   2 H :    0.010373
   3 H :    0.010379
   4 H :    0.010371

  Mayer bond orders larger than 0.100000
B(  0-C ,  1-F ) :   0.9699 B(  0-C ,  2-H ) :   0.9828 B(  0-C ,  3-H ) :   0.9828
B(  0-C ,  4-H ) :   0.9828

Dispersion correction           -0.000130378
FINAL SINGLE POINT ENERGY      -139.592158404079

DIPOLE MOMENT
-------------
                                X             Y             Z
Electronic contribution:      1.69391      -1.82468       1.54880
Nuclear contribution   :     -2.11402       2.27717      -1.93317
                        -----------------------------------------
Total Dipole Moment    :     -0.42011       0.45249      -0.38437
                        -----------------------------------------
Magnitude (a.u.)       :      0.72731
Magnitude (Debye)      :      1.84867

Rotational constants in cm-1:     5.477728     0.872600     0.872599
Rotational constants in MHz : 164218.159175 26159.886777 26159.859881

                             ****ORCA TERMINATED NORMALLY****
TOTAL RUN TIME: 0 days 0 hours 0 minutes 2 seconds 765 msec
