                         Program Version 5.0.0 -  RELEASE  -
|  1> !wB97X-D3 RIJCOSX def2-SVP def2/J TightSCF
|  2> *xyz 0 1
|  3> C          3.95643        0.50147       -0.37910
|  4> C          3.80389        1.96157       -0.15675
|  5> H          4.20643        2.24441        0.74536
|  6> H          2.80827        2.21132       -0.09610
|  7> H          4.28076        2.50155       -0.89104
|  8> H          3.52890        0.23799       -1.32393
|  9> H          3.45469       -0.03240        0.40073
| 10> H          4.99562        0.24661       -0.37434
| 11> *
| 12>
| 13> %MaxCore 64000
| 14> %pal nprocs 8
| 15> end
| 16>
| 17> %scf
| 18>   MaxIter 150
| 19> end
| 20>
| 21>
| 22>                          ****END OF INPUT****

CARTESIAN COORDINATES (ANGSTROEM)
---------------------------------
  C      3.956430    0.501470   -0.379100
  C      3.803890    1.961570   -0.156750
  H      4.206430    2.244410    0.745360
  H      2.808270    2.211320   -0.096100
  H      4.280760    2.501550   -0.891040
  H      3.528900    0.237990   -1.323930
  H      3.454690   -0.032400    0.400730
  H      4.995620    0.246610   -0.374340

 Total Charge           Charge          ....    0
 Multiplicity           Mult            ....    1
 Number of Electrons    NEL             ....   18
 Basis Dimension        Dim             ....   58

ORBITAL ENERGIES
----------------

  NO   OCC          E(Eh)            E(eV)
   0   2.0000     -10.264678      -279.3161
   1   2.0000     -10.251309      -278.9523
   2   2.0000      -0.877409       -23.8755
   3   2.0000      -0.725024       -19.7289
   4   2.0000      -0.550664       -14.9843
   5   2.0000      -0.543959       -14.8019
   6   2.0000      -0.463314       -12.6074
   7   2.0000      -0.441604       -12.0167
   8   2.0000      -0.435058       -11.8385
   9   0.0000       0.158387         4.3099
  10   0.0000       0.212906         5.7935
  11   0.0000       0.223832         6.0908
  12   0.0000       0.225608         6.1391
  13   0.0000       0.255468         6.9516

MULLIKEN ATOMIC CHARGES
-----------------------
   0 C :   -0.082579
   1 C :   -0.021217
   2 H :    0.005392
   3 H :    0.009125
   4 H :    0.013029
   5 H :    0.026182
   6 H :    0.024909
   7 H :    0.025158
Sum of atomic charges:    0.0000000

LOEWDIN ATOMIC CHARGES
----------------------
   0 C :   -0.057700
   1 C :   -0.051917
   2 H :    0.015260
   3 H :    0.015654
   4 H :    0.015507
   5 H :    0.021067
   6 H :    0.021247
   7 H :    0.020881

  Mayer bond orders larger than 0.100000
B(  0-C ,  1-C ) :   1.1105 B(  0-C ,  5-H ) :   0.9812 B(  0-C ,  6-H ) :   0.9808
B(  0-C ,  7-H ) :   0.9812 B(  1-C ,  2-H ) :   0.9753 B(  1-C ,  3-H ) :   0.9767
B(  1-C ,  4-H ) :   0.9778

Dispersion correction           -0.000493281
FINAL SINGLE POINT ENERGY       -79.732443775914

DIPOLE MOMENT
-------------
                                X             Y             Z
Electronic contribution:      0.00231       0.00796      -0.03665
Nuclear contribution   :     -0.00471       0.01526       0.05114
                        -----------------------------------------
Total Dipole Moment    :     -0.00240       0.02322       0.01448
                        -----------------------------------------
Magnitude (a.u.)       :      0.02747
Magnitude (Debye)      :      0.06982

Rotational constants in cm-1:     2.873610     0.717865     0.713933
Rotational constants in MHz : 86148.646881 21521.066032 21403.176468

                             ****ORCA TERMINATED NORMALLY****
TOTAL RUN TIME: 0 days 0 hours 0 minutes 3 seconds 404 msec
