                         Program Version 5.0.0 -  RELEASE  -
|  1> !wB97X-D3 RIJCOSX def2-TZVPD def2/J TightSCF
|  2> *xyz -1 1
|  3> C          4.93020       -7.37532       -2.64962
|  4> C          3.84189       -6.95161       -3.63283
|  5> H          3.45814       -5.95442       -3.40712
|  6> H          2.98848       -7.64361       -3.56708
|  7> S          4.31812       -6.91593       -5.36869
|  8> O          5.40615       -5.89948       -5.51297
|  9> O          3.11191       -6.44508       -6.04379
| 10> O          4.76340       -8.23942       -5.69863
| 11> H          5.27901       -8.35440       -2.90385
| 12> H          4.53000       -7.38577       -1.65734
| 13> H          5.74437       -6.68276       -2.69856
| 14> *
| 15>
| 16> %MaxCore 64000
| 17>
| 18> %pal nprocs 4
| 19> end
| 20>
| 21> %scf
| 22>   MaxIter 150
| 23> end
| 24>
| 25>
| 26>                          ****END OF INPUT****

CARTESIAN COORDINATES (ANGSTROEM)
---------------------------------
  C      4.930200   -7.375320   -2.649620
  C      3.841890   -6.951610   -3.632830
  H      3.458140   -5.954420   -3.407120
  H      2.988480   -7.643610   -3.567080
  S      4.318120   -6.915930   -5.368690
  O      5.406150   -5.899480   -5.512970
  O      3.111910   -6.445080   -6.043790
  O      4.763400   -8.239420   -5.698630
  H      5.279010   -8.354400   -2.903850
  H      4.530000   -7.385770   -1.657340
  H      5.744370   -6.682760   -2.698560

 Total Charge           Charge          ....   -1
 Multiplicity           Mult            ....    1
 Number of Electrons    NEL             ....   58
 Basis Dimension        Dim             ....  285

ORBITAL ENERGIES
----------------

  NO   OCC          E(Eh)            E(eV)
   0   2.0000     -88.935937     -2420.0699
   1   2.0000     -19.014871      -517.4209
   2   2.0000     -19.005612      -517.1690
   3   2.0000     -18.998220      -516.9679
   4   2.0000     -10.141090      -275.9531
   5   2.0000     -10.131735      -275.6985
   6   2.0000      -7.998648      -217.6543
   7   2.0000      -5.952902      -161.9867
   8   2.0000      -5.951720      -161.9545
   9   2.0000      -5.951336      -161.9441
  10   2.0000      -1.037847       -28.2412
  11   2.0000      -0.908056       -24.7095
  12   2.0000      -0.878695       -23.9105
  13   2.0000      -0.751402       -20.4467
  14   2.0000      -0.620694       -16.8899
  15   2.0000      -0.490271       -13.3410
  16   2.0000      -0.421304       -11.4643
  17   2.0000      -0.417170       -11.3518
  18   2.0000      -0.376386       -10.2420
  19   2.0000      -0.362454        -9.8629
  20   2.0000      -0.353790        -9.6271
  21   2.0000      -0.327468        -8.9108
  22   2.0000      -0.309399        -8.4192
  23   2.0000      -0.248409        -6.7595
  24   2.0000      -0.246869        -6.7177
  25   2.0000      -0.211731        -5.7615
  26   2.0000      -0.200426        -5.4539
  27   2.0000      -0.193847        -5.2748
  28   2.0000      -0.156600        -4.2613
  29   0.0000       0.175092         4.7645
  30   0.0000       0.186050         5.0627
  31   0.0000       0.186841         5.0842
  32   0.0000       0.193751         5.2722
  33   0.0000       0.220030         5.9873

MULLIKEN ATOMIC CHARGES
-----------------------
   0 C :   -1.193775
   1 C :   -0.336814
   2 H :    0.283380
   3 H :    0.275444
   4 S :    1.182346
   5 O :   -0.737725
   6 O :   -0.707432
   7 O :   -0.697005
   8 H :    0.305665
   9 H :    0.317856
  10 H :    0.308060
Sum of atomic charges:   -1.0000000

LOEWDIN ATOMIC CHARGES
----------------------
   0 C :   -0.147481
   1 C :   -0.332904
   2 H :    0.084264
   3 H :    0.087920
   4 S :    0.358795
   5 O :   -0.428562
   6 O :   -0.410301
   7 O :   -0.382226
   8 H :    0.059788
   9 H :    0.049911
  10 H :    0.060796

  Mayer bond orders larger than 0.100000
B(  0-C ,  1-C ) :   0.7346 B(  0-C ,  4-S ) :   0.1064 B(  0-C ,  8-H ) :   0.9702
B(  0-C ,  9-H ) :   0.9232 B(  0-C , 10-H ) :   0.9703 B(  1-C ,  2-H ) :   0.9505
B(  1-C ,  3-H ) :   0.9472 B(  1-C ,  4-S ) :   0.8336 B(  1-C ,  5-O ) :   0.1126
B(  1-C ,  6-O ) :   0.1400 B(  1-C ,  7-O ) :   0.1104 B(  4-S ,  5-O ) :   1.4769
B(  4-S ,  6-O ) :   1.4978 B(  4-S ,  7-O ) :   1.5390

Dispersion correction           -0.002914003
FINAL SINGLE POINT ENERGY      -703.222798655812

DIPOLE MOMENT
-------------
                                X             Y             Z
Electronic contribution:     -0.36843       0.79796      -7.77362
Nuclear contribution   :      0.07504      -1.14369       9.75001
                        -----------------------------------------
Total Dipole Moment    :     -0.29339      -0.34573       1.97639
                        -----------------------------------------
Magnitude (a.u.)       :      2.02774
Magnitude (Debye)      :      5.15409

Rotational constants in cm-1:     0.160553     0.082191     0.080550
Rotational constants in MHz :  4813.250478  2464.013016  2414.833054

                             ****ORCA TERMINATED NORMALLY****
TOTAL RUN TIME: 0 days 0 hours 1 minutes 5 seconds 168 msec
