                         Program Version 5.0.0 -  RELEASE  -
|  1> !wB97X-D3 RIJCOSX def2-TZVPD def2/J TightSCF
|  2> *xyz 1 1
|  3> C          5.55821       -1.99291       -6.21505
|  4> C          4.18188       -2.58967       -6.29891
|  5> N          3.14587       -1.76843       -6.48675
|  6> N          4.01910       -3.86431       -6.22743
|  7> H          4.76849       -4.59115       -5.99077
|  8> H          3.12241       -4.33339       -6.31462
|  9> H          3.28164       -0.77779       -6.56655
| 10> H          2.21255       -2.13419       -6.56225
| 11> C          6.41926       -2.54294       -5.07763
| 12> H          6.03683       -2.19819       -7.17685
| 13> H          5.46761       -0.90737       -6.12797
| 14> H          6.50056       -3.60553       -5.17358
| 15> H          5.96544       -2.30329       -4.13874
| 16> H          7.39438       -2.10494       -5.12457
| 17> *
| 18>
| 19> %MaxCore 64000
| 20>
| 21> %pal nprocs 4
| 22> end
| 23>
| 24> %scf
| 25>   MaxIter 150
| 26> end
| 27>
| 28>
| 29>                          ****END OF INPUT****

CARTESIAN COORDINATES (ANGSTROEM)
---------------------------------
  C      5.558210   -1.992910   -6.215050
  C      4.181880   -2.589670   -6.298910
  N      3.145870   -1.768430   -6.486750
  N      4.019100   -3.864310   -6.227430
  H      4.768490   -4.591150   -5.990770
  H      3.122410   -4.333390   -6.314620
  H      3.281640   -0.777790   -6.566550
  H      2.212550   -2.134190   -6.562250
  C      6.419260   -2.542940   -5.077630
  H      6.036830   -2.198190   -7.176850
  H      5.467610   -0.907370   -6.127970
  H      6.500560   -3.605530   -5.173580
  H      5.965440   -2.303290   -4.138740
  H      7.394380   -2.104940   -5.124570

 Total Charge           Charge          ....    1
 Multiplicity           Mult            ....    1
 Number of Electrons    NEL             ....   40
 Basis Dimension        Dim             ....  266

ORBITAL ENERGIES
----------------

  NO   OCC          E(Eh)            E(eV)
   0   2.0000     -14.672874      -399.2692
   1   2.0000     -14.661041      -398.9472
   2   2.0000     -10.602052      -288.4965
   3   2.0000     -10.473445      -284.9969
   4   2.0000     -10.428160      -283.7647
   5   2.0000      -1.321441       -35.9582
   6   2.0000      -1.221150       -33.2292
   7   2.0000      -1.085124       -29.5277
   8   2.0000      -0.977237       -26.5920
   9   2.0000      -0.923452       -25.1284
  10   2.0000      -0.875796       -23.8316
  11   2.0000      -0.850423       -23.1412
  12   2.0000      -0.795653       -21.6508
  13   2.0000      -0.756607       -20.5883
  14   2.0000      -0.721254       -19.6263
  15   2.0000      -0.702240       -19.1089
  16   2.0000      -0.644189       -17.5293
  17   2.0000      -0.635047       -17.2805
  18   2.0000      -0.618780       -16.8378
  19   2.0000      -0.584623       -15.9084
  20   0.0000      -0.125517        -3.4155
  21   0.0000      -0.093012        -2.5310
  22   0.0000      -0.059387        -1.6160
  23   0.0000      -0.048895        -1.3305
  24   0.0000      -0.026988        -0.7344

MULLIKEN ATOMIC CHARGES
-----------------------
   0 C :   -0.258571
   1 C :    0.747174
   2 N :   -0.388350
   3 N :   -0.376287
   4 H :    0.241753
   5 H :    0.221596
   6 H :    0.246638
   7 H :    0.194720
   8 C :   -1.268491
   9 H :    0.315101
  10 H :    0.286846
  11 H :    0.368531
  12 H :    0.343140
  13 H :    0.326201
Sum of atomic charges:    1.0000000

LOEWDIN ATOMIC CHARGES
----------------------
   0 C :   -0.145299
   1 C :   -0.353866
   2 N :    0.218819
   3 N :    0.213413
   4 H :    0.189633
   5 H :    0.151337
   6 H :    0.138888
   7 H :    0.140136
   8 C :   -0.063024
   9 H :    0.142324
  10 H :    0.126428
  11 H :    0.065239
  12 H :    0.087506
  13 H :    0.088467

  Mayer bond orders larger than 0.100000
B(  0-C ,  1-C ) :   0.8123 B(  0-C ,  8-C ) :   0.6349 B(  0-C ,  9-H ) :   0.8811
B(  0-C , 10-H ) :   0.9391 B(  1-C ,  2-N ) :   1.1488 B(  1-C ,  3-N ) :   1.2297
B(  2-N ,  3-N ) :   0.1030 B(  2-N ,  6-H ) :   0.9537 B(  2-N ,  7-H ) :   1.0585
B(  3-N ,  4-H ) :   0.9389 B(  3-N ,  5-H ) :   1.0128 B(  8-C , 11-H ) :   0.9103
B(  8-C , 12-H ) :   0.9444 B(  8-C , 13-H ) :   0.9663

Dispersion correction           -0.002912194
FINAL SINGLE POINT ENERGY      -229.053821008728

DIPOLE MOMENT
-------------
                                X             Y             Z
Electronic contribution:     -3.77136      -0.47579      -1.56546
Nuclear contribution   :      2.76041       0.12669       1.26265
                        -----------------------------------------
Total Dipole Moment    :     -1.01095      -0.34910      -0.30281
                        -----------------------------------------
Magnitude (a.u.)       :      1.11157
Magnitude (Debye)      :      2.82538

Rotational constants in cm-1:     0.280918     0.124524     0.094121
Rotational constants in MHz :  8421.697738  3733.133254  2821.684112

                             ****ORCA TERMINATED NORMALLY****
TOTAL RUN TIME: 0 days 0 hours 1 minutes 3 seconds 140 msec
