                         Program Version 5.0.0 -  RELEASE  -
|  1> !wB97X-D3 RIJCOSX def2-TZVPD def2/J TightSCF xyzfile
|  2>
|  3> *xyzfile 0 1 B.xyz
|  4>
|  5> %MaxCore 64000
|  6>
|  7> %pal nprocs 18
|  8> end
|  9>
| 10> %scf
| 11>   MaxIter 150
| 12> end
| 13>
| 14>
| 15>                          ****END OF INPUT****

CARTESIAN COORDINATES (ANGSTROEM)
---------------------------------
  C      5.558206   -1.992914   -6.215054
  C      4.930199   -7.375319   -2.649623
  C      3.841892   -6.951611   -3.632829
  H      3.458144   -5.954425   -3.407121
  H      2.988484   -7.643606   -3.567078
  S      4.318115   -6.915930   -5.368692
  C      4.181880   -2.589671   -6.298911
  N      3.145873   -1.768431   -6.486753
  N      4.019102   -3.864307   -6.227427
  H      4.768490   -4.591153   -5.990773
  H      3.122405   -4.333392   -6.314620
  H      3.281635   -0.777786   -6.566549
  H      2.212549   -2.134193   -6.562246
  O      5.406154   -5.899480   -5.512972
  O      3.111910   -6.445079   -6.043792
  C      6.419260   -2.542944   -5.077630
  C      5.872267   -5.002756   -2.427819
  C      6.173994   -6.485522   -2.606315
  H      6.734852   -6.613767   -3.534015
  H      6.821463   -6.831018   -1.793617
  H      4.469612   -7.406168   -1.655876
  H      5.230134   -8.398678   -2.885906
  C      5.896512   -2.169314   -3.694552
  H      7.428880   -2.143665   -5.208078
  H      6.505894   -3.627541   -5.175502
  C      6.807804   -2.623428   -2.551019
  H      4.894708   -2.589732   -3.557501
  H      5.778823   -1.081255   -3.635790
  C      7.111544   -4.122463   -2.520363
  H      7.751615   -2.071393   -2.614406
  H      6.345837   -2.326401   -1.604086
  H      5.362882   -4.828697   -1.471335
  H      5.174429   -4.702577   -3.211298
  H      7.778329   -4.329347   -1.677651
  H      7.673189   -4.402845   -3.417586
  O      4.763396   -8.239424   -5.698629
  H      6.036826   -2.198189   -7.176852
  H      5.467610   -0.907371   -6.127968

 Total Charge           Charge          ....    0
 Multiplicity           Mult            ....    1
 Number of Electrons    NEL             ....  136
 Basis Dimension        Dim             ....  808

ORBITAL ENERGIES
----------------

  NO   OCC          E(Eh)            E(eV)
   0   2.0000     -89.090204     -2424.2677
   1   2.0000     -19.174385      -521.7616
   2   2.0000     -19.163307      -521.4601
   3   2.0000     -19.157031      -521.2893
   4   2.0000     -14.512130      -394.8951
   5   2.0000     -14.474452      -393.8699
   6   2.0000     -10.437813      -284.0273
   7   2.0000     -10.334300      -281.2106
   8   2.0000     -10.300922      -280.3023
   9   2.0000     -10.288890      -279.9749
  10   2.0000     -10.277202      -279.6569
  11   2.0000     -10.269893      -279.4580
  12   2.0000     -10.264723      -279.3173
  13   2.0000     -10.257616      -279.1239
  14   2.0000     -10.256280      -279.0876
  15   2.0000     -10.248916      -278.8872
  16   2.0000      -8.153617      -221.8712
  17   2.0000      -6.107770      -166.2009
  18   2.0000      -6.107022      -166.1805
  19   2.0000      -6.105866      -166.1491
  20   2.0000      -1.197167       -32.5766
  21   2.0000      -1.157743       -31.5038
  22   2.0000      -1.064997       -28.9800
  23   2.0000      -1.056394       -28.7459
  24   2.0000      -1.049411       -28.5559
  25   2.0000      -0.960081       -26.1251
  26   2.0000      -0.924019       -25.1438
  27   2.0000      -0.899744       -24.4833
  28   2.0000      -0.858765       -23.3682
  29   2.0000      -0.822226       -22.3739
  30   2.0000      -0.787923       -21.4405
  31   2.0000      -0.765912       -20.8415
  32   2.0000      -0.738342       -20.0913
  33   2.0000      -0.712551       -19.3895
  34   2.0000      -0.703231       -19.1359
  35   2.0000      -0.685551       -18.6548
  36   2.0000      -0.669723       -18.2241
  37   2.0000      -0.644690       -17.5429
  38   2.0000      -0.618965       -16.8429
  39   2.0000      -0.607107       -16.5202
  40   2.0000      -0.591345       -16.0913
  41   2.0000      -0.575368       -15.6566
  42   2.0000      -0.568040       -15.4572
  43   2.0000      -0.554081       -15.0773
  44   2.0000      -0.547356       -14.8943
  45   2.0000      -0.538739       -14.6598
  46   2.0000      -0.530032       -14.4229
  47   2.0000      -0.524218       -14.2647
  48   2.0000      -0.510480       -13.8909
  49   2.0000      -0.497510       -13.5379
  50   2.0000      -0.493215       -13.4211
  51   2.0000      -0.490780       -13.3548
  52   2.0000      -0.469861       -12.7856
  53   2.0000      -0.463020       -12.5994
  54   2.0000      -0.457001       -12.4356
  55   2.0000      -0.438562       -11.9339
  56   2.0000      -0.428947       -11.6722
  57   2.0000      -0.422996       -11.5103
  58   2.0000      -0.420898       -11.4532
  59   2.0000      -0.411695       -11.2028
  60   2.0000      -0.406253       -11.0547
  61   2.0000      -0.403632       -10.9834
  62   2.0000      -0.395726       -10.7682
  63   2.0000      -0.391857       -10.6630
  64   2.0000      -0.360874        -9.8199
  65   2.0000      -0.358279        -9.7493
  66   2.0000      -0.344860        -9.3841
  67   2.0000      -0.324239        -8.8230
  68   0.0000       0.027433         0.7465
  69   0.0000       0.030878         0.8402
  70   0.0000       0.058622         1.5952
  71   0.0000       0.067320         1.8319
  72   0.0000       0.072684         1.9778

MULLIKEN ATOMIC CHARGES
-----------------------
   0 C :   -0.593747
   1 C :   -0.740925
   2 C :   -0.555057
   3 H :    0.294086
   4 H :    0.411064
   5 S :    1.091491
   6 C :    0.784275
   7 N :   -0.442656
   8 N :   -0.096483
   9 H :    0.051843
  10 H :    0.237080
  11 H :    0.223827
  12 H :    0.190914
  13 O :   -0.830392
  14 O :   -0.801146
  15 C :   -0.402310
  16 C :    0.220763
  17 C :   -0.590049
  18 H :    0.267911
  19 H :    0.366296
  20 H :    0.290492
  21 H :    0.260972
  22 C :   -0.362648
  23 H :    0.325133
  24 H :    0.128392
  25 C :   -0.887272
  26 H :    0.264288
  27 H :    0.318202
  28 C :   -0.585377
  29 H :    0.312345
  30 H :    0.305536
  31 H :    0.336037
  32 H :   -0.398353
  33 H :    0.339015
  34 H :    0.281866
  35 O :   -0.653366
  36 H :    0.310134
  37 H :    0.327819
Sum of atomic charges:   -0.0000000

LOEWDIN ATOMIC CHARGES
----------------------
   0 C :   -0.107740
   1 C :   -0.225747
   2 C :   -0.252387
   3 H :    0.089422
   4 H :    0.107732
   5 S :    0.455310
   6 C :   -0.363083
   7 N :    0.183419
   8 N :    0.224834
   9 H :    0.056875
  10 H :    0.117456
  11 H :    0.119634
  12 H :    0.128270
  13 O :   -0.383511
  14 O :   -0.373423
  15 C :   -0.191088
  16 C :   -0.225164
  17 C :   -0.217189
  18 H :    0.106236
  19 H :    0.115487
  20 H :    0.111179
  21 H :    0.111992
  22 C :   -0.213972
  23 H :    0.126794
  24 H :    0.099763
  25 C :   -0.209017
  26 H :    0.108692
  27 H :    0.113838
  28 C :   -0.212718
  29 H :    0.110646
  30 H :    0.111780
  31 H :    0.127032
  32 H :    0.077364
  33 H :    0.115467
  34 H :    0.112760
  35 O :   -0.312805
  36 H :    0.137514
  37 H :    0.118349

  Mayer bond orders larger than 0.100000
B(  0-C ,  6-C ) :   0.5847 B(  0-C , 15-C ) :   0.7565 B(  0-C , 22-C ) :   0.2221
B(  0-C , 36-H ) :   0.8774 B(  0-C , 37-H ) :   0.9599 B(  1-C ,  2-C ) :   1.1037
B(  1-C ,  5-S ) :   0.2351 B(  1-C , 16-C ) :   0.2854 B(  1-C , 17-C ) :   0.9103
B(  1-C , 20-H ) :   0.9253 B(  1-C , 21-H ) :   0.9241 B(  2-C ,  3-H ) :   0.8923
B(  2-C ,  4-H ) :   0.8071 B(  2-C ,  5-S ) :   0.7882 B(  2-C , 14-O ) :   0.1231
B(  2-C , 32-H ) :   0.1251 B(  2-C , 35-O ) :   0.1453 B(  5-S , 13-O ) :   1.5435
B(  5-S , 14-O ) :   1.3609 B(  5-S , 35-O ) :   1.3887 B(  6-C ,  7-N ) :   0.9993
B(  6-C ,  8-N ) :   1.2387 B(  6-C ,  9-H ) :  -0.1523 B(  6-C , 10-H ) :  -0.1175
B(  6-C , 15-C ) :   0.1161 B(  6-C , 22-C ) :   0.1599 B(  6-C , 37-H ) :  -0.1562
B(  7-N ,  8-N ) :   0.1228 B(  7-N , 11-H ) :   0.9838 B(  7-N , 12-H ) :   1.0541
B(  8-N ,  9-H ) :   0.9207 B(  8-N , 10-H ) :   1.0127 B(  8-N , 13-O ) :  -0.1346
B(  9-H , 13-O ) :   0.1292 B(  9-H , 14-O ) :  -0.1037 B( 13-O , 16-C ) :  -0.1316
B( 13-O , 17-C ) :   0.1366 B( 15-C , 22-C ) :   0.3705 B( 15-C , 23-H ) :   0.7835
B( 15-C , 24-H ) :   1.2471 B( 15-C , 25-C ) :   0.3439 B( 15-C , 26-H ) :  -0.1266
B( 15-C , 28-C ) :   0.1891 B( 16-C , 17-C ) :   0.3749 B( 16-C , 22-C ) :   0.1229
B( 16-C , 25-C ) :   0.3399 B( 16-C , 28-C ) :   0.3477 B( 16-C , 31-H ) :   0.7695
B( 16-C , 32-H ) :   1.4643 B( 17-C , 18-H ) :   0.9097 B( 17-C , 19-H ) :   0.8418
B( 17-C , 28-C ) :   0.6172 B( 17-C , 31-H ) :  -0.1092 B( 22-C , 25-C ) :   0.9590
B( 22-C , 26-H ) :   1.0156 B( 22-C , 27-H ) :   0.8238 B( 25-C , 28-C ) :   0.8625
B( 25-C , 29-H ) :   0.9199 B( 25-C , 30-H ) :   0.9204 B( 28-C , 31-H ) :  -0.1198
B( 28-C , 33-H ) :   0.8834 B( 28-C , 34-H ) :   0.9319

Dispersion correction           -0.020898093
FINAL SINGLE POINT ENERGY     -1127.834665606595

DIPOLE MOMENT
-------------
                                X             Y             Z
Electronic contribution:     -9.19537     -11.40168     -14.18424
Nuclear contribution   :      8.53517      16.50844      14.36520
                        -----------------------------------------
Total Dipole Moment    :     -0.66020       5.10676       0.18096
                        -----------------------------------------
Magnitude (a.u.)       :      5.15244
Magnitude (Debye)      :     13.09645

Rotational constants in cm-1:     0.017951     0.012436     0.008288
Rotational constants in MHz :   538.163255   372.824050   248.467077

                             ****ORCA TERMINATED NORMALLY****
TOTAL RUN TIME: 0 days 0 hours 5 minutes 24 seconds 1 msec
