                         Program Version 5.0.0 -  RELEASE  -
|  1> !wB97X-D3 RIJCOSX def2-TZVPD def2/J TightSCF
|  2> *xyz 0 1
|  3> C          4.93020       -7.37532       -2.64962
|  4> C          3.84189       -6.95161       -3.63283
|  5> H          3.45814       -5.95442       -3.40712
|  6> H          2.98848       -7.64361       -3.56708
|  7> S          4.31812       -6.91593       -5.36869
|  8> F          5.40615       -5.89948       -5.51297
|  9> O          3.11191       -6.44508       -6.04379
| 10> O          4.76340       -8.23942       -5.69863
| 11> H          5.27901       -8.35440       -2.90385
| 12> H          4.53000       -7.38577       -1.65734
| 13> H          5.74437       -6.68276       -2.69856
| 14> *
| 15>
| 16> %MaxCore 64000
| 17>
| 18> %pal nprocs 4
| 19> end
| 20>
| 21> %scf
| 22>   MaxIter 150
| 23> end
| 24>
| 25>
| 26>                          ****END OF INPUT****

CARTESIAN COORDINATES (ANGSTROEM)
---------------------------------
  C      4.930200   -7.375320   -2.649620
  C      3.841890   -6.951610   -3.632830
  H      3.458140   -5.954420   -3.407120
  H      2.988480   -7.643610   -3.567080
  S      4.318120   -6.915930   -5.368690
  F      5.406150   -5.899480   -5.512970
  O      3.111910   -6.445080   -6.043790
  O      4.763400   -8.239420   -5.698630
  H      5.279010   -8.354400   -2.903850
  H      4.530000   -7.385770   -1.657340
  H      5.744370   -6.682760   -2.698560

 Total Charge           Charge          ....    0
 Multiplicity           Mult            ....    1
 Number of Electrons    NEL             ....   58
 Basis Dimension        Dim             ....  285

ORBITAL ENERGIES
----------------

  NO   OCC          E(Eh)            E(eV)
   0   2.0000     -89.195439     -2427.1313
   1   2.0000     -24.884801      -677.1499
   2   2.0000     -19.249272      -523.7993
   3   2.0000     -19.239429      -523.5315
   4   2.0000     -10.341469      -281.4057
   5   2.0000     -10.296306      -280.1767
   6   2.0000      -8.258717      -224.7311
   7   2.0000      -6.216156      -169.1502
   8   2.0000      -6.209982      -168.9822
   9   2.0000      -6.209166      -168.9600
  10   2.0000      -1.460118       -39.7318
  11   2.0000      -1.230095       -33.4726
  12   2.0000      -1.136118       -30.9153
  13   2.0000      -0.941767       -25.6268
  14   2.0000      -0.832233       -22.6462
  15   2.0000      -0.782027       -21.2800
  16   2.0000      -0.682777       -18.5793
  17   2.0000      -0.663947       -18.0669
  18   2.0000      -0.651268       -17.7219
  19   2.0000      -0.596763       -16.2387
  20   2.0000      -0.580774       -15.8037
  21   2.0000      -0.556881       -15.1535
  22   2.0000      -0.534761       -14.5516
  23   2.0000      -0.507088       -13.7986
  24   2.0000      -0.502108       -13.6630
  25   2.0000      -0.477384       -12.9903
  26   2.0000      -0.437984       -11.9181
  27   2.0000      -0.424865       -11.5612
  28   2.0000      -0.415544       -11.3075
  29   0.0000       0.051220         1.3938
  30   0.0000       0.063385         1.7248
  31   0.0000       0.069864         1.9011
  32   0.0000       0.071465         1.9447
  33   0.0000       0.098453         2.6790

MULLIKEN ATOMIC CHARGES
-----------------------
   0 C :   -1.232341
   1 C :   -0.349705
   2 H :    0.353340
   3 H :    0.336327
   4 S :    1.203725
   5 F :   -0.173357
   6 O :   -0.588606
   7 O :   -0.579932
   8 H :    0.346074
   9 H :    0.330640
  10 H :    0.353836
Sum of atomic charges:   -0.0000000

LOEWDIN ATOMIC CHARGES
----------------------
   0 C :   -0.114633
   1 C :   -0.280663
   2 H :    0.102213
   3 H :    0.116760
   4 S :    0.610963
   5 F :   -0.089438
   6 O :   -0.295245
   7 O :   -0.268497
   8 H :    0.073234
   9 H :    0.073988
  10 H :    0.071318

  Mayer bond orders larger than 0.100000
B(  0-C ,  1-C ) :   0.7416 B(  0-C ,  8-H ) :   0.9561 B(  0-C ,  9-H ) :   0.9375
B(  0-C , 10-H ) :   0.9104 B(  1-C ,  2-H ) :   0.8941 B(  1-C ,  3-H ) :   0.8931
B(  1-C ,  4-S ) :   0.8233 B(  1-C ,  6-O ) :   0.1137 B(  4-S ,  5-F ) :   0.9456
B(  4-S ,  6-O ) :   1.6527 B(  4-S ,  7-O ) :   1.6964

Dispersion correction           -0.002870941
FINAL SINGLE POINT ENERGY      -727.758235623319

DIPOLE MOMENT
-------------
                                X             Y             Z
Electronic contribution:      1.31339       2.63632      -8.74620
Nuclear contribution   :     -0.98922      -2.24849      10.35711
                        -----------------------------------------
Total Dipole Moment    :      0.32417       0.38782       1.61091
                        -----------------------------------------
Magnitude (a.u.)       :      1.68835
Magnitude (Debye)      :      4.29143

Rotational constants in cm-1:     0.151436     0.080885     0.078670
Rotational constants in MHz :  4539.936009  2424.868817  2358.476812

                             ****ORCA TERMINATED NORMALLY****
TOTAL RUN TIME: 0 days 0 hours 1 minutes 4 seconds 734 msec
