                         Program Version 5.0.0 -  RELEASE  -
|  1> !wB97X-D3 RIJCOSX def2-TZVPD def2/J TightSCF
|  2> *xyz 0 1
|  3> C          5.55821       -1.99291       -6.21505
|  4> C          4.18188       -2.58967       -6.29891
|  5> C          3.14587       -1.76843       -6.48675
|  6> N          4.01910       -3.86431       -6.22743
|  7> H          4.76849       -4.59115       -5.99077
|  8> H          3.12241       -4.33339       -6.31462
|  9> H          3.28164       -0.77779       -6.56655
| 10> H          2.21255       -2.13419       -6.56225
| 11> C          6.41926       -2.54294       -5.07763
| 12> H          6.03683       -2.19819       -7.17685
| 13> H          5.46761       -0.90737       -6.12797
| 14> H          6.50056       -3.60553       -5.17358
| 15> H          5.96544       -2.30329       -4.13874
| 16> H          7.39438       -2.10494       -5.12457
| 17> *
| 18>
| 19> %MaxCore 64000
| 20>
| 21> %pal nprocs 4
| 22> end
| 23>
| 24> %scf
| 25>   MaxIter 150
| 26> end
| 27>
| 28>
| 29>                          ****END OF INPUT****

CARTESIAN COORDINATES (ANGSTROEM)
---------------------------------
  C      5.558210   -1.992910   -6.215050
  C      4.181880   -2.589670   -6.298910
  C      3.145870   -1.768430   -6.486750
  N      4.019100   -3.864310   -6.227430
  H      4.768490   -4.591150   -5.990770
  H      3.122410   -4.333390   -6.314620
  H      3.281640   -0.777790   -6.566550
  H      2.212550   -2.134190   -6.562250
  C      6.419260   -2.542940   -5.077630
  H      6.036830   -2.198190   -7.176850
  H      5.467610   -0.907370   -6.127970
  H      6.500560   -3.605530   -5.173580
  H      5.965440   -2.303290   -4.138740
  H      7.394380   -2.104940   -5.124570

 Total Charge           Charge          ....    0
 Multiplicity           Mult            ....    1
 Number of Electrons    NEL             ....   40
 Basis Dimension        Dim             ....  266

ORBITAL ENERGIES
----------------

  NO   OCC          E(Eh)            E(eV)
   0   2.0000     -14.429619      -392.6499
   1   2.0000     -10.298631      -280.2400
   2   2.0000     -10.273985      -279.5693
   3   2.0000     -10.261807      -279.2380
   4   2.0000     -10.199855      -277.5522
   5   2.0000      -1.051654       -28.6169
   6   2.0000      -0.894522       -24.3412
   7   2.0000      -0.832277       -22.6474
   8   2.0000      -0.742690       -20.2096
   9   2.0000      -0.688325       -18.7303
  10   2.0000      -0.619706       -16.8631
  11   2.0000      -0.575062       -15.6482
  12   2.0000      -0.543767       -14.7967
  13   2.0000      -0.521622       -14.1941
  14   2.0000      -0.489657       -13.3242
  15   2.0000      -0.479784       -13.0556
  16   2.0000      -0.453142       -12.3306
  17   2.0000      -0.429013       -11.6740
  18   2.0000      -0.422789       -11.5047
  19   2.0000      -0.272329        -7.4104
  20   0.0000       0.065695         1.7876
  21   0.0000       0.090797         2.4707
  22   0.0000       0.092269         2.5108
  23   0.0000       0.104488         2.8433
  24   0.0000       0.122671         3.3380

MULLIKEN ATOMIC CHARGES
-----------------------
   0 C :   -0.172676
   1 C :    0.948667
   2 C :   -1.612124
   3 N :   -0.441585
   4 H :    0.176755
   5 H :    0.176808
   6 H :    0.338227
   7 H :    0.355034
   8 C :   -1.206952
   9 H :    0.257741
  10 H :    0.236072
  11 H :    0.311457
  12 H :    0.314355
  13 H :    0.318221
Sum of atomic charges:    0.0000000

LOEWDIN ATOMIC CHARGES
----------------------
   0 C :   -0.198284
   1 C :   -0.508386
   2 C :    0.017724
   3 N :    0.084719
   4 H :    0.143286
   5 H :    0.116692
   6 H :    0.010916
   7 H :    0.014067
   8 C :   -0.099942
   9 H :    0.117164
  10 H :    0.111171
  11 H :    0.050869
  12 H :    0.074288
  13 H :    0.065715

  Mayer bond orders larger than 0.100000
B(  0-C ,  1-C ) :   0.8987 B(  0-C ,  8-C ) :   0.5642 B(  0-C ,  9-H ) :   0.9019
B(  0-C , 10-H ) :   0.9487 B(  1-C ,  2-C ) :   0.8359 B(  1-C ,  3-N ) :   1.0739
B(  1-C ,  7-H ) :  -0.1281 B(  2-C ,  3-N ) :   0.1240 B(  2-C ,  6-H ) :   0.9119
B(  2-C ,  7-H ) :   0.9856 B(  3-N ,  4-H ) :   0.9961 B(  3-N ,  5-H ) :   1.0120
B(  8-C , 11-H ) :   0.9474 B(  8-C , 12-H ) :   0.9927 B(  8-C , 13-H ) :   0.9616

Dispersion correction           -0.002924704
FINAL SINGLE POINT ENERGY      -212.576821908666

DIPOLE MOMENT
-------------
                                X             Y             Z
Electronic contribution:     -2.02005      -1.06279      -1.02353
Nuclear contribution   :      2.41345       0.31141       1.16343
                        -----------------------------------------
Total Dipole Moment    :      0.39341      -0.75138       0.13990
                        -----------------------------------------
Magnitude (a.u.)       :      0.85960
Magnitude (Debye)      :      2.18492

Rotational constants in cm-1:     0.287957     0.129204     0.097498
Rotational constants in MHz :  8632.737925  3873.424745  2922.919500

                             ****ORCA TERMINATED NORMALLY****
TOTAL RUN TIME: 0 days 0 hours 1 minutes 4 seconds 244 msec
