                         Program Version 5.0.0 -  RELEASE  -
|  1> !wB97X-D3 RIJCOSX def2-TZVPD def2/J TightSCF
|  2> *xyz 0 1
|  3> C          4.93020       -7.37532       -2.64962
|  4> C          3.84189       -6.95161       -3.63283
|  5> H          3.45814       -5.95442       -3.40712
|  6> H          2.98848       -7.64361       -3.56708
|  7> S          4.31812       -6.91593       -5.36869
|  8> O          5.40615       -5.89948       -5.51297
|  9> F          3.11191       -6.44508       -6.04379
| 10> O          4.76340       -8.23942       -5.69863
| 11> H          5.27901       -8.35440       -2.90385
| 12> H          4.53000       -7.38577       -1.65734
| 13> H          5.74437       -6.68276       -2.69856
| 14> *
| 15>
| 16> %MaxCore 64000
| 17>
| 18> %pal nprocs 4
| 19> end
| 20>
| 21> %scf
| 22>   MaxIter 150
| 23> end
| 24>
| 25>
| 26>                          ****END OF INPUT****

CARTESIAN COORDINATES (ANGSTROEM)
---------------------------------
  C      4.930200   -7.375320   -2.649620
  C      3.841890   -6.951610   -3.632830
  H      3.458140   -5.954420   -3.407120
  H      2.988480   -7.643610   -3.567080
  S      4.318120   -6.915930   -5.368690
  O      5.406150   -5.899480   -5.512970
  F      3.111910   -6.445080   -6.043790
  O      4.763400   -8.239420   -5.698630
  H      5.279010   -8.354400   -2.903850
  H      4.530000   -7.385770   -1.657340
  H      5.744370   -6.682760   -2.698560

 Total Charge           Charge          ....    0
 Multiplicity           Mult            ....    1
 Number of Electrons    NEL             ....   58
 Basis Dimension        Dim             ....  285

ORBITAL ENERGIES
----------------

  NO   OCC          E(Eh)            E(eV)
   0   2.0000     -89.197423     -2427.1853
   1   2.0000     -24.900006      -677.5636
   2   2.0000     -19.248783      -523.7860
   3   2.0000     -19.231805      -523.3240
   4   2.0000     -10.342528      -281.4345
   5   2.0000     -10.294802      -280.1358
   6   2.0000      -8.260666      -224.7842
   7   2.0000      -6.218034      -169.2013
   8   2.0000      -6.211738      -169.0300
   9   2.0000      -6.211304      -169.0182
  10   2.0000      -1.487232       -40.4696
  11   2.0000      -1.223557       -33.2947
  12   2.0000      -1.117764       -30.4159
  13   2.0000      -0.941515       -25.6199
  14   2.0000      -0.846146       -23.0248
  15   2.0000      -0.782298       -21.2874
  16   2.0000      -0.686940       -18.6926
  17   2.0000      -0.683634       -18.6026
  18   2.0000      -0.661081       -17.9889
  19   2.0000      -0.598255       -16.2794
  20   2.0000      -0.584785       -15.9128
  21   2.0000      -0.543376       -14.7860
  22   2.0000      -0.529937       -14.4203
  23   2.0000      -0.509416       -13.8619
  24   2.0000      -0.486617       -13.2415
  25   2.0000      -0.484841       -13.1932
  26   2.0000      -0.433402       -11.7935
  27   2.0000      -0.418397       -11.3852
  28   2.0000      -0.402323       -10.9478
  29   0.0000       0.049597         1.3496
  30   0.0000       0.063278         1.7219
  31   0.0000       0.068669         1.8686
  32   0.0000       0.073092         1.9889
  33   0.0000       0.098047         2.6680

MULLIKEN ATOMIC CHARGES
-----------------------
   0 C :   -1.235984
   1 C :   -0.369696
   2 H :    0.354724
   3 H :    0.350485
   4 S :    1.191580
   5 O :   -0.611036
   6 F :   -0.131425
   7 O :   -0.574147
   8 H :    0.349135
   9 H :    0.328847
  10 H :    0.347516
Sum of atomic charges:    0.0000000

LOEWDIN ATOMIC CHARGES
----------------------
   0 C :   -0.103414
   1 C :   -0.288670
   2 H :    0.101077
   3 H :    0.105562
   4 S :    0.610244
   5 O :   -0.313151
   6 F :   -0.069155
   7 O :   -0.270486
   8 H :    0.075592
   9 H :    0.075642
  10 H :    0.076761

  Mayer bond orders larger than 0.100000
B(  0-C ,  1-C ) :   0.8093 B(  0-C ,  4-S ) :   0.1037 B(  0-C ,  8-H ) :   0.9283
B(  0-C ,  9-H ) :   0.9269 B(  0-C , 10-H ) :   0.9324 B(  1-C ,  2-H ) :   0.8723
B(  1-C ,  3-H ) :   0.8709 B(  1-C ,  4-S ) :   0.8240 B(  4-S ,  5-O ) :   1.6252
B(  4-S ,  6-F ) :   0.9805 B(  4-S ,  7-O ) :   1.6959

Dispersion correction           -0.002914899
FINAL SINGLE POINT ENERGY      -727.746923013214

DIPOLE MOMENT
-------------
                                X             Y             Z
Electronic contribution:     -2.59979       1.69864      -9.66304
Nuclear contribution   :      1.40145      -1.67996      10.91024
                        -----------------------------------------
Total Dipole Moment    :     -1.19834       0.01868       1.24720
                        -----------------------------------------
Magnitude (a.u.)       :      1.72970
Magnitude (Debye)      :      4.39656

Rotational constants in cm-1:     0.155875     0.079864     0.077188
Rotational constants in MHz :  4673.017506  2394.277415  2314.027118

                             ****ORCA TERMINATED NORMALLY****
TOTAL RUN TIME: 0 days 0 hours 1 minutes 4 seconds 715 msec
