                         Program Version 5.0.0 -  RELEASE  -
|  1> !wB97X-D3 RIJCOSX def2-TZVPD def2/J TightSCF
|  2> *xyz 0 1
|  3> C          5.55821       -1.99291       -6.21505
|  4> C          4.18188       -2.58967       -6.29891
|  5> N          3.14587       -1.76843       -6.48675
|  6> C          4.01910       -3.86431       -6.22743
|  7> H          4.76849       -4.59115       -5.99077
|  8> H          3.12241       -4.33339       -6.31462
|  9> H          3.28164       -0.77779       -6.56655
| 10> H          2.21255       -2.13419       -6.56225
| 11> C          6.41926       -2.54294       -5.07763
| 12> H          6.03683       -2.19819       -7.17685
| 13> H          5.46761       -0.90737       -6.12797
| 14> H          6.50056       -3.60553       -5.17358
| 15> H          5.96544       -2.30329       -4.13874
| 16> H          7.39438       -2.10494       -5.12457
| 17> *
| 18>
| 19> %MaxCore 64000
| 20>
| 21> %pal nprocs 4
| 22> end
| 23>
| 24> %scf
| 25>   MaxIter 150
| 26> end
| 27>
| 28>
| 29>                          ****END OF INPUT****

CARTESIAN COORDINATES (ANGSTROEM)
---------------------------------
  C      5.558210   -1.992910   -6.215050
  C      4.181880   -2.589670   -6.298910
  N      3.145870   -1.768430   -6.486750
  C      4.019100   -3.864310   -6.227430
  H      4.768490   -4.591150   -5.990770
  H      3.122410   -4.333390   -6.314620
  H      3.281640   -0.777790   -6.566550
  H      2.212550   -2.134190   -6.562250
  C      6.419260   -2.542940   -5.077630
  H      6.036830   -2.198190   -7.176850
  H      5.467610   -0.907370   -6.127970
  H      6.500560   -3.605530   -5.173580
  H      5.965440   -2.303290   -4.138740
  H      7.394380   -2.104940   -5.124570

 Total Charge           Charge          ....    0
 Multiplicity           Mult            ....    1
 Number of Electrons    NEL             ....   40
 Basis Dimension        Dim             ....  266

ORBITAL ENERGIES
----------------

  NO   OCC          E(Eh)            E(eV)
   0   2.0000     -14.418395      -392.3445
   1   2.0000     -10.295893      -280.1655
   2   2.0000     -10.274884      -279.5938
   3   2.0000     -10.255695      -279.0716
   4   2.0000     -10.207241      -277.7531
   5   2.0000      -1.041152       -28.3312
   6   2.0000      -0.898041       -24.4369
   7   2.0000      -0.828296       -22.5391
   8   2.0000      -0.752934       -20.4884
   9   2.0000      -0.663299       -18.0493
  10   2.0000      -0.624738       -17.0000
  11   2.0000      -0.588666       -16.0184
  12   2.0000      -0.548819       -14.9341
  13   2.0000      -0.517232       -14.0746
  14   2.0000      -0.482151       -13.1200
  15   2.0000      -0.468731       -12.7548
  16   2.0000      -0.445541       -12.1238
  17   2.0000      -0.429805       -11.6956
  18   2.0000      -0.421242       -11.4626
  19   2.0000      -0.281150        -7.6505
  20   0.0000       0.070120         1.9081
  21   0.0000       0.090105         2.4519
  22   0.0000       0.094047         2.5591
  23   0.0000       0.105109         2.8602
  24   0.0000       0.124589         3.3902

MULLIKEN ATOMIC CHARGES
-----------------------
   0 C :   -0.173824
   1 C :    1.011337
   2 N :   -0.446868
   3 C :   -1.541977
   4 H :    0.204971
   5 H :    0.323872
   6 H :    0.193460
   7 H :    0.161322
   8 C :   -1.133946
   9 H :    0.254485
  10 H :    0.241207
  11 H :    0.287170
  12 H :    0.306439
  13 H :    0.312353
Sum of atomic charges:   -0.0000000

LOEWDIN ATOMIC CHARGES
----------------------
   0 C :   -0.198461
   1 C :   -0.490795
   2 N :    0.093477
   3 C :   -0.003376
   4 H :    0.054432
   5 H :    0.023876
   6 H :    0.095010
   7 H :    0.106269
   8 C :   -0.097954
   9 H :    0.118671
  10 H :    0.103382
  11 H :    0.056563
  12 H :    0.074521
  13 H :    0.064387

  Mayer bond orders larger than 0.100000
B(  0-C ,  1-C ) :   0.6955 B(  0-C ,  8-C ) :   0.5961 B(  0-C ,  9-H ) :   0.9177
B(  0-C , 10-H ) :   1.0261 B(  1-C ,  2-N ) :   1.0035 B(  1-C ,  3-C ) :   0.8463
B(  1-C ,  5-H ) :  -0.1555 B(  1-C , 10-H ) :  -0.1208 B(  2-N ,  3-C ) :   0.1359
B(  2-N ,  6-H ) :   1.0202 B(  2-N ,  7-H ) :   1.0512 B(  3-C ,  4-H ) :   1.0449
B(  3-C ,  5-H ) :   1.0712 B(  8-C , 11-H ) :   0.9738 B(  8-C , 12-H ) :   0.9838
B(  8-C , 13-H ) :   0.9547

Dispersion correction           -0.002898264
FINAL SINGLE POINT ENERGY      -212.587104573298

DIPOLE MOMENT
-------------
                                X             Y             Z
Electronic contribution:     -2.79093       0.80197      -1.28221
Nuclear contribution   :      2.61570      -0.17401       1.22349
                        -----------------------------------------
Total Dipole Moment    :     -0.17523       0.62796      -0.05872
                        -----------------------------------------
Magnitude (a.u.)       :      0.65459
Magnitude (Debye)      :      1.66383

Rotational constants in cm-1:     0.298189     0.125314     0.096441
Rotational constants in MHz :  8939.495008  3756.825352  2891.223400

                             ****ORCA TERMINATED NORMALLY****
TOTAL RUN TIME: 0 days 0 hours 0 minutes 59 seconds 781 msec
