                         Program Version 5.0.0 -  RELEASE  -
|  1> !wB97X-D3 RIJCOSX def2-TZVPD def2/J TightSCF
|  2> *xyz 0 1
|  3> C          4.93020       -7.37532       -2.64962
|  4> C          3.84189       -6.95161       -3.63283
|  5> H          3.45814       -5.95442       -3.40712
|  6> H          2.98848       -7.64361       -3.56708
|  7> S          4.31812       -6.91593       -5.36869
|  8> O          5.40615       -5.89948       -5.51297
|  9> O          3.11191       -6.44508       -6.04379
| 10> F          4.76340       -8.23942       -5.69863
| 11> H          5.27901       -8.35440       -2.90385
| 12> H          4.53000       -7.38577       -1.65734
| 13> H          5.74437       -6.68276       -2.69856
| 14> *
| 15>
| 16> %MaxCore 64000
| 17>
| 18> %pal nprocs 4
| 19> end
| 20>
| 21> %scf
| 22>   MaxIter 150
| 23> end
| 24>
| 25>
| 26>                          ****END OF INPUT****

CARTESIAN COORDINATES (ANGSTROEM)
---------------------------------
  C      4.930200   -7.375320   -2.649620
  C      3.841890   -6.951610   -3.632830
  H      3.458140   -5.954420   -3.407120
  H      2.988480   -7.643610   -3.567080
  S      4.318120   -6.915930   -5.368690
  O      5.406150   -5.899480   -5.512970
  O      3.111910   -6.445080   -6.043790
  F      4.763400   -8.239420   -5.698630
  H      5.279010   -8.354400   -2.903850
  H      4.530000   -7.385770   -1.657340
  H      5.744370   -6.682760   -2.698560

 Total Charge           Charge          ....    0
 Multiplicity           Mult            ....    1
 Number of Electrons    NEL             ....   58
 Basis Dimension        Dim             ....  285

ORBITAL ENERGIES
----------------

  NO   OCC          E(Eh)            E(eV)
   0   2.0000     -89.198896     -2427.2254
   1   2.0000     -24.913833      -677.9399
   2   2.0000     -19.239930      -523.5451
   3   2.0000     -19.232764      -523.3501
   4   2.0000     -10.342726      -281.4399
   5   2.0000     -10.297427      -280.2072
   6   2.0000      -8.262111      -224.8235
   7   2.0000      -6.219584      -169.2435
   8   2.0000      -6.213019      -169.0648
   9   2.0000      -6.212740      -169.0572
  10   2.0000      -1.509421       -41.0734
  11   2.0000      -1.212101       -32.9829
  12   2.0000      -1.110421       -30.2161
  13   2.0000      -0.944246       -25.6942
  14   2.0000      -0.849630       -23.1196
  15   2.0000      -0.793292       -21.5866
  16   2.0000      -0.708186       -19.2707
  17   2.0000      -0.698188       -18.9987
  18   2.0000      -0.655128       -17.8269
  19   2.0000      -0.596919       -16.2430
  20   2.0000      -0.580210       -15.7883
  21   2.0000      -0.551663       -15.0115
  22   2.0000      -0.530485       -14.4352
  23   2.0000      -0.507194       -13.8014
  24   2.0000      -0.495752       -13.4901
  25   2.0000      -0.472756       -12.8644
  26   2.0000      -0.424149       -11.5417
  27   2.0000      -0.417953       -11.3731
  28   2.0000      -0.396534       -10.7902
  29   0.0000       0.049019         1.3339
  30   0.0000       0.061961         1.6861
  31   0.0000       0.069048         1.8789
  32   0.0000       0.072797         1.9809
  33   0.0000       0.098324         2.6755

MULLIKEN ATOMIC CHARGES
-----------------------
   0 C :   -1.232517
   1 C :   -0.346581
   2 H :    0.337559
   3 H :    0.348063
   4 S :    1.172204
   5 O :   -0.606131
   6 O :   -0.577928
   7 F :   -0.126329
   8 H :    0.355210
   9 H :    0.331293
  10 H :    0.345157
Sum of atomic charges:    0.0000000

LOEWDIN ATOMIC CHARGES
----------------------
   0 C :   -0.114866
   1 C :   -0.281459
   2 H :    0.112316
   3 H :    0.106599
   4 S :    0.608238
   5 O :   -0.310747
   6 O :   -0.294746
   7 F :   -0.043975
   8 H :    0.069945
   9 H :    0.074161
  10 H :    0.074535

  Mayer bond orders larger than 0.100000
B(  0-C ,  1-C ) :   0.7359 B(  0-C ,  8-H ) :   0.9057 B(  0-C ,  9-H ) :   0.9377
B(  0-C , 10-H ) :   0.9621 B(  1-C ,  2-H ) :   0.8985 B(  1-C ,  3-H ) :   0.8937
B(  1-C ,  4-S ) :   0.8284 B(  1-C ,  6-O ) :   0.1142 B(  4-S ,  5-O ) :   1.6396
B(  4-S ,  6-O ) :   1.6643 B(  4-S ,  7-F ) :   1.0149

Dispersion correction           -0.002878280
FINAL SINGLE POINT ENERGY      -727.735398568539

DIPOLE MOMENT
-------------
                                X             Y             Z
Electronic contribution:      0.20579      -1.33357      -9.06437
Nuclear contribution   :     -0.31946       0.18980      10.55057
                        -----------------------------------------
Total Dipole Moment    :     -0.11366      -1.14377       1.48620
                        -----------------------------------------
Magnitude (a.u.)       :      1.87881
Magnitude (Debye)      :      4.77555

Rotational constants in cm-1:     0.151421     0.081183     0.078684
Rotational constants in MHz :  4539.489207  2433.790160  2358.892966

                             ****ORCA TERMINATED NORMALLY****
TOTAL RUN TIME: 0 days 0 hours 1 minutes 4 seconds 872 msec
