                         Program Version 5.0.0 -  RELEASE  -
|  1> !PBE D3BJ RIJCOSX def2-SVPD def2/J TightSCF
|  2> *xyz -1 1
|  3> C          1.36401        0.46874       -2.81376
|  4> C          0.96805        1.63064       -3.71575
|  5> C         -0.50835        1.72268       -4.12430
|  6> S         -1.32861        0.14674       -4.43578
|  7> H         -0.59151        2.29496       -5.04722
|  8> H         -1.11411        2.23561       -3.37436
|  9> O         -2.57135        0.47573       -5.06834
| 10> O         -1.51496       -0.40051       -3.06342
| 11> H          1.57869        1.52065       -4.61273
| 12> H          1.26665        2.57599       -3.25045
| 13> O         -0.37793       -0.62756       -5.20114
| 14> H          1.07115       -0.45339       -3.27071
| 15> H          0.87480        0.56905       -1.86745
| 16> H          2.42423        0.47442       -2.66954
| 17> *
| 18> %MaxCore 64000
| 19>
| 20> %pal nprocs 4
| 21> end
| 22>
| 23> %scf
| 24>   MaxIter 150
| 25> end
| 26>
| 27>
| 28>                          ****END OF INPUT****

CARTESIAN COORDINATES (ANGSTROEM)
---------------------------------
  C      1.364010    0.468740   -2.813760
  C      0.968050    1.630640   -3.715750
  C     -0.508350    1.722680   -4.124300
  S     -1.328610    0.146740   -4.435780
  H     -0.591510    2.294960   -5.047220
  H     -1.114110    2.235610   -3.374360
  O     -2.571350    0.475730   -5.068340
  O     -1.514960   -0.400510   -3.063420
  H      1.578690    1.520650   -4.612730
  H      1.266650    2.575990   -3.250450
  O     -0.377930   -0.627560   -5.201140
  H      1.071150   -0.453390   -3.270710
  H      0.874800    0.569050   -1.867450
  H      2.424230    0.474420   -2.669540

 Total Charge           Charge          ....   -1
 Multiplicity           Mult            ....    1
 Number of Electrons    NEL             ....   66
 Basis Dimension        Dim             ....  212

ORBITAL ENERGIES
----------------

  NO   OCC          E(Eh)            E(eV)
   0   2.0000     -88.057362     -2396.1626
   1   2.0000     -18.552607      -504.8421
   2   2.0000     -18.550769      -504.7921
   3   2.0000     -18.534743      -504.3560
   4   2.0000      -9.763666      -265.6829
   5   2.0000      -9.754611      -265.4365
   6   2.0000      -9.736984      -264.9568
   7   2.0000      -7.661467      -208.4791
   8   2.0000      -5.688539      -154.7930
   9   2.0000      -5.688302      -154.7866
  10   2.0000      -5.687723      -154.7708
  11   2.0000      -0.846508       -23.0347
  12   2.0000      -0.715677       -19.4746
  13   2.0000      -0.685692       -18.6586
  14   2.0000      -0.573137       -15.5959
  15   2.0000      -0.489205       -13.3120
  16   2.0000      -0.400989       -10.9115
  17   2.0000      -0.320003        -8.7077
  18   2.0000      -0.279756        -7.6125
  19   2.0000      -0.267161        -7.2698
  20   2.0000      -0.245992        -6.6938
  21   2.0000      -0.230601        -6.2750
  22   2.0000      -0.211686        -5.7603
  23   2.0000      -0.199320        -5.4238
  24   2.0000      -0.177811        -4.8385
  25   2.0000      -0.172536        -4.6949
  26   2.0000      -0.152496        -4.1496
  27   2.0000      -0.109367        -2.9760
  28   2.0000      -0.105559        -2.8724
  29   2.0000      -0.078322        -2.1313
  30   2.0000      -0.069894        -1.9019
  31   2.0000      -0.055696        -1.5156
  32   2.0000      -0.024707        -0.6723
  33   0.0000       0.121196         3.2979
  34   0.0000       0.148200         4.0327
  35   0.0000       0.154945         4.2163
  36   0.0000       0.158600         4.3157
  37   0.0000       0.181999         4.9524

MULLIKEN ATOMIC CHARGES
-----------------------
   0 C :    0.748810
   1 C :   -0.314500
   2 C :    0.133479
   3 S :    1.125487
   4 H :   -0.062970
   5 H :    0.023799
   6 O :   -0.766781
   7 O :   -0.772720
   8 H :    0.036701
   9 H :   -0.165249
  10 O :   -0.747645
  11 H :   -0.040566
  12 H :   -0.036932
  13 H :   -0.160912
Sum of atomic charges:   -1.0000000

LOEWDIN ATOMIC CHARGES
----------------------
   0 C :    0.105825
   1 C :   -0.096968
   2 C :   -0.093966
   3 S :    0.807187
   4 H :   -0.004708
   5 H :    0.003660
   6 O :   -0.542094
   7 O :   -0.562823
   8 H :    0.012783
   9 H :    0.004698
  10 O :   -0.539955
  11 H :   -0.040237
  12 H :   -0.019065
  13 H :   -0.034336

  Mayer bond orders larger than 0.100000
B(  0-C ,  1-C ) :   1.3768 B(  0-C ,  8-H ) :   0.1049 B(  0-C ,  9-H ) :   0.1146
B(  0-C , 11-H ) :   0.8085 B(  0-C , 12-H ) :   0.7499 B(  0-C , 13-H ) :   0.7283
B(  1-C ,  2-C ) :   1.3027 B(  1-C ,  4-H ) :   0.1562 B(  1-C ,  5-H ) :   0.1484
B(  1-C ,  8-H ) :   0.8508 B(  1-C ,  9-H ) :   0.8639 B(  1-C , 11-H ) :   0.2109
B(  1-C , 12-H ) :   0.2156 B(  1-C , 13-H ) :   0.2501 B(  2-C ,  3-S ) :   0.8751
B(  2-C ,  4-H ) :   0.8970 B(  2-C ,  5-H ) :   0.8950 B(  2-C ,  8-H ) :   0.1213
B(  2-C ,  9-H ) :   0.1318 B(  3-S ,  6-O ) :   1.4109 B(  3-S ,  7-O ) :   1.2975
B(  3-S , 10-O ) :   1.3155

Dispersion correction           -0.013590724
FINAL SINGLE POINT ENERGY      -741.517150175611

DIPOLE MOMENT
-------------
                                X             Y             Z
Electronic contribution:     -8.37322      -4.50185      -4.08621
Nuclear contribution   :      9.76868       5.90538       4.47074
                        -----------------------------------------
Total Dipole Moment    :      1.39546       1.40352       0.38453
                        -----------------------------------------
Magnitude (a.u.)       :      2.01620
Magnitude (Debye)      :      5.12476

Rotational constants in cm-1:     0.135183     0.058485     0.054837
Rotational constants in MHz :  4052.676901  1753.343161  1643.972690

                             ****ORCA TERMINATED NORMALLY****
TOTAL RUN TIME: 0 days 0 hours 0 minutes 9 seconds 49 msec
