                         Program Version 5.0.0 -  RELEASE  -
|  1> !PBE D3BJ RIJCOSX def2-SVPD def2/J TightSCF
|  2> *xyz 1 1
|  3> C          1.36401        0.46874       -2.81376
|  4> N          0.42884        0.32140       -1.65531
|  5> C          0.96805        1.63064       -3.71575
|  6> C         -0.50835        1.72268       -4.12430
|  7> H          0.74858       -0.40054       -1.00134
|  8> H         -0.46105        0.02333       -2.07773
|  9> H          0.31026        1.20137       -1.13495
| 10> H          1.29485       -0.46874       -3.36468
| 11> H          2.37622        0.59740       -2.43149
| 12> H          1.57869        1.52065       -4.61273
| 13> H          1.26665        2.57599       -3.25045
| 14> H         -0.65192        2.57663       -4.75283
| 15> H         -1.11549        1.81835       -3.24844
| 16> H         -0.78702        0.83723       -4.65648
| 17> *
| 18> %MaxCore 64000
| 19>
| 20> %pal nprocs 4
| 21> end
| 22>
| 23> %scf
| 24>   MaxIter 150
| 25> end
| 26>
| 27>
| 28>                          ****END OF INPUT****

CARTESIAN COORDINATES (ANGSTROEM)
---------------------------------
  C      1.364010    0.468740   -2.813760
  N      0.428840    0.321400   -1.655310
  C      0.968050    1.630640   -3.715750
  C     -0.508350    1.722680   -4.124300
  H      0.748580   -0.400540   -1.001340
  H     -0.461050    0.023330   -2.077730
  H      0.310260    1.201370   -1.134950
  H      1.294850   -0.468740   -3.364680
  H      2.376220    0.597400   -2.431490
  H      1.578690    1.520650   -4.612730
  H      1.266650    2.575990   -3.250450
  H     -0.651920    2.576630   -4.752830
  H     -1.115490    1.818350   -3.248440
  H     -0.787020    0.837230   -4.656480

 Total Charge           Charge          ....    1
 Multiplicity           Mult            ....    1
 Number of Electrons    NEL             ....   34
 Basis Dimension        Dim             ....  160

ORBITAL ENERGIES
----------------

  NO   OCC          E(Eh)            E(eV)
   0   2.0000     -14.327426      -389.8691
   1   2.0000     -10.143289      -276.0129
   2   2.0000     -10.076441      -274.1939
   3   2.0000     -10.048468      -273.4327
   4   2.0000      -1.122554       -30.5463
   5   2.0000      -0.897273       -24.4160
   6   2.0000      -0.816205       -22.2101
   7   2.0000      -0.750659       -20.4265
   8   2.0000      -0.740169       -20.1410
   9   2.0000      -0.713471       -19.4145
  10   2.0000      -0.636898       -17.3309
  11   2.0000      -0.590913       -16.0796
  12   2.0000      -0.563584       -15.3359
  13   2.0000      -0.542015       -14.7490
  14   2.0000      -0.492982       -13.4147
  15   2.0000      -0.483121       -13.1464
  16   2.0000      -0.470539       -12.8040
  17   0.0000      -0.212682        -5.7874
  18   0.0000      -0.155766        -4.2386
  19   0.0000      -0.153116        -4.1665
  20   0.0000      -0.141257        -3.8438
  21   0.0000      -0.111360        -3.0303

MULLIKEN ATOMIC CHARGES
-----------------------
   0 C :    0.613597
   1 N :   -0.609493
   2 C :   -0.336506
   3 C :    0.773073
   4 H :    0.268494
   5 H :    0.385167
   6 H :    0.362271
   7 H :   -0.037721
   8 H :   -0.141932
   9 H :   -0.014889
  10 H :   -0.046880
  11 H :   -0.131041
  12 H :   -0.072764
  13 H :   -0.011377
Sum of atomic charges:    1.0000000

LOEWDIN ATOMIC CHARGES
----------------------
   0 C :    0.084820
   1 N :    0.340030
   2 C :   -0.047043
   3 C :    0.149722
   4 H :    0.103377
   5 H :    0.087343
   6 H :    0.108457
   7 H :    0.055320
   8 H :    0.053344
   9 H :    0.045948
  10 H :    0.037871
  11 H :    0.008365
  12 H :   -0.026219
  13 H :   -0.001336

  Mayer bond orders larger than 0.100000
B(  0-C ,  1-N ) :   0.8428 B(  0-C ,  2-C ) :   1.2223 B(  0-C ,  7-H ) :   0.8107
B(  0-C ,  8-H ) :   0.9005 B(  0-C ,  9-H ) :   0.1624 B(  0-C , 10-H ) :   0.1027
B(  1-N ,  4-H ) :   0.8317 B(  1-N ,  5-H ) :   0.7491 B(  1-N ,  6-H ) :   0.7784
B(  1-N ,  7-H ) :   0.1320 B(  2-C ,  3-C ) :   1.3551 B(  2-C ,  7-H ) :   0.1191
B(  2-C ,  9-H ) :   0.8613 B(  2-C , 10-H ) :   0.9208 B(  2-C , 11-H ) :   0.2296
B(  2-C , 12-H ) :   0.1853 B(  2-C , 13-H ) :   0.1986 B(  3-C , 11-H ) :   0.7897
B(  3-C , 12-H ) :   0.8179 B(  3-C , 13-H ) :   0.7911

Dispersion correction           -0.009441492
FINAL SINGLE POINT ENERGY      -174.493395601216

DIPOLE MOMENT
-------------
                                X             Y             Z
Electronic contribution:      0.76311      -1.06424       1.92788
Nuclear contribution   :     -0.79558       0.15863      -0.24664
                        -----------------------------------------
Total Dipole Moment    :     -0.03247      -0.90561       1.68123
                        -----------------------------------------
Magnitude (a.u.)       :      1.90990
Magnitude (Debye)      :      4.85458

Rotational constants in cm-1:     0.425244     0.165801     0.135024
Rotational constants in MHz : 12748.492920  4970.589839  4047.903558

                             ****ORCA TERMINATED NORMALLY****
TOTAL RUN TIME: 0 days 0 hours 0 minutes 4 seconds 938 msec
