                         Program Version 5.0.0 -  RELEASE  -
|  1> !PBE D3BJ RIJCOSX def2-SVPD def2/J TightSCF xyzfile
|  2>
|  3> *xyzfile 0 1 B.xyz
|  4>
|  5> %MaxCore 64000
|  6>
|  7> %pal nprocs 4
|  8> end
|  9>
| 10> %scf
| 11>   MaxIter 150
| 12> end
| 13>
| 14>
| 15>                          ****END OF INPUT****

CARTESIAN COORDINATES (ANGSTROEM)
---------------------------------
  C      1.364014    0.468742   -2.813764
  N      0.428844    0.321402   -1.655312
  C      0.968045    1.630639   -3.715749
  C     -0.508347    1.722679   -4.124300
  S     -1.328608    0.146737   -4.435781
  H     -0.591511    2.294958   -5.047219
  H     -1.114114    2.235610   -3.374362
  H      0.748578   -0.400542   -1.001345
  H     -0.461053    0.023332   -2.077731
  H      0.310258    1.201375   -1.134948
  O     -2.571347    0.475733   -5.068341
  O     -1.514963   -0.400512   -3.063420
  H      1.294847   -0.468742   -3.364684
  H      2.376216    0.597400   -2.431495
  H      1.578688    1.520652   -4.612733
  H      1.266653    2.575988   -3.250448
  O     -0.377928   -0.627558   -5.201141

 Total Charge           Charge          ....    0
 Multiplicity           Mult            ....    1
 Number of Electrons    NEL             ....   74
 Basis Dimension        Dim             ....  248

ORBITAL ENERGIES
----------------

  NO   OCC          E(Eh)            E(eV)
   0   2.0000     -88.222364     -2400.6526
   1   2.0000     -18.722235      -509.4579
   2   2.0000     -18.706379      -509.0265
   3   2.0000     -18.704606      -508.9782
   4   2.0000     -14.132274      -384.5587
   5   2.0000      -9.986956      -271.7589
   6   2.0000      -9.940535      -270.4957
   7   2.0000      -9.917724      -269.8750
   8   2.0000      -7.826248      -212.9630
   9   2.0000      -5.853841      -159.2911
  10   2.0000      -5.852715      -159.2605
  11   2.0000      -5.852371      -159.2511
  12   2.0000      -1.011545       -27.5255
  13   2.0000      -0.943764       -25.6811
  14   2.0000      -0.870199       -23.6793
  15   2.0000      -0.867694       -23.6111
  16   2.0000      -0.750017       -20.4090
  17   2.0000      -0.669624       -18.2214
  18   2.0000      -0.593502       -16.1500
  19   2.0000      -0.570424       -15.5220
  20   2.0000      -0.561892       -15.2899
  21   2.0000      -0.493364       -13.4251
  22   2.0000      -0.474534       -12.9127
  23   2.0000      -0.441462       -12.0128
  24   2.0000      -0.425348       -11.5743
  25   2.0000      -0.414573       -11.2811
  26   2.0000      -0.383535       -10.4365
  27   2.0000      -0.374622       -10.1940
  28   2.0000      -0.360811        -9.8182
  29   2.0000      -0.350849        -9.5471
  30   2.0000      -0.335085        -9.1181
  31   2.0000      -0.276650        -7.5280
  32   2.0000      -0.268301        -7.3008
  33   2.0000      -0.243165        -6.6168
  34   2.0000      -0.231594        -6.3020
  35   2.0000      -0.227085        -6.1793
  36   2.0000      -0.192470        -5.2374
  37   0.0000      -0.063524        -1.7286
  38   0.0000      -0.018057        -0.4913
  39   0.0000      -0.010576        -0.2878
  40   0.0000       0.013762         0.3745
  41   0.0000       0.025359         0.6900

MULLIKEN ATOMIC CHARGES
-----------------------
   0 C :    0.620187
   1 N :   -0.269791
   2 C :    0.223063
   3 C :    0.196686
   4 S :    1.260431
   5 H :   -0.237689
   6 H :    0.119478
   7 H :    0.258101
   8 H :   -0.029623
   9 H :    0.390032
  10 O :   -0.725977
  11 O :   -0.844937
  12 H :    0.085485
  13 H :   -0.322048
  14 H :    0.085070
  15 H :   -0.096751
  16 O :   -0.711717
Sum of atomic charges:    0.0000000

LOEWDIN ATOMIC CHARGES
----------------------
   0 C :    0.086395
   1 N :    0.329934
   2 C :   -0.019405
   3 C :   -0.066045
   4 S :    0.896976
   5 H :    0.017876
   6 H :    0.013462
   7 H :    0.091168
   8 H :   -0.119773
   9 H :    0.093497
  10 O :   -0.475739
  11 O :   -0.488113
  12 H :    0.035394
  13 H :    0.034116
  14 H :    0.041060
  15 H :    0.025124
  16 O :   -0.495925

  Mayer bond orders larger than 0.100000
B(  0-C ,  1-N ) :   0.8998 B(  0-C ,  2-C ) :   1.2384 B(  0-C , 12-H ) :   0.7645
B(  0-C , 13-H ) :   0.8613 B(  0-C , 14-H ) :   0.1658 B(  0-C , 15-H ) :   0.1462
B(  1-N ,  7-H ) :   0.8061 B(  1-N ,  8-H ) :   1.2173 B(  1-N ,  9-H ) :   0.7402
B(  1-N , 12-H ) :   0.1381 B(  1-N , 13-H ) :   0.1171 B(  2-C ,  3-C ) :   1.2877
B(  2-C ,  5-H ) :   0.1739 B(  2-C ,  6-H ) :   0.1221 B(  2-C , 12-H ) :   0.1285
B(  2-C , 14-H ) :   0.7660 B(  2-C , 15-H ) :   0.7827 B(  3-C ,  4-S ) :   0.8760
B(  3-C ,  5-H ) :   0.8697 B(  3-C ,  6-H ) :   0.8602 B(  3-C , 11-O ) :   0.1569
B(  3-C , 14-H ) :   0.1353 B(  4-S , 10-O ) :   1.4665 B(  4-S , 11-O ) :   1.0894
B(  4-S , 16-O ) :   1.3550 B(  8-H , 11-O ) :   0.2518

Dispersion correction           -0.018213013
FINAL SINGLE POINT ENERGY      -797.297536874747

DIPOLE MOMENT
-------------
                                X             Y             Z
Electronic contribution:     -6.97282      -4.17840      -4.35274
Nuclear contribution   :      9.95459       5.57517       7.68169
                        -----------------------------------------
Total Dipole Moment    :      2.98177       1.39677       3.32895
                        -----------------------------------------
Magnitude (a.u.)       :      4.68229
Magnitude (Debye)      :     11.90143

Rotational constants in cm-1:     0.102119     0.045768     0.041299
Rotational constants in MHz :  3061.441288  1372.093000  1238.124534

                             ****ORCA TERMINATED NORMALLY****
TOTAL RUN TIME: 0 days 0 hours 0 minutes 14 seconds 457 msec
