                         Program Version 5.0.0 -  RELEASE  -
|  1> !PBE D3BJ RIJCOSX def2-SVPD def2/J TightSCF
|  2> *xyz 0 1
|  3> C          1.36401        0.46874       -2.81376
|  4> C          0.96805        1.63064       -3.71575
|  5> C         -0.50835        1.72268       -4.12430
|  6> S         -1.32861        0.14674       -4.43578
|  7> H         -0.59151        2.29496       -5.04722
|  8> H         -1.11411        2.23561       -3.37436
|  9> F         -2.57135        0.47573       -5.06834
| 10> O         -1.51496       -0.40051       -3.06342
| 11> H          1.57869        1.52065       -4.61273
| 12> H          1.26665        2.57599       -3.25045
| 13> O         -0.37793       -0.62756       -5.20114
| 14> H          1.07115       -0.45339       -3.27071
| 15> H          0.87480        0.56905       -1.86745
| 16> H          2.42423        0.47442       -2.66954
| 17> *
| 18> %MaxCore 64000
| 19>
| 20> %pal nprocs 4
| 21> end
| 22>
| 23> %scf
| 24>   MaxIter 150
| 25> end
| 26>
| 27>
| 28>                          ****END OF INPUT****

CARTESIAN COORDINATES (ANGSTROEM)
---------------------------------
  C      1.364010    0.468740   -2.813760
  C      0.968050    1.630640   -3.715750
  C     -0.508350    1.722680   -4.124300
  S     -1.328610    0.146740   -4.435780
  H     -0.591510    2.294960   -5.047220
  H     -1.114110    2.235610   -3.374360
  F     -2.571350    0.475730   -5.068340
  O     -1.514960   -0.400510   -3.063420
  H      1.578690    1.520650   -4.612730
  H      1.266650    2.575990   -3.250450
  O     -0.377930   -0.627560   -5.201140
  H      1.071150   -0.453390   -3.270710
  H      0.874800    0.569050   -1.867450
  H      2.424230    0.474420   -2.669540

 Total Charge           Charge          ....    0
 Multiplicity           Mult            ....    1
 Number of Electrons    NEL             ....   66
 Basis Dimension        Dim             ....  212

ORBITAL ENERGIES
----------------

  NO   OCC          E(Eh)            E(eV)
   0   2.0000     -88.310793     -2403.0588
   1   2.0000     -24.393653      -663.7851
   2   2.0000     -18.779999      -511.0298
   3   2.0000     -18.764486      -510.6076
   4   2.0000      -9.952838      -270.8305
   5   2.0000      -9.922445      -270.0035
   6   2.0000      -9.881465      -268.8883
   7   2.0000      -7.915906      -215.4027
   8   2.0000      -5.947095      -161.8287
   9   2.0000      -5.940686      -161.6543
  10   2.0000      -5.939110      -161.6114
  11   2.0000      -1.279996       -34.8305
  12   2.0000      -1.018634       -27.7184
  13   2.0000      -0.916602       -24.9420
  14   2.0000      -0.748811       -20.3762
  15   2.0000      -0.686167       -18.6716
  16   2.0000      -0.641994       -17.4695
  17   2.0000      -0.572678       -15.5834
  18   2.0000      -0.529425       -14.4064
  19   2.0000      -0.518115       -14.0986
  20   2.0000      -0.496489       -13.5101
  21   2.0000      -0.444181       -12.0868
  22   2.0000      -0.433083       -11.7848
  23   2.0000      -0.408316       -11.1108
  24   2.0000      -0.401000       -10.9118
  25   2.0000      -0.374721       -10.1967
  26   2.0000      -0.344059        -9.3623
  27   2.0000      -0.334007        -9.0888
  28   2.0000      -0.321820        -8.7572
  29   2.0000      -0.306925        -8.3518
  30   2.0000      -0.289415        -7.8754
  31   2.0000      -0.274189        -7.4611
  32   2.0000      -0.260705        -7.0942
  33   0.0000      -0.028672        -0.7802
  34   0.0000      -0.008332        -0.2267
  35   0.0000       0.013152         0.3579
  36   0.0000       0.020419         0.5556
  37   0.0000       0.024146         0.6571

MULLIKEN ATOMIC CHARGES
-----------------------
   0 C :    0.776292
   1 C :   -0.295354
   2 C :    0.103255
   3 S :    1.341011
   4 H :   -0.012669
   5 H :    0.073325
   6 F :   -0.408801
   7 O :   -0.637185
   8 H :    0.056867
   9 H :   -0.141860
  10 O :   -0.616866
  11 H :   -0.062597
  12 H :   -0.023934
  13 H :   -0.151485
Sum of atomic charges:   -0.0000000

LOEWDIN ATOMIC CHARGES
----------------------
   0 C :    0.129348
   1 C :   -0.064733
   2 C :   -0.060224
   3 S :    1.072624
   4 H :    0.013365
   5 H :    0.023011
   6 F :   -0.235081
   7 O :   -0.454354
   8 H :    0.029231
   9 H :    0.032996
  10 O :   -0.434417
  11 H :   -0.033884
  12 H :   -0.006855
  13 H :   -0.011027

  Mayer bond orders larger than 0.100000
B(  0-C ,  1-C ) :   1.3939 B(  0-C ,  9-H ) :   0.1083 B(  0-C , 11-H ) :   0.8124
B(  0-C , 12-H ) :   0.7497 B(  0-C , 13-H ) :   0.7261 B(  1-C ,  2-C ) :   1.3603
B(  1-C ,  4-H ) :   0.1632 B(  1-C ,  5-H ) :   0.1389 B(  1-C ,  8-H ) :   0.8439
B(  1-C ,  9-H ) :   0.8558 B(  1-C , 11-H ) :   0.1976 B(  1-C , 12-H ) :   0.2091
B(  1-C , 13-H ) :   0.2389 B(  2-C ,  3-S ) :   0.9198 B(  2-C ,  4-H ) :   0.8571
B(  2-C ,  5-H ) :   0.8833 B(  2-C ,  8-H ) :   0.1248 B(  2-C ,  9-H ) :   0.1274
B(  3-S ,  6-F ) :   0.7371 B(  3-S ,  7-O ) :   1.4845 B(  3-S , 10-O ) :   1.4988

Dispersion correction           -0.013165486
FINAL SINGLE POINT ENERGY      -765.984431674747

DIPOLE MOMENT
-------------
                                X             Y             Z
Electronic contribution:    -11.75024      -4.36799      -5.79080
Nuclear contribution   :     11.77809       5.83971       5.48704
                        -----------------------------------------
Total Dipole Moment    :      0.02785       1.47172      -0.30376
                        -----------------------------------------
Magnitude (a.u.)       :      1.50300
Magnitude (Debye)      :      3.82032

Rotational constants in cm-1:     0.133968     0.056186     0.052650
Rotational constants in MHz :  4016.256208  1684.422248  1578.415210

                             ****ORCA TERMINATED NORMALLY****
TOTAL RUN TIME: 0 days 0 hours 0 minutes 7 seconds 909 msec
