                         Program Version 5.0.0 -  RELEASE  -
|  1> !PBE D3BJ RIJCOSX def2-SVPD def2/J TightSCF
|  2> *xyz 0 1
|  3> C          1.36401        0.46874       -2.81376
|  4> C          0.42884        0.32140       -1.65531
|  5> C          0.96805        1.63064       -3.71575
|  6> C         -0.50835        1.72268       -4.12430
|  7> H          0.74858       -0.40054       -1.00134
|  8> H         -0.46105        0.02333       -2.07773
|  9> H          0.31026        1.20137       -1.13495
| 10> H          1.29485       -0.46874       -3.36468
| 11> H          2.37622        0.59740       -2.43149
| 12> H          1.57869        1.52065       -4.61273
| 13> H          1.26665        2.57599       -3.25045
| 14> H         -0.65192        2.57663       -4.75283
| 15> H         -1.11549        1.81835       -3.24844
| 16> H         -0.78702        0.83723       -4.65648
| 17> *
| 18> %MaxCore 64000
| 19>
| 20> %pal nprocs 4
| 21> end
| 22>
| 23> %scf
| 24>   MaxIter 150
| 25> end
| 26>
| 27>
| 28>                          ****END OF INPUT****

CARTESIAN COORDINATES (ANGSTROEM)
---------------------------------
  C      1.364010    0.468740   -2.813760
  C      0.428840    0.321400   -1.655310
  C      0.968050    1.630640   -3.715750
  C     -0.508350    1.722680   -4.124300
  H      0.748580   -0.400540   -1.001340
  H     -0.461050    0.023330   -2.077730
  H      0.310260    1.201370   -1.134950
  H      1.294850   -0.468740   -3.364680
  H      2.376220    0.597400   -2.431490
  H      1.578690    1.520650   -4.612730
  H      1.266650    2.575990   -3.250450
  H     -0.651920    2.576630   -4.752830
  H     -1.115490    1.818350   -3.248440
  H     -0.787020    0.837230   -4.656480

 Total Charge           Charge          ....    0
 Multiplicity           Mult            ....    1
 Number of Electrons    NEL             ....   34
 Basis Dimension        Dim             ....  160

ORBITAL ENERGIES
----------------

  NO   OCC          E(Eh)            E(eV)
   0   2.0000      -9.886224      -269.0178
   1   2.0000      -9.882851      -268.9260
   2   2.0000      -9.877067      -268.7687
   3   2.0000      -9.857934      -268.2480
   4   2.0000      -0.723038       -19.6749
   5   2.0000      -0.652634       -17.7591
   6   2.0000      -0.578260       -15.7353
   7   2.0000      -0.499298       -13.5866
   8   2.0000      -0.420521       -11.4430
   9   2.0000      -0.412646       -11.2287
  10   2.0000      -0.378392       -10.2966
  11   2.0000      -0.343161        -9.3379
  12   2.0000      -0.339984        -9.2514
  13   2.0000      -0.321823        -8.7572
  14   2.0000      -0.286821        -7.8048
  15   2.0000      -0.278093        -7.5673
  16   2.0000      -0.275891        -7.5074
  17   0.0000       0.006291         0.1712
  18   0.0000       0.034331         0.9342
  19   0.0000       0.037624         1.0238
  20   0.0000       0.046331         1.2607
  21   0.0000       0.075448         2.0530

MULLIKEN ATOMIC CHARGES
-----------------------
   0 C :   -0.285466
   1 C :    1.003783
   2 C :   -0.339896
   3 C :    0.685303
   4 H :   -0.369565
   5 H :   -0.064745
   6 H :   -0.164970
   7 H :   -0.009967
   8 H :   -0.142957
   9 H :   -0.096797
  10 H :   -0.009112
  11 H :   -0.159333
  12 H :   -0.025168
  13 H :   -0.021110
Sum of atomic charges:    0.0000000

LOEWDIN ATOMIC CHARGES
----------------------
   0 C :   -0.081470
   1 C :    0.119499
   2 C :   -0.083491
   3 C :    0.123576
   4 H :   -0.034724
   5 H :   -0.038624
   6 H :   -0.024113
   7 H :    0.024866
   8 H :    0.021461
   9 H :    0.013000
  10 H :    0.022113
  11 H :   -0.019816
  12 H :   -0.027629
  13 H :   -0.014648

  Mayer bond orders larger than 0.100000
B(  0-C ,  1-C ) :   1.3237 B(  0-C ,  2-C ) :   1.2227 B(  0-C ,  4-H ) :   0.2466
B(  0-C ,  5-H ) :   0.2712 B(  0-C ,  6-H ) :   0.2460 B(  0-C ,  7-H ) :   0.8305
B(  0-C ,  8-H ) :   0.9234 B(  0-C ,  9-H ) :   0.1513 B(  0-C , 10-H ) :   0.1354
B(  1-C ,  4-H ) :   0.6905 B(  1-C ,  5-H ) :   0.7284 B(  1-C ,  6-H ) :   0.7061
B(  1-C ,  7-H ) :   0.1367 B(  2-C ,  3-C ) :   1.3541 B(  2-C ,  7-H ) :   0.1412
B(  2-C ,  9-H ) :   0.9024 B(  2-C , 10-H ) :   0.8870 B(  2-C , 11-H ) :   0.2379
B(  2-C , 12-H ) :   0.1915 B(  2-C , 13-H ) :   0.2010 B(  3-C ,  9-H ) :   0.1004
B(  3-C , 11-H ) :   0.7695 B(  3-C , 12-H ) :   0.8320 B(  3-C , 13-H ) :   0.7964

Dispersion correction           -0.009450420
FINAL SINGLE POINT ENERGY      -158.096255340743

DIPOLE MOMENT
-------------
                                X             Y             Z
Electronic contribution:      0.84601       0.05419      -0.18877
Nuclear contribution   :     -0.83100      -0.05970       0.18742
                        -----------------------------------------
Total Dipole Moment    :      0.01500      -0.00550      -0.00136
                        -----------------------------------------
Magnitude (a.u.)       :      0.01604
Magnitude (Debye)      :      0.04077

Rotational constants in cm-1:     0.433656     0.172838     0.140497
Rotational constants in MHz : 13000.688694  5181.547473  4211.992439

                             ****ORCA TERMINATED NORMALLY****
TOTAL RUN TIME: 0 days 0 hours 0 minutes 4 seconds 895 msec
