                         Program Version 5.0.0 -  RELEASE  -
|  1> !PBE D3BJ RIJCOSX def2-SVPD def2/J TightSCF
|  2> *xyz 0 1
|  3> C          1.36401        0.46874       -2.81376
|  4> C          0.96805        1.63064       -3.71575
|  5> C         -0.50835        1.72268       -4.12430
|  6> S         -1.32861        0.14674       -4.43578
|  7> H         -0.59151        2.29496       -5.04722
|  8> H         -1.11411        2.23561       -3.37436
|  9> O         -2.57135        0.47573       -5.06834
| 10> F         -1.51496       -0.40051       -3.06342
| 11> H          1.57869        1.52065       -4.61273
| 12> H          1.26665        2.57599       -3.25045
| 13> O         -0.37793       -0.62756       -5.20114
| 14> H          1.07115       -0.45339       -3.27071
| 15> H          0.87480        0.56905       -1.86745
| 16> H          2.42423        0.47442       -2.66954
| 17> *
| 18> %MaxCore 64000
| 19>
| 20> %pal nprocs 4
| 21> end
| 22>
| 23> %scf
| 24>   MaxIter 150
| 25> end
| 26>
| 27>
| 28>                          ****END OF INPUT****

CARTESIAN COORDINATES (ANGSTROEM)
---------------------------------
  C      1.364010    0.468740   -2.813760
  C      0.968050    1.630640   -3.715750
  C     -0.508350    1.722680   -4.124300
  S     -1.328610    0.146740   -4.435780
  H     -0.591510    2.294960   -5.047220
  H     -1.114110    2.235610   -3.374360
  O     -2.571350    0.475730   -5.068340
  F     -1.514960   -0.400510   -3.063420
  H      1.578690    1.520650   -4.612730
  H      1.266650    2.575990   -3.250450
  O     -0.377930   -0.627560   -5.201140
  H      1.071150   -0.453390   -3.270710
  H      0.874800    0.569050   -1.867450
  H      2.424230    0.474420   -2.669540

 Total Charge           Charge          ....    0
 Multiplicity           Mult            ....    1
 Number of Electrons    NEL             ....   66
 Basis Dimension        Dim             ....  212

ORBITAL ENERGIES
----------------

  NO   OCC          E(Eh)            E(eV)
   0   2.0000     -88.307593     -2402.9718
   1   2.0000     -24.365961      -663.0315
   2   2.0000     -18.782021      -511.0848
   3   2.0000     -18.778709      -510.9947
   4   2.0000      -9.951946      -270.8062
   5   2.0000      -9.923713      -270.0380
   6   2.0000      -9.894705      -269.2486
   7   2.0000      -7.912727      -215.3163
   8   2.0000      -5.943731      -161.7371
   9   2.0000      -5.937746      -161.5743
  10   2.0000      -5.936110      -161.5298
  11   2.0000      -1.233991       -33.5786
  12   2.0000      -1.031513       -28.0689
  13   2.0000      -0.941709       -25.6252
  14   2.0000      -0.752739       -20.4831
  15   2.0000      -0.678408       -18.4604
  16   2.0000      -0.631956       -17.1964
  17   2.0000      -0.571658       -15.5556
  18   2.0000      -0.505738       -13.7618
  19   2.0000      -0.498768       -13.5722
  20   2.0000      -0.491658       -13.3787
  21   2.0000      -0.449041       -12.2190
  22   2.0000      -0.427063       -11.6210
  23   2.0000      -0.411799       -11.2056
  24   2.0000      -0.403665       -10.9843
  25   2.0000      -0.388676       -10.5764
  26   2.0000      -0.352249        -9.5852
  27   2.0000      -0.339882        -9.2487
  28   2.0000      -0.335621        -9.1327
  29   2.0000      -0.313538        -8.5318
  30   2.0000      -0.298818        -8.1312
  31   2.0000      -0.287719        -7.8292
  32   2.0000      -0.277308        -7.5459
  33   0.0000      -0.026860        -0.7309
  34   0.0000      -0.003592        -0.0977
  35   0.0000       0.009573         0.2605
  36   0.0000       0.017215         0.4684
  37   0.0000       0.025056         0.6818

MULLIKEN ATOMIC CHARGES
-----------------------
   0 C :    0.759238
   1 C :   -0.245722
   2 C :    0.113821
   3 S :    1.296069
   4 H :   -0.021253
   5 H :    0.067177
   6 O :   -0.632300
   7 F :   -0.366407
   8 H :    0.060427
   9 H :   -0.138159
  10 O :   -0.626365
  11 H :   -0.084199
  12 H :   -0.038450
  13 H :   -0.143877
Sum of atomic charges:   -0.0000000

LOEWDIN ATOMIC CHARGES
----------------------
   0 C :    0.124609
   1 C :   -0.074482
   2 C :   -0.048581
   3 S :    1.062694
   4 H :    0.028676
   5 H :    0.022363
   6 O :   -0.428949
   7 F :   -0.256993
   8 H :    0.029978
   9 H :    0.029843
  10 O :   -0.431540
  11 H :   -0.038240
  12 H :   -0.010638
  13 H :   -0.008741

  Mayer bond orders larger than 0.100000
B(  0-C ,  1-C ) :   1.3914 B(  0-C ,  8-H ) :   0.1019 B(  0-C ,  9-H ) :   0.1061
B(  0-C , 11-H ) :   0.8215 B(  0-C , 12-H ) :   0.7517 B(  0-C , 13-H ) :   0.7389
B(  1-C ,  2-C ) :   1.3437 B(  1-C ,  4-H ) :   0.1443 B(  1-C ,  5-H ) :   0.1401
B(  1-C ,  8-H ) :   0.8488 B(  1-C ,  9-H ) :   0.8540 B(  1-C , 11-H ) :   0.1942
B(  1-C , 12-H ) :   0.2065 B(  1-C , 13-H ) :   0.2358 B(  2-C ,  3-S ) :   0.9425
B(  2-C ,  4-H ) :   0.8794 B(  2-C ,  5-H ) :   0.8901 B(  2-C ,  8-H ) :   0.1274
B(  2-C ,  9-H ) :   0.1181 B(  3-S ,  6-O ) :   1.6093 B(  3-S ,  7-F ) :   0.6483
B(  3-S , 10-O ) :   1.5345

Dispersion correction           -0.013053035
FINAL SINGLE POINT ENERGY      -766.008059132227

DIPOLE MOMENT
-------------
                                X             Y             Z
Electronic contribution:     -9.92587      -5.82860      -2.40179
Nuclear contribution   :     10.64200       6.78206       3.33086
                        -----------------------------------------
Total Dipole Moment    :      0.71613       0.95346       0.92908
                        -----------------------------------------
Magnitude (a.u.)       :      1.51166
Magnitude (Debye)      :      3.84233

Rotational constants in cm-1:     0.128573     0.057881     0.053975
Rotational constants in MHz :  3854.523324  1735.233387  1618.120420

                             ****ORCA TERMINATED NORMALLY****
TOTAL RUN TIME: 0 days 0 hours 0 minutes 8 seconds 467 msec
