                         Program Version 5.0.0 -  RELEASE  -
|  1> !PBE D3BJ RIJCOSX def2-SVPD def2/J TightSCF
|  2> *xyz 0 1
|  3> C          1.36401        0.46874       -2.81376
|  4> C          0.96805        1.63064       -3.71575
|  5> C         -0.50835        1.72268       -4.12430
|  6> S         -1.32861        0.14674       -4.43578
|  7> H         -0.59151        2.29496       -5.04722
|  8> H         -1.11411        2.23561       -3.37436
|  9> O         -2.57135        0.47573       -5.06834
| 10> O         -1.51496       -0.40051       -3.06342
| 11> H          1.57869        1.52065       -4.61273
| 12> H          1.26665        2.57599       -3.25045
| 13> F         -0.37793       -0.62756       -5.20114
| 14> H          1.07115       -0.45339       -3.27071
| 15> H          0.87480        0.56905       -1.86745
| 16> H          2.42423        0.47442       -2.66954
| 17> *
| 18> %MaxCore 64000
| 19>
| 20> %pal nprocs 4
| 21> end
| 22>
| 23> %scf
| 24>   MaxIter 150
| 25> end
| 26>
| 27>
| 28>                          ****END OF INPUT****

CARTESIAN COORDINATES (ANGSTROEM)
---------------------------------
  C      1.364010    0.468740   -2.813760
  C      0.968050    1.630640   -3.715750
  C     -0.508350    1.722680   -4.124300
  S     -1.328610    0.146740   -4.435780
  H     -0.591510    2.294960   -5.047220
  H     -1.114110    2.235610   -3.374360
  O     -2.571350    0.475730   -5.068340
  O     -1.514960   -0.400510   -3.063420
  H      1.578690    1.520650   -4.612730
  H      1.266650    2.575990   -3.250450
  F     -0.377930   -0.627560   -5.201140
  H      1.071150   -0.453390   -3.270710
  H      0.874800    0.569050   -1.867450
  H      2.424230    0.474420   -2.669540

 Total Charge           Charge          ....    0
 Multiplicity           Mult            ....    1
 Number of Electrons    NEL             ....   66
 Basis Dimension        Dim             ....  212

ORBITAL ENERGIES
----------------

  NO   OCC          E(Eh)            E(eV)
   0   2.0000     -88.309555     -2403.0251
   1   2.0000     -24.388587      -663.6472
   2   2.0000     -18.782065      -511.0860
   3   2.0000     -18.762949      -510.5658
   4   2.0000      -9.952438      -270.8196
   5   2.0000      -9.926530      -270.1146
   6   2.0000      -9.893545      -269.2170
   7   2.0000      -7.914658      -215.3688
   8   2.0000      -5.946033      -161.7998
   9   2.0000      -5.939350      -161.6179
  10   2.0000      -5.937810      -161.5760
  11   2.0000      -1.270429       -34.5701
  12   2.0000      -1.022644       -27.8276
  13   2.0000      -0.918336       -24.9892
  14   2.0000      -0.754148       -20.5214
  15   2.0000      -0.682613       -18.5748
  16   2.0000      -0.645257       -17.5583
  17   2.0000      -0.575218       -15.6525
  18   2.0000      -0.527208       -14.3461
  19   2.0000      -0.523552       -14.2466
  20   2.0000      -0.487703       -13.2711
  21   2.0000      -0.445694       -12.1280
  22   2.0000      -0.430520       -11.7151
  23   2.0000      -0.416128       -11.3234
  24   2.0000      -0.398535       -10.8447
  25   2.0000      -0.384782       -10.4705
  26   2.0000      -0.344942        -9.3863
  27   2.0000      -0.340951        -9.2778
  28   2.0000      -0.337928        -9.1955
  29   2.0000      -0.313239        -8.5237
  30   2.0000      -0.291241        -7.9251
  31   2.0000      -0.274512        -7.4698
  32   2.0000      -0.260067        -7.0768
  33   0.0000      -0.033234        -0.9043
  34   0.0000      -0.000976        -0.0266
  35   0.0000       0.010584         0.2880
  36   0.0000       0.018517         0.5039
  37   0.0000       0.022051         0.6000

MULLIKEN ATOMIC CHARGES
-----------------------
   0 C :    0.801258
   1 C :   -0.277883
   2 C :    0.130724
   3 S :    1.282190
   4 H :   -0.025517
   5 H :    0.068751
   6 O :   -0.622666
   7 O :   -0.638203
   8 H :    0.035559
   9 H :   -0.144393
  10 F :   -0.357181
  11 H :   -0.076807
  12 H :   -0.028114
  13 H :   -0.147719
Sum of atomic charges:   -0.0000000

LOEWDIN ATOMIC CHARGES
----------------------
   0 C :    0.124467
   1 C :   -0.079235
   2 C :   -0.047111
   3 S :    1.065381
   4 H :    0.016857
   5 H :    0.036365
   6 O :   -0.428792
   7 O :   -0.452516
   8 H :    0.023567
   9 H :    0.031069
  10 F :   -0.238166
  11 H :   -0.037633
  12 H :   -0.003708
  13 H :   -0.010544

  Mayer bond orders larger than 0.100000
B(  0-C ,  1-C ) :   1.3888 B(  0-C ,  9-H ) :   0.1066 B(  0-C , 11-H ) :   0.8125
B(  0-C , 12-H ) :   0.7535 B(  0-C , 13-H ) :   0.7249 B(  1-C ,  2-C ) :   1.3157
B(  1-C ,  4-H ) :   0.1508 B(  1-C ,  5-H ) :   0.1455 B(  1-C ,  8-H ) :   0.8554
B(  1-C ,  9-H ) :   0.8590 B(  1-C , 11-H ) :   0.1996 B(  1-C , 12-H ) :   0.2161
B(  1-C , 13-H ) :   0.2395 B(  2-C ,  3-S ) :   0.9496 B(  2-C ,  4-H ) :   0.8919
B(  2-C ,  5-H ) :   0.8810 B(  2-C ,  8-H ) :   0.1185 B(  2-C ,  9-H ) :   0.1288
B(  3-S ,  6-O ) :   1.6105 B(  3-S ,  7-O ) :   1.5152 B(  3-S , 10-F ) :   0.6971

Dispersion correction           -0.013050410
FINAL SINGLE POINT ENERGY      -765.988011594388

DIPOLE MOMENT
-------------
                                X             Y             Z
Electronic contribution:     -8.02950      -6.18992      -5.96248
Nuclear contribution   :      9.41919       7.02624       5.62986
                        -----------------------------------------
Total Dipole Moment    :      1.38969       0.83632      -0.33262
                        -----------------------------------------
Magnitude (a.u.)       :      1.65569
Magnitude (Debye)      :      4.20842

Rotational constants in cm-1:     0.128702     0.057313     0.054552
Rotational constants in MHz :  3858.395793  1718.208003  1635.420361

                             ****ORCA TERMINATED NORMALLY****
TOTAL RUN TIME: 0 days 0 hours 0 minutes 9 seconds 78 msec
