                         Program Version 5.0.0 -  RELEASE  -
|  1> !PBE D3BJ RIJCOSX def2-SVPD def2/J TightSCF xyzfile
|  2>
|  3> *xyzfile 0 1 D2.xyz
|  4>
|  5> %MaxCore 64000
|  6>
|  7> %pal nprocs 4
|  8> end
|  9>
| 10> %scf
| 11>   MaxIter 150
| 12> end
| 13>
| 14>
| 15>                          ****END OF INPUT****

CARTESIAN COORDINATES (ANGSTROEM)
---------------------------------
  C      1.364014    0.468742   -2.813764
  C      0.428844    0.321402   -1.655312
  C      0.968045    1.630639   -3.715749
  C     -0.508347    1.722679   -4.124300
  S     -1.328608    0.146737   -4.435781
  H     -0.591511    2.294958   -5.047219
  H     -1.114114    2.235610   -3.374362
  H      0.748578   -0.400542   -1.001345
  H     -0.461053    0.023332   -2.077731
  H      0.310258    1.201375   -1.134948
  O     -2.571347    0.475733   -5.068341
  F     -1.514963   -0.400512   -3.063420
  H      1.294847   -0.468742   -3.364684
  H      2.376216    0.597400   -2.431495
  H      1.578688    1.520652   -4.612733
  H      1.266653    2.575988   -3.250448
  O     -0.377928   -0.627558   -5.201141

 Total Charge           Charge          ....    0
 Multiplicity           Mult            ....    1
 Number of Electrons    NEL             ....   74
 Basis Dimension        Dim             ....  248

ORBITAL ENERGIES
----------------

  NO   OCC          E(Eh)            E(eV)
   0   2.0000     -88.311693     -2403.0833
   1   2.0000     -24.373805      -663.2449
   2   2.0000     -18.785145      -511.1698
   3   2.0000     -18.781950      -511.0829
   4   2.0000      -9.953753      -270.8554
   5   2.0000      -9.919969      -269.9361
   6   2.0000      -9.897614      -269.3278
   7   2.0000      -9.857153      -268.2268
   8   2.0000      -7.916675      -215.4237
   9   2.0000      -5.947866      -161.8497
  10   2.0000      -5.941625      -161.6798
  11   2.0000      -5.939925      -161.6336
  12   2.0000      -1.247794       -33.9542
  13   2.0000      -1.036030       -28.1918
  14   2.0000      -0.944752       -25.7080
  15   2.0000      -0.760519       -20.6948
  16   2.0000      -0.706413       -19.2225
  17   2.0000      -0.649131       -17.6638
  18   2.0000      -0.627903       -17.0861
  19   2.0000      -0.541009       -14.7216
  20   2.0000      -0.525516       -14.3000
  21   2.0000      -0.508234       -13.8298
  22   2.0000      -0.493024       -13.4159
  23   2.0000      -0.449614       -12.2346
  24   2.0000      -0.433382       -11.7929
  25   2.0000      -0.428780       -11.6677
  26   2.0000      -0.411620       -11.2007
  27   2.0000      -0.385665       -10.4945
  28   2.0000      -0.371125       -10.0988
  29   2.0000      -0.359409        -9.7800
  30   2.0000      -0.350043        -9.5251
  31   2.0000      -0.314130        -8.5479
  32   2.0000      -0.307186        -8.3590
  33   2.0000      -0.301346        -8.2000
  34   2.0000      -0.292728        -7.9655
  35   2.0000      -0.286279        -7.7901
  36   2.0000      -0.275410        -7.4943
  37   0.0000      -0.027626        -0.7517
  38   0.0000      -0.004894        -0.1332
  39   0.0000       0.007083         0.1927
  40   0.0000       0.013101         0.3565
  41   0.0000       0.024064         0.6548

MULLIKEN ATOMIC CHARGES
-----------------------
   0 C :   -0.397391
   1 C :    2.175579
   2 C :    0.318402
   3 C :    0.119146
   4 S :    1.366046
   5 H :   -0.239566
   6 H :    0.223217
   7 H :   -0.117481
   8 H :   -1.256746
   9 H :   -0.110487
  10 O :   -0.650935
  11 F :   -0.577094
  12 H :    0.101999
  13 H :   -0.336798
  14 H :    0.034424
  15 H :   -0.014760
  16 O :   -0.637554
Sum of atomic charges:    0.0000000

LOEWDIN ATOMIC CHARGES
----------------------
   0 C :   -0.053670
   1 C :    0.148935
   2 C :   -0.030091
   3 C :   -0.035622
   4 S :    1.087931
   5 H :    0.028171
   6 H :    0.026230
   7 H :   -0.019744
   8 H :   -0.134735
   9 H :   -0.016542
  10 O :   -0.422985
  11 F :   -0.260980
  12 H :    0.015589
  13 H :    0.026760
  14 H :    0.028833
  15 H :    0.034414
  16 O :   -0.422495

  Mayer bond orders larger than 0.100000
B(  0-C ,  1-C ) :   1.0083 B(  0-C ,  2-C ) :   1.2381 B(  0-C ,  7-H ) :   0.2641
B(  0-C ,  8-H ) :   0.5621 B(  0-C ,  9-H ) :   0.3019 B(  0-C , 12-H ) :   0.8038
B(  0-C , 13-H ) :   0.9642 B(  0-C , 14-H ) :   0.1501 B(  0-C , 15-H ) :   0.1789
B(  1-C ,  7-H ) :   0.4003 B(  1-C ,  8-H ) :  -0.8938 B(  1-C ,  9-H ) :   0.1858
B(  1-C , 11-F ) :  -0.2238 B(  1-C , 12-H ) :   0.1445 B(  2-C ,  3-C ) :   1.2887
B(  2-C ,  5-H ) :   0.1939 B(  2-C ,  6-H ) :   0.1103 B(  2-C , 12-H ) :   0.1484
B(  2-C , 14-H ) :   0.8041 B(  2-C , 15-H ) :   0.7449 B(  3-C ,  4-S ) :   0.9659
B(  3-C ,  5-H ) :   0.8799 B(  3-C ,  6-H ) :   0.8362 B(  3-C ,  8-H ) :   0.1283
B(  3-C , 11-F ) :   0.1394 B(  3-C , 14-H ) :   0.1504 B(  4-S ,  8-H ) :  -0.1355
B(  4-S , 10-O ) :   1.5784 B(  4-S , 11-F ) :   0.6500 B(  4-S , 16-O ) :   1.5378
B(  7-H ,  8-H ) :   0.3085 B(  7-H ,  9-H ) :  -0.2111 B(  8-H ,  9-H ) :   0.5672
B(  8-H , 11-F ) :   0.3836 B( 10-O , 16-O ) :   0.1129 B( 12-H , 13-H ) :  -0.1128

Dispersion correction           -0.017587837
FINAL SINGLE POINT ENERGY      -805.197831082184

DIPOLE MOMENT
-------------
                                X             Y             Z
Electronic contribution:    -10.50765      -5.57958      -6.19737
Nuclear contribution   :     11.08796       6.45140       7.05645
                        -----------------------------------------
Total Dipole Moment    :      0.58031       0.87182       0.85908
                        -----------------------------------------
Magnitude (a.u.)       :      1.35457
Magnitude (Debye)      :      3.44303

Rotational constants in cm-1:     0.100113     0.046890     0.041843
Rotational constants in MHz :  3001.313402  1405.711946  1254.411771

                             ****ORCA TERMINATED NORMALLY****
TOTAL RUN TIME: 0 days 0 hours 0 minutes 13 seconds 87 msec
