                         Program Version 5.0.0 -  RELEASE  -
|  1> !wB97X-D3 RIJCOSX def2-TZVP def2/J TightSCF
|  2> *xyz -1 1
|  3> C          0.64866        1.00359       -3.64560
|  4> C          0.13297        2.38587       -4.02462
|  5> C         -1.36646        2.47911       -4.31393
|  6> C         -2.35773        2.30686       -3.13675
|  7> H         -1.63680        1.72709       -5.06399
|  8> H         -1.58235        3.44561       -4.76869
|  9> O         -3.44376        2.84652       -3.25274
| 10> O         -1.97092        1.58304       -2.15123
| 11> H          0.41484        3.10285       -3.24517
| 12> H          0.68317        2.68756       -4.91972
| 13> H          0.37534        0.30051       -4.40446
| 14> H          0.21856        0.70606       -2.71212
| 15> H          1.71431        1.03324       -3.55398
| 16> *
| 17> %MaxCore 64000
| 18>
| 19> %pal nprocs 18
| 20> end
| 21>
| 22> %scf
| 23>   MaxIter 150
| 24> end
| 25>
| 26>
| 27>                          ****END OF INPUT****

CARTESIAN COORDINATES (ANGSTROEM)
---------------------------------
  C      0.648660    1.003590   -3.645600
  C      0.132970    2.385870   -4.024620
  C     -1.366460    2.479110   -4.313930
  C     -2.357730    2.306860   -3.136750
  H     -1.636800    1.727090   -5.063990
  H     -1.582350    3.445610   -4.768690
  O     -3.443760    2.846520   -3.252740
  O     -1.970920    1.583040   -2.151230
  H      0.414840    3.102850   -3.245170
  H      0.683170    2.687560   -4.919720
  H      0.375340    0.300510   -4.404460
  H      0.218560    0.706060   -2.712120
  H      1.714310    1.033240   -3.553980

 Total Charge           Charge          ....   -1
 Multiplicity           Mult            ....    1
 Number of Electrons    NEL             ....   48
 Basis Dimension        Dim             ....  228

ORBITAL ENERGIES
----------------

  NO   OCC          E(Eh)            E(eV)
   0   2.0000     -18.962337      -515.9914
   1   2.0000     -18.952587      -515.7261
   2   2.0000     -10.155031      -276.3324
   3   2.0000     -10.122324      -275.4424
   4   2.0000     -10.107894      -275.0498
   5   2.0000     -10.098389      -274.7911
   6   2.0000      -0.938638       -25.5416
   7   2.0000      -0.836861       -22.7722
   8   2.0000      -0.749062       -20.3830
   9   2.0000      -0.651024       -17.7153
  10   2.0000      -0.551760       -15.0142
  11   2.0000      -0.427316       -11.6279
  12   2.0000      -0.394118       -10.7245
  13   2.0000      -0.389328       -10.5942
  14   2.0000      -0.355727        -9.6798
  15   2.0000      -0.324333        -8.8255
  16   2.0000      -0.312385        -8.5004
  17   2.0000      -0.298260        -8.1161
  18   2.0000      -0.283828        -7.7234
  19   2.0000      -0.267770        -7.2864
  20   2.0000      -0.254037        -6.9127
  21   2.0000      -0.137641        -3.7454
  22   2.0000      -0.130338        -3.5467
  23   2.0000      -0.119543        -3.2529
  24   0.0000       0.249567         6.7911
  25   0.0000       0.288782         7.8582
  26   0.0000       0.294393         8.0108
  27   0.0000       0.313731         8.5370
  28   0.0000       0.321757         8.7554

MULLIKEN ATOMIC CHARGES
-----------------------
   0 C :   -0.321105
   1 C :   -0.111284
   2 C :   -0.179850
   3 C :    0.247562
   4 H :    0.046337
   5 H :    0.057826
   6 O :   -0.510383
   7 O :   -0.588287
   8 H :    0.065670
   9 H :    0.033583
  10 H :    0.060227
  11 H :    0.146373
  12 H :    0.053332
Sum of atomic charges:   -1.0000000

LOEWDIN ATOMIC CHARGES
----------------------
   0 C :   -0.324358
   1 C :   -0.305056
   2 C :   -0.269320
   3 C :   -0.693001
   4 H :    0.126910
   5 H :    0.124626
   6 O :   -0.058751
   7 O :   -0.157534
   8 H :    0.126153
   9 H :    0.112445
  10 H :    0.102414
  11 H :    0.121056
  12 H :    0.094416

  Mayer bond orders larger than 0.100000
B(  0-C ,  1-C ) :   0.9766 B(  0-C , 10-H ) :   0.9812 B(  0-C , 11-H ) :   0.9663
B(  0-C , 12-H ) :   0.9758 B(  1-C ,  2-C ) :   0.9592 B(  1-C ,  8-H ) :   0.9763
B(  1-C ,  9-H ) :   0.9754 B(  2-C ,  3-C ) :   0.9492 B(  2-C ,  4-H ) :   0.9632
B(  2-C ,  5-H ) :   0.9684 B(  3-C ,  6-O ) :   1.8951 B(  3-C ,  7-O ) :   1.7817

Dispersion correction           -0.003229898
FINAL SINGLE POINT ENERGY      -307.183219206309

DIPOLE MOMENT
-------------
                                X             Y             Z
Electronic contribution:     -7.27746       1.47202       3.16196
Nuclear contribution   :      9.31936      -1.53308      -4.48293
                        -----------------------------------------
Total Dipole Moment    :      2.04190      -0.06106      -1.32097
                        -----------------------------------------
Magnitude (a.u.)       :      2.43270
Magnitude (Debye)      :      6.18344

Rotational constants in cm-1:     0.250458     0.077448     0.063252
Rotational constants in MHz :  7508.538874  2321.842942  1896.252250

                             ****ORCA TERMINATED NORMALLY****
TOTAL RUN TIME: 0 days 0 hours 0 minutes 17 seconds 196 msec
