                         Program Version 5.0.0 -  RELEASE  -
|  1> !wB97X-D3 RIJCOSX def2-TZVP def2/J TightSCF
|  2> *xyz 1 1
|  3> C          0.64866        1.00359       -3.64560
|  4> N          0.28128        0.67645       -2.24018
|  5> C          0.13297        2.38587       -4.02462
|  6> C         -1.36646        2.47911       -4.31393
|  7> H          0.39079       -0.31925       -2.02649
|  8> H         -0.69269        0.99010       -2.13812
|  9> H          0.85421        1.21221       -1.57528
| 10> H          0.19099        0.23965       -4.27575
| 11> H          1.73157        0.93173       -3.75075
| 12> H          0.41484        3.10285       -3.24517
| 13> H          0.68317        2.68756       -4.91972
| 14> H         -1.62719        1.77449       -5.07580
| 15> H         -1.60483        3.46796       -4.64597
| 16> H         -1.91603        2.26007       -3.42236
| 17> *
| 18> %MaxCore 64000
| 19>
| 20> %pal nprocs 18
| 21> end
| 22>
| 23> %scf
| 24>   MaxIter 150
| 25> end
| 26>
| 27>
| 28>                          ****END OF INPUT****

CARTESIAN COORDINATES (ANGSTROEM)
---------------------------------
  C      0.648660    1.003590   -3.645600
  N      0.281280    0.676450   -2.240180
  C      0.132970    2.385870   -4.024620
  C     -1.366460    2.479110   -4.313930
  H      0.390790   -0.319250   -2.026490
  H     -0.692690    0.990100   -2.138120
  H      0.854210    1.212210   -1.575280
  H      0.190990    0.239650   -4.275750
  H      1.731570    0.931730   -3.750750
  H      0.414840    3.102850   -3.245170
  H      0.683170    2.687560   -4.919720
  H     -1.627190    1.774490   -5.075800
  H     -1.604830    3.467960   -4.645970
  H     -1.916030    2.260070   -3.422360

 Total Charge           Charge          ....    1
 Multiplicity           Mult            ....    1
 Number of Electrons    NEL             ....   34
 Basis Dimension        Dim             ....  184

ORBITAL ENERGIES
----------------

  NO   OCC          E(Eh)            E(eV)
   0   2.0000     -14.751937      -401.4206
   1   2.0000     -10.522048      -286.3195
   2   2.0000     -10.453977      -284.4672
   3   2.0000     -10.418610      -283.5048
   4   2.0000      -1.328817       -36.1590
   5   2.0000      -1.089563       -29.6485
   6   2.0000      -0.995742       -27.0955
   7   2.0000      -0.910343       -24.7717
   8   2.0000      -0.899019       -24.4635
   9   2.0000      -0.873844       -23.7785
  10   2.0000      -0.789523       -21.4840
  11   2.0000      -0.728608       -19.8264
  12   2.0000      -0.708048       -19.2670
  13   2.0000      -0.683519       -18.5995
  14   2.0000      -0.623060       -16.9543
  15   2.0000      -0.612159       -16.6577
  16   2.0000      -0.609124       -16.5751
  17   0.0000      -0.103447        -2.8149
  18   0.0000      -0.044570        -1.2128
  19   0.0000      -0.039845        -1.0842
  20   0.0000      -0.022611        -0.6153
  21   0.0000       0.006308         0.1716

MULLIKEN ATOMIC CHARGES
-----------------------
   0 C :   -0.202174
   1 N :   -0.308287
   2 C :   -0.268790
   3 C :   -0.332802
   4 H :    0.343063
   5 H :    0.323576
   6 H :    0.336644
   7 H :    0.192700
   8 H :    0.201353
   9 H :    0.137499
  10 H :    0.168217
  11 H :    0.147980
  12 H :    0.175013
  13 H :    0.086008
Sum of atomic charges:    1.0000000

LOEWDIN ATOMIC CHARGES
----------------------
   0 C :   -0.257219
   1 N :    0.171626
   2 C :   -0.291325
   3 C :   -0.283608
   4 H :    0.221380
   5 H :    0.223236
   6 H :    0.223624
   7 H :    0.154020
   8 H :    0.153069
   9 H :    0.145405
  10 H :    0.162947
  11 H :    0.128324
  12 H :    0.138616
  13 H :    0.109904

  Mayer bond orders larger than 0.100000
B(  0-C ,  1-N ) :   0.8699 B(  0-C ,  2-C ) :   0.9615 B(  0-C ,  7-H ) :   0.9587
B(  0-C ,  8-H ) :   0.9561 B(  1-N ,  4-H ) :   0.8703 B(  1-N ,  5-H ) :   0.8751
B(  1-N ,  6-H ) :   0.8724 B(  2-C ,  3-C ) :   0.9899 B(  2-C ,  9-H ) :   0.9625
B(  2-C , 10-H ) :   0.9509 B(  3-C , 11-H ) :   0.9660 B(  3-C , 12-H ) :   0.9680
B(  3-C , 13-H ) :   0.9658

Dispersion correction           -0.002772360
FINAL SINGLE POINT ENERGY      -174.868993151408

DIPOLE MOMENT
-------------
                                X             Y             Z
Electronic contribution:      1.32479      -1.48292       1.60138
Nuclear contribution   :     -0.74670       0.28200      -0.02386
                        -----------------------------------------
Total Dipole Moment    :      0.57809      -1.20092       1.57752
                        -----------------------------------------
Magnitude (a.u.)       :      2.06518
Magnitude (Debye)      :      5.24927

Rotational constants in cm-1:     0.472563     0.149855     0.132807
Rotational constants in MHz : 14167.078489  4492.544970  3981.441276

                             ****ORCA TERMINATED NORMALLY****
TOTAL RUN TIME: 0 days 0 hours 0 minutes 12 seconds 821 msec
