                         Program Version 5.0.0 -  RELEASE  -
|  1> !wB97X-D3 RIJCOSX def2-TZVP def2/J TightSCF
|  2> *xyz 0 1
|  3> C          0.64866        1.00359       -3.64560
|  4> C          0.13297        2.38587       -4.02462
|  5> C         -1.36646        2.47911       -4.31393
|  6> C         -2.35773        2.30686       -3.13675
|  7> H         -1.63680        1.72709       -5.06399
|  8> H         -1.58235        3.44561       -4.76869
|  9> F         -3.44376        2.84652       -3.25274
| 10> O         -1.97092        1.58304       -2.15123
| 11> H          0.41484        3.10285       -3.24517
| 12> H          0.68317        2.68756       -4.91972
| 13> H          0.37534        0.30051       -4.40446
| 14> H          0.21856        0.70606       -2.71212
| 15> H          1.71431        1.03324       -3.55398
| 16> *
| 17> %MaxCore 64000
| 18>
| 19> %pal nprocs 18
| 20> end
| 21>
| 22> %scf
| 23>   MaxIter 150
| 24> end
| 25>
| 26>
| 27>                          ****END OF INPUT****

CARTESIAN COORDINATES (ANGSTROEM)
---------------------------------
  C      0.648660    1.003590   -3.645600
  C      0.132970    2.385870   -4.024620
  C     -1.366460    2.479110   -4.313930
  C     -2.357730    2.306860   -3.136750
  H     -1.636800    1.727090   -5.063990
  H     -1.582350    3.445610   -4.768690
  F     -3.443760    2.846520   -3.252740
  O     -1.970920    1.583040   -2.151230
  H      0.414840    3.102850   -3.245170
  H      0.683170    2.687560   -4.919720
  H      0.375340    0.300510   -4.404460
  H      0.218560    0.706060   -2.712120
  H      1.714310    1.033240   -3.553980

 Total Charge           Charge          ....    0
 Multiplicity           Mult            ....    1
 Number of Electrons    NEL             ....   48
 Basis Dimension        Dim             ....  228

ORBITAL ENERGIES
----------------

  NO   OCC          E(Eh)            E(eV)
   0   2.0000     -24.869797      -676.7416
   1   2.0000     -19.230559      -523.2901
   2   2.0000     -10.459369      -284.6139
   3   2.0000     -10.307121      -280.4710
   4   2.0000     -10.285066      -279.8709
   5   2.0000     -10.251560      -278.9591
   6   2.0000      -1.464888       -39.8616
   7   2.0000      -1.131891       -30.8003
   8   2.0000      -0.925012       -25.1709
   9   2.0000      -0.844945       -22.9921
  10   2.0000      -0.781069       -21.2540
  11   2.0000      -0.721522       -19.6336
  12   2.0000      -0.670399       -18.2425
  13   2.0000      -0.649544       -17.6750
  14   2.0000      -0.611077       -16.6282
  15   2.0000      -0.562861       -15.3162
  16   2.0000      -0.552751       -15.0411
  17   2.0000      -0.518318       -14.1042
  18   2.0000      -0.483825       -13.1655
  19   2.0000      -0.453888       -12.3509
  20   2.0000      -0.449443       -12.2300
  21   2.0000      -0.440491       -11.9864
  22   2.0000      -0.431749       -11.7485
  23   2.0000      -0.378453       -10.2982
  24   0.0000       0.058253         1.5851
  25   0.0000       0.113139         3.0787
  26   0.0000       0.150447         4.0939
  27   0.0000       0.157713         4.2916
  28   0.0000       0.171243         4.6598

MULLIKEN ATOMIC CHARGES
-----------------------
   0 C :   -0.346017
   1 C :   -0.175532
   2 C :   -0.243916
   3 C :    0.398029
   4 H :    0.131162
   5 H :    0.129152
   6 F :   -0.073171
   7 O :   -0.385217
   8 H :    0.108098
   9 H :    0.103878
  10 H :    0.094684
  11 H :    0.148098
  12 H :    0.110751
Sum of atomic charges:    0.0000000

LOEWDIN ATOMIC CHARGES
----------------------
   0 C :   -0.304115
   1 C :   -0.286258
   2 C :   -0.241420
   3 C :   -0.500358
   4 H :    0.155726
   5 H :    0.144557
   6 F :    0.384427
   7 O :    0.020913
   8 H :    0.138960
   9 H :    0.137474
  10 H :    0.113020
  11 H :    0.122287
  12 H :    0.114787

  Mayer bond orders larger than 0.100000
B(  0-C ,  1-C ) :   0.9804 B(  0-C , 10-H ) :   0.9758 B(  0-C , 11-H ) :   0.9749
B(  0-C , 12-H ) :   0.9771 B(  1-C ,  2-C ) :   0.9746 B(  1-C ,  8-H ) :   0.9747
B(  1-C ,  9-H ) :   0.9716 B(  2-C ,  3-C ) :   1.0029 B(  2-C ,  4-H ) :   0.9364
B(  2-C ,  5-H ) :   0.9634 B(  3-C ,  6-F ) :   1.1964 B(  3-C ,  7-O ) :   1.9901

Dispersion correction           -0.003188271
FINAL SINGLE POINT ENERGY      -331.741417754642

DIPOLE MOMENT
-------------
                                X             Y             Z
Electronic contribution:    -11.48914       2.91592       3.62509
Nuclear contribution   :     11.62992      -2.38586      -4.66016
                        -----------------------------------------
Total Dipole Moment    :      0.14078       0.53006      -1.03507
                        -----------------------------------------
Magnitude (a.u.)       :      1.17139
Magnitude (Debye)      :      2.97744

Rotational constants in cm-1:     0.249088     0.072929     0.060128
Rotational constants in MHz :  7467.482637  2186.350475  1802.579568

                             ****ORCA TERMINATED NORMALLY****
TOTAL RUN TIME: 0 days 0 hours 0 minutes 14 seconds 902 msec
