                         Program Version 5.0.0 -  RELEASE  -
|  1> !wB97X-D3 RIJCOSX def2-TZVP def2/J TightSCF
|  2> *xyz 0 1
|  3> C          0.64866        1.00359       -3.64560
|  4> C          0.28128        0.67645       -2.24018
|  5> C          0.13297        2.38587       -4.02462
|  6> C         -1.36646        2.47911       -4.31393
|  7> H          0.39079       -0.31925       -2.02649
|  8> H         -0.69269        0.99010       -2.13812
|  9> H          0.85421        1.21221       -1.57528
| 10> H          0.19099        0.23965       -4.27575
| 11> H          1.73157        0.93173       -3.75075
| 12> H          0.41484        3.10285       -3.24517
| 13> H          0.68317        2.68756       -4.91972
| 14> H         -1.62719        1.77449       -5.07580
| 15> H         -1.60483        3.46796       -4.64597
| 16> H         -1.91603        2.26007       -3.42236
| 17> *
| 18> %MaxCore 64000
| 19>
| 20> %pal nprocs 18
| 21> end
| 22>
| 23> %scf
| 24>   MaxIter 150
| 25> end
| 26>
| 27>
| 28>                          ****END OF INPUT****

CARTESIAN COORDINATES (ANGSTROEM)
---------------------------------
  C      0.648660    1.003590   -3.645600
  C      0.281280    0.676450   -2.240180
  C      0.132970    2.385870   -4.024620
  C     -1.366460    2.479110   -4.313930
  H      0.390790   -0.319250   -2.026490
  H     -0.692690    0.990100   -2.138120
  H      0.854210    1.212210   -1.575280
  H      0.190990    0.239650   -4.275750
  H      1.731570    0.931730   -3.750750
  H      0.414840    3.102850   -3.245170
  H      0.683170    2.687560   -4.919720
  H     -1.627190    1.774490   -5.075800
  H     -1.604830    3.467960   -4.645970
  H     -1.916030    2.260070   -3.422360

 Total Charge           Charge          ....    0
 Multiplicity           Mult            ....    1
 Number of Electrons    NEL             ....   34
 Basis Dimension        Dim             ....  184

ORBITAL ENERGIES
----------------

  NO   OCC          E(Eh)            E(eV)
   0   2.0000     -10.263253      -279.2773
   1   2.0000     -10.258239      -279.1409
   2   2.0000     -10.253454      -279.0107
   3   2.0000     -10.230442      -278.3845
   4   2.0000      -0.920467       -25.0472
   5   2.0000      -0.844765       -22.9872
   6   2.0000      -0.754627       -20.5345
   7   2.0000      -0.677284       -18.4298
   8   2.0000      -0.571918       -15.5627
   9   2.0000      -0.559618       -15.2280
  10   2.0000      -0.526445       -14.3253
  11   2.0000      -0.492014       -13.3884
  12   2.0000      -0.473604       -12.8874
  13   2.0000      -0.457945       -12.4613
  14   2.0000      -0.418288       -11.3822
  15   2.0000      -0.417030       -11.3480
  16   2.0000      -0.405541       -11.0353
  17   0.0000       0.121519         3.3067
  18   0.0000       0.154540         4.2052
  19   0.0000       0.159266         4.3339
  20   0.0000       0.163934         4.4609
  21   0.0000       0.189371         5.1530

MULLIKEN ATOMIC CHARGES
-----------------------
   0 C :   -0.136456
   1 C :   -0.333064
   2 C :   -0.180857
   3 C :   -0.337278
   4 H :    0.109838
   5 H :    0.088501
   6 H :    0.108822
   7 H :    0.081092
   8 H :    0.090884
   9 H :    0.090600
  10 H :    0.092816
  11 H :    0.107099
  12 H :    0.117520
  13 H :    0.100484
Sum of atomic charges:   -0.0000000

LOEWDIN ATOMIC CHARGES
----------------------
   0 C :   -0.299177
   1 C :   -0.297958
   2 C :   -0.294429
   3 C :   -0.302948
   4 H :    0.104925
   5 H :    0.111343
   6 H :    0.108050
   7 H :    0.133357
   8 H :    0.130555
   9 H :    0.132907
  10 H :    0.131667
  11 H :    0.114729
  12 H :    0.115697
  13 H :    0.111283

  Mayer bond orders larger than 0.100000
B(  0-C ,  1-C ) :   0.9655 B(  0-C ,  2-C ) :   0.9648 B(  0-C ,  7-H ) :   0.9803
B(  0-C ,  8-H ) :   0.9752 B(  1-C ,  4-H ) :   0.9850 B(  1-C ,  5-H ) :   0.9847
B(  1-C ,  6-H ) :   0.9848 B(  2-C ,  3-C ) :   0.9849 B(  2-C ,  9-H ) :   0.9756
B(  2-C , 10-H ) :   0.9760 B(  3-C , 11-H ) :   0.9783 B(  3-C , 12-H ) :   0.9831
B(  3-C , 13-H ) :   0.9783

Dispersion correction           -0.002677149
FINAL SINGLE POINT ENERGY      -158.454099559314

DIPOLE MOMENT
-------------
                                X             Y             Z
Electronic contribution:      0.65584       0.02029      -0.38855
Nuclear contribution   :     -0.63302      -0.01177       0.37643
                        -----------------------------------------
Total Dipole Moment    :      0.02282       0.00852      -0.01212
                        -----------------------------------------
Magnitude (a.u.)       :      0.02721
Magnitude (Debye)      :      0.06915

Rotational constants in cm-1:     0.480601     0.156500     0.138605
Rotational constants in MHz : 14408.061205  4691.756081  4155.280646

                             ****ORCA TERMINATED NORMALLY****
TOTAL RUN TIME: 0 days 0 hours 0 minutes 10 seconds 452 msec
