                         Program Version 5.0.0 -  RELEASE  -
|  1> !wB97X-D3 RIJCOSX def2-TZVP def2/J TightSCF
|  2> *xyz 0 1
|  3> C          0.64866        1.00359       -3.64560
|  4> C          0.13297        2.38587       -4.02462
|  5> C         -1.36646        2.47911       -4.31393
|  6> C         -2.35773        2.30686       -3.13675
|  7> H         -1.63680        1.72709       -5.06399
|  8> H         -1.58235        3.44561       -4.76869
|  9> O         -3.44376        2.84652       -3.25274
| 10> F         -1.97092        1.58304       -2.15123
| 11> H          0.41484        3.10285       -3.24517
| 12> H          0.68317        2.68756       -4.91972
| 13> H          0.37534        0.30051       -4.40446
| 14> H          0.21856        0.70606       -2.71212
| 15> H          1.71431        1.03324       -3.55398
| 16> *
| 17> %MaxCore 64000
| 18>
| 19> %pal nprocs 18
| 20> end
| 21>
| 22> %scf
| 23>   MaxIter 150
| 24> end
| 25>
| 26>
| 27>                          ****END OF INPUT****

CARTESIAN COORDINATES (ANGSTROEM)
---------------------------------
  C      0.648660    1.003590   -3.645600
  C      0.132970    2.385870   -4.024620
  C     -1.366460    2.479110   -4.313930
  C     -2.357730    2.306860   -3.136750
  H     -1.636800    1.727090   -5.063990
  H     -1.582350    3.445610   -4.768690
  O     -3.443760    2.846520   -3.252740
  F     -1.970920    1.583040   -2.151230
  H      0.414840    3.102850   -3.245170
  H      0.683170    2.687560   -4.919720
  H      0.375340    0.300510   -4.404460
  H      0.218560    0.706060   -2.712120
  H      1.714310    1.033240   -3.553980

 Total Charge           Charge          ....    0
 Multiplicity           Mult            ....    1
 Number of Electrons    NEL             ....   48
 Basis Dimension        Dim             ....  228

ORBITAL ENERGIES
----------------

  NO   OCC          E(Eh)            E(eV)
   0   2.0000     -24.845404      -676.0778
   1   2.0000     -19.239130      -523.5233
   2   2.0000     -10.452598      -284.4296
   3   2.0000     -10.305396      -280.4241
   4   2.0000     -10.289646      -279.9955
   5   2.0000     -10.265662      -279.3429
   6   2.0000      -1.416542       -38.5461
   7   2.0000      -1.170973       -31.8638
   8   2.0000      -0.930930       -25.3319
   9   2.0000      -0.842676       -22.9304
  10   2.0000      -0.761535       -20.7224
  11   2.0000      -0.724903       -19.7256
  12   2.0000      -0.646604       -17.5950
  13   2.0000      -0.635311       -17.2877
  14   2.0000      -0.603167       -16.4130
  15   2.0000      -0.561047       -15.2669
  16   2.0000      -0.557057       -15.1583
  17   2.0000      -0.526282       -14.3209
  18   2.0000      -0.506157       -13.7732
  19   2.0000      -0.470119       -12.7926
  20   2.0000      -0.464174       -12.6308
  21   2.0000      -0.442620       -12.0443
  22   2.0000      -0.440992       -12.0000
  23   2.0000      -0.390291       -10.6204
  24   0.0000       0.064111         1.7445
  25   0.0000       0.108412         2.9500
  26   0.0000       0.149778         4.0757
  27   0.0000       0.152655         4.1540
  28   0.0000       0.166159         4.5214

MULLIKEN ATOMIC CHARGES
-----------------------
   0 C :   -0.344620
   1 C :   -0.183132
   2 C :   -0.245872
   3 C :    0.374484
   4 H :    0.130853
   5 H :    0.148615
   6 O :   -0.313524
   7 F :   -0.128387
   8 H :    0.109370
   9 H :    0.107469
  10 H :    0.105723
  11 H :    0.119839
  12 H :    0.119183
Sum of atomic charges:    0.0000000

LOEWDIN ATOMIC CHARGES
----------------------
   0 C :   -0.305918
   1 C :   -0.295998
   2 C :   -0.236189
   3 C :   -0.488618
   4 H :    0.155657
   5 H :    0.156074
   6 O :    0.108296
   7 F :    0.283017
   8 H :    0.137061
   9 H :    0.138814
  10 H :    0.115372
  11 H :    0.114886
  12 H :    0.117545

  Mayer bond orders larger than 0.100000
B(  0-C ,  1-C ) :   0.9704 B(  0-C , 10-H ) :   0.9759 B(  0-C , 11-H ) :   0.9801
B(  0-C , 12-H ) :   0.9776 B(  1-C ,  2-C ) :   0.9570 B(  1-C ,  8-H ) :   0.9740
B(  1-C ,  9-H ) :   0.9693 B(  2-C ,  3-C ) :   1.0073 B(  2-C ,  4-H ) :   0.9469
B(  2-C ,  5-H ) :   0.9633 B(  3-C ,  6-O ) :   2.0854 B(  3-C ,  7-F ) :   1.1201

Dispersion correction           -0.003170670
FINAL SINGLE POINT ENERGY      -331.758958531907

DIPOLE MOMENT
-------------
                                X             Y             Z
Electronic contribution:     -8.89491       0.75332       5.45897
Nuclear contribution   :      9.96624      -0.95867      -5.90440
                        -----------------------------------------
Total Dipole Moment    :      1.07134      -0.20535      -0.44543
                        -----------------------------------------
Magnitude (a.u.)       :      1.17828
Magnitude (Debye)      :      2.99495

Rotational constants in cm-1:     0.233484     0.076940     0.061803
Rotational constants in MHz :  6999.682494  2306.588565  1852.797552

                             ****ORCA TERMINATED NORMALLY****
TOTAL RUN TIME: 0 days 0 hours 0 minutes 13 seconds 271 msec
