                         Program Version 5.0.0 -  RELEASE  -
|  1> !B3LYP D3BJ RIJCOSX def2-SVPD def2/J TightSCF
|  2> *xyz -1 1
|  3> C          0.64866        1.00359       -3.64560
|  4> C          0.13297        2.38587       -4.02462
|  5> C         -1.36646        2.47911       -4.31393
|  6> C         -2.35773        2.30686       -3.13675
|  7> H         -1.63680        1.72709       -5.06399
|  8> H         -1.58235        3.44561       -4.76869
|  9> O         -3.44376        2.84652       -3.25274
| 10> O         -1.97092        1.58304       -2.15123
| 11> H          0.41484        3.10285       -3.24517
| 12> H          0.68317        2.68756       -4.91972
| 13> H          0.37534        0.30051       -4.40446
| 14> H          0.21856        0.70606       -2.71212
| 15> H          1.71431        1.03324       -3.55398
| 16> *
| 17> %MaxCore 64000
| 18>
| 19> %pal nprocs 4
| 20> end
| 21>
| 22> %scf
| 23>   MaxIter 150
| 24> end
| 25>
| 26>
| 27>                          ****END OF INPUT****

CARTESIAN COORDINATES (ANGSTROEM)
---------------------------------
  C      0.648660    1.003590   -3.645600
  C      0.132970    2.385870   -4.024620
  C     -1.366460    2.479110   -4.313930
  C     -2.357730    2.306860   -3.136750
  H     -1.636800    1.727090   -5.063990
  H     -1.582350    3.445610   -4.768690
  O     -3.443760    2.846520   -3.252740
  O     -1.970920    1.583040   -2.151230
  H      0.414840    3.102850   -3.245170
  H      0.683170    2.687560   -4.919720
  H      0.375340    0.300510   -4.404460
  H      0.218560    0.706060   -2.712120
  H      1.714310    1.033240   -3.553980

 Total Charge           Charge          ....   -1
 Multiplicity           Mult            ....    1
 Number of Electrons    NEL             ....   48
 Basis Dimension        Dim             ....  182

ORBITAL ENERGIES
----------------

  NO   OCC          E(Eh)            E(eV)
   0   2.0000     -18.886773      -513.9352
   1   2.0000     -18.876354      -513.6517
   2   2.0000     -10.073393      -274.1110
   3   2.0000     -10.033448      -273.0240
   4   2.0000     -10.021139      -272.6890
   5   2.0000     -10.011223      -272.4192
   6   2.0000      -0.822533       -22.3823
   7   2.0000      -0.723103       -19.6766
   8   2.0000      -0.627505       -17.0753
   9   2.0000      -0.533485       -14.5169
  10   2.0000      -0.439187       -11.9509
  11   2.0000      -0.325382        -8.8541
  12   2.0000      -0.295234        -8.0337
  13   2.0000      -0.288012        -7.8372
  14   2.0000      -0.260284        -7.0827
  15   2.0000      -0.230115        -6.2618
  16   2.0000      -0.219461        -5.9718
  17   2.0000      -0.206821        -5.6279
  18   2.0000      -0.193117        -5.2550
  19   2.0000      -0.179942        -4.8965
  20   2.0000      -0.165914        -4.5147
  21   2.0000      -0.055916        -1.5216
  22   2.0000      -0.046985        -1.2785
  23   2.0000      -0.034205        -0.9308
  24   0.0000       0.145369         3.9557
  25   0.0000       0.172255         4.6873
  26   0.0000       0.182172         4.9572
  27   0.0000       0.197780         5.3819
  28   0.0000       0.218063         5.9338

MULLIKEN ATOMIC CHARGES
-----------------------
   0 C :    0.959123
   1 C :   -0.156673
   2 C :    0.136869
   3 C :    0.426093
   4 H :   -0.018850
   5 H :   -0.106064
   6 O :   -0.638001
   7 O :   -0.748261
   8 H :   -0.181235
   9 H :   -0.154717
  10 H :   -0.148510
  11 H :   -0.225941
  12 H :   -0.143832
Sum of atomic charges:   -1.0000000

LOEWDIN ATOMIC CHARGES
----------------------
   0 C :    0.109061
   1 C :   -0.088555
   2 C :    0.010611
   3 C :   -0.295851
   4 H :    0.009629
   5 H :   -0.005557
   6 O :   -0.298436
   7 O :   -0.326846
   8 H :    0.013396
   9 H :   -0.008335
  10 H :   -0.031740
  11 H :   -0.044138
  12 H :   -0.043239

  Mayer bond orders larger than 0.100000
B(  0-C ,  1-C ) :   1.2660 B(  0-C ,  8-H ) :   0.1157 B(  0-C ,  9-H ) :   0.1008
B(  0-C , 10-H ) :   0.7336 B(  0-C , 11-H ) :   0.7904 B(  0-C , 12-H ) :   0.6935
B(  1-C ,  2-C ) :   1.1782 B(  1-C ,  4-H ) :   0.1474 B(  1-C ,  5-H ) :   0.1373
B(  1-C ,  8-H ) :   0.8959 B(  1-C ,  9-H ) :   0.8191 B(  1-C , 10-H ) :   0.2300
B(  1-C , 11-H ) :   0.2473 B(  1-C , 12-H ) :   0.2505 B(  2-C ,  3-C ) :   0.9939
B(  2-C ,  4-H ) :   0.8109 B(  2-C ,  5-H ) :   0.9036 B(  2-C ,  8-H ) :   0.1489
B(  2-C ,  9-H ) :   0.1363 B(  3-C ,  5-H ) :   0.1656 B(  3-C ,  6-O ) :   1.5117
B(  3-C ,  7-O ) :   1.4218

Dispersion correction           -0.016112602
FINAL SINGLE POINT ENERGY      -306.787794756497

DIPOLE MOMENT
-------------
                                X             Y             Z
Electronic contribution:     -7.21630       1.46680       3.12955
Nuclear contribution   :      9.31936      -1.53308      -4.48293
                        -----------------------------------------
Total Dipole Moment    :      2.10306      -0.06628      -1.35338
                        -----------------------------------------
Magnitude (a.u.)       :      2.50178
Magnitude (Debye)      :      6.35901

Rotational constants in cm-1:     0.250458     0.077448     0.063252
Rotational constants in MHz :  7508.538874  2321.842942  1896.252250

                             ****ORCA TERMINATED NORMALLY****
TOTAL RUN TIME: 0 days 0 hours 0 minutes 18 seconds 478 msec
