                         Program Version 5.0.0 -  RELEASE  -
|  1> !B3LYP D3BJ RIJCOSX def2-SVPD def2/J TightSCF
|  2> *xyz 1 1
|  3> C          0.64866        1.00359       -3.64560
|  4> N          0.28128        0.67645       -2.24018
|  5> C          0.13297        2.38587       -4.02462
|  6> C         -1.36646        2.47911       -4.31393
|  7> H          0.39079       -0.31925       -2.02649
|  8> H         -0.69269        0.99010       -2.13812
|  9> H          0.85421        1.21221       -1.57528
| 10> H          0.19099        0.23965       -4.27575
| 11> H          1.73157        0.93173       -3.75075
| 12> H          0.41484        3.10285       -3.24517
| 13> H          0.68317        2.68756       -4.91972
| 14> H         -1.62719        1.77449       -5.07580
| 15> H         -1.60483        3.46796       -4.64597
| 16> H         -1.91603        2.26007       -3.42236
| 17> *
| 18> %MaxCore 64000
| 19>
| 20> %pal nprocs 4
| 21> end
| 22>
| 23> %scf
| 24>   MaxIter 150
| 25> end
| 26>
| 27>
| 28>                          ****END OF INPUT****

CARTESIAN COORDINATES (ANGSTROEM)
---------------------------------
  C      0.648660    1.003590   -3.645600
  N      0.281280    0.676450   -2.240180
  C      0.132970    2.385870   -4.024620
  C     -1.366460    2.479110   -4.313930
  H      0.390790   -0.319250   -2.026490
  H     -0.692690    0.990100   -2.138120
  H      0.854210    1.212210   -1.575280
  H      0.190990    0.239650   -4.275750
  H      1.731570    0.931730   -3.750750
  H      0.414840    3.102850   -3.245170
  H      0.683170    2.687560   -4.919720
  H     -1.627190    1.774490   -5.075800
  H     -1.604830    3.467960   -4.645970
  H     -1.916030    2.260070   -3.422360

 Total Charge           Charge          ....    1
 Multiplicity           Mult            ....    1
 Number of Electrons    NEL             ....   34
 Basis Dimension        Dim             ....  160

ORBITAL ENERGIES
----------------

  NO   OCC          E(Eh)            E(eV)
   0   2.0000     -14.659621      -398.9086
   1   2.0000     -10.430782      -283.8360
   2   2.0000     -10.363378      -282.0019
   3   2.0000     -10.330847      -281.1166
   4   2.0000      -1.203275       -32.7428
   5   2.0000      -0.967014       -26.3138
   6   2.0000      -0.877354       -23.8740
   7   2.0000      -0.804567       -21.8934
   8   2.0000      -0.797346       -21.6969
   9   2.0000      -0.765875       -20.8405
  10   2.0000      -0.690583       -18.7917
  11   2.0000      -0.630179       -17.1480
  12   2.0000      -0.609744       -16.5920
  13   2.0000      -0.587737       -15.9931
  14   2.0000      -0.531386       -14.4597
  15   2.0000      -0.520211       -14.1557
  16   2.0000      -0.516849       -14.0642
  17   0.0000      -0.191393        -5.2081
  18   0.0000      -0.134716        -3.6658
  19   0.0000      -0.130586        -3.5534
  20   0.0000      -0.119201        -3.2436
  21   0.0000      -0.094329        -2.5668

MULLIKEN ATOMIC CHARGES
-----------------------
   0 C :    0.795105
   1 N :   -0.705637
   2 C :   -0.169468
   3 C :    1.006634
   4 H :    0.289548
   5 H :    0.362852
   6 H :    0.378856
   7 H :   -0.108604
   8 H :   -0.187205
   9 H :   -0.120600
  10 H :   -0.112529
  11 H :   -0.054325
  12 H :   -0.104659
  13 H :   -0.269967
Sum of atomic charges:    1.0000000

LOEWDIN ATOMIC CHARGES
----------------------
   0 C :    0.092132
   1 N :    0.340026
   2 C :   -0.042724
   3 C :    0.162379
   4 H :    0.106469
   5 H :    0.083299
   6 H :    0.108564
   7 H :    0.051372
   8 H :    0.050128
   9 H :    0.031995
  10 H :    0.041829
  11 H :   -0.003295
  12 H :    0.005109
  13 H :   -0.027284

  Mayer bond orders larger than 0.100000
B(  0-C ,  1-N ) :   0.7561 B(  0-C ,  2-C ) :   1.1815 B(  0-C ,  7-H ) :   0.8543
B(  0-C ,  8-H ) :   0.8451 B(  0-C , 10-H ) :   0.1289 B(  1-N ,  4-H ) :   0.8265
B(  1-N ,  5-H ) :   0.7250 B(  1-N ,  6-H ) :   0.7716 B(  1-N ,  7-H ) :   0.1016
B(  1-N ,  8-H ) :   0.1407 B(  2-C ,  3-C ) :   1.2615 B(  2-C ,  8-H ) :   0.1051
B(  2-C ,  9-H ) :   0.9205 B(  2-C , 10-H ) :   0.8739 B(  2-C , 11-H ) :   0.2048
B(  2-C , 12-H ) :   0.2476 B(  2-C , 13-H ) :   0.2091 B(  3-C , 11-H ) :   0.7410
B(  3-C , 12-H ) :   0.7327 B(  3-C , 13-H ) :   0.7574 B( 11-H , 13-H ) :   0.1008

Dispersion correction           -0.015225409
FINAL SINGLE POINT ENERGY      -174.624795222448

DIPOLE MOMENT
-------------
                                X             Y             Z
Electronic contribution:      1.31338      -1.46644       1.57915
Nuclear contribution   :     -0.74670       0.28200      -0.02386
                        -----------------------------------------
Total Dipole Moment    :      0.56668      -1.18445       1.55528
                        -----------------------------------------
Magnitude (a.u.)       :      2.03543
Magnitude (Debye)      :      5.17364

Rotational constants in cm-1:     0.472563     0.149855     0.132807
Rotational constants in MHz : 14167.078489  4492.544970  3981.441276

                             ****ORCA TERMINATED NORMALLY****
TOTAL RUN TIME: 0 days 0 hours 0 minutes 13 seconds 327 msec
