                         Program Version 5.0.0 -  RELEASE  -
|  1> !B3LYP D3BJ RIJCOSX def2-SVPD def2/J TightSCF xyzfile
|  2>
|  3> *xyzfile 0 1 B.xyz
|  4>
|  5> %MaxCore 64000
|  6>
|  7> %pal nprocs 4
|  8> end
|  9>
| 10> %scf
| 11>   MaxIter 150
| 12> end
| 13>
| 14>
| 15>                          ****END OF INPUT****

CARTESIAN COORDINATES (ANGSTROEM)
---------------------------------
  C      0.648656    1.003595   -3.645601
  N      0.281280    0.676454   -2.240179
  C      0.132968    2.385869   -4.024618
  C     -1.366462    2.479106   -4.313932
  C     -2.357732    2.306858   -3.136753
  H     -1.636802    1.727095   -5.063993
  H     -1.582347    3.445605   -4.768687
  H      0.390790   -0.319253   -2.026495
  H     -0.692686    0.990104   -2.138123
  H      0.854206    1.212214   -1.575279
  O     -3.443763    2.846518   -3.252744
  O     -1.970922    1.583042   -2.151229
  H      0.190993    0.239655   -4.275752
  H      1.731572    0.931729   -3.750751
  H      0.414839    3.102847   -3.245165
  H      0.683167    2.687560   -4.919721

 Total Charge           Charge          ....    0
 Multiplicity           Mult            ....    1
 Number of Electrons    NEL             ....   56
 Basis Dimension        Dim             ....  218

ORBITAL ENERGIES
----------------

  NO   OCC          E(Eh)            E(eV)
   0   2.0000     -19.068697      -518.8856
   1   2.0000     -19.049453      -518.3620
   2   2.0000     -14.440888      -392.9565
   3   2.0000     -10.273153      -279.5467
   4   2.0000     -10.248276      -278.8698
   5   2.0000     -10.213022      -277.9105
   6   2.0000     -10.175132      -276.8794
   7   2.0000      -1.014655       -27.6102
   8   2.0000      -0.992435       -27.0055
   9   2.0000      -0.911336       -24.7987
  10   2.0000      -0.806666       -21.9505
  11   2.0000      -0.712527       -19.3888
  12   2.0000      -0.635733       -17.2992
  13   2.0000      -0.606460       -16.5026
  14   2.0000      -0.595691       -16.2096
  15   2.0000      -0.525583       -14.3019
  16   2.0000      -0.481909       -13.1134
  17   2.0000      -0.481250       -13.0955
  18   2.0000      -0.439242       -11.9524
  19   2.0000      -0.423331       -11.5194
  20   2.0000      -0.391646       -10.6572
  21   2.0000      -0.388096       -10.5606
  22   2.0000      -0.380330       -10.3493
  23   2.0000      -0.361275        -9.8308
  24   2.0000      -0.338358        -9.2072
  25   2.0000      -0.237601        -6.4655
  26   2.0000      -0.236565        -6.4373
  27   2.0000      -0.206118        -5.6088
  28   0.0000      -0.033815        -0.9201
  29   0.0000       0.007607         0.2070
  30   0.0000       0.010740         0.2923
  31   0.0000       0.035948         0.9782
  32   0.0000       0.049219         1.3393

MULLIKEN ATOMIC CHARGES
-----------------------
   0 C :    0.866535
   1 N :   -0.209516
   2 C :    0.251178
   3 C :    0.184576
   4 C :    0.428467
   5 H :    0.044737
   6 H :   -0.084361
   7 H :    0.230454
   8 H :   -0.220827
   9 H :    0.370450
  10 O :   -0.529502
  11 O :   -0.639480
  12 H :   -0.102957
  13 H :   -0.314550
  14 H :   -0.135905
  15 H :   -0.139302
Sum of atomic charges:    0.0000000

LOEWDIN ATOMIC CHARGES
----------------------
   0 C :    0.089072
   1 N :    0.320919
   2 C :   -0.011733
   3 C :    0.048370
   4 C :   -0.205023
   5 H :    0.028536
   6 H :    0.021090
   7 H :    0.085115
   8 H :   -0.156737
   9 H :    0.091041
  10 O :   -0.203631
  11 O :   -0.226040
  12 H :    0.040623
  13 H :    0.025543
  14 H :    0.030238
  15 H :    0.022618

  Mayer bond orders larger than 0.100000
B(  0-C ,  1-N ) :   0.8270 B(  0-C ,  2-C ) :   1.1623 B(  0-C , 12-H ) :   0.8095
B(  0-C , 13-H ) :   0.7776 B(  0-C , 15-H ) :   0.1192 B(  1-N ,  7-H ) :   0.8662
B(  1-N ,  8-H ) :   1.1998 B(  1-N ,  9-H ) :   0.8072 B(  1-N , 12-H ) :   0.1169
B(  1-N , 13-H ) :   0.1697 B(  2-C ,  3-C ) :   1.1812 B(  2-C ,  5-H ) :   0.1376
B(  2-C ,  6-H ) :   0.1492 B(  2-C , 13-H ) :   0.1414 B(  2-C , 14-H ) :   0.8544
B(  2-C , 15-H ) :   0.7892 B(  3-C ,  4-C ) :   1.0117 B(  3-C ,  5-H ) :   0.7744
B(  3-C ,  6-H ) :   0.8853 B(  3-C , 10-O ) :   0.1004 B(  3-C , 14-H ) :   0.1151
B(  3-C , 15-H ) :   0.1171 B(  4-C ,  6-H ) :   0.1474 B(  4-C , 10-O ) :   1.6029
B(  4-C , 11-O ) :   1.2536 B(  8-H , 11-O ) :   0.3889 B( 10-O , 11-O ) :   0.1456
B( 12-H , 13-H ) :  -0.1200

Dispersion correction           -0.022616319
FINAL SINGLE POINT ENERGY      -362.615938520558

DIPOLE MOMENT
-------------
                                X             Y             Z
Electronic contribution:     -5.79972       0.93416       2.52624
Nuclear contribution   :      9.92875      -2.62114      -2.63866
                        -----------------------------------------
Total Dipole Moment    :      4.12903      -1.68698      -0.11242
                        -----------------------------------------
Magnitude (a.u.)       :      4.46178
Magnitude (Debye)      :     11.34093

Rotational constants in cm-1:     0.159108     0.062474     0.047603
Rotational constants in MHz :  4769.938632  1872.932224  1427.103830

                             ****ORCA TERMINATED NORMALLY****
TOTAL RUN TIME: 0 days 0 hours 0 minutes 35 seconds 628 msec
