                         Program Version 5.0.0 -  RELEASE  -
|  1> !B3LYP D3BJ RIJCOSX def2-SVPD def2/J TightSCF
|  2> *xyz 0 1
|  3> C          0.64866        1.00359       -3.64560
|  4> C          0.13297        2.38587       -4.02462
|  5> C         -1.36646        2.47911       -4.31393
|  6> C         -2.35773        2.30686       -3.13675
|  7> H         -1.63680        1.72709       -5.06399
|  8> H         -1.58235        3.44561       -4.76869
|  9> F         -3.44376        2.84652       -3.25274
| 10> O         -1.97092        1.58304       -2.15123
| 11> H          0.41484        3.10285       -3.24517
| 12> H          0.68317        2.68756       -4.91972
| 13> H          0.37534        0.30051       -4.40446
| 14> H          0.21856        0.70606       -2.71212
| 15> H          1.71431        1.03324       -3.55398
| 16> *
| 17> %MaxCore 64000
| 18>
| 19> %pal nprocs 4
| 20> end
| 21>
| 22> %scf
| 23>   MaxIter 150
| 24> end
| 25>
| 26>
| 27>                          ****END OF INPUT****

CARTESIAN COORDINATES (ANGSTROEM)
---------------------------------
  C      0.648660    1.003590   -3.645600
  C      0.132970    2.385870   -4.024620
  C     -1.366460    2.479110   -4.313930
  C     -2.357730    2.306860   -3.136750
  H     -1.636800    1.727090   -5.063990
  H     -1.582350    3.445610   -4.768690
  F     -3.443760    2.846520   -3.252740
  O     -1.970920    1.583040   -2.151230
  H      0.414840    3.102850   -3.245170
  H      0.683170    2.687560   -4.919720
  H      0.375340    0.300510   -4.404460
  H      0.218560    0.706060   -2.712120
  H      1.714310    1.033240   -3.553980

 Total Charge           Charge          ....    0
 Multiplicity           Mult            ....    1
 Number of Electrons    NEL             ....   48
 Basis Dimension        Dim             ....  182

ORBITAL ENERGIES
----------------

  NO   OCC          E(Eh)            E(eV)
   0   2.0000     -24.785197      -674.4395
   1   2.0000     -19.146266      -520.9964
   2   2.0000     -10.371908      -282.2340
   3   2.0000     -10.217007      -278.0189
   4   2.0000     -10.194450      -277.4051
   5   2.0000     -10.163734      -276.5693
   6   2.0000      -1.338123       -36.4122
   7   2.0000      -1.011233       -27.5170
   8   2.0000      -0.802082       -21.8258
   9   2.0000      -0.726396       -19.7662
  10   2.0000      -0.673092       -18.3158
  11   2.0000      -0.610301       -16.6071
  12   2.0000      -0.570884       -15.5346
  13   2.0000      -0.546990       -14.8843
  14   2.0000      -0.507123       -13.7995
  15   2.0000      -0.462907       -12.5963
  16   2.0000      -0.453336       -12.3359
  17   2.0000      -0.422601       -11.4996
  18   2.0000      -0.391953       -10.6656
  19   2.0000      -0.362125        -9.8539
  20   2.0000      -0.358531        -9.7561
  21   2.0000      -0.348085        -9.4719
  22   2.0000      -0.342541        -9.3210
  23   2.0000      -0.288174        -7.8416
  24   0.0000      -0.036899        -1.0041
  25   0.0000       0.012828         0.3491
  26   0.0000       0.037468         1.0195
  27   0.0000       0.051328         1.3967
  28   0.0000       0.053770         1.4632

MULLIKEN ATOMIC CHARGES
-----------------------
   0 C :    0.983779
   1 C :   -0.160843
   2 C :    0.098122
   3 C :    0.726573
   4 H :    0.057261
   5 H :   -0.061818
   6 F :   -0.338034
   7 O :   -0.508767
   8 H :   -0.162096
   9 H :   -0.135341
  10 H :   -0.134906
  11 H :   -0.243661
  12 H :   -0.120270
Sum of atomic charges:    0.0000000

LOEWDIN ATOMIC CHARGES
----------------------
   0 C :    0.134039
   1 C :   -0.060329
   2 C :    0.048595
   3 C :   -0.002699
   4 H :    0.038626
   5 H :    0.018499
   6 F :   -0.004897
   7 O :   -0.143131
   8 H :    0.026767
   9 H :    0.018202
  10 H :   -0.018585
  11 H :   -0.035340
  12 H :   -0.019748

  Mayer bond orders larger than 0.100000
B(  0-C ,  1-C ) :   1.2913 B(  0-C ,  8-H ) :   0.1123 B(  0-C , 10-H ) :   0.7244
B(  0-C , 11-H ) :   0.7898 B(  0-C , 12-H ) :   0.6983 B(  1-C ,  2-C ) :   1.2388
B(  1-C ,  4-H ) :   0.1417 B(  1-C ,  5-H ) :   0.1465 B(  1-C ,  8-H ) :   0.8997
B(  1-C ,  9-H ) :   0.8257 B(  1-C , 10-H ) :   0.2232 B(  1-C , 11-H ) :   0.2376
B(  1-C , 12-H ) :   0.2421 B(  2-C ,  3-C ) :   1.0683 B(  2-C ,  4-H ) :   0.7917
B(  2-C ,  5-H ) :   0.8625 B(  2-C ,  6-F ) :   0.1025 B(  2-C ,  8-H ) :   0.1353
B(  2-C ,  9-H ) :   0.1246 B(  3-C ,  5-H ) :   0.1173 B(  3-C ,  6-F ) :   0.7796
B(  3-C ,  7-O ) :   1.7735 B(  6-F ,  7-O ) :   0.1059

Dispersion correction           -0.015541875
FINAL SINGLE POINT ENERGY      -331.307104594811

DIPOLE MOMENT
-------------
                                X             Y             Z
Electronic contribution:    -11.45608       2.90523       3.61877
Nuclear contribution   :     11.62992      -2.38586      -4.66016
                        -----------------------------------------
Total Dipole Moment    :      0.17384       0.51936      -1.04139
                        -----------------------------------------
Magnitude (a.u.)       :      1.17663
Magnitude (Debye)      :      2.99075

Rotational constants in cm-1:     0.249088     0.072929     0.060128
Rotational constants in MHz :  7467.482637  2186.350475  1802.579568

                             ****ORCA TERMINATED NORMALLY****
TOTAL RUN TIME: 0 days 0 hours 0 minutes 16 seconds 741 msec
