                         Program Version 5.0.0 -  RELEASE  -
|  1> !B3LYP D3BJ RIJCOSX def2-SVPD def2/J TightSCF
|  2> *xyz 0 1
|  3> C          0.64866        1.00359       -3.64560
|  4> C          0.28128        0.67645       -2.24018
|  5> C          0.13297        2.38587       -4.02462
|  6> C         -1.36646        2.47911       -4.31393
|  7> H          0.39079       -0.31925       -2.02649
|  8> H         -0.69269        0.99010       -2.13812
|  9> H          0.85421        1.21221       -1.57528
| 10> H          0.19099        0.23965       -4.27575
| 11> H          1.73157        0.93173       -3.75075
| 12> H          0.41484        3.10285       -3.24517
| 13> H          0.68317        2.68756       -4.91972
| 14> H         -1.62719        1.77449       -5.07580
| 15> H         -1.60483        3.46796       -4.64597
| 16> H         -1.91603        2.26007       -3.42236
| 17> *
| 18> %MaxCore 64000
| 19>
| 20> %pal nprocs 4
| 21> end
| 22>
| 23> %scf
| 24>   MaxIter 150
| 25> end
| 26>
| 27>
| 28>                          ****END OF INPUT****

CARTESIAN COORDINATES (ANGSTROEM)
---------------------------------
  C      0.648660    1.003590   -3.645600
  C      0.281280    0.676450   -2.240180
  C      0.132970    2.385870   -4.024620
  C     -1.366460    2.479110   -4.313930
  H      0.390790   -0.319250   -2.026490
  H     -0.692690    0.990100   -2.138120
  H      0.854210    1.212210   -1.575280
  H      0.190990    0.239650   -4.275750
  H      1.731570    0.931730   -3.750750
  H      0.414840    3.102850   -3.245170
  H      0.683170    2.687560   -4.919720
  H     -1.627190    1.774490   -5.075800
  H     -1.604830    3.467960   -4.645970
  H     -1.916030    2.260070   -3.422360

 Total Charge           Charge          ....    0
 Multiplicity           Mult            ....    1
 Number of Electrons    NEL             ....   34
 Basis Dimension        Dim             ....  160

ORBITAL ENERGIES
----------------

  NO   OCC          E(Eh)            E(eV)
   0   2.0000     -10.172203      -276.7997
   1   2.0000     -10.167645      -276.6757
   2   2.0000     -10.164974      -276.6030
   3   2.0000     -10.144160      -276.0366
   4   2.0000      -0.795815       -21.6552
   5   2.0000      -0.722698       -19.6656
   6   2.0000      -0.636223       -17.3125
   7   2.0000      -0.563213       -15.3258
   8   2.0000      -0.468961       -12.7611
   9   2.0000      -0.457191       -12.4408
  10   2.0000      -0.427180       -11.6242
  11   2.0000      -0.395527       -10.7628
  12   2.0000      -0.377846       -10.2817
  13   2.0000      -0.363652        -9.8955
  14   2.0000      -0.327569        -8.9136
  15   2.0000      -0.325541        -8.8584
  16   2.0000      -0.314725        -8.5641
  17   0.0000       0.025316         0.6889
  18   0.0000       0.049980         1.3600
  19   0.0000       0.052978         1.4416
  20   0.0000       0.058258         1.5853
  21   0.0000       0.097460         2.6520

MULLIKEN ATOMIC CHARGES
-----------------------
   0 C :   -0.073644
   1 C :    1.408110
   2 C :   -0.173465
   3 C :    0.983153
   4 H :   -0.317879
   5 H :   -0.522337
   6 H :   -0.152776
   7 H :   -0.112197
   8 H :   -0.245910
   9 H :   -0.135112
  10 H :   -0.190281
  11 H :   -0.064922
  12 H :   -0.132677
  13 H :   -0.270063
Sum of atomic charges:    0.0000000

LOEWDIN ATOMIC CHARGES
----------------------
   0 C :   -0.073109
   1 C :    0.132705
   2 C :   -0.076961
   3 C :    0.134766
   4 H :   -0.034297
   5 H :   -0.048059
   6 H :   -0.029700
   7 H :    0.019968
   8 H :    0.017478
   9 H :    0.021067
  10 H :    0.010105
  11 H :   -0.019784
  12 H :   -0.021669
  13 H :   -0.032510

  Mayer bond orders larger than 0.100000
B(  0-C ,  1-C ) :   1.1904 B(  0-C ,  2-C ) :   1.1966 B(  0-C ,  4-H ) :   0.2445
B(  0-C ,  5-H ) :   0.3362 B(  0-C ,  6-H ) :   0.2534 B(  0-C ,  7-H ) :   0.8464
B(  0-C ,  8-H ) :   0.8900 B(  0-C ,  9-H ) :   0.1239 B(  0-C , 10-H ) :   0.1172
B(  1-C ,  4-H ) :   0.5739 B(  1-C ,  5-H ) :   0.4705 B(  1-C ,  6-H ) :   0.5726
B(  1-C ,  7-H ) :   0.1139 B(  2-C ,  3-C ) :   1.2422 B(  2-C ,  8-H ) :   0.1260
B(  2-C ,  9-H ) :   0.8881 B(  2-C , 10-H ) :   0.9036 B(  2-C , 11-H ) :   0.2313
B(  2-C , 12-H ) :   0.2500 B(  2-C , 13-H ) :   0.2270 B(  3-C , 11-H ) :   0.7329
B(  3-C , 12-H ) :   0.7047 B(  3-C , 13-H ) :   0.7768 B(  5-H ,  6-H ) :   0.1847

Dispersion correction           -0.015337408
FINAL SINGLE POINT ENERGY      -158.224714545217

DIPOLE MOMENT
-------------
                                X             Y             Z
Electronic contribution:      0.65160       0.02023      -0.38621
Nuclear contribution   :     -0.63302      -0.01177       0.37643
                        -----------------------------------------
Total Dipole Moment    :      0.01858       0.00846      -0.00978
                        -----------------------------------------
Magnitude (a.u.)       :      0.02264
Magnitude (Debye)      :      0.05755

Rotational constants in cm-1:     0.480601     0.156500     0.138605
Rotational constants in MHz : 14408.061205  4691.756081  4155.280646

                             ****ORCA TERMINATED NORMALLY****
TOTAL RUN TIME: 0 days 0 hours 0 minutes 11 seconds 753 msec
