                         Program Version 5.0.0 -  RELEASE  -
|  1> !B3LYP D3BJ RIJCOSX def2-SVPD def2/J TightSCF
|  2> *xyz 0 1
|  3> C          0.64866        1.00359       -3.64560
|  4> C          0.13297        2.38587       -4.02462
|  5> C         -1.36646        2.47911       -4.31393
|  6> C         -2.35773        2.30686       -3.13675
|  7> H         -1.63680        1.72709       -5.06399
|  8> H         -1.58235        3.44561       -4.76869
|  9> O         -3.44376        2.84652       -3.25274
| 10> F         -1.97092        1.58304       -2.15123
| 11> H          0.41484        3.10285       -3.24517
| 12> H          0.68317        2.68756       -4.91972
| 13> H          0.37534        0.30051       -4.40446
| 14> H          0.21856        0.70606       -2.71212
| 15> H          1.71431        1.03324       -3.55398
| 16> *
| 17> %MaxCore 64000
| 18>
| 19> %pal nprocs 4
| 20> end
| 21>
| 22> %scf
| 23>   MaxIter 150
| 24> end
| 25>
| 26>
| 27>                          ****END OF INPUT****

CARTESIAN COORDINATES (ANGSTROEM)
---------------------------------
  C      0.648660    1.003590   -3.645600
  C      0.132970    2.385870   -4.024620
  C     -1.366460    2.479110   -4.313930
  C     -2.357730    2.306860   -3.136750
  H     -1.636800    1.727090   -5.063990
  H     -1.582350    3.445610   -4.768690
  O     -3.443760    2.846520   -3.252740
  F     -1.970920    1.583040   -2.151230
  H      0.414840    3.102850   -3.245170
  H      0.683170    2.687560   -4.919720
  H      0.375340    0.300510   -4.404460
  H      0.218560    0.706060   -2.712120
  H      1.714310    1.033240   -3.553980

 Total Charge           Charge          ....    0
 Multiplicity           Mult            ....    1
 Number of Electrons    NEL             ....   48
 Basis Dimension        Dim             ....  182

ORBITAL ENERGIES
----------------

  NO   OCC          E(Eh)            E(eV)
   0   2.0000     -24.761327      -673.7900
   1   2.0000     -19.155533      -521.2485
   2   2.0000     -10.365854      -282.0692
   3   2.0000     -10.215208      -277.9699
   4   2.0000     -10.199002      -277.5289
   5   2.0000     -10.177566      -276.9456
   6   2.0000      -1.289524       -35.0897
   7   2.0000      -1.050654       -28.5898
   8   2.0000      -0.807555       -21.9747
   9   2.0000      -0.723216       -19.6797
  10   2.0000      -0.653425       -17.7806
  11   2.0000      -0.613302       -16.6888
  12   2.0000      -0.545817       -14.8524
  13   2.0000      -0.534654       -14.5487
  14   2.0000      -0.500438       -13.6176
  15   2.0000      -0.461751       -12.5649
  16   2.0000      -0.457712       -12.4550
  17   2.0000      -0.430330       -11.7099
  18   2.0000      -0.412443       -11.2231
  19   2.0000      -0.378349       -10.2954
  20   2.0000      -0.371770       -10.1164
  21   2.0000      -0.351483        -9.5643
  22   2.0000      -0.350923        -9.5491
  23   2.0000      -0.300859        -8.1868
  24   0.0000      -0.031105        -0.8464
  25   0.0000       0.010812         0.2942
  26   0.0000       0.041109         1.1186
  27   0.0000       0.044565         1.2127
  28   0.0000       0.050375         1.3708

MULLIKEN ATOMIC CHARGES
-----------------------
   0 C :    0.988108
   1 C :   -0.122727
   2 C :    0.096995
   3 C :    0.709612
   4 H :    0.046681
   5 H :   -0.066677
   6 O :   -0.413525
   7 F :   -0.427246
   8 H :   -0.173060
   9 H :   -0.129446
  10 H :   -0.129972
  11 H :   -0.260301
  12 H :   -0.118442
Sum of atomic charges:    0.0000000

LOEWDIN ATOMIC CHARGES
----------------------
   0 C :    0.130277
   1 C :   -0.070278
   2 C :    0.058753
   3 C :   -0.002995
   4 H :    0.039898
   5 H :    0.029240
   6 O :   -0.109589
   7 F :   -0.048423
   8 H :    0.024088
   9 H :    0.018790
  10 H :   -0.017457
  11 H :   -0.034448
  12 H :   -0.017856

  Mayer bond orders larger than 0.100000
B(  0-C ,  1-C ) :   1.2815 B(  0-C ,  8-H ) :   0.1043 B(  0-C , 10-H ) :   0.7309
B(  0-C , 11-H ) :   0.7813 B(  0-C , 12-H ) :   0.7089 B(  1-C ,  2-C ) :   1.2106
B(  1-C ,  4-H ) :   0.1464 B(  1-C ,  5-H ) :   0.1323 B(  1-C ,  8-H ) :   0.8955
B(  1-C ,  9-H ) :   0.8147 B(  1-C , 10-H ) :   0.2250 B(  1-C , 11-H ) :   0.2330
B(  1-C , 12-H ) :   0.2421 B(  2-C ,  3-C ) :   1.0390 B(  2-C ,  4-H ) :   0.7885
B(  2-C ,  5-H ) :   0.8963 B(  2-C ,  8-H ) :   0.1410 B(  2-C ,  9-H ) :   0.1393
B(  3-C ,  5-H ) :   0.1462 B(  3-C ,  6-O ) :   1.8620 B(  3-C ,  7-F ) :   0.6983
B(  6-O ,  7-F ) :   0.1165

Dispersion correction           -0.015342720
FINAL SINGLE POINT ENERGY      -331.324323223553

DIPOLE MOMENT
-------------
                                X             Y             Z
Electronic contribution:     -8.88304       0.75567       5.44386
Nuclear contribution   :      9.96624      -0.95867      -5.90440
                        -----------------------------------------
Total Dipole Moment    :      1.08321      -0.20300      -0.46054
                        -----------------------------------------
Magnitude (a.u.)       :      1.19442
Magnitude (Debye)      :      3.03598

Rotational constants in cm-1:     0.233484     0.076940     0.061803
Rotational constants in MHz :  6999.682494  2306.588565  1852.797552

                             ****ORCA TERMINATED NORMALLY****
TOTAL RUN TIME: 0 days 0 hours 0 minutes 17 seconds 131 msec
