                         Program Version 5.0.0 -  RELEASE  -
|  1> !M062X D3Zero RIJCOSX def2-SVP def2/J TightSCF
|  2> *xyz -1 1
|  3> C          1.44442        5.26658       -0.97546
|  4> O          1.56525        4.23349       -1.86489
|  5> C          0.14812        5.21087       -0.13809
|  6> H          1.47425        6.26464       -1.47692
|  7> H          2.28962        5.30327       -0.26445
|  8> H         -0.69779        5.17417       -0.79230
|  9> H          0.08430        6.08276        0.47887
| 10> H          0.15965        4.33708        0.47938
| 11> *
| 12> %MaxCore 64000
| 13>
| 14> %pal nprocs 4
| 15> end
| 16>
| 17> %scf
| 18>   MaxIter 150
| 19> end
| 20>
| 21>
| 22>                          ****END OF INPUT****

CARTESIAN COORDINATES (ANGSTROEM)
---------------------------------
  C      1.444420    5.266580   -0.975460
  O      1.565250    4.233490   -1.864890
  C      0.148120    5.210870   -0.138090
  H      1.474250    6.264640   -1.476920
  H      2.289620    5.303270   -0.264450
  H     -0.697790    5.174170   -0.792300
  H      0.084300    6.082760    0.478870
  H      0.159650    4.337080    0.479380

 Total Charge           Charge          ....   -1
 Multiplicity           Mult            ....    1
 Number of Electrons    NEL             ....   26
 Basis Dimension        Dim             ....   67

ORBITAL ENERGIES
----------------

  NO   OCC          E(Eh)            E(eV)
   0   2.0000     -19.239555      -523.5349
   1   2.0000     -10.340398      -281.3765
   2   2.0000     -10.328291      -281.0471
   3   2.0000      -0.736547       -20.0425
   4   2.0000      -0.592901       -16.1337
   5   2.0000      -0.427353       -11.6289
   6   2.0000      -0.301433        -8.2024
   7   2.0000      -0.278697        -7.5837
   8   2.0000      -0.217598        -5.9211
   9   2.0000      -0.201087        -5.4718
  10   2.0000      -0.137070        -3.7299
  11   2.0000       0.009567         0.2603
  12   2.0000       0.011886         0.3234
  13   0.0000       0.291206         7.9241
  14   0.0000       0.336127         9.1465
  15   0.0000       0.349488         9.5100
  16   0.0000       0.358074         9.7437
  17   0.0000       0.399569        10.8728

MULLIKEN ATOMIC CHARGES
-----------------------
   0 C :    0.238928
   1 O :   -0.745202
   2 C :   -0.026844
   3 H :   -0.156442
   4 H :   -0.151801
   5 H :   -0.035750
   6 H :   -0.087011
   7 H :   -0.035877
Sum of atomic charges:   -1.0000000

LOEWDIN ATOMIC CHARGES
----------------------
   0 C :    0.012435
   1 O :   -0.688860
   2 C :   -0.118785
   3 H :   -0.081096
   4 H :   -0.077444
   5 H :   -0.009090
   6 H :   -0.027944
   7 H :   -0.009215

  Mayer bond orders larger than 0.100000
B(  0-C ,  1-O ) :   1.4770 B(  0-C ,  2-C ) :   0.9915 B(  0-C ,  3-H ) :   0.8810
B(  0-C ,  4-H ) :   0.8840 B(  2-C ,  5-H ) :   0.9636 B(  2-C ,  6-H ) :   0.9369
B(  2-C ,  7-H ) :   0.9660

Dispersion correction           -0.000015293
FINAL SINGLE POINT ENERGY      -154.193587222189

DIPOLE MOMENT
-------------
                                X             Y             Z
Electronic contribution:      1.18024      -1.84750      -2.21291
Nuclear contribution   :     -1.83256       2.47114       3.17273
                        -----------------------------------------
Total Dipole Moment    :     -0.65231       0.62364       0.95983
                        -----------------------------------------
Magnitude (a.u.)       :      1.31746
Magnitude (Debye)      :      3.34872

Rotational constants in cm-1:     1.286062     0.322579     0.284728
Rotational constants in MHz : 38555.180127  9670.683110  8535.939140

                             ****ORCA TERMINATED NORMALLY****
TOTAL RUN TIME: 0 days 0 hours 0 minutes 8 seconds 905 msec
