                         Program Version 5.0.0 -  RELEASE  -
|  1> !M062X D3Zero RIJCOSX def2-SVP def2/J TightSCF
|  2> *xyz 1 1
|  3> C         -0.70169        4.07250       -4.00392
|  4> N          0.68053        4.61482       -4.04800
|  5> H          0.69993        5.58489       -4.38827
|  6> H          1.27804        4.05598       -4.66824
|  7> H          1.08573        4.53358       -3.10652
|  8> C         -1.70347        5.09320       -3.47740
|  9> H         -0.99590        3.74039       -5.00065
| 10> H         -0.64358        3.20191       -3.35153
| 11> H         -1.73704        5.93384       -4.13853
| 12> H         -1.40338        5.41759       -2.50291
| 13> H         -2.67335        4.64479       -3.42108
| 14> *
| 15> %MaxCore 64000
| 16>
| 17> %pal nprocs 4
| 18> end
| 19>
| 20> %scf
| 21>   MaxIter 150
| 22> end
| 23>
| 24>
| 25>                          ****END OF INPUT****

CARTESIAN COORDINATES (ANGSTROEM)
---------------------------------
  C     -0.701690    4.072500   -4.003920
  N      0.680530    4.614820   -4.048000
  H      0.699930    5.584890   -4.388270
  H      1.278040    4.055980   -4.668240
  H      1.085730    4.533580   -3.106520
  C     -1.703470    5.093200   -3.477400
  H     -0.995900    3.740390   -5.000650
  H     -0.643580    3.201910   -3.351530
  H     -1.737040    5.933840   -4.138530
  H     -1.403380    5.417590   -2.502910
  H     -2.673350    4.644790   -3.421080

 Total Charge           Charge          ....    1
 Multiplicity           Mult            ....    1
 Number of Electrons    NEL             ....   26
 Basis Dimension        Dim             ....   82

ORBITAL ENERGIES
----------------

  NO   OCC          E(Eh)            E(eV)
   0   2.0000     -15.099649      -410.8823
   1   2.0000     -10.804979      -294.0184
   2   2.0000     -10.726263      -291.8765
   3   2.0000      -1.316580       -35.8260
   4   2.0000      -1.053473       -28.6665
   5   2.0000      -0.925245       -25.1772
   6   2.0000      -0.881740       -23.9934
   7   2.0000      -0.862771       -23.4772
   8   2.0000      -0.766682       -20.8625
   9   2.0000      -0.711251       -19.3541
  10   2.0000      -0.646514       -17.5925
  11   2.0000      -0.630002       -17.1432
  12   2.0000      -0.613365       -16.6905
  13   0.0000      -0.147616        -4.0168
  14   0.0000      -0.088796        -2.4163
  15   0.0000      -0.082233        -2.2377
  16   0.0000      -0.050660        -1.3785
  17   0.0000      -0.009439        -0.2568

MULLIKEN ATOMIC CHARGES
-----------------------
   0 C :   -0.089050
   1 N :   -0.046773
   2 H :    0.229322
   3 H :    0.230901
   4 H :    0.233060
   5 C :   -0.078240
   6 H :    0.127329
   7 H :    0.118257
   8 H :    0.082162
   9 H :    0.076500
  10 H :    0.116532
Sum of atomic charges:    1.0000000

LOEWDIN ATOMIC CHARGES
----------------------
   0 C :    0.046841
   1 N :    0.284404
   2 H :    0.147219
   3 H :    0.151184
   4 H :    0.151441
   5 C :   -0.043917
   6 H :    0.058010
   7 H :    0.055087
   8 H :    0.042353
   9 H :    0.040922
  10 H :    0.066456

  Mayer bond orders larger than 0.100000
B(  0-C ,  1-N ) :   0.9092 B(  0-C ,  5-C ) :   1.0889 B(  0-C ,  6-H ) :   0.9523
B(  0-C ,  7-H ) :   0.9525 B(  1-N ,  2-H ) :   0.9258 B(  1-N ,  3-H ) :   0.9277
B(  1-N ,  4-H ) :   0.9304 B(  5-C ,  8-H ) :   0.9668 B(  5-C ,  9-H ) :   0.9705
B(  5-C , 10-H ) :   0.9582

Dispersion correction           -0.000054032
FINAL SINGLE POINT ENERGY      -135.348834469318

DIPOLE MOMENT
-------------
                                X             Y             Z
Electronic contribution:      1.81407      -0.32568      -0.46333
Nuclear contribution   :     -0.23930       0.27560       0.19485
                        -----------------------------------------
Total Dipole Moment    :      1.57477      -0.05008      -0.26848
                        -----------------------------------------
Magnitude (a.u.)       :      1.59828
Magnitude (Debye)      :      4.06250

Rotational constants in cm-1:     1.018556     0.279088     0.248454
Rotational constants in MHz : 30535.536069  8366.847891  7448.451392

                             ****ORCA TERMINATED NORMALLY****
TOTAL RUN TIME: 0 days 0 hours 0 minutes 9 seconds 694 msec
