                         Program Version 5.0.0 -  RELEASE  -
|  1> !M062X D3Zero RIJCOSX def2-SVP def2/J TightSCF
|  2> *xyz 0 1
|  3> C          1.44442        5.26658       -0.97546
|  4> F          1.56525        4.23349       -1.86489
|  5> C          0.14812        5.21087       -0.13809
|  6> H          1.47425        6.26464       -1.47692
|  7> H          2.28962        5.30327       -0.26445
|  8> H         -0.69779        5.17417       -0.79230
|  9> H          0.08430        6.08276        0.47887
| 10> H          0.15965        4.33708        0.47938
| 11> *
| 12> %MaxCore 64000
| 13>
| 14> %pal nprocs 4
| 15> end
| 16>
| 17> %scf
| 18>   MaxIter 150
| 19> end
| 20>
| 21>
| 22>                          ****END OF INPUT****

CARTESIAN COORDINATES (ANGSTROEM)
---------------------------------
  C      1.444420    5.266580   -0.975460
  F      1.565250    4.233490   -1.864890
  C      0.148120    5.210870   -0.138090
  H      1.474250    6.264640   -1.476920
  H      2.289620    5.303270   -0.264450
  H     -0.697790    5.174170   -0.792300
  H      0.084300    6.082760    0.478870
  H      0.159650    4.337080    0.479380

 Total Charge           Charge          ....    0
 Multiplicity           Mult            ....    1
 Number of Electrons    NEL             ....   26
 Basis Dimension        Dim             ....   67

ORBITAL ENERGIES
----------------

  NO   OCC          E(Eh)            E(eV)
   0   2.0000     -25.224408      -686.3910
   1   2.0000     -10.626045      -289.1494
   2   2.0000     -10.545405      -286.9551
   3   2.0000      -1.306778       -35.5592
   4   2.0000      -0.849653       -23.1202
   5   2.0000      -0.710533       -19.3346
   6   2.0000      -0.581338       -15.8190
   7   2.0000      -0.572399       -15.5758
   8   2.0000      -0.535596       -14.5743
   9   2.0000      -0.476062       -12.9543
  10   2.0000      -0.465518       -12.6674
  11   2.0000      -0.399664       -10.8754
  12   2.0000      -0.393444       -10.7062
  13   0.0000       0.103685         2.8214
  14   0.0000       0.150121         4.0850
  15   0.0000       0.157964         4.2984
  16   0.0000       0.176473         4.8021
  17   0.0000       0.194392         5.2897

MULLIKEN ATOMIC CHARGES
-----------------------
   0 C :    0.197317
   1 F :   -0.284946
   2 C :   -0.115440
   3 H :    0.030732
   4 H :    0.029132
   5 H :    0.051721
   6 H :    0.040690
   7 H :    0.050794
Sum of atomic charges:    0.0000000

LOEWDIN ATOMIC CHARGES
----------------------
   0 C :    0.110648
   1 F :   -0.144909
   2 C :   -0.079552
   3 H :    0.013173
   4 H :    0.011706
   5 H :    0.028732
   6 H :    0.032443
   7 H :    0.027761

  Mayer bond orders larger than 0.100000
B(  0-C ,  1-F ) :   0.9694 B(  0-C ,  2-C ) :   1.0872 B(  0-C ,  3-H ) :   0.9626
B(  0-C ,  4-H ) :   0.9623 B(  2-C ,  5-H ) :   0.9718 B(  2-C ,  6-H ) :   0.9644
B(  2-C ,  7-H ) :   0.9730

Dispersion correction           -0.000019424
FINAL SINGLE POINT ENERGY      -178.833485956462

DIPOLE MOMENT
-------------
                                X             Y             Z
Electronic contribution:      2.31192      -2.75065      -3.71166
Nuclear contribution   :     -2.43357       3.25919       4.19687
                        -----------------------------------------
Total Dipole Moment    :     -0.12165       0.50855       0.48521
                        -----------------------------------------
Magnitude (a.u.)       :      0.71333
Magnitude (Debye)      :      1.81315

Rotational constants in cm-1:     1.264662     0.300144     0.266170
Rotational constants in MHz : 37913.611527  8998.095216  7979.576054

                             ****ORCA TERMINATED NORMALLY****
TOTAL RUN TIME: 0 days 0 hours 0 minutes 7 seconds 776 msec
