                         Program Version 5.0.0 -  RELEASE  -
|  1> !M062X D3Zero RIJCOSX def2-SVP def2/J TightSCF
|  2> *xyz 0 1
|  3> C         -0.70169        4.07250       -4.00392
|  4> C          0.68053        4.61482       -4.04800
|  5> H          0.69993        5.58489       -4.38827
|  6> H          1.27804        4.05598       -4.66824
|  7> H          1.08573        4.53358       -3.10652
|  8> C         -1.70347        5.09320       -3.47740
|  9> H         -0.99590        3.74039       -5.00065
| 10> H         -0.64358        3.20191       -3.35153
| 11> H         -1.73704        5.93384       -4.13853
| 12> H         -1.40338        5.41759       -2.50291
| 13> H         -2.67335        4.64479       -3.42108
| 14> *
| 15> %MaxCore 64000
| 16>
| 17> %pal nprocs 4
| 18> end
| 19>
| 20> %scf
| 21>   MaxIter 150
| 22> end
| 23>
| 24>
| 25>                          ****END OF INPUT****

CARTESIAN COORDINATES (ANGSTROEM)
---------------------------------
  C     -0.701690    4.072500   -4.003920
  C      0.680530    4.614820   -4.048000
  H      0.699930    5.584890   -4.388270
  H      1.278040    4.055980   -4.668240
  H      1.085730    4.533580   -3.106520
  C     -1.703470    5.093200   -3.477400
  H     -0.995900    3.740390   -5.000650
  H     -0.643580    3.201910   -3.351530
  H     -1.737040    5.933840   -4.138530
  H     -1.403380    5.417590   -2.502910
  H     -2.673350    4.644790   -3.421080

 Total Charge           Charge          ....    0
 Multiplicity           Mult            ....    1
 Number of Electrons    NEL             ....   26
 Basis Dimension        Dim             ....   82

ORBITAL ENERGIES
----------------

  NO   OCC          E(Eh)            E(eV)
   0   2.0000     -10.534210      -286.6504
   1   2.0000     -10.528497      -286.4950
   2   2.0000     -10.511646      -286.0364
   3   2.0000      -0.881000       -23.9732
   4   2.0000      -0.772832       -21.0298
   5   2.0000      -0.659468       -17.9450
   6   2.0000      -0.538677       -14.6582
   7   2.0000      -0.512116       -13.9354
   8   2.0000      -0.466527       -12.6949
   9   2.0000      -0.455240       -12.3877
  10   2.0000      -0.395560       -10.7637
  11   2.0000      -0.392514       -10.6809
  12   2.0000      -0.384843       -10.4721
  13   0.0000       0.102617         2.7923
  14   0.0000       0.151350         4.1185
  15   0.0000       0.154053         4.1920
  16   0.0000       0.158905         4.3240
  17   0.0000       0.186470         5.0741

MULLIKEN ATOMIC CHARGES
-----------------------
   0 C :   -0.149689
   1 C :    0.012383
   2 H :    0.009926
   3 H :    0.009454
   4 H :    0.013079
   5 C :   -0.051637
   6 H :    0.032111
   7 H :    0.030115
   8 H :    0.031771
   9 H :    0.028918
  10 H :    0.033569
Sum of atomic charges:   -0.0000000

LOEWDIN ATOMIC CHARGES
----------------------
   0 C :   -0.048674
   1 C :   -0.048794
   2 H :    0.013359
   3 H :    0.017514
   4 H :    0.017060
   5 C :   -0.058145
   6 H :    0.019916
   7 H :    0.022069
   8 H :    0.021587
   9 H :    0.021271
  10 H :    0.022837

  Mayer bond orders larger than 0.100000
B(  0-C ,  1-C ) :   1.0923 B(  0-C ,  5-C ) :   1.0916 B(  0-C ,  6-H ) :   0.9611
B(  0-C ,  7-H ) :   0.9601 B(  1-C ,  2-H ) :   0.9754 B(  1-C ,  3-H ) :   0.9662
B(  1-C ,  4-H ) :   0.9733 B(  5-C ,  8-H ) :   0.9747 B(  5-C ,  9-H ) :   0.9770
B(  5-C , 10-H ) :   0.9732

Dispersion correction           -0.000052614
FINAL SINGLE POINT ENERGY      -118.956204819184

DIPOLE MOMENT
-------------
                                X             Y             Z
Electronic contribution:     -0.13354      -0.29864      -0.13319
Nuclear contribution   :      0.16058       0.27975       0.12812
                        -----------------------------------------
Total Dipole Moment    :      0.02704      -0.01889      -0.00507
                        -----------------------------------------
Magnitude (a.u.)       :      0.03337
Magnitude (Debye)      :      0.08483

Rotational constants in cm-1:     1.027122     0.293327     0.260229
Rotational constants in MHz : 30792.337141  8793.723318  7801.458329

                             ****ORCA TERMINATED NORMALLY****
TOTAL RUN TIME: 0 days 0 hours 0 minutes 8 seconds 958 msec
