                         Program Version 5.0.0 -  RELEASE  -
|  1> !M062X D3Zero RIJCOSX def2-TZVP def2/J TightSCF xyzfile
|  2>
|  3> *xyzfile 0 1 D.xyz
|  4>
|  5> %MaxCore 64000
|  6>
|  7> %pal nprocs 18
|  8> end
|  9>
| 10> %scf
| 11>   MaxIter 150
| 12> end
| 13>
| 14>
| 15>                          ****END OF INPUT****

CARTESIAN COORDINATES (ANGSTROEM)
---------------------------------
  C     -0.701686    4.072499   -4.003920
  C      0.680528    4.614820   -4.048005
  C      1.444422    5.266576   -0.975463
  F      1.565248    4.233493   -1.864885
  H      0.699926    5.584890   -4.388272
  H      1.278044    4.055977   -4.668235
  H      1.085729    4.533581   -3.106524
  C     -1.703475    5.093197   -3.477396
  H     -0.995895    3.740394   -5.000654
  H     -0.643580    3.201910   -3.351533
  C     -1.313997    5.785995   -2.169271
  H     -1.877057    5.850103   -4.251154
  H     -2.653264    4.564475   -3.354796
  H     -2.097137    6.509395   -1.929558
  H     -0.416875    6.387594   -2.339097
  C     -1.073895    4.844728   -0.979904
  H     -1.968893    4.809608   -0.352568
  C      0.148120    5.210874   -0.138092
  H     -0.909754    3.827531   -1.338975
  H      1.474250    6.264638   -1.476917
  H      2.289622    5.303267   -0.264450
  H      0.261827    4.450942    0.640711
  H     -0.002516    6.171031    0.371483

 Total Charge           Charge          ....    0
 Multiplicity           Mult            ....    1
 Number of Electrons    NEL             ....   66
 Basis Dimension        Dim             ....  338

ORBITAL ENERGIES
----------------

  NO   OCC          E(Eh)            E(eV)
   0   2.0000     -25.252824      -687.1643
   1   2.0000     -10.622791      -289.0608
   2   2.0000     -10.544341      -286.9261
   3   2.0000     -10.530124      -286.5392
   4   2.0000     -10.523451      -286.3577
   5   2.0000     -10.516319      -286.1636
   6   2.0000     -10.503336      -285.8103
   7   2.0000     -10.449462      -284.3443
   8   2.0000      -1.377626       -37.4871
   9   2.0000      -0.914883       -24.8952
  10   2.0000      -0.883646       -24.0452
  11   2.0000      -0.819502       -22.2998
  12   2.0000      -0.784822       -21.3561
  13   2.0000      -0.719890       -19.5892
  14   2.0000      -0.682454       -18.5705
  15   2.0000      -0.628052       -17.0902
  16   2.0000      -0.620274       -16.8785
  17   2.0000      -0.606718       -16.5096
  18   2.0000      -0.575458       -15.6590
  19   2.0000      -0.531689       -14.4680
  20   2.0000      -0.526796       -14.3349
  21   2.0000      -0.498427       -13.5629
  22   2.0000      -0.485056       -13.1991
  23   2.0000      -0.456424       -12.4199
  24   2.0000      -0.444641       -12.0993
  25   2.0000      -0.433658       -11.8004
  26   2.0000      -0.425162       -11.5693
  27   2.0000      -0.401652       -10.9295
  28   2.0000      -0.390595       -10.6286
  29   2.0000      -0.373652       -10.1676
  30   2.0000      -0.360940        -9.8217
  31   2.0000      -0.358723        -9.7614
  32   2.0000      -0.341267        -9.2864
  33   0.0000       0.065258         1.7758
  34   0.0000       0.080340         2.1862
  35   0.0000       0.085554         2.3281
  36   0.0000       0.101838         2.7712
  37   0.0000       0.112747         3.0680

MULLIKEN ATOMIC CHARGES
-----------------------
   0 C :   -0.243669
   1 C :   -0.513892
   2 C :   -0.099397
   3 F :   -0.184164
   4 H :    0.135042
   5 H :    0.133809
   6 H :    0.204069
   7 C :   -0.293278
   8 H :    0.125090
   9 H :    0.132182
  10 C :   -0.293814
  11 H :    0.143567
  12 H :    0.135903
  13 H :    0.140211
  14 H :    0.144937
  15 C :   -0.281705
  16 H :    0.143495
  17 C :   -0.280581
  18 H :    0.163140
  19 H :    0.155110
  20 H :    0.140800
  21 H :    0.144136
  22 H :    0.149008
Sum of atomic charges:   -0.0000000

LOEWDIN ATOMIC CHARGES
----------------------
   0 C :   -0.310941
   1 C :   -0.322319
   2 C :   -0.346708
   3 F :    0.166001
   4 H :    0.103984
   5 H :    0.105120
   6 H :    0.069020
   7 C :   -0.276139
   8 H :    0.132192
   9 H :    0.132226
  10 C :   -0.268314
  11 H :    0.138104
  12 H :    0.136194
  13 H :    0.135798
  14 H :    0.136865
  15 C :   -0.268980
  16 H :    0.137773
  17 C :   -0.278618
  18 H :    0.142752
  19 H :    0.127566
  20 H :    0.126339
  21 H :    0.138192
  22 H :    0.143891

  Mayer bond orders larger than 0.100000
B(  0-C ,  1-C ) :   0.8540 B(  0-C ,  7-C ) :   0.9224 B(  0-C ,  8-H ) :   0.9904
B(  0-C ,  9-H ) :   0.9916 B(  1-C ,  4-H ) :   0.9861 B(  1-C ,  5-H ) :   0.9960
B(  1-C ,  6-H ) :   0.9517 B(  2-C ,  3-F ) :   0.9212 B(  2-C , 17-C ) :   0.9396
B(  2-C , 19-H ) :   0.9914 B(  2-C , 20-H ) :   0.9822 B(  7-C , 10-C ) :   0.9122
B(  7-C , 11-H ) :   0.9857 B(  7-C , 12-H ) :   0.9846 B( 10-C , 13-H ) :   0.9793
B( 10-C , 14-H ) :   0.9866 B( 10-C , 15-C ) :   0.8772 B( 15-C , 16-H ) :   0.9784
B( 15-C , 17-C ) :   0.9159 B( 15-C , 18-H ) :   0.9885 B( 17-C , 21-H ) :   0.9783
B( 17-C , 22-H ) :   0.9634

Dispersion correction           -0.000741841
FINAL SINGLE POINT ENERGY      -375.524008996405

DIPOLE MOMENT
-------------
                                X             Y             Z
Electronic contribution:      5.12096      -2.26612       2.78424
Nuclear contribution   :     -5.08831       2.68947      -1.99048
                        -----------------------------------------
Total Dipole Moment    :      0.03266       0.42335       0.79377
                        -----------------------------------------
Magnitude (a.u.)       :      0.90020
Magnitude (Debye)      :      2.28813

Rotational constants in cm-1:     0.084646     0.055672     0.038419
Rotational constants in MHz :  2537.625105  1668.992890  1151.781380

                             ****ORCA TERMINATED NORMALLY****
TOTAL RUN TIME: 0 days 0 hours 0 minutes 31 seconds 904 msec
