                         Program Version 5.0.0 -  RELEASE  -
|  1> !CAM-B3LYP RIJCOSX def2-TZVP def2/J TightSCF
|  2> *xyz -1 1
|  3> C         -0.77894        0.17197        1.80496
|  4> C         -0.60249       -0.63071        0.49224
|  5> H          0.31389       -1.24035        0.60350
|  6> H         -0.36383        0.11332       -0.30117
|  7> O         -1.71206       -1.37684        0.20253
|  8> H         -1.65864        0.77733        1.73736
|  9> H          0.07466        0.79896        1.95712
| 10> H         -0.87474       -0.50584        2.62734
| 11> *
| 12> %MaxCore 64000
| 13>
| 14> %pal nprocs 4
| 15> end
| 16>
| 17> %scf
| 18>   MaxIter 150
| 19> end
| 20>
| 21>
| 22>                          ****END OF INPUT****

CARTESIAN COORDINATES (ANGSTROEM)
---------------------------------
  C     -0.778940    0.171970    1.804960
  C     -0.602490   -0.630710    0.492240
  H      0.313890   -1.240350    0.603500
  H     -0.363830    0.113320   -0.301170
  O     -1.712060   -1.376840    0.202530
  H     -1.658640    0.777330    1.737360
  H      0.074660    0.798960    1.957120
  H     -0.874740   -0.505840    2.627340

 Total Charge           Charge          ....   -1
 Multiplicity           Mult            ....    1
 Number of Electrons    NEL             ....   26
 Basis Dimension        Dim             ....  123

ORBITAL ENERGIES
----------------

  NO   OCC          E(Eh)            E(eV)
   0   2.0000     -18.839591      -512.6513
   1   2.0000     -10.047958      -273.4188
   2   2.0000     -10.025704      -272.8133
   3   2.0000      -0.744894       -20.2696
   4   2.0000      -0.597075       -16.2472
   5   2.0000      -0.440759       -11.9937
   6   2.0000      -0.312852        -8.5131
   7   2.0000      -0.288337        -7.8461
   8   2.0000      -0.229814        -6.2536
   9   2.0000      -0.216007        -5.8779
  10   2.0000      -0.164300        -4.4708
  11   2.0000      -0.016950        -0.4612
  12   2.0000      -0.016102        -0.4382
  13   0.0000       0.253507         6.8983
  14   0.0000       0.290014         7.8917
  15   0.0000       0.315750         8.5920
  16   0.0000       0.320569         8.7231
  17   0.0000       0.353266         9.6129

MULLIKEN ATOMIC CHARGES
-----------------------
   0 C :   -0.172341
   1 C :    0.064002
   2 H :   -0.069168
   3 H :   -0.072103
   4 O :   -0.778686
   5 H :    0.028807
   6 H :   -0.027279
   7 H :    0.026767
Sum of atomic charges:   -1.0000000

LOEWDIN ATOMIC CHARGES
----------------------
   0 C :   -0.363624
   1 C :   -0.549628
   2 H :    0.052699
   3 H :    0.051604
   4 O :   -0.436049
   5 H :    0.086964
   6 H :    0.072135
   7 H :    0.085899

  Mayer bond orders larger than 0.100000
B(  0-C ,  1-C ) :   0.8801 B(  0-C ,  4-O ) :  -0.2234 B(  0-C ,  5-H ) :   0.9723
B(  0-C ,  6-H ) :   0.9334 B(  0-C ,  7-H ) :   0.9747 B(  1-C ,  2-H ) :   0.9251
B(  1-C ,  3-H ) :   0.9269 B(  1-C ,  4-O ) :   1.6122

FINAL SINGLE POINT ENERGY      -154.406941137834

DIPOLE MOMENT
-------------
                                X             Y             Z
Electronic contribution:     -1.72213      -1.91377      -1.51594
Nuclear contribution   :      2.47835       2.80827       2.30058
                        -----------------------------------------
Total Dipole Moment    :      0.75622       0.89450       0.78464
                        -----------------------------------------
Magnitude (a.u.)       :      1.40984
Magnitude (Debye)      :      3.58354

Rotational constants in cm-1:     1.255775     0.327783     0.287473
Rotational constants in MHz : 37647.186859  9826.677683  8618.224821

                             ****ORCA TERMINATED NORMALLY****
TOTAL RUN TIME: 0 days 0 hours 0 minutes 14 seconds 456 msec
