                         Program Version 5.0.0 -  RELEASE  -
|  1> !CAM-B3LYP RIJCOSX def2-TZVP def2/J TightSCF
|  2> *xyz 1 1
|  3> C         -2.12050        0.88520        1.78951
|  4> C         -0.77894        0.17197        1.80496
|  5> H         -2.32419        1.47265        2.68608
|  6> H         -2.18770        1.54127        0.91948
|  7> N         -3.17690       -0.15948        1.61070
|  8> H         -4.06474        0.23127        1.28675
|  9> H         -3.34407       -0.67151        2.48493
| 10> H         -2.71686       -0.78189        0.93588
| 11> H         -0.65708       -0.37837        0.89547
| 12> H         -0.74207       -0.50050        2.63642
| 13> H          0.00707        0.89251        1.89389
| 14> *
| 15> %MaxCore 64000
| 16>
| 17> %pal nprocs 4
| 18> end
| 19>
| 20> %scf
| 21>   MaxIter 150
| 22> end
| 23>
| 24>
| 25>                          ****END OF INPUT****

CARTESIAN COORDINATES (ANGSTROEM)
---------------------------------
  C     -2.120500    0.885200    1.789510
  C     -0.778940    0.171970    1.804960
  H     -2.324190    1.472650    2.686080
  H     -2.187700    1.541270    0.919480
  N     -3.176900   -0.159480    1.610700
  H     -4.064740    0.231270    1.286750
  H     -3.344070   -0.671510    2.484930
  H     -2.716860   -0.781890    0.935880
  H     -0.657080   -0.378370    0.895470
  H     -0.742070   -0.500500    2.636420
  H      0.007070    0.892510    1.893890

 Total Charge           Charge          ....    1
 Multiplicity           Mult            ....    1
 Number of Electrons    NEL             ....   26
 Basis Dimension        Dim             ....  141

ORBITAL ENERGIES
----------------

  NO   OCC          E(Eh)            E(eV)
   0   2.0000     -14.722401      -400.6169
   1   2.0000     -10.499836      -285.7151
   2   2.0000     -10.422460      -283.6096
   3   2.0000      -1.300375       -35.3850
   4   2.0000      -1.049914       -28.5696
   5   2.0000      -0.923695       -25.1350
   6   2.0000      -0.876894       -23.8615
   7   2.0000      -0.866056       -23.5666
   8   2.0000      -0.760926       -20.7058
   9   2.0000      -0.714394       -19.4397
  10   2.0000      -0.651858       -17.7380
  11   2.0000      -0.644672       -17.5424
  12   2.0000      -0.623048       -16.9540
  13   0.0000      -0.155515        -4.2318
  14   0.0000      -0.093898        -2.5551
  15   0.0000      -0.091226        -2.4824
  16   0.0000      -0.071975        -1.9585
  17   0.0000      -0.036846        -1.0026

MULLIKEN ATOMIC CHARGES
-----------------------
   0 C :   -0.201126
   1 C :   -0.373379
   2 H :    0.198106
   3 H :    0.190422
   4 N :   -0.276121
   5 H :    0.331176
   6 H :    0.325727
   7 H :    0.319421
   8 H :    0.146282
   9 H :    0.155376
  10 H :    0.184115
Sum of atomic charges:    1.0000000

LOEWDIN ATOMIC CHARGES
----------------------
   0 C :   -0.271907
   1 C :   -0.280850
   2 H :    0.151639
   3 H :    0.153789
   4 N :    0.169498
   5 H :    0.219629
   6 H :    0.222118
   7 H :    0.227016
   8 H :    0.128973
   9 H :    0.131749
  10 H :    0.148347

  Mayer bond orders larger than 0.100000
B(  0-C ,  1-C ) :   0.9615 B(  0-C ,  2-H ) :   0.9557 B(  0-C ,  3-H ) :   0.9538
B(  0-C ,  4-N ) :   0.8477 B(  1-C ,  8-H ) :   0.9559 B(  1-C ,  9-H ) :   0.9613
B(  1-C , 10-H ) :   0.9636 B(  4-N ,  5-H ) :   0.8777 B(  4-N ,  6-H ) :   0.8805
B(  4-N ,  7-H ) :   0.8775

FINAL SINGLE POINT ENERGY      -135.503821097097

DIPOLE MOMENT
-------------
                                X             Y             Z
Electronic contribution:     -1.83544      -0.15286      -0.05782
Nuclear contribution   :      0.50278      -0.30871      -0.06979
                        -----------------------------------------
Total Dipole Moment    :     -1.33265      -0.46158      -0.12761
                        -----------------------------------------
Magnitude (a.u.)       :      1.41609
Magnitude (Debye)      :      3.59941

Rotational constants in cm-1:     0.963746     0.295157     0.256910
Rotational constants in MHz : 28892.375247  8848.576767  7701.963879

                             ****ORCA TERMINATED NORMALLY****
TOTAL RUN TIME: 0 days 0 hours 0 minutes 17 seconds 459 msec
