                         Program Version 5.0.0 -  RELEASE  -
|  1> !CAM-B3LYP RIJCOSX def2-TZVP def2/J TightSCF
|  2> *xyz 0 1
|  3> C         -0.77894        0.17197        1.80496
|  4> C         -0.60249       -0.63071        0.49224
|  5> H          0.31389       -1.24035        0.60350
|  6> H         -0.36383        0.11332       -0.30117
|  7> F         -1.71206       -1.37684        0.20253
|  8> H         -1.65864        0.77733        1.73736
|  9> H          0.07466        0.79896        1.95712
| 10> H         -0.87474       -0.50584        2.62734
| 11> *
| 12> %MaxCore 64000
| 13>
| 14> %pal nprocs 4
| 15> end
| 16>
| 17> %scf
| 18>   MaxIter 150
| 19> end
| 20>
| 21>
| 22>                          ****END OF INPUT****

CARTESIAN COORDINATES (ANGSTROEM)
---------------------------------
  C     -0.778940    0.171970    1.804960
  C     -0.602490   -0.630710    0.492240
  H      0.313890   -1.240350    0.603500
  H     -0.363830    0.113320   -0.301170
  F     -1.712060   -1.376840    0.202530
  H     -1.658640    0.777330    1.737360
  H      0.074660    0.798960    1.957120
  H     -0.874740   -0.505840    2.627340

 Total Charge           Charge          ....    0
 Multiplicity           Mult            ....    1
 Number of Electrons    NEL             ....   26
 Basis Dimension        Dim             ....  123

ORBITAL ENERGIES
----------------

  NO   OCC          E(Eh)            E(eV)
   0   2.0000     -24.741653      -673.2546
   1   2.0000     -10.323813      -280.9252
   2   2.0000     -10.237708      -278.5822
   3   2.0000      -1.280446       -34.8427
   4   2.0000      -0.845065       -22.9954
   5   2.0000      -0.710432       -19.3318
   6   2.0000      -0.580803       -15.8045
   7   2.0000      -0.569674       -15.5016
   8   2.0000      -0.530172       -14.4267
   9   2.0000      -0.474972       -12.9246
  10   2.0000      -0.468839       -12.7578
  11   2.0000      -0.401620       -10.9286
  12   2.0000      -0.398930       -10.8554
  13   0.0000       0.078297         2.1306
  14   0.0000       0.116823         3.1789
  15   0.0000       0.137371         3.7381
  16   0.0000       0.139888         3.8065
  17   0.0000       0.153679         4.1818

MULLIKEN ATOMIC CHARGES
-----------------------
   0 C :   -0.332488
   1 C :    0.044924
   2 H :    0.091583
   3 H :    0.090798
   4 F :   -0.241300
   5 H :    0.119764
   6 H :    0.108608
   7 H :    0.118112
Sum of atomic charges:   -0.0000000

LOEWDIN ATOMIC CHARGES
----------------------
   0 C :   -0.309858
   1 C :   -0.366814
   2 H :    0.115696
   3 H :    0.116985
   4 F :    0.093190
   5 H :    0.116324
   6 H :    0.119325
   7 H :    0.115152

  Mayer bond orders larger than 0.100000
B(  0-C ,  1-C ) :   0.9679 B(  0-C ,  5-H ) :   0.9725 B(  0-C ,  6-H ) :   0.9610
B(  0-C ,  7-H ) :   0.9739 B(  1-C ,  2-H ) :   0.9719 B(  1-C ,  3-H ) :   0.9731
B(  1-C ,  4-F ) :   0.9908

FINAL SINGLE POINT ENERGY      -179.061564114948

DIPOLE MOMENT
-------------
                                X             Y             Z
Electronic contribution:     -2.73018      -3.29092      -2.82691
Nuclear contribution   :      3.27800       3.70743       3.04146
                        -----------------------------------------
Total Dipole Moment    :      0.54782       0.41651       0.21455
                        -----------------------------------------
Magnitude (a.u.)       :      0.72085
Magnitude (Debye)      :      1.83224

Rotational constants in cm-1:     1.234437     0.305084     0.268865
Rotational constants in MHz : 37007.496448  9146.194083  8060.380630

                             ****ORCA TERMINATED NORMALLY****
TOTAL RUN TIME: 0 days 0 hours 0 minutes 12 seconds 892 msec
