                         Program Version 5.0.0 -  RELEASE  -
|  1> !CAM-B3LYP RIJCOSX def2-TZVP def2/J TightSCF
|  2> *xyz 0 1
|  3> C         -2.12050        0.88520        1.78951
|  4> C         -0.77894        0.17197        1.80496
|  5> H         -2.32419        1.47265        2.68608
|  6> H         -2.18770        1.54127        0.91948
|  7> C         -3.17690       -0.15948        1.61070
|  8> H         -4.06474        0.23127        1.28675
|  9> H         -3.34407       -0.67151        2.48493
| 10> H         -2.71686       -0.78189        0.93588
| 11> H         -0.65708       -0.37837        0.89547
| 12> H         -0.74207       -0.50050        2.63642
| 13> H          0.00707        0.89251        1.89389
| 14> *
| 15> %MaxCore 64000
| 16>
| 17> %pal nprocs 4
| 18> end
| 19>
| 20> %scf
| 21>   MaxIter 150
| 22> end
| 23>
| 24>
| 25>                          ****END OF INPUT****

CARTESIAN COORDINATES (ANGSTROEM)
---------------------------------
  C     -2.120500    0.885200    1.789510
  C     -0.778940    0.171970    1.804960
  H     -2.324190    1.472650    2.686080
  H     -2.187700    1.541270    0.919480
  C     -3.176900   -0.159480    1.610700
  H     -4.064740    0.231270    1.286750
  H     -3.344070   -0.671510    2.484930
  H     -2.716860   -0.781890    0.935880
  H     -0.657080   -0.378370    0.895470
  H     -0.742070   -0.500500    2.636420
  H      0.007070    0.892510    1.893890

 Total Charge           Charge          ....    0
 Multiplicity           Mult            ....    1
 Number of Electrons    NEL             ....   26
 Basis Dimension        Dim             ....  141

ORBITAL ENERGIES
----------------

  NO   OCC          E(Eh)            E(eV)
   0   2.0000     -10.228634      -278.3353
   1   2.0000     -10.220196      -278.1057
   2   2.0000     -10.200449      -277.5683
   3   2.0000      -0.879361       -23.9286
   4   2.0000      -0.766443       -20.8560
   5   2.0000      -0.662926       -18.0391
   6   2.0000      -0.543648       -14.7934
   7   2.0000      -0.523962       -14.2577
   8   2.0000      -0.467600       -12.7240
   9   2.0000      -0.452184       -12.3046
  10   2.0000      -0.405305       -11.0289
  11   2.0000      -0.396248       -10.7825
  12   2.0000      -0.392636       -10.6842
  13   0.0000       0.079229         2.1559
  14   0.0000       0.119862         3.2616
  15   0.0000       0.126705         3.4478
  16   0.0000       0.132539         3.6066
  17   0.0000       0.151582         4.1247

MULLIKEN ATOMIC CHARGES
-----------------------
   0 C :   -0.151749
   1 C :   -0.344069
   2 H :    0.088823
   3 H :    0.086190
   4 C :   -0.312881
   5 H :    0.108634
   6 H :    0.108354
   7 H :    0.090521
   8 H :    0.108840
   9 H :    0.107277
  10 H :    0.110060
Sum of atomic charges:    0.0000000

LOEWDIN ATOMIC CHARGES
----------------------
   0 C :   -0.318542
   1 C :   -0.308669
   2 H :    0.126078
   3 H :    0.131009
   4 C :   -0.301501
   5 H :    0.103660
   6 H :    0.106987
   7 H :    0.115799
   8 H :    0.115180
   9 H :    0.116380
  10 H :    0.113620

  Mayer bond orders larger than 0.100000
B(  0-C ,  1-C ) :   0.9576 B(  0-C ,  2-H ) :   0.9773 B(  0-C ,  3-H ) :   0.9787
B(  0-C ,  4-C ) :   0.9383 B(  1-C ,  8-H ) :   0.9790 B(  1-C ,  9-H ) :   0.9784
B(  1-C , 10-H ) :   0.9847 B(  4-C ,  5-H ) :   0.9867 B(  4-C ,  6-H ) :   0.9847
B(  4-C ,  7-H ) :   0.9808

FINAL SINGLE POINT ENERGY      -119.089872782143

DIPOLE MOMENT
-------------
                                X             Y             Z
Electronic contribution:     -0.14572       0.47577       0.11383
Nuclear contribution   :      0.13334      -0.45108      -0.10852
                        -----------------------------------------
Total Dipole Moment    :     -0.01238       0.02469       0.00531
                        -----------------------------------------
Magnitude (a.u.)       :      0.02813
Magnitude (Debye)      :      0.07149

Rotational constants in cm-1:     0.972269     0.310387     0.269029
Rotational constants in MHz : 29147.878530  9305.178981  8065.286472

                             ****ORCA TERMINATED NORMALLY****
TOTAL RUN TIME: 0 days 0 hours 0 minutes 16 seconds 822 msec
