                         Program Version 5.0.0 -  RELEASE  -
|  1> !CAM-B3LYP RIJCOSX def2-TZVP def2/J TightSCF xyzfile
|  2>
|  3> *xyzfile 0 1 D.xyz
|  4>
|  5> %MaxCore 64000
|  6>
|  7> %pal nprocs 18
|  8> end
|  9>
| 10> %scf
| 11>   MaxIter 150
| 12> end
| 13>
| 14>
| 15>                          ****END OF INPUT****

CARTESIAN COORDINATES (ANGSTROEM)
---------------------------------
  C     -2.120502    0.885196    1.789506
  C     -0.778939    0.171966    1.804965
  H     -2.324193    1.472649    2.686078
  H     -2.187698    1.541272    0.919482
  C     -3.176900   -0.159484    1.610700
  H      0.015695    0.910767    1.939153
  H     -0.743553   -0.506827    2.665420
  C     -0.602493   -0.630712    0.492240
  H      0.313894   -1.240346    0.603498
  H     -0.363829    0.113322   -0.301169
  F     -1.712061   -1.376836    0.202535
  H     -4.064736    0.231272    1.286754
  H     -3.344073   -0.671511    2.484928
  H     -2.716861   -0.781886    0.935880

 Total Charge           Charge          ....    0
 Multiplicity           Mult            ....    1
 Number of Electrons    NEL             ....   42
 Basis Dimension        Dim             ....  209

ORBITAL ENERGIES
----------------

  NO   OCC          E(Eh)            E(eV)
   0   2.0000     -24.760875      -673.7777
   1   2.0000     -10.331377      -281.1311
   2   2.0000     -10.247481      -278.8481
   3   2.0000     -10.226682      -278.2822
   4   2.0000     -10.164803      -276.5983
   5   2.0000      -1.313896       -35.7529
   6   2.0000      -0.890127       -24.2216
   7   2.0000      -0.816499       -22.2181
   8   2.0000      -0.716057       -19.4849
   9   2.0000      -0.669466       -18.2171
  10   2.0000      -0.604723       -16.4554
  11   2.0000      -0.599874       -16.3234
  12   2.0000      -0.561947       -15.2914
  13   2.0000      -0.510181       -13.8827
  14   2.0000      -0.483142       -13.1470
  15   2.0000      -0.473659       -12.8889
  16   2.0000      -0.445727       -12.1289
  17   2.0000      -0.412622       -11.2280
  18   2.0000      -0.392250       -10.6737
  19   2.0000      -0.388252       -10.5649
  20   2.0000      -0.340346        -9.2613
  21   0.0000       0.073321         1.9952
  22   0.0000       0.105254         2.8641
  23   0.0000       0.110308         3.0016
  24   0.0000       0.124782         3.3955
  25   0.0000       0.140754         3.8301

MULLIKEN ATOMIC CHARGES
-----------------------
   0 C :   -0.171915
   1 C :   -0.228956
   2 H :    0.094431
   3 H :    0.085620
   4 C :   -0.399799
   5 H :    0.113941
   6 H :    0.106144
   7 C :    0.018526
   8 H :    0.108096
   9 H :    0.097841
  10 F :   -0.186152
  11 H :    0.094284
  12 H :    0.093502
  13 H :    0.174438
Sum of atomic charges:    0.0000000

LOEWDIN ATOMIC CHARGES
----------------------
   0 C :   -0.301614
   1 C :   -0.274726
   2 H :    0.127098
   3 H :    0.133956
   4 C :   -0.317775
   5 H :    0.139133
   6 H :    0.137308
   7 C :   -0.329718
   8 H :    0.123511
   9 H :    0.125456
  10 F :    0.157427
  11 H :    0.099148
  12 H :    0.101757
  13 H :    0.079039

  Mayer bond orders larger than 0.100000
B(  0-C ,  1-C ) :   0.9515 B(  0-C ,  2-H ) :   0.9758 B(  0-C ,  3-H ) :   0.9810
B(  0-C ,  4-C ) :   0.9309 B(  1-C ,  5-H ) :   0.9647 B(  1-C ,  6-H ) :   0.9712
B(  1-C ,  7-C ) :   0.9782 B(  4-C , 11-H ) :   0.9821 B(  4-C , 12-H ) :   0.9844
B(  4-C , 13-H ) :   0.9534 B(  7-C ,  8-H ) :   0.9689 B(  7-C ,  9-H ) :   0.9750
B(  7-C , 10-F ) :   0.9519

FINAL SINGLE POINT ENERGY      -257.607745146279

DIPOLE MOMENT
-------------
                                X             Y             Z
Electronic contribution:      0.90248      -4.19695      -3.73635
Nuclear contribution   :     -0.20666       4.43855       3.76066
                        -----------------------------------------
Total Dipole Moment    :      0.69581       0.24160       0.02431
                        -----------------------------------------
Magnitude (a.u.)       :      0.73696
Magnitude (Debye)      :      1.87322

Rotational constants in cm-1:     0.236353     0.155239     0.105045
Rotational constants in MHz :  7085.692869  4653.957069  3149.180346

                             ****ORCA TERMINATED NORMALLY****
TOTAL RUN TIME: 0 days 0 hours 0 minutes 11 seconds 900 msec
