                         Program Version 5.0.0 -  RELEASE  -
|  1> !wB97X-D3 RIJCOSX def2-TZVPD def2/J TightSCF
|  2> *xyz -1 1
|  3> C          3.51177       -2.80621       -6.49228
|  4> S          3.00462       -1.09621       -6.38926
|  5> O          4.12886       -0.32965       -6.95372
|  6> O          1.78128       -1.00078       -7.13640
|  7> O          2.85155       -0.78368       -4.95679
|  8> H          3.63615       -3.08010       -7.51913
|  9> H          2.76397       -3.42755       -6.04548
| 10> H          4.43892       -2.93511       -5.97393
| 11> *
| 12>
| 13> %MaxCore 64000
| 14>
| 15> %pal nprocs 8
| 16> end
| 17>
| 18> %scf
| 19>   MaxIter 150
| 20> end
| 21>
| 22>
| 23>                          ****END OF INPUT****

CARTESIAN COORDINATES (ANGSTROEM)
---------------------------------
  C      3.511770   -2.806210   -6.492280
  S      3.004620   -1.096210   -6.389260
  O      4.128860   -0.329650   -6.953720
  O      1.781280   -1.000780   -7.136400
  O      2.851550   -0.783680   -4.956790
  H      3.636150   -3.080100   -7.519130
  H      2.763970   -3.427550   -6.045480
  H      4.438920   -2.935110   -5.973930

 Total Charge           Charge          ....   -1
 Multiplicity           Mult            ....    1
 Number of Electrons    NEL             ....   50
 Basis Dimension        Dim             ....  230

ORBITAL ENERGIES
----------------

  NO   OCC          E(Eh)            E(eV)
   0   2.0000     -88.935497     -2420.0579
   1   2.0000     -19.010699      -517.3074
   2   2.0000     -19.000051      -517.0177
   3   2.0000     -18.999548      -517.0040
   4   2.0000     -10.125831      -275.5379
   5   2.0000      -7.997931      -217.6348
   6   2.0000      -5.952335      -161.9713
   7   2.0000      -5.950918      -161.9327
   8   2.0000      -5.950648      -161.9254
   9   2.0000      -1.036214       -28.1968
  10   2.0000      -0.902183       -24.5497
  11   2.0000      -0.882347       -24.0099
  12   2.0000      -0.699986       -19.0476
  13   2.0000      -0.493995       -13.4423
  14   2.0000      -0.398319       -10.8388
  15   2.0000      -0.390552       -10.6274
  16   2.0000      -0.389335       -10.5943
  17   2.0000      -0.343047        -9.3348
  18   2.0000      -0.341045        -9.2803
  19   2.0000      -0.246404        -6.7050
  20   2.0000      -0.245644        -6.6843
  21   2.0000      -0.208273        -5.6674
  22   2.0000      -0.201915        -5.4944
  23   2.0000      -0.194777        -5.3001
  24   2.0000      -0.155169        -4.2224
  25   0.0000       0.176639         4.8066
  26   0.0000       0.188909         5.1405
  27   0.0000       0.188971         5.1422
  28   0.0000       0.200372         5.4524
  29   0.0000       0.239343         6.5128

MULLIKEN ATOMIC CHARGES
-----------------------
   0 C :   -0.891083
   1 S :    1.192680
   2 O :   -0.713631
   3 O :   -0.683879
   4 O :   -0.712565
   5 H :    0.269148
   6 H :    0.271727
   7 H :    0.267603
Sum of atomic charges:   -1.0000000

LOEWDIN ATOMIC CHARGES
----------------------
   0 C :   -0.195233
   1 S :    0.321973
   2 O :   -0.425932
   3 O :   -0.395941
   4 O :   -0.424871
   5 H :    0.040035
   6 H :    0.039482
   7 H :    0.040488

  Mayer bond orders larger than 0.100000
B(  0-C ,  1-S ) :   0.8135 B(  0-C ,  2-O ) :   0.1241 B(  0-C ,  3-O ) :   0.1233
B(  0-C ,  4-O ) :   0.1239 B(  0-C ,  5-H ) :   0.9524 B(  0-C ,  6-H ) :   0.9493
B(  0-C ,  7-H ) :   0.9547 B(  1-S ,  2-O ) :   1.5165 B(  1-S ,  3-O ) :   1.5541
B(  1-S ,  4-O ) :   1.5183

Dispersion correction           -0.001518362
FINAL SINGLE POINT ENERGY      -663.905642228076

DIPOLE MOMENT
-------------
                                X             Y             Z
Electronic contribution:     -1.29324       4.03082       0.18222
Nuclear contribution   :      1.59265      -5.51967      -0.35565
                        -----------------------------------------
Total Dipole Moment    :      0.29941      -1.48884      -0.17343
                        -----------------------------------------
Magnitude (a.u.)       :      1.52852
Magnitude (Debye)      :      3.88519

Rotational constants in cm-1:     0.172598     0.157065     0.154689
Rotational constants in MHz :  5174.362736  4708.699947  4637.458896

                             ****ORCA TERMINATED NORMALLY****
TOTAL RUN TIME: 0 days 0 hours 0 minutes 18 seconds 848 msec
