                         Program Version 5.0.0 -  RELEASE  -
|  1> !wB97X-D3 RIJCOSX def2-TZVPD def2/J TightSCF
|  2> *xyz 1 1
|  3> C          4.49059        1.15590       -2.46929
|  4> N          4.30539        1.22276       -3.90832
|  5> C          4.63192        2.24637       -4.67096
|  6> N          4.54169        2.14399       -5.98714
|  7> N          5.08409        3.39358       -4.11855
|  8> H          4.92067        3.57050       -3.13587
|  9> H          5.25465        4.19739       -4.70696
| 10> H          3.82453        0.44911       -4.35093
| 11> H          4.34337        1.24932       -6.41665
| 12> H          4.67671        2.95662       -6.57411
| 13> H          5.00867        2.03053       -2.13534
| 14> H          5.06354        0.28631       -2.22344
| 15> H          3.53600        1.10160       -1.98897
| 16> *
| 17>
| 18> %MaxCore 64000
| 19>
| 20> %pal nprocs 8
| 21> end
| 22>
| 23> %scf
| 24>   MaxIter 150
| 25> end
| 26>
| 27>
| 28>                          ****END OF INPUT****

CARTESIAN COORDINATES (ANGSTROEM)
---------------------------------
  C      4.490590    1.155900   -2.469290
  N      4.305390    1.222760   -3.908320
  C      4.631920    2.246370   -4.670960
  N      4.541690    2.143990   -5.987140
  N      5.084090    3.393580   -4.118550
  H      4.920670    3.570500   -3.135870
  H      5.254650    4.197390   -4.706960
  H      3.824530    0.449110   -4.350930
  H      4.343370    1.249320   -6.416650
  H      4.676710    2.956620   -6.574110
  H      5.008670    2.030530   -2.135340
  H      5.063540    0.286310   -2.223440
  H      3.536000    1.101600   -1.988970

 Total Charge           Charge          ....    1
 Multiplicity           Mult            ....    1
 Number of Electrons    NEL             ....   40
 Basis Dimension        Dim             ....  257

ORBITAL ENERGIES
----------------

  NO   OCC          E(Eh)            E(eV)
   0   2.0000     -14.653221      -398.7344
   1   2.0000     -14.647849      -398.5882
   2   2.0000     -14.644812      -398.5056
   3   2.0000     -10.617907      -288.9279
   4   2.0000     -10.478673      -285.1392
   5   2.0000      -1.338427       -36.4205
   6   2.0000      -1.225926       -33.3591
   7   2.0000      -1.209403       -32.9095
   8   2.0000      -1.023608       -27.8538
   9   2.0000      -0.938206       -25.5299
  10   2.0000      -0.895703       -24.3733
  11   2.0000      -0.861266       -23.4362
  12   2.0000      -0.794380       -21.6162
  13   2.0000      -0.790583       -21.5128
  14   2.0000      -0.759230       -20.6597
  15   2.0000      -0.740876       -20.1603
  16   2.0000      -0.694158       -18.8890
  17   2.0000      -0.680642       -18.5212
  18   2.0000      -0.574466       -15.6320
  19   2.0000      -0.548824       -14.9343
  20   0.0000      -0.092878        -2.5273
  21   0.0000      -0.086183        -2.3452
  22   0.0000      -0.057990        -1.5780
  23   0.0000      -0.053128        -1.4457
  24   0.0000      -0.023924        -0.6510

MULLIKEN ATOMIC CHARGES
-----------------------
   0 C :   -0.892930
   1 N :   -0.231779
   2 C :    0.909102
   3 N :   -0.413811
   4 N :   -0.392848
   5 H :    0.186255
   6 H :    0.205878
   7 H :    0.213384
   8 H :    0.216180
   9 H :    0.207722
  10 H :    0.328189
  11 H :    0.316138
  12 H :    0.348520
Sum of atomic charges:    1.0000000

LOEWDIN ATOMIC CHARGES
----------------------
   0 C :   -0.012916
   1 N :    0.046478
   2 C :   -0.429916
   3 N :    0.202280
   4 N :    0.198319
   5 H :    0.120513
   6 H :    0.138071
   7 H :    0.170726
   8 H :    0.144158
   9 H :    0.142720
  10 H :    0.078390
  11 H :    0.100576
  12 H :    0.100600

  Mayer bond orders larger than 0.100000
B(  0-C ,  1-N ) :   0.8984 B(  0-C ,  2-C ) :  -0.1916 B(  0-C , 10-H ) :   0.8656
B(  0-C , 11-H ) :   0.9204 B(  0-C , 12-H ) :   0.8709 B(  1-N ,  2-C ) :   1.2310
B(  1-N ,  3-N ) :   0.1054 B(  1-N ,  7-H ) :   1.0366 B(  2-C ,  3-N ) :   1.0218
B(  2-C ,  4-N ) :   1.1245 B(  3-N ,  8-H ) :   0.9972 B(  3-N ,  9-H ) :   1.0296
B(  4-N ,  5-H ) :   0.9594 B(  4-N ,  6-H ) :   1.0200

Dispersion correction           -0.002329592
FINAL SINGLE POINT ENERGY      -245.108769015714

DIPOLE MOMENT
-------------
                                X             Y             Z
Electronic contribution:      0.02516       0.69259      -2.68972
Nuclear contribution   :     -0.23495      -0.48067       2.19509
                        -----------------------------------------
Total Dipole Moment    :     -0.20979       0.21192      -0.49463
                        -----------------------------------------
Magnitude (a.u.)       :      0.57757
Magnitude (Debye)      :      1.46806

Rotational constants in cm-1:     0.315679     0.134071     0.096006
Rotational constants in MHz :  9463.824527  4019.347586  2878.182223

                             ****ORCA TERMINATED NORMALLY****
TOTAL RUN TIME: 0 days 0 hours 0 minutes 28 seconds 474 msec
