                         Program Version 5.0.0 -  RELEASE  -
|  1> !wB97X-D3 RIJCOSX def2-TZVPD def2/J TightSCF
|  2> *xyz 0 1
|  3> C          3.51177       -2.80621       -6.49228
|  4> S          3.00462       -1.09621       -6.38926
|  5> F          4.12886       -0.32965       -6.95372
|  6> O          1.78128       -1.00078       -7.13640
|  7> O          2.85155       -0.78368       -4.95679
|  8> H          3.63615       -3.08010       -7.51913
|  9> H          2.76397       -3.42755       -6.04548
| 10> H          4.43892       -2.93511       -5.97393
| 11> *
| 12>
| 13> %MaxCore 64000
| 14>
| 15> %pal nprocs 8
| 16> end
| 17>
| 18> %scf
| 19>   MaxIter 150
| 20> end
| 21>
| 22>
| 23>                          ****END OF INPUT****

CARTESIAN COORDINATES (ANGSTROEM)
---------------------------------
  C      3.511770   -2.806210   -6.492280
  S      3.004620   -1.096210   -6.389260
  F      4.128860   -0.329650   -6.953720
  O      1.781280   -1.000780   -7.136400
  O      2.851550   -0.783680   -4.956790
  H      3.636150   -3.080100   -7.519130
  H      2.763970   -3.427550   -6.045480
  H      4.438920   -2.935110   -5.973930

 Total Charge           Charge          ....    0
 Multiplicity           Mult            ....    1
 Number of Electrons    NEL             ....   50
 Basis Dimension        Dim             ....  230

ORBITAL ENERGIES
----------------

  NO   OCC          E(Eh)            E(eV)
   0   2.0000     -89.202717     -2427.3293
   1   2.0000     -24.897140      -677.4856
   2   2.0000     -19.249983      -523.8187
   3   2.0000     -19.239128      -523.5233
   4   2.0000     -10.334535      -281.2170
   5   2.0000      -8.265487      -224.9153
   6   2.0000      -6.222936      -169.3347
   7   2.0000      -6.216851      -169.1691
   8   2.0000      -6.215970      -169.1451
   9   2.0000      -1.480299       -40.2810
  10   2.0000      -1.229529       -33.4572
  11   2.0000      -1.130271       -30.7562
  12   2.0000      -0.921171       -25.0663
  13   2.0000      -0.817400       -22.2426
  14   2.0000      -0.698569       -19.0090
  15   2.0000      -0.679316       -18.4851
  16   2.0000      -0.660834       -17.9822
  17   2.0000      -0.582432       -15.8488
  18   2.0000      -0.579086       -15.7577
  19   2.0000      -0.567111       -15.4319
  20   2.0000      -0.540085       -14.6965
  21   2.0000      -0.490261       -13.3407
  22   2.0000      -0.441037       -12.0012
  23   2.0000      -0.430282       -11.7086
  24   2.0000      -0.411464       -11.1965
  25   0.0000       0.049009         1.3336
  26   0.0000       0.063212         1.7201
  27   0.0000       0.070080         1.9070
  28   0.0000       0.072998         1.9864
  29   0.0000       0.106990         2.9113

MULLIKEN ATOMIC CHARGES
-----------------------
   0 C :   -0.917687
   1 S :    1.230631
   2 F :   -0.152514
   3 O :   -0.560539
   4 O :   -0.587404
   5 H :    0.335744
   6 H :    0.318595
   7 H :    0.333175
Sum of atomic charges:    0.0000000

LOEWDIN ATOMIC CHARGES
----------------------
   0 C :   -0.123195
   1 S :    0.580905
   2 F :   -0.078539
   3 O :   -0.277368
   4 O :   -0.304213
   5 H :    0.064148
   6 H :    0.074229
   7 H :    0.064034

  Mayer bond orders larger than 0.100000
B(  0-C ,  1-S ) :   0.8156 B(  0-C ,  3-O ) :   0.1061 B(  0-C ,  4-O ) :   0.1062
B(  0-C ,  5-H ) :   0.9018 B(  0-C ,  6-H ) :   0.9199 B(  0-C ,  7-H ) :   0.9031
B(  1-S ,  2-F ) :   0.9754 B(  1-S ,  3-O ) :   1.7088 B(  1-S ,  4-O ) :   1.6652

Dispersion correction           -0.001527781
FINAL SINGLE POINT ENERGY      -688.434407565139

DIPOLE MOMENT
-------------
                                X             Y             Z
Electronic contribution:      0.59488       5.26254      -0.78598
Nuclear contribution   :      0.51040      -6.36905       0.21167
                        -----------------------------------------
Total Dipole Moment    :      1.10528      -1.10651      -0.57431
                        -----------------------------------------
Magnitude (a.u.)       :      1.66608
Magnitude (Debye)      :      4.23485

Rotational constants in cm-1:     0.163860     0.154073     0.147119
Rotational constants in MHz :  4912.396151  4618.979177  4410.507958

                             ****ORCA TERMINATED NORMALLY****
TOTAL RUN TIME: 0 days 0 hours 0 minutes 19 seconds 894 msec
