                         Program Version 5.0.0 -  RELEASE  -
|  1> !wB97X-D3 RIJCOSX def2-TZVPD def2/J TightSCF
|  2> *xyz 0 1
|  3> C          4.49059        1.15590       -2.46929
|  4> C          4.30539        1.22276       -3.90832
|  5> C          4.63192        2.24637       -4.67096
|  6> N          4.54169        2.14399       -5.98714
|  7> N          5.08409        3.39358       -4.11855
|  8> H          4.92067        3.57050       -3.13587
|  9> H          5.25465        4.19739       -4.70696
| 10> H          3.82453        0.44911       -4.35093
| 11> H          4.34337        1.24932       -6.41665
| 12> H          4.67671        2.95662       -6.57411
| 13> H          5.00867        2.03053       -2.13534
| 14> H          5.06354        0.28631       -2.22344
| 15> H          3.53600        1.10160       -1.98897
| 16> *
| 17>
| 18> %MaxCore 64000
| 19>
| 20> %pal nprocs 8
| 21> end
| 22>
| 23> %scf
| 24>   MaxIter 150
| 25> end
| 26>
| 27>
| 28>                          ****END OF INPUT****

CARTESIAN COORDINATES (ANGSTROEM)
---------------------------------
  C      4.490590    1.155900   -2.469290
  C      4.305390    1.222760   -3.908320
  C      4.631920    2.246370   -4.670960
  N      4.541690    2.143990   -5.987140
  N      5.084090    3.393580   -4.118550
  H      4.920670    3.570500   -3.135870
  H      5.254650    4.197390   -4.706960
  H      3.824530    0.449110   -4.350930
  H      4.343370    1.249320   -6.416650
  H      4.676710    2.956620   -6.574110
  H      5.008670    2.030530   -2.135340
  H      5.063540    0.286310   -2.223440
  H      3.536000    1.101600   -1.988970

 Total Charge           Charge          ....    0
 Multiplicity           Mult            ....    1
 Number of Electrons    NEL             ....   40
 Basis Dimension        Dim             ....  257

ORBITAL ENERGIES
----------------

  NO   OCC          E(Eh)            E(eV)
   0   2.0000     -14.418420      -392.3452
   1   2.0000     -14.417626      -392.3235
   2   2.0000     -10.315850      -280.7085
   3   2.0000     -10.235318      -278.5172
   4   2.0000     -10.194078      -277.3950
   5   2.0000      -1.074806       -29.2469
   6   2.0000      -0.982529       -26.7360
   7   2.0000      -0.868401       -23.6304
   8   2.0000      -0.768814       -20.9205
   9   2.0000      -0.686821       -18.6893
  10   2.0000      -0.641710       -17.4618
  11   2.0000      -0.614631       -16.7249
  12   2.0000      -0.570432       -15.5222
  13   2.0000      -0.521211       -14.1829
  14   2.0000      -0.508673       -13.8417
  15   2.0000      -0.473310       -12.8794
  16   2.0000      -0.456232       -12.4147
  17   2.0000      -0.437319       -11.9000
  18   2.0000      -0.357804        -9.7363
  19   2.0000      -0.242715        -6.6046
  20   0.0000       0.065348         1.7782
  21   0.0000       0.089960         2.4479
  22   0.0000       0.096276         2.6198
  23   0.0000       0.121889         3.3168
  24   0.0000       0.133705         3.6383

MULLIKEN ATOMIC CHARGES
-----------------------
   0 C :   -1.150557
   1 C :   -0.695687
   2 C :    0.848891
   3 N :   -0.457898
   4 N :   -0.420930
   5 H :    0.151862
   6 H :    0.153518
   7 H :    0.400585
   8 H :    0.181892
   9 H :    0.166617
  10 H :    0.260508
  11 H :    0.301251
  12 H :    0.259948
Sum of atomic charges:    0.0000000

LOEWDIN ATOMIC CHARGES
----------------------
   0 C :   -0.121154
   1 C :   -0.185081
   2 C :   -0.553229
   3 N :    0.098575
   4 N :    0.107236
   5 H :    0.092199
   6 H :    0.097550
   7 H :    0.065082
   8 H :    0.113309
   9 H :    0.100506
  10 H :    0.050515
  11 H :    0.066975
  12 H :    0.067514

  Mayer bond orders larger than 0.100000
B(  0-C ,  1-C ) :   0.6671 B(  0-C , 10-H ) :   1.0283 B(  0-C , 11-H ) :   0.9689
B(  0-C , 12-H ) :   0.9421 B(  1-C ,  2-C ) :   1.2331 B(  1-C ,  3-N ) :   0.1384
B(  1-C ,  4-N ) :   0.1024 B(  1-C ,  7-H ) :   0.8538 B(  1-C , 10-H ) :  -0.1568
B(  2-C ,  3-N ) :   0.9295 B(  2-C ,  4-N ) :   0.9809 B(  2-C ,  7-H ) :  -0.1173
B(  3-N ,  8-H ) :   1.0100 B(  3-N ,  9-H ) :   1.0553 B(  4-N ,  5-H ) :   0.9875
B(  4-N ,  6-H ) :   1.0548

Dispersion correction           -0.002331427
FINAL SINGLE POINT ENERGY      -228.627857857518

DIPOLE MOMENT
-------------
                                X             Y             Z
Electronic contribution:      0.29287       1.34023      -2.86446
Nuclear contribution   :     -0.29662      -0.64714       2.26125
                        -----------------------------------------
Total Dipole Moment    :     -0.00376       0.69309      -0.60321
                        -----------------------------------------
Magnitude (a.u.)       :      0.91883
Magnitude (Debye)      :      2.33548

Rotational constants in cm-1:     0.320965     0.135060     0.096994
Rotational constants in MHz :  9622.302637  4048.999301  2907.812202

                             ****ORCA TERMINATED NORMALLY****
TOTAL RUN TIME: 0 days 0 hours 0 minutes 30 seconds 87 msec
