                         Program Version 5.0.0 -  RELEASE  -
|  1> !wB97X-D3 RIJCOSX def2-TZVPD def2/J TightSCF
|  2> *xyz 0 1
|  3> C          3.51177       -2.80621       -6.49228
|  4> S          3.00462       -1.09621       -6.38926
|  5> O          4.12886       -0.32965       -6.95372
|  6> F          1.78128       -1.00078       -7.13640
|  7> O          2.85155       -0.78368       -4.95679
|  8> H          3.63615       -3.08010       -7.51913
|  9> H          2.76397       -3.42755       -6.04548
| 10> H          4.43892       -2.93511       -5.97393
| 11> *
| 12>
| 13> %MaxCore 64000
| 14>
| 15> %pal nprocs 8
| 16> end
| 17>
| 18> %scf
| 19>   MaxIter 150
| 20> end
| 21>
| 22>
| 23>                          ****END OF INPUT****

CARTESIAN COORDINATES (ANGSTROEM)
---------------------------------
  C      3.511770   -2.806210   -6.492280
  S      3.004620   -1.096210   -6.389260
  O      4.128860   -0.329650   -6.953720
  F      1.781280   -1.000780   -7.136400
  O      2.851550   -0.783680   -4.956790
  H      3.636150   -3.080100   -7.519130
  H      2.763970   -3.427550   -6.045480
  H      4.438920   -2.935110   -5.973930

 Total Charge           Charge          ....    0
 Multiplicity           Mult            ....    1
 Number of Electrons    NEL             ....   50
 Basis Dimension        Dim             ....  230

ORBITAL ENERGIES
----------------

  NO   OCC          E(Eh)            E(eV)
   0   2.0000     -89.204860     -2427.3876
   1   2.0000     -24.915568      -677.9871
   2   2.0000     -19.239643      -523.5373
   3   2.0000     -19.238981      -523.5193
   4   2.0000     -10.335146      -281.2336
   5   2.0000      -8.267588      -224.9725
   6   2.0000      -6.225013      -169.3912
   7   2.0000      -6.218796      -169.2220
   8   2.0000      -6.218151      -169.2045
   9   2.0000      -1.510905       -41.1138
  10   2.0000      -1.216110       -33.0920
  11   2.0000      -1.117027       -30.3959
  12   2.0000      -0.923027       -25.1168
  13   2.0000      -0.832733       -22.6598
  14   2.0000      -0.714191       -19.4341
  15   2.0000      -0.700935       -19.0734
  16   2.0000      -0.664186       -18.0734
  17   2.0000      -0.582094       -15.8396
  18   2.0000      -0.576170       -15.6784
  19   2.0000      -0.567840       -15.4517
  20   2.0000      -0.533931       -14.5290
  21   2.0000      -0.483052       -13.1445
  22   2.0000      -0.431405       -11.7391
  23   2.0000      -0.425858       -11.5882
  24   2.0000      -0.400775       -10.9057
  25   0.0000       0.047329         1.2879
  26   0.0000       0.062070         1.6890
  27   0.0000       0.069433         1.8894
  28   0.0000       0.073724         2.0061
  29   0.0000       0.107156         2.9159

MULLIKEN ATOMIC CHARGES
-----------------------
   0 C :   -0.917116
   1 S :    1.214377
   2 O :   -0.580429
   3 F :   -0.122630
   4 O :   -0.580771
   5 H :    0.336347
   6 H :    0.337433
   7 H :    0.312788
Sum of atomic charges:   -0.0000000

LOEWDIN ATOMIC CHARGES
----------------------
   0 C :   -0.124227
   1 S :    0.579692
   2 O :   -0.304944
   3 F :   -0.049239
   4 O :   -0.303601
   5 H :    0.063942
   6 H :    0.063537
   7 H :    0.074840

  Mayer bond orders larger than 0.100000
B(  0-C ,  1-S ) :   0.8189 B(  0-C ,  2-O ) :   0.1059 B(  0-C ,  4-O ) :   0.1061
B(  0-C ,  5-H ) :   0.9004 B(  0-C ,  6-H ) :   0.8997 B(  0-C ,  7-H ) :   0.9257
B(  1-S ,  2-O ) :   1.6725 B(  1-S ,  3-F ) :   1.0171 B(  1-S ,  4-O ) :   1.6725

Dispersion correction           -0.001528726
FINAL SINGLE POINT ENERGY      -688.419655619077

DIPOLE MOMENT
-------------
                                X             Y             Z
Electronic contribution:     -3.34229       4.13644      -1.08056
Nuclear contribution   :      2.85578      -5.69854       0.39418
                        -----------------------------------------
Total Dipole Moment    :     -0.48651      -1.56211      -0.68638
                        -----------------------------------------
Magnitude (a.u.)       :      1.77426
Magnitude (Debye)      :      4.50980

Rotational constants in cm-1:     0.163257     0.155833     0.146211
Rotational constants in MHz :  4894.333085  4671.750883  4383.281537

                             ****ORCA TERMINATED NORMALLY****
TOTAL RUN TIME: 0 days 0 hours 0 minutes 19 seconds 902 msec
