                         Program Version 5.0.0 -  RELEASE  -
|  1> !wB97X-D3 RIJCOSX def2-TZVPD def2/J TightSCF
|  2> *xyz 0 1
|  3> C          4.49059        1.15590       -2.46929
|  4> N          4.30539        1.22276       -3.90832
|  5> C          4.63192        2.24637       -4.67096
|  6> C          4.54169        2.14399       -5.98714
|  7> N          5.08409        3.39358       -4.11855
|  8> H          4.92067        3.57050       -3.13587
|  9> H          5.25465        4.19739       -4.70696
| 10> H          3.82453        0.44911       -4.35093
| 11> H          4.34337        1.24932       -6.41665
| 12> H          4.67671        2.95662       -6.57411
| 13> H          5.00867        2.03053       -2.13534
| 14> H          5.06354        0.28631       -2.22344
| 15> H          3.53600        1.10160       -1.98897
| 16> *
| 17>
| 18> %MaxCore 64000
| 19>
| 20> %pal nprocs 8
| 21> end
| 22>
| 23> %scf
| 24>   MaxIter 150
| 25> end
| 26>
| 27>
| 28>                          ****END OF INPUT****

CARTESIAN COORDINATES (ANGSTROEM)
---------------------------------
  C      4.490590    1.155900   -2.469290
  N      4.305390    1.222760   -3.908320
  C      4.631920    2.246370   -4.670960
  C      4.541690    2.143990   -5.987140
  N      5.084090    3.393580   -4.118550
  H      4.920670    3.570500   -3.135870
  H      5.254650    4.197390   -4.706960
  H      3.824530    0.449110   -4.350930
  H      4.343370    1.249320   -6.416650
  H      4.676710    2.956620   -6.574110
  H      5.008670    2.030530   -2.135340
  H      5.063540    0.286310   -2.223440
  H      3.536000    1.101600   -1.988970

 Total Charge           Charge          ....    0
 Multiplicity           Mult            ....    1
 Number of Electrons    NEL             ....   40
 Basis Dimension        Dim             ....  257

ORBITAL ENERGIES
----------------

  NO   OCC          E(Eh)            E(eV)
   0   2.0000     -14.423401      -392.4807
   1   2.0000     -14.419960      -392.3871
   2   2.0000     -10.321847      -280.8717
   3   2.0000     -10.304887      -280.4102
   4   2.0000     -10.180809      -277.0339
   5   2.0000      -1.085618       -29.5412
   6   2.0000      -0.995854       -27.0986
   7   2.0000      -0.860326       -23.4107
   8   2.0000      -0.779382       -21.2081
   9   2.0000      -0.708233       -19.2720
  10   2.0000      -0.640348       -17.4247
  11   2.0000      -0.593328       -16.1453
  12   2.0000      -0.573639       -15.6095
  13   2.0000      -0.555593       -15.1184
  14   2.0000      -0.506318       -13.7776
  15   2.0000      -0.487738       -13.2720
  16   2.0000      -0.481766       -13.1095
  17   2.0000      -0.458301       -12.4710
  18   2.0000      -0.347112        -9.4454
  19   2.0000      -0.248661        -6.7664
  20   0.0000       0.063113         1.7174
  21   0.0000       0.090943         2.4747
  22   0.0000       0.096118         2.6155
  23   0.0000       0.121199         3.2980
  24   0.0000       0.132871         3.6156

MULLIKEN ATOMIC CHARGES
-----------------------
   0 C :   -0.884472
   1 N :   -0.218963
   2 C :    1.147686
   3 C :   -1.656455
   4 N :   -0.419015
   5 H :    0.138310
   6 H :    0.174900
   7 H :    0.184269
   8 H :    0.331965
   9 H :    0.300009
  10 H :    0.320153
  11 H :    0.284014
  12 H :    0.297598
Sum of atomic charges:   -0.0000000

LOEWDIN ATOMIC CHARGES
----------------------
   0 C :   -0.069153
   1 N :   -0.024686
   2 C :   -0.568464
   3 C :   -0.013039
   4 N :    0.105839
   5 H :    0.083231
   6 H :    0.109759
   7 H :    0.147233
   8 H :    0.009140
   9 H :    0.006252
  10 H :    0.063071
  11 H :    0.075446
  12 H :    0.075373

  Mayer bond orders larger than 0.100000
B(  0-C ,  1-N ) :   0.8651 B(  0-C ,  2-C ) :  -0.1521 B(  0-C , 10-H ) :   0.8681
B(  0-C , 11-H ) :   0.9440 B(  0-C , 12-H ) :   0.9150 B(  1-N ,  2-C ) :   1.1463
B(  1-N ,  3-C ) :   0.1018 B(  1-N ,  7-H ) :   1.0141 B(  2-C ,  3-C ) :   0.7279
B(  2-C ,  4-N ) :   1.0108 B(  2-C ,  9-H ) :  -0.1341 B(  3-C ,  8-H ) :   0.9428
B(  3-C ,  9-H ) :   1.0646 B(  4-N ,  5-H ) :   1.0131 B(  4-N ,  6-H ) :   1.0172

Dispersion correction           -0.002342100
FINAL SINGLE POINT ENERGY      -228.616777818368

DIPOLE MOMENT
-------------
                                X             Y             Z
Electronic contribution:      0.08860       0.49924      -0.74589
Nuclear contribution   :     -0.24876      -0.46055       1.84019
                        -----------------------------------------
Total Dipole Moment    :     -0.16016       0.03869       1.09431
                        -----------------------------------------
Magnitude (a.u.)       :      1.10664
Magnitude (Debye)      :      2.81286

Rotational constants in cm-1:     0.322158     0.139919     0.099594
Rotational constants in MHz :  9658.057362  4194.660927  2985.745059

                             ****ORCA TERMINATED NORMALLY****
TOTAL RUN TIME: 0 days 0 hours 0 minutes 30 seconds 186 msec
