                         Program Version 5.0.0 -  RELEASE  -
|  1> !wB97X-D3 RIJCOSX def2-TZVPD def2/J TightSCF
|  2> *xyz 0 1
|  3> C          3.51177       -2.80621       -6.49228
|  4> S          3.00462       -1.09621       -6.38926
|  5> O          4.12886       -0.32965       -6.95372
|  6> O          1.78128       -1.00078       -7.13640
|  7> F          2.85155       -0.78368       -4.95679
|  8> H          3.63615       -3.08010       -7.51913
|  9> H          2.76397       -3.42755       -6.04548
| 10> H          4.43892       -2.93511       -5.97393
| 11> *
| 12>
| 13> %MaxCore 64000
| 14>
| 15> %pal nprocs 8
| 16> end
| 17>
| 18> %scf
| 19>   MaxIter 150
| 20> end
| 21>
| 22>
| 23>                          ****END OF INPUT****

CARTESIAN COORDINATES (ANGSTROEM)
---------------------------------
  C      3.511770   -2.806210   -6.492280
  S      3.004620   -1.096210   -6.389260
  O      4.128860   -0.329650   -6.953720
  O      1.781280   -1.000780   -7.136400
  F      2.851550   -0.783680   -4.956790
  H      3.636150   -3.080100   -7.519130
  H      2.763970   -3.427550   -6.045480
  H      4.438920   -2.935110   -5.973930

 Total Charge           Charge          ....    0
 Multiplicity           Mult            ....    1
 Number of Electrons    NEL             ....   50
 Basis Dimension        Dim             ....  230

ORBITAL ENERGIES
----------------

  NO   OCC          E(Eh)            E(eV)
   0   2.0000     -89.202701     -2427.3289
   1   2.0000     -24.897303      -677.4900
   2   2.0000     -19.250195      -523.8244
   3   2.0000     -19.238694      -523.5115
   4   2.0000     -10.334325      -281.2113
   5   2.0000      -8.265469      -224.9148
   6   2.0000      -6.222885      -169.3333
   7   2.0000      -6.216914      -169.1708
   8   2.0000      -6.215900      -169.1432
   9   2.0000      -1.479822       -40.2680
  10   2.0000      -1.229475       -33.4557
  11   2.0000      -1.131361       -30.7859
  12   2.0000      -0.919959       -25.0334
  13   2.0000      -0.817429       -22.2434
  14   2.0000      -0.698471       -19.0064
  15   2.0000      -0.678714       -18.4688
  16   2.0000      -0.660852       -17.9827
  17   2.0000      -0.582204       -15.8426
  18   2.0000      -0.578213       -15.7340
  19   2.0000      -0.568445       -15.4682
  20   2.0000      -0.540220       -14.7001
  21   2.0000      -0.489684       -13.3250
  22   2.0000      -0.440985       -11.9998
  23   2.0000      -0.429212       -11.6794
  24   2.0000      -0.412490       -11.2244
  25   0.0000       0.048810         1.3282
  26   0.0000       0.063146         1.7183
  27   0.0000       0.070134         1.9084
  28   0.0000       0.072755         1.9798
  29   0.0000       0.105322         2.8660

MULLIKEN ATOMIC CHARGES
-----------------------
   0 C :   -0.916021
   1 S :    1.233443
   2 O :   -0.588292
   3 O :   -0.562009
   4 F :   -0.152545
   5 H :    0.317233
   6 H :    0.336453
   7 H :    0.331737
Sum of atomic charges:   -0.0000000

LOEWDIN ATOMIC CHARGES
----------------------
   0 C :   -0.123715
   1 S :    0.581728
   2 O :   -0.305376
   3 O :   -0.277331
   4 F :   -0.077480
   5 H :    0.074581
   6 H :    0.063340
   7 H :    0.064254

  Mayer bond orders larger than 0.100000
B(  0-C ,  1-S ) :   0.8166 B(  0-C ,  2-O ) :   0.1051 B(  0-C ,  3-O ) :   0.1067
B(  0-C ,  5-H ) :   0.9209 B(  0-C ,  6-H ) :   0.8996 B(  0-C ,  7-H ) :   0.9055
B(  1-S ,  2-O ) :   1.6650 B(  1-S ,  3-O ) :   1.7081 B(  1-S ,  4-F ) :   0.9750

Dispersion correction           -0.001524852
FINAL SINGLE POINT ENERGY      -688.434096264035

DIPOLE MOMENT
-------------
                                X             Y             Z
Electronic contribution:     -1.55730       4.49501       2.58280
Nuclear contribution   :      1.78651      -5.91544      -1.78339
                        -----------------------------------------
Total Dipole Moment    :      0.22921      -1.42042       0.79941
                        -----------------------------------------
Magnitude (a.u.)       :      1.64596
Magnitude (Debye)      :      4.18371

Rotational constants in cm-1:     0.165193     0.152051     0.147788
Rotational constants in MHz :  4952.361749  4558.380225  4430.570551

                             ****ORCA TERMINATED NORMALLY****
TOTAL RUN TIME: 0 days 0 hours 0 minutes 19 seconds 495 msec
