                         Program Version 5.0.0 -  RELEASE  -
|  1> !wB97X-D3 RIJCOSX def2-TZVPD def2/J TightSCF
|  2> *xyz 0 1
|  3> C          4.49059        1.15590       -2.46929
|  4> N          4.30539        1.22276       -3.90832
|  5> C          4.63192        2.24637       -4.67096
|  6> N          4.54169        2.14399       -5.98714
|  7> C          5.08409        3.39358       -4.11855
|  8> H          4.92067        3.57050       -3.13587
|  9> H          5.25465        4.19739       -4.70696
| 10> H          3.82453        0.44911       -4.35093
| 11> H          4.34337        1.24932       -6.41665
| 12> H          4.67671        2.95662       -6.57411
| 13> H          5.00867        2.03053       -2.13534
| 14> H          5.06354        0.28631       -2.22344
| 15> H          3.53600        1.10160       -1.98897
| 16> *
| 17>
| 18> %MaxCore 64000
| 19>
| 20> %pal nprocs 8
| 21> end
| 22>
| 23> %scf
| 24>   MaxIter 150
| 25> end
| 26>
| 27>
| 28>                          ****END OF INPUT****

CARTESIAN COORDINATES (ANGSTROEM)
---------------------------------
  C      4.490590    1.155900   -2.469290
  N      4.305390    1.222760   -3.908320
  C      4.631920    2.246370   -4.670960
  N      4.541690    2.143990   -5.987140
  C      5.084090    3.393580   -4.118550
  H      4.920670    3.570500   -3.135870
  H      5.254650    4.197390   -4.706960
  H      3.824530    0.449110   -4.350930
  H      4.343370    1.249320   -6.416650
  H      4.676710    2.956620   -6.574110
  H      5.008670    2.030530   -2.135340
  H      5.063540    0.286310   -2.223440
  H      3.536000    1.101600   -1.988970

 Total Charge           Charge          ....    0
 Multiplicity           Mult            ....    1
 Number of Electrons    NEL             ....   40
 Basis Dimension        Dim             ....  257

ORBITAL ENERGIES
----------------

  NO   OCC          E(Eh)            E(eV)
   0   2.0000     -14.426845      -392.5744
   1   2.0000     -14.423085      -392.4721
   2   2.0000     -10.325262      -280.9647
   3   2.0000     -10.294982      -280.1407
   4   2.0000     -10.181260      -277.0462
   5   2.0000      -1.089628       -29.6503
   6   2.0000      -1.002813       -27.2879
   7   2.0000      -0.832598       -22.6561
   8   2.0000      -0.808827       -22.0093
   9   2.0000      -0.677625       -18.4391
  10   2.0000      -0.654636       -17.8136
  11   2.0000      -0.623584       -16.9686
  12   2.0000      -0.555898       -15.1267
  13   2.0000      -0.542249       -14.7553
  14   2.0000      -0.513602       -13.9758
  15   2.0000      -0.480088       -13.0638
  16   2.0000      -0.476698       -12.9716
  17   2.0000      -0.454852       -12.3771
  18   2.0000      -0.344283        -9.3684
  19   2.0000      -0.248902        -6.7730
  20   0.0000       0.065077         1.7708
  21   0.0000       0.084398         2.2966
  22   0.0000       0.096780         2.6335
  23   0.0000       0.122729         3.3396
  24   0.0000       0.132769         3.6128

MULLIKEN ATOMIC CHARGES
-----------------------
   0 C :   -0.897024
   1 N :   -0.250071
   2 C :    1.098523
   3 N :   -0.441803
   4 C :   -1.548043
   5 H :    0.272110
   6 H :    0.300528
   7 H :    0.189311
   8 H :    0.170817
   9 H :    0.183443
  10 H :    0.338703
  11 H :    0.279737
  12 H :    0.303770
Sum of atomic charges:    0.0000000

LOEWDIN ATOMIC CHARGES
----------------------
   0 C :   -0.066063
   1 N :   -0.032850
   2 C :   -0.571869
   3 N :    0.107877
   4 C :   -0.008128
   5 H :   -0.009025
   6 H :    0.003275
   7 H :    0.138879
   8 H :    0.104485
   9 H :    0.114421
  10 H :    0.063643
  11 H :    0.076489
  12 H :    0.078866

  Mayer bond orders larger than 0.100000
B(  0-C ,  1-N ) :   0.8768 B(  0-C ,  2-C ) :  -0.1169 B(  0-C , 10-H ) :   0.8457
B(  0-C , 11-H ) :   0.9427 B(  0-C , 12-H ) :   0.9095 B(  1-N ,  2-C ) :   1.1524
B(  1-N ,  7-H ) :   1.0418 B(  2-C ,  3-N ) :   0.9184 B(  2-C ,  4-C ) :   0.8645
B(  2-C ,  6-H ) :  -0.1004 B(  3-N ,  4-C ) :   0.1266 B(  3-N ,  8-H ) :   1.0398
B(  3-N ,  9-H ) :   1.0145 B(  4-C ,  5-H ) :   1.0109 B(  4-C ,  6-H ) :   1.0637

Dispersion correction           -0.002335114
FINAL SINGLE POINT ENERGY      -228.615530333713

DIPOLE MOMENT
-------------
                                X             Y             Z
Electronic contribution:     -0.40416      -0.75030      -2.64669
Nuclear contribution   :     -0.13890      -0.20745       2.21867
                        -----------------------------------------
Total Dipole Moment    :     -0.54306      -0.95776      -0.42802
                        -----------------------------------------
Magnitude (a.u.)       :      1.18128
Magnitude (Debye)      :      3.00257

Rotational constants in cm-1:     0.339212     0.134625     0.098371
Rotational constants in MHz : 10169.318272  4035.946597  2949.073953

                             ****ORCA TERMINATED NORMALLY****
TOTAL RUN TIME: 0 days 0 hours 0 minutes 29 seconds 237 msec
