                         Program Version 5.0.0 -  RELEASE  -
|  1> !wB97X-D3 RIJCOSX def2-TZVPD def2/J TightSCF xyzfile
|  2>
|  3> *xyzfile 0 1 D1.xyz
|  4>
|  5> %MaxCore 64000
|  6>
|  7> %pal nprocs 18
|  8> end
|  9>
| 10> %scf
| 11>   MaxIter 150
| 12> end
| 13>
| 14>
| 15>                          ****END OF INPUT****

CARTESIAN COORDINATES (ANGSTROEM)
---------------------------------
  C      4.490588    1.155899   -2.469290
  C      4.305394    1.222762   -3.908317
  C      4.906458   -3.102816   -5.954844
  C      3.511771   -2.806215   -6.492283
  H      2.736044   -3.373445   -5.973736
  H      3.444904   -3.040831   -7.555281
  S      3.004618   -1.096206   -6.389259
  C      4.631918    2.246365   -4.670958
  N      4.541686    2.143990   -5.987139
  N      5.084086    3.393584   -4.118545
  H      4.920675    3.570501   -3.135870
  H      5.254652    4.197390   -4.706956
  H      3.824530    0.449113   -4.350926
  H      4.343373    1.249318   -6.416646
  H      4.676712    2.956624   -6.574113
  F      4.128856   -0.329647   -6.953717
  O      1.781285   -1.000779   -7.136399
  C      5.942129    0.939500   -2.036893
  H      3.864305    0.328532   -2.136611
  H      4.076233    2.049994   -1.989010
  C      6.462677   -3.117775   -3.944671
  C      5.024977   -3.025679   -4.437625
  H      4.423321   -3.818693   -3.977648
  H      4.579350   -2.087131   -4.108727
  H      5.201533   -4.100207   -6.296905
  H      5.605922   -2.397822   -6.413368
  C      6.559957   -0.356290   -2.559086
  H      5.967976    0.952567   -0.942444
  H      6.547184    1.788331   -2.368849
  C      6.006283   -1.615917   -1.899301
  H      7.642360   -0.318000   -2.402059
  H      6.414855   -0.403433   -3.642587
  C      6.608718   -2.917014   -2.435655
  H      6.190324   -1.561115   -0.820948
  H      4.919250   -1.651245   -2.016586
  H      7.066975   -2.374258   -4.475514
  H      6.887808   -4.089747   -4.215332
  H      6.135197   -3.755573   -1.915159
  H      7.671142   -2.955503   -2.172291
  O      2.851546   -0.783683   -4.956789

 Total Charge           Charge          ....    0
 Multiplicity           Mult            ....    1
 Number of Electrons    NEL             ....  144
 Basis Dimension        Dim             ....  854

ORBITAL ENERGIES
----------------

  NO   OCC          E(Eh)            E(eV)
   0   2.0000     -89.203869     -2427.3607
   1   2.0000     -24.912831      -677.9126
   2   2.0000     -19.255061      -523.9568
   3   2.0000     -19.241585      -523.5901
   4   2.0000     -14.410038      -392.1171
   5   2.0000     -14.405822      -392.0023
   6   2.0000     -10.341717      -281.4124
   7   2.0000     -10.305342      -280.4226
   8   2.0000     -10.303052      -280.3603
   9   2.0000     -10.274478      -279.5828
  10   2.0000     -10.270018      -279.4614
  11   2.0000     -10.263624      -279.2874
  12   2.0000     -10.254498      -279.0391
  13   2.0000     -10.247683      -278.8536
  14   2.0000     -10.242684      -278.7176
  15   2.0000     -10.235669      -278.5267
  16   2.0000     -10.166427      -276.6425
  17   2.0000      -8.267876      -224.9803
  18   2.0000      -6.225573      -169.4065
  19   2.0000      -6.218587      -169.2164
  20   2.0000      -6.218342      -169.2097
  21   2.0000      -1.498792       -40.7842
  22   2.0000      -1.236408       -33.6444
  23   2.0000      -1.138562       -30.9818
  24   2.0000      -1.065189       -28.9853
  25   2.0000      -0.974715       -26.5233
  26   2.0000      -0.962185       -26.1824
  27   2.0000      -0.924135       -25.1470
  28   2.0000      -0.895110       -24.3572
  29   2.0000      -0.868226       -23.6256
  30   2.0000      -0.840632       -22.8748
  31   2.0000      -0.816103       -22.2073
  32   2.0000      -0.784835       -21.3565
  33   2.0000      -0.752832       -20.4856
  34   2.0000      -0.727614       -19.7994
  35   2.0000      -0.717317       -19.5192
  36   2.0000      -0.700040       -19.0491
  37   2.0000      -0.692219       -18.8362
  38   2.0000      -0.668312       -18.1857
  39   2.0000      -0.666577       -18.1385
  40   2.0000      -0.649617       -17.6770
  41   2.0000      -0.629928       -17.1412
  42   2.0000      -0.603134       -16.4121
  43   2.0000      -0.595950       -16.2166
  44   2.0000      -0.588678       -16.0187
  45   2.0000      -0.575514       -15.6605
  46   2.0000      -0.563712       -15.3394
  47   2.0000      -0.553579       -15.0637
  48   2.0000      -0.551139       -14.9973
  49   2.0000      -0.548342       -14.9211
  50   2.0000      -0.525920       -14.3110
  51   2.0000      -0.519027       -14.1235
  52   2.0000      -0.516760       -14.0618
  53   2.0000      -0.504910       -13.7393
  54   2.0000      -0.490309       -13.3420
  55   2.0000      -0.479886       -13.0584
  56   2.0000      -0.478405       -13.0181
  57   2.0000      -0.466195       -12.6858
  58   2.0000      -0.464254       -12.6330
  59   2.0000      -0.448997       -12.2178
  60   2.0000      -0.445741       -12.1292
  61   2.0000      -0.437863       -11.9149
  62   2.0000      -0.431763       -11.7489
  63   2.0000      -0.417196       -11.3525
  64   2.0000      -0.414794       -11.2871
  65   2.0000      -0.408271       -11.1096
  66   2.0000      -0.400365       -10.8945
  67   2.0000      -0.391216       -10.6455
  68   2.0000      -0.384541       -10.4639
  69   2.0000      -0.369147       -10.0450
  70   2.0000      -0.347846        -9.4654
  71   2.0000      -0.231190        -6.2910
  72   0.0000       0.043826         1.1926
  73   0.0000       0.057468         1.5638
  74   0.0000       0.065665         1.7868
  75   0.0000       0.070121         1.9081
  76   0.0000       0.082508         2.2452

MULLIKEN ATOMIC CHARGES
-----------------------
   0 C :   -0.947780
   1 C :   -0.666749
   2 C :   -0.715980
   3 C :   -0.765121
   4 H :    0.383932
   5 H :    0.355856
   6 S :    1.282079
   7 C :    0.434748
   8 N :   -0.318212
   9 N :   -0.352503
  10 H :    0.220577
  11 H :    0.149626
  12 H :    0.522026
  13 H :    0.169814
  14 H :    0.155365
  15 F :   -0.279426
  16 O :   -0.614580
  17 C :   -0.745028
  18 H :    0.279022
  19 H :    0.413358
  20 C :   -0.457867
  21 C :   -0.071971
  22 H :    0.312916
  23 H :   -0.058620
  24 H :    0.320928
  25 H :    0.295721
  26 C :   -0.438987
  27 H :    0.280194
  28 H :    0.395460
  29 C :   -0.479460
  30 H :    0.299471
  31 H :    0.197619
  32 C :   -0.873958
  33 H :    0.325786
  34 H :    0.255440
  35 H :    0.383449
  36 H :    0.337342
  37 H :    0.298768
  38 H :    0.306012
  39 O :   -0.589266
Sum of atomic charges:   -0.0000000

LOEWDIN ATOMIC CHARGES
----------------------
   0 C :   -0.219715
   1 C :   -0.143452
   2 C :   -0.223414
   3 C :   -0.218663
   4 H :    0.123580
   5 H :    0.107417
   6 S :    0.645422
   7 C :   -0.516210
   8 N :    0.116706
   9 N :    0.124143
  10 H :    0.097217
  11 H :    0.096832
  12 H :    0.003337
  13 H :    0.057544
  14 H :    0.105972
  15 F :   -0.084737
  16 O :   -0.252411
  17 C :   -0.206711
  18 H :    0.107044
  19 H :    0.104006
  20 C :   -0.218004
  21 C :   -0.217960
  22 H :    0.131552
  23 H :    0.086758
  24 H :    0.122915
  25 H :    0.114269
  26 C :   -0.213617
  27 H :    0.106660
  28 H :    0.102880
  29 C :   -0.217677
  30 H :    0.115288
  31 H :    0.101126
  32 C :   -0.212242
  33 H :    0.114996
  34 H :    0.102562
  35 H :    0.109514
  36 H :    0.113350
  37 H :    0.109303
  38 H :    0.110241
  39 O :   -0.285822

  Mayer bond orders larger than 0.100000
B(  0-C ,  1-C ) :   1.0687 B(  0-C , 17-C ) :   0.7709 B(  0-C , 18-H ) :   1.0091
B(  0-C , 19-H ) :   0.7628 B(  0-C , 29-C ) :   0.1406 B(  1-C ,  7-C ) :   0.1753
B(  1-C ,  8-N ) :  -0.1145 B(  1-C , 10-H ) :  -0.1115 B(  1-C , 12-H ) :   0.2101
B(  1-C , 17-C ) :   0.5459 B(  1-C , 18-H ) :  -0.1133 B(  1-C , 19-H ) :  -0.1403
B(  2-C ,  3-C ) :   0.9769 B(  2-C , 20-C ) :   0.5277 B(  2-C , 21-C ) :   0.3638
B(  2-C , 22-H ) :  -0.1391 B(  2-C , 24-H ) :   0.9197 B(  2-C , 25-H ) :   0.9315
B(  3-C ,  4-H ) :   0.8274 B(  3-C ,  5-H ) :   0.9281 B(  3-C ,  6-S ) :   0.8533
B(  3-C , 16-O ) :   0.1532 B(  3-C , 21-C ) :   0.2651 B(  6-S , 15-F ) :   0.8885
B(  6-S , 16-O ) :   1.4624 B(  6-S , 39-O ) :   1.6332 B(  7-C ,  8-N ) :   0.9979
B(  7-C ,  9-N ) :   1.1852 B(  7-C , 10-H ) :   0.1440 B(  7-C , 12-H ) :   0.6492
B(  7-C , 17-C ) :  -0.1576 B(  8-N , 12-H ) :   0.1713 B(  8-N , 13-H ) :   0.9583
B(  8-N , 14-H ) :   1.0471 B(  9-N , 10-H ) :   0.9413 B(  9-N , 11-H ) :   1.0478
B(  9-N , 17-C ) :   0.1313 B( 12-H , 39-O ) :  -0.1289 B( 17-C , 26-C ) :   1.1960
B( 17-C , 27-H ) :   0.9763 B( 17-C , 28-H ) :   0.8141 B( 17-C , 29-C ) :   0.3428
B( 20-C , 21-C ) :   0.4132 B( 20-C , 26-C ) :   0.1995 B( 20-C , 32-C ) :   0.9177
B( 20-C , 35-H ) :   0.8714 B( 20-C , 36-H ) :   0.8710 B( 21-C , 22-H ) :   0.7705
B( 21-C , 23-H ) :   1.4989 B( 21-C , 29-C ) :   0.1401 B( 21-C , 32-C ) :   0.3817
B( 21-C , 39-O ) :   0.1005 B( 22-H , 23-H ) :   0.1460 B( 23-H , 39-O ) :  -0.1313
B( 26-C , 29-C ) :   0.2913 B( 26-C , 30-H ) :   0.8684 B( 26-C , 31-H ) :   1.1193
B( 26-C , 32-C ) :   0.2780 B( 26-C , 34-H ) :  -0.1260 B( 29-C , 32-C ) :   0.9485
B( 29-C , 33-H ) :   0.8736 B( 29-C , 34-H ) :   1.0418 B( 32-C , 37-H ) :   0.9278
B( 32-C , 38-H ) :   0.9395

Dispersion correction           -0.021879082
FINAL SINGLE POINT ENERGY     -1191.065498649878

DIPOLE MOMENT
-------------
                                X             Y             Z
Electronic contribution:    -16.32235       4.83751     -21.41872
Nuclear contribution   :     17.24138      -5.45913      20.34076
                        -----------------------------------------
Total Dipole Moment    :      0.91903      -0.62162      -1.07796
                        -----------------------------------------
Magnitude (a.u.)       :      1.54694
Magnitude (Debye)      :      3.93201

Rotational constants in cm-1:     0.014201     0.012275     0.007453
Rotational constants in MHz :   425.728191   368.008875   223.435232

                             ****ORCA TERMINATED NORMALLY****
TOTAL RUN TIME: 0 days 0 hours 4 minutes 51 seconds 168 msec
