                         Program Version 5.0.0 -  RELEASE  -
|  1> !wB97X-D3 RIJCOSX def2-TZVPD def2/J TightSCF xyzfile
|  2>
|  3> *xyzfile 0 1 D2.xyz
|  4>
|  5> %MaxCore 64000
|  6>
|  7> %pal nprocs 18
|  8> end
|  9>
| 10> %scf
| 11>   MaxIter 150
| 12> end
| 13>
| 14>
| 15>                          ****END OF INPUT****

CARTESIAN COORDINATES (ANGSTROEM)
---------------------------------
  C      4.490588    1.155899   -2.469290
  N      4.305394    1.222762   -3.908317
  C      4.906458   -3.102816   -5.954844
  C      3.511771   -2.806215   -6.492283
  H      2.736044   -3.373445   -5.973736
  H      3.444904   -3.040831   -7.555281
  S      3.004618   -1.096206   -6.389259
  C      4.631918    2.246365   -4.670958
  C      4.541686    2.143990   -5.987139
  N      5.084086    3.393584   -4.118545
  H      4.920675    3.570501   -3.135870
  H      5.254652    4.197390   -4.706956
  H      3.824530    0.449113   -4.350926
  H      4.343373    1.249318   -6.416646
  H      4.676712    2.956624   -6.574113
  F      4.128856   -0.329647   -6.953717
  O      1.781285   -1.000779   -7.136399
  C      5.942129    0.939500   -2.036893
  H      3.864305    0.328532   -2.136611
  H      4.076233    2.049994   -1.989010
  C      6.462677   -3.117775   -3.944671
  C      5.024977   -3.025679   -4.437625
  H      4.423321   -3.818693   -3.977648
  H      4.579350   -2.087131   -4.108727
  H      5.201533   -4.100207   -6.296905
  H      5.605922   -2.397822   -6.413368
  C      6.559957   -0.356290   -2.559086
  H      5.967976    0.952567   -0.942444
  H      6.547184    1.788331   -2.368849
  C      6.006283   -1.615917   -1.899301
  H      7.642360   -0.318000   -2.402059
  H      6.414855   -0.403433   -3.642587
  C      6.608718   -2.917014   -2.435655
  H      6.190324   -1.561115   -0.820948
  H      4.919250   -1.651245   -2.016586
  H      7.066975   -2.374258   -4.475514
  H      6.887808   -4.089747   -4.215332
  H      6.135197   -3.755573   -1.915159
  H      7.671142   -2.955503   -2.172291
  O      2.851546   -0.783683   -4.956789

 Total Charge           Charge          ....    0
 Multiplicity           Mult            ....    1
 Number of Electrons    NEL             ....  144
 Basis Dimension        Dim             ....  854

ORBITAL ENERGIES
----------------

  NO   OCC          E(Eh)            E(eV)
   0   2.0000     -89.206789     -2427.4401
   1   2.0000     -24.898729      -677.5289
   2   2.0000     -19.254983      -523.9547
   3   2.0000     -19.252254      -523.8805
   4   2.0000     -14.408336      -392.0708
   5   2.0000     -14.393291      -391.6614
   6   2.0000     -10.343274      -281.4548
   7   2.0000     -10.308342      -280.5043
   8   2.0000     -10.307946      -280.4935
   9   2.0000     -10.299283      -280.2577
  10   2.0000     -10.281567      -279.7757
  11   2.0000     -10.277113      -279.6545
  12   2.0000     -10.273013      -279.5429
  13   2.0000     -10.268116      -279.4097
  14   2.0000     -10.264353      -279.3072
  15   2.0000     -10.264148      -279.3017
  16   2.0000     -10.165669      -276.6219
  17   2.0000      -8.270408      -225.0492
  18   2.0000      -6.227858      -169.4686
  19   2.0000      -6.221472      -169.2949
  20   2.0000      -6.220973      -169.2813
  21   2.0000      -1.486129       -40.4396
  22   2.0000      -1.238812       -33.7098
  23   2.0000      -1.144867       -31.1534
  24   2.0000      -1.068984       -29.0885
  25   2.0000      -0.982672       -26.7399
  26   2.0000      -0.965915       -26.2839
  27   2.0000      -0.931786       -25.3552
  28   2.0000      -0.901493       -24.5309
  29   2.0000      -0.865436       -23.5497
  30   2.0000      -0.841660       -22.9027
  31   2.0000      -0.814120       -22.1533
  32   2.0000      -0.792482       -21.5645
  33   2.0000      -0.760167       -20.6852
  34   2.0000      -0.736069       -20.0295
  35   2.0000      -0.710431       -19.3318
  36   2.0000      -0.699919       -19.0458
  37   2.0000      -0.689769       -18.7696
  38   2.0000      -0.687618       -18.7110
  39   2.0000      -0.665477       -18.1085
  40   2.0000      -0.660252       -17.9664
  41   2.0000      -0.621175       -16.9030
  42   2.0000      -0.604759       -16.4563
  43   2.0000      -0.593851       -16.1595
  44   2.0000      -0.585699       -15.9377
  45   2.0000      -0.582532       -15.8515
  46   2.0000      -0.569440       -15.4953
  47   2.0000      -0.565632       -15.3916
  48   2.0000      -0.559820       -15.2335
  49   2.0000      -0.541336       -14.7305
  50   2.0000      -0.536832       -14.6079
  51   2.0000      -0.531435       -14.4611
  52   2.0000      -0.521250       -14.1839
  53   2.0000      -0.498956       -13.5773
  54   2.0000      -0.491662       -13.3788
  55   2.0000      -0.491449       -13.3730
  56   2.0000      -0.478879       -13.0310
  57   2.0000      -0.471206       -12.8222
  58   2.0000      -0.465296       -12.6614
  59   2.0000      -0.458817       -12.4850
  60   2.0000      -0.453366       -12.3367
  61   2.0000      -0.446890       -12.1605
  62   2.0000      -0.438426       -11.9302
  63   2.0000      -0.436314       -11.8727
  64   2.0000      -0.427503       -11.6330
  65   2.0000      -0.421546       -11.4708
  66   2.0000      -0.417885       -11.3712
  67   2.0000      -0.406967       -11.0741
  68   2.0000      -0.404814       -11.0156
  69   2.0000      -0.400317       -10.8932
  70   2.0000      -0.331277        -9.0145
  71   2.0000      -0.236237        -6.4283
  72   0.0000       0.046525         1.2660
  73   0.0000       0.059015         1.6059
  74   0.0000       0.068075         1.8524
  75   0.0000       0.070905         1.9294
  76   0.0000       0.080665         2.1950

MULLIKEN ATOMIC CHARGES
-----------------------
   0 C :   -1.118272
   1 N :    0.088513
   2 C :   -0.702234
   3 C :   -0.789638
   4 H :    0.379534
   5 H :    0.370390
   6 S :    1.242242
   7 C :    1.464254
   8 C :   -2.259069
   9 N :   -0.392459
  10 H :    0.195234
  11 H :    0.184614
  12 H :   -0.026436
  13 H :    0.644894
  14 H :    0.280366
  15 F :   -0.147040
  16 O :   -0.615553
  17 C :   -0.471952
  18 H :    0.320274
  19 H :    0.366918
  20 C :   -0.456782
  21 C :   -0.114200
  22 H :    0.331626
  23 H :   -0.069892
  24 H :    0.325070
  25 H :    0.300453
  26 C :   -0.411695
  27 H :    0.337340
  28 H :    0.377720
  29 C :   -0.518469
  30 H :    0.285223
  31 H :    0.228813
  32 C :   -0.852913
  33 H :    0.327187
  34 H :    0.271503
  35 H :    0.362028
  36 H :    0.341738
  37 H :    0.301897
  38 H :    0.311494
  39 O :   -0.692720
Sum of atomic charges:    0.0000000

LOEWDIN ATOMIC CHARGES
----------------------
   0 C :   -0.186051
   1 N :    0.028957
   2 C :   -0.222248
   3 C :   -0.218201
   4 H :    0.122783
   5 H :    0.109148
   6 S :    0.650096
   7 C :   -0.534894
   8 C :    0.003153
   9 N :    0.119915
  10 H :    0.089225
  11 H :    0.108664
  12 H :    0.059438
  13 H :   -0.029600
  14 H :    0.013770
  15 F :   -0.089826
  16 O :   -0.247487
  17 C :   -0.192574
  18 H :    0.115693
  19 H :    0.110057
  20 C :   -0.216771
  21 C :   -0.219445
  22 H :    0.131738
  23 H :    0.083411
  24 H :    0.123540
  25 H :    0.116084
  26 C :   -0.211074
  27 H :    0.111197
  28 H :    0.104030
  29 C :   -0.219522
  30 H :    0.117828
  31 H :    0.104288
  32 C :   -0.210610
  33 H :    0.115611
  34 H :    0.100959
  35 H :    0.110516
  36 H :    0.114759
  37 H :    0.110433
  38 H :    0.111448
  39 O :   -0.288438

  Mayer bond orders larger than 0.100000
B(  0-C ,  1-N ) :   1.1739 B(  0-C ,  7-C ) :  -0.2063 B(  0-C ,  9-N ) :   0.1472
B(  0-C , 12-H ) :  -0.1866 B(  0-C , 17-C ) :   0.7176 B(  0-C , 18-H ) :   0.8278
B(  0-C , 19-H ) :   0.7632 B(  0-C , 29-C ) :   0.1790 B(  1-N ,  7-C ) :   1.0747
B(  1-N , 12-H ) :   0.9618 B(  1-N , 39-O ) :  -0.1081 B(  2-C ,  3-C ) :   0.9896
B(  2-C , 20-C ) :   0.5258 B(  2-C , 21-C ) :   0.3714 B(  2-C , 22-H ) :  -0.1314
B(  2-C , 24-H ) :   0.9090 B(  2-C , 25-H ) :   0.9397 B(  3-C ,  4-H ) :   0.8319
B(  3-C ,  5-H ) :   0.9183 B(  3-C ,  6-S ) :   0.8619 B(  3-C , 16-O ) :   0.1486
B(  3-C , 21-C ) :   0.2932 B(  6-S , 15-F ) :   0.9477 B(  6-S , 16-O ) :   1.4661
B(  6-S , 39-O ) :   1.6330 B(  7-C ,  8-C ) :   0.2127 B(  7-C ,  9-N ) :   0.9843
B(  7-C , 12-H ) :  -0.3059 B(  7-C , 14-H ) :  -0.2156 B(  8-C , 13-H ) :   0.5026
B(  8-C , 14-H ) :   1.1153 B(  9-N , 10-H ) :   0.9756 B(  9-N , 11-H ) :   1.0204
B( 12-H , 39-O ) :   0.1099 B( 13-H , 14-H ) :   0.1200 B( 13-H , 15-F ) :  -0.1725
B( 17-C , 26-C ) :   1.0941 B( 17-C , 27-H ) :   0.9420 B( 17-C , 28-H ) :   0.8503
B( 17-C , 29-C ) :   0.3395 B( 20-C , 21-C ) :   0.4098 B( 20-C , 26-C ) :   0.1799
B( 20-C , 32-C ) :   0.9328 B( 20-C , 35-H ) :   0.8953 B( 20-C , 36-H ) :   0.8626
B( 21-C , 22-H ) :   0.7645 B( 21-C , 23-H ) :   1.5463 B( 21-C , 29-C ) :   0.1157
B( 21-C , 32-C ) :   0.3857 B( 21-C , 39-O ) :   0.1083 B( 22-H , 23-H ) :   0.1351
B( 23-H , 39-O ) :  -0.1738 B( 26-C , 29-C ) :   0.2249 B( 26-C , 30-H ) :   0.8730
B( 26-C , 31-H ) :   1.0906 B( 26-C , 32-C ) :   0.3178 B( 26-C , 34-H ) :  -0.1288
B( 29-C , 32-C ) :   0.9657 B( 29-C , 33-H ) :   0.8725 B( 29-C , 34-H ) :   1.0311
B( 32-C , 37-H ) :   0.9224 B( 32-C , 38-H ) :   0.9305

Dispersion correction           -0.021930251
FINAL SINGLE POINT ENERGY     -1191.070790743880

DIPOLE MOMENT
-------------
                                X             Y             Z
Electronic contribution:    -16.37568       3.94394     -19.59272
Nuclear contribution   :     17.27667      -5.32157      20.03034
                        -----------------------------------------
Total Dipole Moment    :      0.90099      -1.37763       0.43762
                        -----------------------------------------
Magnitude (a.u.)       :      1.70328
Magnitude (Debye)      :      4.32939

Rotational constants in cm-1:     0.014355     0.012269     0.007481
Rotational constants in MHz :   430.360270   367.823451   224.273399

                             ****ORCA TERMINATED NORMALLY****
TOTAL RUN TIME: 0 days 0 hours 5 minutes 3 seconds 531 msec
