                         Program Version 5.0.0 -  RELEASE  -
|  1> !wB97X-D3 RIJCOSX def2-TZVPD def2/J TightSCF xyzfile
|  2>
|  3> *xyzfile 0 1 D4.xyz
|  4>
|  5> %MaxCore 64000
|  6>
|  7> %pal nprocs 18
|  8> end
|  9>
| 10> %scf
| 11>   MaxIter 150
| 12> end
| 13>
| 14>
| 15>                          ****END OF INPUT****

CARTESIAN COORDINATES (ANGSTROEM)
---------------------------------
  C      4.490588    1.155899   -2.469290
  C      4.305394    1.222762   -3.908317
  C      4.906458   -3.102816   -5.954844
  C      3.511771   -2.806215   -6.492283
  H      2.736044   -3.373445   -5.973736
  H      3.444904   -3.040831   -7.555281
  S      3.004618   -1.096206   -6.389259
  C      4.631918    2.246365   -4.670958
  N      4.541686    2.143990   -5.987139
  N      5.084086    3.393584   -4.118545
  H      4.920675    3.570501   -3.135870
  H      5.254652    4.197390   -4.706956
  H      3.824530    0.449113   -4.350926
  H      4.343373    1.249318   -6.416646
  H      4.676712    2.956624   -6.574113
  O      4.128856   -0.329647   -6.953717
  F      1.781285   -1.000779   -7.136399
  C      5.942129    0.939500   -2.036893
  H      3.864305    0.328532   -2.136611
  H      4.076233    2.049994   -1.989010
  C      6.462677   -3.117775   -3.944671
  C      5.024977   -3.025679   -4.437625
  H      4.423321   -3.818693   -3.977648
  H      4.579350   -2.087131   -4.108727
  H      5.201533   -4.100207   -6.296905
  H      5.605922   -2.397822   -6.413368
  C      6.559957   -0.356290   -2.559086
  H      5.967976    0.952567   -0.942444
  H      6.547184    1.788331   -2.368849
  C      6.006283   -1.615917   -1.899301
  H      7.642360   -0.318000   -2.402059
  H      6.414855   -0.403433   -3.642587
  C      6.608718   -2.917014   -2.435655
  H      6.190324   -1.561115   -0.820948
  H      4.919250   -1.651245   -2.016586
  H      7.066975   -2.374258   -4.475514
  H      6.887808   -4.089747   -4.215332
  H      6.135197   -3.755573   -1.915159
  H      7.671142   -2.955503   -2.172291
  O      2.851546   -0.783683   -4.956789

 Total Charge           Charge          ....    0
 Multiplicity           Mult            ....    1
 Number of Electrons    NEL             ....  144
 Basis Dimension        Dim             ....  854

ORBITAL ENERGIES
----------------

  NO   OCC          E(Eh)            E(eV)
   0   2.0000     -89.212471     -2427.5947
   1   2.0000     -24.923858      -678.2127
   2   2.0000     -19.256095      -523.9850
   3   2.0000     -19.246768      -523.7312
   4   2.0000     -14.397939      -391.7878
   5   2.0000     -14.378212      -391.2510
   6   2.0000     -10.345723      -281.5214
   7   2.0000     -10.303086      -280.3612
   8   2.0000     -10.288440      -279.9627
   9   2.0000     -10.270981      -279.4876
  10   2.0000     -10.265430      -279.3366
  11   2.0000     -10.259180      -279.1665
  12   2.0000     -10.249165      -278.8940
  13   2.0000     -10.240151      -278.6487
  14   2.0000     -10.234734      -278.5013
  15   2.0000     -10.227047      -278.2921
  16   2.0000     -10.153352      -276.2867
  17   2.0000      -8.276236      -225.2078
  18   2.0000      -6.233478      -169.6216
  19   2.0000      -6.227234      -169.4516
  20   2.0000      -6.226908      -169.4428
  21   2.0000      -1.519238       -41.3406
  22   2.0000      -1.233339       -33.5609
  23   2.0000      -1.135065       -30.8867
  24   2.0000      -1.047415       -28.5016
  25   2.0000      -0.961730       -26.1700
  26   2.0000      -0.954551       -25.9747
  27   2.0000      -0.920633       -25.0517
  28   2.0000      -0.890719       -24.2377
  29   2.0000      -0.868932       -23.6449
  30   2.0000      -0.838038       -22.8042
  31   2.0000      -0.811754       -22.0889
  32   2.0000      -0.777160       -21.1476
  33   2.0000      -0.747650       -20.3446
  34   2.0000      -0.724408       -19.7121
  35   2.0000      -0.711881       -19.3713
  36   2.0000      -0.698190       -18.9987
  37   2.0000      -0.692279       -18.8379
  38   2.0000      -0.678045       -18.4506
  39   2.0000      -0.656760       -17.8714
  40   2.0000      -0.641555       -17.4576
  41   2.0000      -0.620861       -16.8945
  42   2.0000      -0.605717       -16.4824
  43   2.0000      -0.598437       -16.2843
  44   2.0000      -0.580750       -15.8030
  45   2.0000      -0.569978       -15.5099
  46   2.0000      -0.565997       -15.4016
  47   2.0000      -0.553037       -15.0489
  48   2.0000      -0.545886       -14.8543
  49   2.0000      -0.529838       -14.4176
  50   2.0000      -0.522420       -14.2158
  51   2.0000      -0.511206       -13.9106
  52   2.0000      -0.509759       -13.8712
  53   2.0000      -0.503888       -13.7115
  54   2.0000      -0.479914       -13.0591
  55   2.0000      -0.475040       -12.9265
  56   2.0000      -0.470578       -12.8051
  57   2.0000      -0.461629       -12.5616
  58   2.0000      -0.451868       -12.2959
  59   2.0000      -0.444348       -12.0913
  60   2.0000      -0.438984       -11.9453
  61   2.0000      -0.429626       -11.6907
  62   2.0000      -0.423529       -11.5248
  63   2.0000      -0.414871       -11.2892
  64   2.0000      -0.411218       -11.1898
  65   2.0000      -0.408211       -11.1080
  66   2.0000      -0.394467       -10.7340
  67   2.0000      -0.385313       -10.4849
  68   2.0000      -0.377175       -10.2635
  69   2.0000      -0.362410        -9.8617
  70   2.0000      -0.330195        -8.9851
  71   2.0000      -0.216771        -5.8986
  72   0.0000       0.036010         0.9799
  73   0.0000       0.057974         1.5776
  74   0.0000       0.059886         1.6296
  75   0.0000       0.073072         1.9884
  76   0.0000       0.083897         2.2829

MULLIKEN ATOMIC CHARGES
-----------------------
   0 C :   -0.919192
   1 C :   -0.593282
   2 C :   -0.697533
   3 C :   -0.864469
   4 H :    0.400957
   5 H :    0.418707
   6 S :    1.316665
   7 C :    0.283900
   8 N :   -0.277709
   9 N :   -0.343584
  10 H :    0.218604
  11 H :    0.151138
  12 H :    0.563189
  13 H :    0.173328
  14 H :    0.153151
  15 O :   -0.795299
  16 F :   -0.109787
  17 C :   -0.752184
  18 H :    0.270695
  19 H :    0.405389
  20 C :   -0.483171
  21 C :   -0.087313
  22 H :    0.310452
  23 H :   -0.087449
  24 H :    0.316325
  25 H :    0.316701
  26 C :   -0.449607
  27 H :    0.277045
  28 H :    0.396904
  29 C :   -0.469454
  30 H :    0.296608
  31 H :    0.215975
  32 C :   -0.867861
  33 H :    0.325767
  34 H :    0.252546
  35 H :    0.394302
  36 H :    0.341095
  37 H :    0.296033
  38 H :    0.306167
  39 O :   -0.603750
Sum of atomic charges:    0.0000000

LOEWDIN ATOMIC CHARGES
----------------------
   0 C :   -0.224284
   1 C :   -0.144131
   2 C :   -0.213605
   3 C :   -0.226217
   4 H :    0.113735
   5 H :    0.105720
   6 S :    0.672548
   7 C :   -0.517822
   8 N :    0.114311
   9 N :    0.121144
  10 H :    0.094598
  11 H :    0.095130
  12 H :    0.005732
  13 H :    0.031290
  14 H :    0.101223
  15 O :   -0.284730
  16 F :   -0.028178
  17 C :   -0.207766
  18 H :    0.104971
  19 H :    0.101818
  20 C :   -0.216445
  21 C :   -0.215016
  22 H :    0.129853
  23 H :    0.088644
  24 H :    0.124922
  25 H :    0.118698
  26 C :   -0.213007
  27 H :    0.105319
  28 H :    0.102841
  29 C :   -0.218558
  30 H :    0.114816
  31 H :    0.103538
  32 C :   -0.212901
  33 H :    0.114303
  34 H :    0.101817
  35 H :    0.111513
  36 H :    0.112955
  37 H :    0.108399
  38 H :    0.110019
  39 O :   -0.287196

  Mayer bond orders larger than 0.100000
B(  0-C ,  1-C ) :   1.0048 B(  0-C , 17-C ) :   0.7763 B(  0-C , 18-H ) :   1.0114
B(  0-C , 19-H ) :   0.7767 B(  0-C , 29-C ) :   0.1412 B(  1-C ,  7-C ) :   0.4730
B(  1-C , 10-H ) :  -0.1140 B(  1-C , 12-H ) :   0.2057 B(  1-C , 17-C ) :   0.5364
B(  1-C , 18-H ) :  -0.1178 B(  1-C , 19-H ) :  -0.1356 B(  2-C ,  3-C ) :   1.0522
B(  2-C , 20-C ) :   0.5444 B(  2-C , 21-C ) :   0.4353 B(  2-C , 22-H ) :  -0.1418
B(  2-C , 24-H ) :   0.9208 B(  2-C , 25-H ) :   0.8818 B(  3-C ,  4-H ) :   0.8259
B(  3-C ,  5-H ) :   0.8108 B(  3-C ,  6-S ) :   0.8328 B(  3-C , 15-O ) :   0.1149
B(  3-C , 16-F ) :   0.1219 B(  3-C , 21-C ) :   0.3079 B(  3-C , 39-O ) :   0.1096
B(  6-S , 15-O ) :   1.4874 B(  6-S , 16-F ) :   0.8449 B(  6-S , 39-O ) :   1.6790
B(  7-C ,  8-N ) :   1.0305 B(  7-C ,  9-N ) :   1.2010 B(  7-C , 10-H ) :   0.1492
B(  7-C , 12-H ) :   0.5925 B(  7-C , 17-C ) :  -0.1602 B(  8-N , 12-H ) :   0.1439
B(  8-N , 13-H ) :   0.9451 B(  8-N , 14-H ) :   1.0385 B(  9-N , 10-H ) :   0.9398
B(  9-N , 11-H ) :   1.0434 B(  9-N , 17-C ) :   0.1304 B( 12-H , 15-O ) :   0.1052
B( 12-H , 39-O ) :  -0.2049 B( 15-O , 39-O ) :   0.1342 B( 17-C , 26-C ) :   1.1981
B( 17-C , 27-H ) :   0.9782 B( 17-C , 28-H ) :   0.8118 B( 17-C , 29-C ) :   0.3492
B( 20-C , 21-C ) :   0.4155 B( 20-C , 26-C ) :   0.2048 B( 20-C , 32-C ) :   0.9159
B( 20-C , 35-H ) :   0.8642 B( 20-C , 36-H ) :   0.8664 B( 21-C , 22-H ) :   0.7692
B( 21-C , 23-H ) :   1.4891 B( 21-C , 29-C ) :   0.1374 B( 21-C , 32-C ) :   0.3771
B( 21-C , 39-O ) :   0.1083 B( 22-H , 23-H ) :   0.1419 B( 23-H , 39-O ) :  -0.1177
B( 26-C , 29-C ) :   0.2740 B( 26-C , 30-H ) :   0.8661 B( 26-C , 31-H ) :   1.1153
B( 26-C , 32-C ) :   0.2775 B( 26-C , 34-H ) :  -0.1252 B( 29-C , 32-C ) :   0.9429
B( 29-C , 33-H ) :   0.8749 B( 29-C , 34-H ) :   1.0407 B( 32-C , 37-H ) :   0.9302
B( 32-C , 38-H ) :   0.9394

Dispersion correction           -0.021960216
FINAL SINGLE POINT ENERGY     -1191.061451299020

DIPOLE MOMENT
-------------
                                X             Y             Z
Electronic contribution:    -20.60687       3.49158     -21.99089
Nuclear contribution   :     19.99734      -4.67125      20.55522
                        -----------------------------------------
Total Dipole Moment    :     -0.60953      -1.17967      -1.43567
                        -----------------------------------------
Magnitude (a.u.)       :      1.95558
Magnitude (Debye)      :      4.97069

Rotational constants in cm-1:     0.014213     0.012058     0.007367
Rotational constants in MHz :   426.102180   361.491761   220.844824

                             ****ORCA TERMINATED NORMALLY****
TOTAL RUN TIME: 0 days 0 hours 5 minutes 23 seconds 911 msec
