                         Program Version 5.0.0 -  RELEASE  -
|  1> !wB97X-D3 RIJCOSX def2-TZVPD def2/J TightSCF xyzfile
|  2>
|  3> *xyzfile 0 1 D8.xyz
|  4>
|  5> %MaxCore 64000
|  6>
|  7> %pal nprocs 18
|  8> end
|  9>
| 10> %scf
| 11>   MaxIter 150
| 12> end
| 13>
| 14>
| 15>                          ****END OF INPUT****

CARTESIAN COORDINATES (ANGSTROEM)
---------------------------------
  C      4.490588    1.155899   -2.469290
  N      4.305394    1.222762   -3.908317
  C      4.906458   -3.102816   -5.954844
  C      3.511771   -2.806215   -6.492283
  H      2.736044   -3.373445   -5.973736
  H      3.444904   -3.040831   -7.555281
  S      3.004618   -1.096206   -6.389259
  C      4.631918    2.246365   -4.670958
  C      4.541686    2.143990   -5.987139
  N      5.084086    3.393584   -4.118545
  H      4.920675    3.570501   -3.135870
  H      5.254652    4.197390   -4.706956
  H      3.824530    0.449113   -4.350926
  H      4.343373    1.249318   -6.416646
  H      4.676712    2.956624   -6.574113
  O      4.128856   -0.329647   -6.953717
  O      1.781285   -1.000779   -7.136399
  C      5.942129    0.939500   -2.036893
  H      3.864305    0.328532   -2.136611
  H      4.076233    2.049994   -1.989010
  C      6.462677   -3.117775   -3.944671
  C      5.024977   -3.025679   -4.437625
  H      4.423321   -3.818693   -3.977648
  H      4.579350   -2.087131   -4.108727
  H      5.201533   -4.100207   -6.296905
  H      5.605922   -2.397822   -6.413368
  C      6.559957   -0.356290   -2.559086
  H      5.967976    0.952567   -0.942444
  H      6.547184    1.788331   -2.368849
  C      6.006283   -1.615917   -1.899301
  H      7.642360   -0.318000   -2.402059
  H      6.414855   -0.403433   -3.642587
  C      6.608718   -2.917014   -2.435655
  H      6.190324   -1.561115   -0.820948
  H      4.919250   -1.651245   -2.016586
  H      7.066975   -2.374258   -4.475514
  H      6.887808   -4.089747   -4.215332
  H      6.135197   -3.755573   -1.915159
  H      7.671142   -2.955503   -2.172291
  F      2.851546   -0.783683   -4.956789

 Total Charge           Charge          ....    0
 Multiplicity           Mult            ....    1
 Number of Electrons    NEL             ....  144
 Basis Dimension        Dim             ....  854

ORBITAL ENERGIES
----------------

  NO   OCC          E(Eh)            E(eV)
   0   2.0000     -89.201620     -2427.2995
   1   2.0000     -24.910193      -677.8408
   2   2.0000     -19.252744      -523.8938
   3   2.0000     -19.239672      -523.5381
   4   2.0000     -14.406576      -392.0229
   5   2.0000     -14.405601      -391.9963
   6   2.0000     -10.341378      -281.4032
   7   2.0000     -10.307999      -280.4949
   8   2.0000     -10.304104      -280.3889
   9   2.0000     -10.302539      -280.3463
  10   2.0000     -10.290540      -280.0198
  11   2.0000     -10.280936      -279.7585
  12   2.0000     -10.277227      -279.6576
  13   2.0000     -10.273841      -279.5654
  14   2.0000     -10.268950      -279.4323
  15   2.0000     -10.268103      -279.4093
  16   2.0000     -10.152592      -276.2661
  17   2.0000      -8.265649      -224.9197
  18   2.0000      -6.223340      -169.3457
  19   2.0000      -6.216456      -169.1584
  20   2.0000      -6.216011      -169.1463
  21   2.0000      -1.496122       -40.7116
  22   2.0000      -1.233984       -33.5784
  23   2.0000      -1.137026       -30.9401
  24   2.0000      -1.072993       -29.1976
  25   2.0000      -0.985567       -26.8186
  26   2.0000      -0.965446       -26.2711
  27   2.0000      -0.934813       -25.4376
  28   2.0000      -0.905317       -24.6349
  29   2.0000      -0.868943       -23.6451
  30   2.0000      -0.843889       -22.9634
  31   2.0000      -0.822392       -22.3784
  32   2.0000      -0.789311       -21.4782
  33   2.0000      -0.764505       -20.8032
  34   2.0000      -0.742340       -20.2001
  35   2.0000      -0.717882       -19.5346
  36   2.0000      -0.707183       -19.2434
  37   2.0000      -0.695540       -18.9266
  38   2.0000      -0.679165       -18.4810
  39   2.0000      -0.666837       -18.1456
  40   2.0000      -0.663646       -18.0587
  41   2.0000      -0.621208       -16.9039
  42   2.0000      -0.606243       -16.4967
  43   2.0000      -0.592898       -16.1336
  44   2.0000      -0.585113       -15.9217
  45   2.0000      -0.584667       -15.9096
  46   2.0000      -0.573298       -15.6002
  47   2.0000      -0.568130       -15.4596
  48   2.0000      -0.561465       -15.2782
  49   2.0000      -0.544345       -14.8124
  50   2.0000      -0.541816       -14.7436
  51   2.0000      -0.531708       -14.4685
  52   2.0000      -0.515961       -14.0400
  53   2.0000      -0.503162       -13.6917
  54   2.0000      -0.491628       -13.3779
  55   2.0000      -0.488546       -13.2940
  56   2.0000      -0.482687       -13.1346
  57   2.0000      -0.474471       -12.9110
  58   2.0000      -0.466377       -12.6908
  59   2.0000      -0.460495       -12.5307
  60   2.0000      -0.458846       -12.4858
  61   2.0000      -0.443105       -12.0575
  62   2.0000      -0.441543       -12.0150
  63   2.0000      -0.434204       -11.8153
  64   2.0000      -0.430582       -11.7167
  65   2.0000      -0.417223       -11.3532
  66   2.0000      -0.413768       -11.2592
  67   2.0000      -0.411704       -11.2030
  68   2.0000      -0.405424       -11.0322
  69   2.0000      -0.388893       -10.5823
  70   2.0000      -0.335393        -9.1265
  71   2.0000      -0.230826        -6.2811
  72   0.0000       0.045303         1.2328
  73   0.0000       0.057802         1.5729
  74   0.0000       0.066703         1.8151
  75   0.0000       0.069624         1.8946
  76   0.0000       0.079928         2.1749

MULLIKEN ATOMIC CHARGES
-----------------------
   0 C :   -1.108011
   1 N :    0.051855
   2 C :   -0.567394
   3 C :   -0.841563
   4 H :    0.368891
   5 H :    0.378609
   6 S :    1.268869
   7 C :    1.444741
   8 C :   -2.208999
   9 N :   -0.393295
  10 H :    0.191423
  11 H :    0.188126
  12 H :    0.039185
  13 H :    0.647208
  14 H :    0.269898
  15 O :   -0.644789
  16 O :   -0.615696
  17 C :   -0.497541
  18 H :    0.330307
  19 H :    0.368158
  20 C :   -0.511693
  21 C :   -0.165181
  22 H :    0.348373
  23 H :   -0.146338
  24 H :    0.334151
  25 H :    0.313080
  26 C :   -0.428148
  27 H :    0.337318
  28 H :    0.387586
  29 C :   -0.499205
  30 H :    0.284535
  31 H :    0.256352
  32 C :   -0.844848
  33 H :    0.325137
  34 H :    0.259850
  35 H :    0.366366
  36 H :    0.348841
  37 H :    0.306306
  38 H :    0.312742
  39 F :   -0.255208
Sum of atomic charges:    0.0000000

LOEWDIN ATOMIC CHARGES
----------------------
   0 C :   -0.189606
   1 N :    0.027496
   2 C :   -0.222891
   3 C :   -0.221600
   4 H :    0.112240
   5 H :    0.117704
   6 S :    0.643625
   7 C :   -0.537689
   8 C :    0.011121
   9 N :    0.114718
  10 H :    0.086663
  11 H :    0.108899
  12 H :    0.084845
  13 H :   -0.046004
  14 H :    0.017443
  15 O :   -0.285470
  16 O :   -0.249885
  17 C :   -0.191583
  18 H :    0.112463
  19 H :    0.110507
  20 C :   -0.213490
  21 C :   -0.220291
  22 H :    0.130186
  23 H :    0.083756
  24 H :    0.124301
  25 H :    0.118419
  26 C :   -0.210376
  27 H :    0.111619
  28 H :    0.105589
  29 C :   -0.221551
  30 H :    0.119020
  31 H :    0.105991
  32 C :   -0.210439
  33 H :    0.115894
  34 H :    0.097367
  35 H :    0.113254
  36 H :    0.116687
  37 H :    0.110342
  38 H :    0.112355
  39 F :   -0.091629

  Mayer bond orders larger than 0.100000
B(  0-C ,  1-N ) :   1.1377 B(  0-C ,  7-C ) :  -0.2113 B(  0-C ,  9-N ) :   0.1559
B(  0-C , 12-H ) :  -0.1685 B(  0-C , 17-C ) :   0.7516 B(  0-C , 18-H ) :   0.8098
B(  0-C , 19-H ) :   0.7741 B(  0-C , 29-C ) :   0.1812 B(  1-N ,  7-C ) :   1.1007
B(  1-N , 12-H ) :   0.9582 B(  1-N , 17-C ) :   0.1005 B(  2-C ,  3-C ) :   0.9366
B(  2-C , 20-C ) :   0.5559 B(  2-C , 21-C ) :   0.3991 B(  2-C , 22-H ) :  -0.1343
B(  2-C , 24-H ) :   0.8984 B(  2-C , 25-H ) :   0.9140 B(  3-C ,  4-H ) :   0.8666
B(  3-C ,  5-H ) :   0.8667 B(  3-C ,  6-S ) :   0.8791 B(  3-C , 16-O ) :   0.1561
B(  3-C , 21-C ) :   0.3940 B(  6-S , 15-O ) :   1.5211 B(  6-S , 16-O ) :   1.4121
B(  6-S , 21-C ) :   0.1128 B(  6-S , 39-F ) :   1.0438 B(  7-C ,  9-N ) :   0.9761
B(  7-C , 12-H ) :  -0.2669 B(  7-C , 14-H ) :  -0.2700 B(  8-C , 13-H ) :   0.6546
B(  8-C , 14-H ) :   1.1669 B(  9-N , 10-H ) :   0.9782 B(  9-N , 11-H ) :   1.0190
B( 13-H , 14-H ) :   0.1413 B( 13-H , 15-O ) :  -0.2309 B( 17-C , 26-C ) :   1.1118
B( 17-C , 27-H ) :   0.9451 B( 17-C , 28-H ) :   0.8471 B( 17-C , 29-C ) :   0.3391
B( 20-C , 21-C ) :   0.4479 B( 20-C , 26-C ) :   0.1803 B( 20-C , 32-C ) :   0.9441
B( 20-C , 35-H ) :   0.8902 B( 20-C , 36-H ) :   0.8532 B( 21-C , 22-H ) :   0.7728
B( 21-C , 23-H ) :   1.4700 B( 21-C , 29-C ) :   0.1158 B( 21-C , 32-C ) :   0.3805
B( 21-C , 39-F ) :   0.1035 B( 22-H , 23-H ) :   0.1052 B( 23-H , 39-F ) :  -0.1163
B( 26-C , 29-C ) :   0.1873 B( 26-C , 30-H ) :   0.8654 B( 26-C , 31-H ) :   1.0886
B( 26-C , 32-C ) :   0.3224 B( 26-C , 34-H ) :  -0.1381 B( 29-C , 32-C ) :   0.9682
B( 29-C , 33-H ) :   0.8774 B( 29-C , 34-H ) :   1.0366 B( 32-C , 37-H ) :   0.9224
B( 32-C , 38-H ) :   0.9284

Dispersion correction           -0.021849202
FINAL SINGLE POINT ENERGY     -1191.056960674771

DIPOLE MOMENT
-------------
                                X             Y             Z
Electronic contribution:    -18.45421       3.16101     -16.16596
Nuclear contribution   :     18.77618      -4.78855      17.68602
                        -----------------------------------------
Total Dipole Moment    :      0.32197      -1.62754       1.52006
                        -----------------------------------------
Magnitude (a.u.)       :      2.25014
Magnitude (Debye)      :      5.71940

Rotational constants in cm-1:     0.014368     0.012319     0.007509
Rotational constants in MHz :   430.738566   369.302170   225.105103

                             ****ORCA TERMINATED NORMALLY****
TOTAL RUN TIME: 0 days 0 hours 4 minutes 59 seconds 947 msec
