                         Program Version 5.0.0 -  RELEASE  -
|  1> !LC-PBE RIJCOSX def2-SVPD def2/J TightSCF
|  2> *xyz -1 1
|  3> C          4.93020       -7.37532       -2.64962
|  4> C          3.84189       -6.95161       -3.63283
|  5> H          3.45814       -5.95442       -3.40712
|  6> H          2.98848       -7.64361       -3.56708
|  7> S          4.31812       -6.91593       -5.36869
|  8> O          5.40615       -5.89948       -5.51297
|  9> O          3.11191       -6.44508       -6.04379
| 10> C          6.17399       -6.48552       -2.60631
| 11> H          4.46961       -7.40617       -1.65588
| 12> H          5.23013       -8.39868       -2.88591
| 13> O          4.76340       -8.23942       -5.69863
| 14> H          6.62449       -6.45478       -3.57637
| 15> H          6.87304       -6.88376       -1.90088
| 16> H          5.89434       -5.49571       -2.31140
| 17> *
| 18>
| 19> %MaxCore 64000
| 20>
| 21> %pal nprocs 8
| 22> end
| 23>
| 24> %scf
| 25>   MaxIter 150
| 26> end
| 27>
| 28>
| 29>                          ****END OF INPUT****

CARTESIAN COORDINATES (ANGSTROEM)
---------------------------------
  C      4.930200   -7.375320   -2.649620
  C      3.841890   -6.951610   -3.632830
  H      3.458140   -5.954420   -3.407120
  H      2.988480   -7.643610   -3.567080
  S      4.318120   -6.915930   -5.368690
  O      5.406150   -5.899480   -5.512970
  O      3.111910   -6.445080   -6.043790
  C      6.173990   -6.485520   -2.606310
  H      4.469610   -7.406170   -1.655880
  H      5.230130   -8.398680   -2.885910
  O      4.763400   -8.239420   -5.698630
  H      6.624490   -6.454780   -3.576370
  H      6.873040   -6.883760   -1.900880
  H      5.894340   -5.495710   -2.311400

 Total Charge           Charge          ....   -1
 Multiplicity           Mult            ....    1
 Number of Electrons    NEL             ....   66
 Basis Dimension        Dim             ....  212

ORBITAL ENERGIES
----------------

  NO   OCC          E(Eh)            E(eV)
   0   2.0000     -88.318387     -2403.2655
   1   2.0000     -18.782006      -511.0844
   2   2.0000     -18.771885      -510.8090
   3   2.0000     -18.764613      -510.6111
   4   2.0000     -10.003218      -272.2014
   5   2.0000      -9.999460      -272.0991
   6   2.0000      -9.978783      -271.5365
   7   2.0000      -7.939842      -216.0541
   8   2.0000      -5.962238      -162.2407
   9   2.0000      -5.962044      -162.2355
  10   2.0000      -5.961816      -162.2293
  11   2.0000      -1.110651       -30.2224
  12   2.0000      -0.957942       -26.0669
  13   2.0000      -0.928514       -25.2662
  14   2.0000      -0.835750       -22.7419
  15   2.0000      -0.736572       -20.0431
  16   2.0000      -0.632561       -17.2129
  17   2.0000      -0.538363       -14.6496
  18   2.0000      -0.485391       -13.2082
  19   2.0000      -0.469097       -12.7648
  20   2.0000      -0.444847       -12.1049
  21   2.0000      -0.426929       -11.6173
  22   2.0000      -0.412524       -11.2253
  23   2.0000      -0.399344       -10.8667
  24   2.0000      -0.359096        -9.7715
  25   2.0000      -0.350669        -9.5422
  26   2.0000      -0.335401        -9.1267
  27   2.0000      -0.296605        -8.0710
  28   2.0000      -0.294300        -8.0083
  29   2.0000      -0.256161        -6.9705
  30   2.0000      -0.241488        -6.5712
  31   2.0000      -0.234308        -6.3759
  32   2.0000      -0.200182        -5.4472
  33   0.0000       0.199788         5.4365
  34   0.0000       0.219442         5.9713
  35   0.0000       0.223629         6.0853
  36   0.0000       0.231171         6.2905
  37   0.0000       0.248681         6.7670

MULLIKEN ATOMIC CHARGES
-----------------------
   0 C :   -0.385812
   1 C :   -0.191926
   2 H :    0.078415
   3 H :    0.097661
   4 S :    1.221359
   5 O :   -0.809312
   6 O :   -0.784914
   7 C :    0.559827
   8 H :   -0.035228
   9 H :    0.036460
  10 O :   -0.744037
  11 H :   -0.053643
  12 H :   -0.010862
  13 H :    0.022011
Sum of atomic charges:   -1.0000000

LOEWDIN ATOMIC CHARGES
----------------------
   0 C :   -0.117023
   1 C :   -0.122514
   2 H :    0.021963
   3 H :    0.025895
   4 S :    0.845672
   5 O :   -0.585131
   6 O :   -0.582265
   7 C :    0.087560
   8 H :    0.019230
   9 H :    0.028462
  10 O :   -0.563893
  11 H :   -0.030755
  12 H :   -0.020684
  13 H :   -0.006516

  Mayer bond orders larger than 0.100000
B(  0-C ,  1-C ) :   1.2326 B(  0-C ,  2-H ) :   0.1221 B(  0-C ,  3-H ) :   0.1131
B(  0-C ,  7-C ) :   1.2636 B(  0-C ,  8-H ) :   0.9186 B(  0-C ,  9-H ) :   0.9455
B(  0-C , 11-H ) :   0.1987 B(  0-C , 12-H ) :   0.1629 B(  0-C , 13-H ) :   0.1819
B(  1-C ,  2-H ) :   0.9566 B(  1-C ,  3-H ) :   0.9218 B(  1-C ,  4-S ) :   0.9509
B(  1-C ,  8-H ) :   0.1196 B(  1-C ,  9-H ) :   0.1175 B(  4-S ,  5-O ) :   1.2787
B(  4-S ,  6-O ) :   1.3791 B(  4-S , 10-O ) :   1.3240 B(  7-C , 11-H ) :   0.8552
B(  7-C , 12-H ) :   0.8084 B(  7-C , 13-H ) :   0.7850 B( 11-H , 13-H ) :   0.1137

FINAL SINGLE POINT ENERGY      -740.726227186471

DIPOLE MOMENT
-------------
                                X             Y             Z
Electronic contribution:     -3.10537      -0.31712     -10.04224
Nuclear contribution   :      3.14317       0.05805      12.49367
                        -----------------------------------------
Total Dipole Moment    :      0.03781      -0.25907       2.45143
                        -----------------------------------------
Magnitude (a.u.)       :      2.46538
Magnitude (Debye)      :      6.26649

Rotational constants in cm-1:     0.133431     0.055055     0.052069
Rotational constants in MHz :  4000.170974  1650.506165  1561.001383

                             ****ORCA TERMINATED NORMALLY****
TOTAL RUN TIME: 0 days 0 hours 0 minutes 14 seconds 994 msec
