                         Program Version 5.0.0 -  RELEASE  -
|  1> !LC-PBE RIJCOSX def2-SVPD def2/J TightSCF
|  2> *xyz 1 1
|  3> C          5.55821       -1.99291       -6.21505
|  4> C          4.18188       -2.58967       -6.29891
|  5> N          3.14587       -1.76843       -6.48675
|  6> N          4.01910       -3.86431       -6.22743
|  7> H          4.76849       -4.59115       -5.99077
|  8> H          3.12241       -4.33339       -6.31462
|  9> H          3.28164       -0.77779       -6.56655
| 10> H          2.21255       -2.13419       -6.56225
| 11> C          6.41926       -2.54294       -5.07763
| 12> C          5.89651       -2.16931       -3.69455
| 13> H          7.42888       -2.14367       -5.20808
| 14> H          6.50589       -3.62754       -5.17550
| 15> H          6.03683       -2.19819       -7.17685
| 16> H          5.46761       -0.90737       -6.12797
| 17> H          5.81870       -1.10488       -3.61824
| 18> H          6.57185       -2.53200       -2.94804
| 19> H          4.93221       -2.60892       -3.54698
| 20> *
| 21>
| 22> %MaxCore 64000
| 23>
| 24> %pal nprocs 8
| 25> end
| 26>
| 27> %scf
| 28>   MaxIter 150
| 29> end
| 30>
| 31>
| 32>                          ****END OF INPUT****

CARTESIAN COORDINATES (ANGSTROEM)
---------------------------------
  C      5.558210   -1.992910   -6.215050
  C      4.181880   -2.589670   -6.298910
  N      3.145870   -1.768430   -6.486750
  N      4.019100   -3.864310   -6.227430
  H      4.768490   -4.591150   -5.990770
  H      3.122410   -4.333390   -6.314620
  H      3.281640   -0.777790   -6.566550
  H      2.212550   -2.134190   -6.562250
  C      6.419260   -2.542940   -5.077630
  C      5.896510   -2.169310   -3.694550
  H      7.428880   -2.143670   -5.208080
  H      6.505890   -3.627540   -5.175500
  H      6.036830   -2.198190   -7.176850
  H      5.467610   -0.907370   -6.127970
  H      5.818700   -1.104880   -3.618240
  H      6.571850   -2.532000   -2.948040
  H      4.932210   -2.608920   -3.546980

 Total Charge           Charge          ....    1
 Multiplicity           Mult            ....    1
 Number of Electrons    NEL             ....   48
 Basis Dimension        Dim             ....  208

ORBITAL ENERGIES
----------------

  NO   OCC          E(Eh)            E(eV)
   0   2.0000     -14.479953      -394.0195
   1   2.0000     -14.467994      -393.6941
   2   2.0000     -10.458698      -284.5956
   3   2.0000     -10.321505      -280.8624
   4   2.0000     -10.289052      -279.9793
   5   2.0000     -10.249605      -278.9059
   6   2.0000      -1.372572       -37.3496
   7   2.0000      -1.264584       -34.4111
   8   2.0000      -1.146912       -31.2091
   9   2.0000      -1.052946       -28.6521
  10   2.0000      -0.992199       -26.9991
  11   2.0000      -0.935650       -25.4603
  12   2.0000      -0.920428       -25.0461
  13   2.0000      -0.879176       -23.9236
  14   2.0000      -0.836759       -22.7694
  15   2.0000      -0.806326       -21.9412
  16   2.0000      -0.769996       -20.9527
  17   2.0000      -0.730047       -19.8656
  18   2.0000      -0.713947       -19.4275
  19   2.0000      -0.697445       -18.9784
  20   2.0000      -0.631364       -17.1803
  21   2.0000      -0.628777       -17.1099
  22   2.0000      -0.622280       -16.9331
  23   2.0000      -0.619606       -16.8603
  24   0.0000      -0.113947        -3.1007
  25   0.0000      -0.074362        -2.0235
  26   0.0000      -0.042073        -1.1449
  27   0.0000      -0.031545        -0.8584
  28   0.0000      -0.008411        -0.2289

MULLIKEN ATOMIC CHARGES
-----------------------
   0 C :   -0.139712
   1 C :    0.841324
   2 N :   -0.066670
   3 N :   -0.044264
   4 H :    0.144382
   5 H :   -0.094193
   6 H :    0.055673
   7 H :   -0.078568
   8 C :   -0.429626
   9 C :    0.458627
  10 H :    0.002964
  11 H :   -0.036220
  12 H :    0.058566
  13 H :    0.205800
  14 H :    0.089404
  15 H :    0.030399
  16 H :    0.002114
Sum of atomic charges:    1.0000000

LOEWDIN ATOMIC CHARGES
----------------------
   0 C :    0.019444
   1 C :   -0.045131
   2 N :    0.271083
   3 N :    0.251442
   4 H :    0.106935
   5 H :    0.059824
   6 H :    0.048045
   7 H :    0.047963
   8 C :   -0.079582
   9 C :    0.113154
  10 H :    0.053116
  11 H :    0.024277
  12 H :    0.067915
  13 H :    0.052030
  14 H :    0.006364
  15 H :    0.010799
  16 H :   -0.007677

  Mayer bond orders larger than 0.100000
B(  0-C ,  1-C ) :   1.0502 B(  0-C ,  2-N ) :   0.1002 B(  0-C ,  8-C ) :   1.2353
B(  0-C , 10-H ) :   0.1066 B(  0-C , 11-H ) :   0.1151 B(  0-C , 12-H ) :   0.9049
B(  0-C , 13-H ) :   0.8240 B(  1-C ,  2-N ) :   0.9680 B(  1-C ,  3-N ) :   1.1222
B(  1-C ,  5-H ) :  -0.2286 B(  1-C ,  7-H ) :  -0.2052 B(  1-C , 12-H ) :   0.1345
B(  2-N ,  3-N ) :   0.1514 B(  2-N ,  6-H ) :   1.1116 B(  2-N ,  7-H ) :   1.3149
B(  3-N ,  4-H ) :   1.0684 B(  3-N ,  5-H ) :   1.3182 B(  4-H ,  5-H ) :  -0.1778
B(  6-H ,  7-H ) :  -0.1753 B(  8-C ,  9-C ) :   1.3411 B(  8-C , 10-H ) :   0.9931
B(  8-C , 11-H ) :   0.9431 B(  8-C , 13-H ) :   0.1270 B(  8-C , 14-H ) :   0.1734
B(  8-C , 15-H ) :   0.1681 B(  8-C , 16-H ) :   0.1681 B(  9-C , 14-H ) :   0.8003
B(  9-C , 15-H ) :   0.8267 B(  9-C , 16-H ) :   0.8681

FINAL SINGLE POINT ENERGY      -267.284016692476

DIPOLE MOMENT
-------------
                                X             Y             Z
Electronic contribution:     -4.02130      -0.95245      -3.73726
Nuclear contribution   :      2.70373       0.48594       2.85544
                        -----------------------------------------
Total Dipole Moment    :     -1.31757      -0.46651      -0.88182
                        -----------------------------------------
Magnitude (a.u.)       :      1.65264
Magnitude (Debye)      :      4.20069

Rotational constants in cm-1:     0.185545     0.074107     0.068805
Rotational constants in MHz :  5562.487769  2221.680591  2062.713441

                             ****ORCA TERMINATED NORMALLY****
TOTAL RUN TIME: 0 days 0 hours 0 minutes 15 seconds 266 msec
