                         Program Version 5.0.0 -  RELEASE  -
|  1> !LC-PBE RIJCOSX def2-SVPD def2/J TightSCF
|  2> *xyz 0 1
|  3> C          4.93020       -7.37532       -2.64962
|  4> C          3.84189       -6.95161       -3.63283
|  5> H          3.45814       -5.95442       -3.40712
|  6> H          2.98848       -7.64361       -3.56708
|  7> S          4.31812       -6.91593       -5.36869
|  8> F          5.40615       -5.89948       -5.51297
|  9> O          3.11191       -6.44508       -6.04379
| 10> C          6.17399       -6.48552       -2.60631
| 11> H          4.46961       -7.40617       -1.65588
| 12> H          5.23013       -8.39868       -2.88591
| 13> O          4.76340       -8.23942       -5.69863
| 14> H          6.62449       -6.45478       -3.57637
| 15> H          6.87304       -6.88376       -1.90088
| 16> H          5.89434       -5.49571       -2.31140
| 17> *
| 18>
| 19> %MaxCore 64000
| 20>
| 21> %pal nprocs 8
| 22> end
| 23>
| 24> %scf
| 25>   MaxIter 150
| 26> end
| 27>
| 28>
| 29>                          ****END OF INPUT****

CARTESIAN COORDINATES (ANGSTROEM)
---------------------------------
  C      4.930200   -7.375320   -2.649620
  C      3.841890   -6.951610   -3.632830
  H      3.458140   -5.954420   -3.407120
  H      2.988480   -7.643610   -3.567080
  S      4.318120   -6.915930   -5.368690
  F      5.406150   -5.899480   -5.512970
  O      3.111910   -6.445080   -6.043790
  C      6.173990   -6.485520   -2.606310
  H      4.469610   -7.406170   -1.655880
  H      5.230130   -8.398680   -2.885910
  O      4.763400   -8.239420   -5.698630
  H      6.624490   -6.454780   -3.576370
  H      6.873040   -6.883760   -1.900880
  H      5.894340   -5.495710   -2.311400

 Total Charge           Charge          ....    0
 Multiplicity           Mult            ....    1
 Number of Electrons    NEL             ....   66
 Basis Dimension        Dim             ....  212

ORBITAL ENERGIES
----------------

  NO   OCC          E(Eh)            E(eV)
   0   2.0000     -88.574266     -2410.2283
   1   2.0000     -24.608620      -669.6346
   2   2.0000     -19.014244      -517.4039
   3   2.0000     -19.003999      -517.1251
   4   2.0000     -10.197848      -277.4976
   5   2.0000     -10.163190      -276.5545
   6   2.0000     -10.135526      -275.8017
   7   2.0000      -8.196450      -223.0367
   8   2.0000      -6.223401      -169.3474
   9   2.0000      -6.216463      -169.1585
  10   2.0000      -6.215268      -169.1260
  11   2.0000      -1.501468       -40.8570
  12   2.0000      -1.290039       -35.1037
  13   2.0000      -1.185774       -32.2665
  14   2.0000      -1.015207       -27.6252
  15   2.0000      -0.922349       -25.0984
  16   2.0000      -0.860498       -23.4153
  17   2.0000      -0.802927       -21.8487
  18   2.0000      -0.730306       -19.8726
  19   2.0000      -0.718924       -19.5629
  20   2.0000      -0.701811       -19.0972
  21   2.0000      -0.646022       -17.5792
  22   2.0000      -0.628845       -17.1117
  23   2.0000      -0.613990       -16.7075
  24   2.0000      -0.600887       -16.3510
  25   2.0000      -0.579778       -15.7766
  26   2.0000      -0.542506       -14.7623
  27   2.0000      -0.523419       -14.2429
  28   2.0000      -0.510072       -13.8798
  29   2.0000      -0.498155       -13.5555
  30   2.0000      -0.479873       -13.0580
  31   2.0000      -0.461328       -12.5534
  32   2.0000      -0.456289       -12.4162
  33   0.0000       0.066158         1.8003
  34   0.0000       0.086904         2.3648
  35   0.0000       0.092749         2.5238
  36   0.0000       0.094548         2.5728
  37   0.0000       0.116950         3.1824

MULLIKEN ATOMIC CHARGES
-----------------------
   0 C :   -0.361385
   1 C :   -0.235367
   2 H :    0.140312
   3 H :    0.161521
   4 S :    1.369262
   5 F :   -0.390402
   6 O :   -0.647516
   7 C :    0.541722
   8 H :    0.011606
   9 H :    0.056638
  10 O :   -0.619293
  11 H :   -0.091869
  12 H :    0.022625
  13 H :    0.042147
Sum of atomic charges:   -0.0000000

LOEWDIN ATOMIC CHARGES
----------------------
   0 C :   -0.099936
   1 C :   -0.075389
   2 H :    0.039264
   3 H :    0.056240
   4 S :    1.095768
   5 F :   -0.263726
   6 O :   -0.470920
   7 C :    0.105400
   8 H :    0.043178
   9 H :    0.040584
  10 O :   -0.453453
  11 H :   -0.022817
  12 H :    0.002232
  13 H :    0.003575

  Mayer bond orders larger than 0.100000
B(  0-C ,  1-C ) :   1.2578 B(  0-C ,  2-H ) :   0.1193 B(  0-C ,  3-H ) :   0.1080
B(  0-C ,  7-C ) :   1.2761 B(  0-C ,  8-H ) :   0.9118 B(  0-C ,  9-H ) :   0.9519
B(  0-C , 11-H ) :   0.1756 B(  0-C , 12-H ) :   0.1549 B(  0-C , 13-H ) :   0.1723
B(  1-C ,  2-H ) :   0.9449 B(  1-C ,  3-H ) :   0.8910 B(  1-C ,  4-S ) :   1.0192
B(  1-C ,  8-H ) :   0.1124 B(  1-C ,  9-H ) :   0.1159 B(  4-S ,  5-F ) :   0.6486
B(  4-S ,  6-O ) :   1.5893 B(  4-S , 10-O ) :   1.5557 B(  7-C , 11-H ) :   0.8681
B(  7-C , 12-H ) :   0.8227 B(  7-C , 13-H ) :   0.7944 B( 11-H , 13-H ) :   0.1026

FINAL SINGLE POINT ENERGY      -765.198616124856

DIPOLE MOMENT
-------------
                                X             Y             Z
Electronic contribution:     -1.88446       1.41493     -11.65572
Nuclear contribution   :      2.27444      -1.01744      13.40618
                        -----------------------------------------
Total Dipole Moment    :      0.38997       0.39749       1.75046
                        -----------------------------------------
Magnitude (a.u.)       :      1.83689
Magnitude (Debye)      :      4.66902

Rotational constants in cm-1:     0.126966     0.054929     0.051005
Rotational constants in MHz :  3806.345018  1646.729702  1529.089209

                             ****ORCA TERMINATED NORMALLY****
TOTAL RUN TIME: 0 days 0 hours 0 minutes 14 seconds 761 msec
