                         Program Version 5.0.0 -  RELEASE  -
|  1> !LC-PBE RIJCOSX def2-SVPD def2/J TightSCF
|  2> *xyz 0 1
|  3> C          5.55821       -1.99291       -6.21505
|  4> C          4.18188       -2.58967       -6.29891
|  5> C          3.14587       -1.76843       -6.48675
|  6> N          4.01910       -3.86431       -6.22743
|  7> H          4.76849       -4.59115       -5.99077
|  8> H          3.12241       -4.33339       -6.31462
|  9> H          3.28164       -0.77779       -6.56655
| 10> H          2.21255       -2.13419       -6.56225
| 11> C          6.41926       -2.54294       -5.07763
| 12> C          5.89651       -2.16931       -3.69455
| 13> H          7.42888       -2.14367       -5.20808
| 14> H          6.50589       -3.62754       -5.17550
| 15> H          6.03683       -2.19819       -7.17685
| 16> H          5.46761       -0.90737       -6.12797
| 17> H          5.81870       -1.10488       -3.61824
| 18> H          6.57185       -2.53200       -2.94804
| 19> H          4.93221       -2.60892       -3.54698
| 20> *
| 21>
| 22> %MaxCore 64000
| 23>
| 24> %pal nprocs 8
| 25> end
| 26>
| 27> %scf
| 28>   MaxIter 150
| 29> end
| 30>
| 31>
| 32>                          ****END OF INPUT****

CARTESIAN COORDINATES (ANGSTROEM)
---------------------------------
  C      5.558210   -1.992910   -6.215050
  C      4.181880   -2.589670   -6.298910
  C      3.145870   -1.768430   -6.486750
  N      4.019100   -3.864310   -6.227430
  H      4.768490   -4.591150   -5.990770
  H      3.122410   -4.333390   -6.314620
  H      3.281640   -0.777790   -6.566550
  H      2.212550   -2.134190   -6.562250
  C      6.419260   -2.542940   -5.077630
  C      5.896510   -2.169310   -3.694550
  H      7.428880   -2.143670   -5.208080
  H      6.505890   -3.627540   -5.175500
  H      6.036830   -2.198190   -7.176850
  H      5.467610   -0.907370   -6.127970
  H      5.818700   -1.104880   -3.618240
  H      6.571850   -2.532000   -2.948040
  H      4.932210   -2.608920   -3.546980

 Total Charge           Charge          ....    0
 Multiplicity           Mult            ....    1
 Number of Electrons    NEL             ....   48
 Basis Dimension        Dim             ....  208

ORBITAL ENERGIES
----------------

  NO   OCC          E(Eh)            E(eV)
   0   2.0000     -14.236898      -387.4057
   1   2.0000     -10.155020      -276.3321
   2   2.0000     -10.127406      -275.5807
   3   2.0000     -10.124759      -275.5087
   4   2.0000     -10.106102      -275.0010
   5   2.0000     -10.054611      -273.5999
   6   2.0000      -1.101985       -29.9865
   7   2.0000      -0.966763       -26.3069
   8   2.0000      -0.899405       -24.4741
   9   2.0000      -0.843219       -22.9451
  10   2.0000      -0.756312       -20.5803
  11   2.0000      -0.729941       -19.8627
  12   2.0000      -0.667543       -18.1648
  13   2.0000      -0.611310       -16.6346
  14   2.0000      -0.601497       -16.3676
  15   2.0000      -0.590357       -16.0644
  16   2.0000      -0.531540       -14.4639
  17   2.0000      -0.526154       -14.3174
  18   2.0000      -0.509336       -13.8597
  19   2.0000      -0.505653       -13.7595
  20   2.0000      -0.465426       -12.6649
  21   2.0000      -0.458061       -12.4645
  22   2.0000      -0.449150       -12.2220
  23   2.0000      -0.304124        -8.2756
  24   0.0000       0.086903         2.3648
  25   0.0000       0.112622         3.0646
  26   0.0000       0.115254         3.1362
  27   0.0000       0.116861         3.1799
  28   0.0000       0.144339         3.9277

MULLIKEN ATOMIC CHARGES
-----------------------
   0 C :    0.092497
   1 C :   -0.082590
   2 C :    0.381064
   3 N :    0.048447
   4 H :    0.013419
   5 H :   -0.175557
   6 H :   -0.164933
   7 H :   -0.371467
   8 C :   -0.448285
   9 C :    0.471872
  10 H :   -0.029521
  11 H :   -0.050041
  12 H :   -0.026749
  13 H :    0.257311
  14 H :    0.068833
  15 H :    0.011808
  16 H :    0.003889
Sum of atomic charges:    0.0000000

LOEWDIN ATOMIC CHARGES
----------------------
   0 C :   -0.019009
   1 C :   -0.275370
   2 C :    0.151418
   3 N :    0.135427
   4 H :    0.052536
   5 H :    0.020152
   6 H :   -0.081241
   7 H :   -0.079650
   8 C :   -0.103109
   9 C :    0.095378
  10 H :    0.031334
  11 H :    0.012179
  12 H :    0.041144
  13 H :    0.038750
  14 H :   -0.002988
  15 H :   -0.008870
  16 H :   -0.008081

  Mayer bond orders larger than 0.100000
B(  0-C ,  1-C ) :   1.1307 B(  0-C ,  2-C ) :   0.1065 B(  0-C ,  6-H ) :  -0.1031
B(  0-C ,  8-C ) :   1.2098 B(  0-C , 10-H ) :   0.1285 B(  0-C , 11-H ) :   0.1327
B(  0-C , 12-H ) :   0.8772 B(  0-C , 13-H ) :   0.7828 B(  1-C ,  2-C ) :   1.7281
B(  1-C ,  3-N ) :   1.2074 B(  1-C ,  5-H ) :  -0.1341 B(  1-C ,  7-H ) :   0.2279
B(  1-C , 12-H ) :   0.2081 B(  2-C ,  3-N ) :   0.2632 B(  2-C ,  6-H ) :   1.0801
B(  2-C ,  7-H ) :   0.6758 B(  3-N ,  4-H ) :   1.1481 B(  3-N ,  5-H ) :   1.2711
B(  4-H ,  5-H ) :  -0.1674 B(  8-C ,  9-C ) :   1.3171 B(  8-C , 10-H ) :   0.9727
B(  8-C , 11-H ) :   0.9420 B(  8-C , 13-H ) :   0.1472 B(  8-C , 14-H ) :   0.1886
B(  8-C , 15-H ) :   0.1718 B(  8-C , 16-H ) :   0.1824 B(  9-C , 14-H ) :   0.8037
B(  9-C , 15-H ) :   0.8114 B(  9-C , 16-H ) :   0.8638

FINAL SINGLE POINT ENERGY      -250.837974309202

DIPOLE MOMENT
-------------
                                X             Y             Z
Electronic contribution:     -1.91223      -1.41321      -2.51769
Nuclear contribution   :      2.30279       0.65856       2.66048
                        -----------------------------------------
Total Dipole Moment    :      0.39056      -0.75465       0.14279
                        -----------------------------------------
Magnitude (a.u.)       :      0.86164
Magnitude (Debye)      :      2.19011

Rotational constants in cm-1:     0.189707     0.076319     0.071159
Rotational constants in MHz :  5687.269526  2287.988194  2133.283230

                             ****ORCA TERMINATED NORMALLY****
TOTAL RUN TIME: 0 days 0 hours 0 minutes 15 seconds 538 msec
