                         Program Version 5.0.0 -  RELEASE  -
|  1> !LC-PBE RIJCOSX def2-SVPD def2/J TightSCF
|  2> *xyz 0 1
|  3> C          4.93020       -7.37532       -2.64962
|  4> C          3.84189       -6.95161       -3.63283
|  5> H          3.45814       -5.95442       -3.40712
|  6> H          2.98848       -7.64361       -3.56708
|  7> S          4.31812       -6.91593       -5.36869
|  8> O          5.40615       -5.89948       -5.51297
|  9> F          3.11191       -6.44508       -6.04379
| 10> C          6.17399       -6.48552       -2.60631
| 11> H          4.46961       -7.40617       -1.65588
| 12> H          5.23013       -8.39868       -2.88591
| 13> O          4.76340       -8.23942       -5.69863
| 14> H          6.62449       -6.45478       -3.57637
| 15> H          6.87304       -6.88376       -1.90088
| 16> H          5.89434       -5.49571       -2.31140
| 17> *
| 18>
| 19> %MaxCore 64000
| 20>
| 21> %pal nprocs 8
| 22> end
| 23>
| 24> %scf
| 25>   MaxIter 150
| 26> end
| 27>
| 28>
| 29>                          ****END OF INPUT****

CARTESIAN COORDINATES (ANGSTROEM)
---------------------------------
  C      4.930200   -7.375320   -2.649620
  C      3.841890   -6.951610   -3.632830
  H      3.458140   -5.954420   -3.407120
  H      2.988480   -7.643610   -3.567080
  S      4.318120   -6.915930   -5.368690
  O      5.406150   -5.899480   -5.512970
  F      3.111910   -6.445080   -6.043790
  C      6.173990   -6.485520   -2.606310
  H      4.469610   -7.406170   -1.655880
  H      5.230130   -8.398680   -2.885910
  O      4.763400   -8.239420   -5.698630
  H      6.624490   -6.454780   -3.576370
  H      6.873040   -6.883760   -1.900880
  H      5.894340   -5.495710   -2.311400

 Total Charge           Charge          ....    0
 Multiplicity           Mult            ....    1
 Number of Electrons    NEL             ....   66
 Basis Dimension        Dim             ....  212

ORBITAL ENERGIES
----------------

  NO   OCC          E(Eh)            E(eV)
   0   2.0000     -88.576638     -2410.2929
   1   2.0000     -24.624320      -670.0618
   2   2.0000     -19.014503      -517.4109
   3   2.0000     -18.996572      -516.9230
   4   2.0000     -10.199177      -277.5337
   5   2.0000     -10.160981      -276.4944
   6   2.0000     -10.117928      -275.3228
   7   2.0000      -8.198945      -223.1046
   8   2.0000      -6.225974      -169.4174
   9   2.0000      -6.218918      -169.2254
  10   2.0000      -6.217566      -169.1886
  11   2.0000      -1.528870       -41.6027
  12   2.0000      -1.285218       -34.9726
  13   2.0000      -1.168406       -31.7939
  14   2.0000      -1.011462       -27.5233
  15   2.0000      -0.925911       -25.1953
  16   2.0000      -0.865260       -23.5449
  17   2.0000      -0.797869       -21.7111
  18   2.0000      -0.739315       -20.1178
  19   2.0000      -0.730775       -19.8854
  20   2.0000      -0.710865       -19.3436
  21   2.0000      -0.646190       -17.5837
  22   2.0000      -0.635422       -17.2907
  23   2.0000      -0.598925       -16.2976
  24   2.0000      -0.593452       -16.1487
  25   2.0000      -0.572810       -15.5870
  26   2.0000      -0.535291       -14.5660
  27   2.0000      -0.511640       -13.9224
  28   2.0000      -0.507903       -13.8207
  29   2.0000      -0.491122       -13.3641
  30   2.0000      -0.475768       -12.9463
  31   2.0000      -0.450089       -12.2475
  32   2.0000      -0.445298       -12.1172
  33   0.0000       0.063796         1.7360
  34   0.0000       0.084557         2.3009
  35   0.0000       0.091093         2.4788
  36   0.0000       0.096693         2.6312
  37   0.0000       0.119017         3.2386

MULLIKEN ATOMIC CHARGES
-----------------------
   0 C :   -0.408260
   1 C :   -0.239518
   2 H :    0.135603
   3 H :    0.164964
   4 S :    1.420459
   5 O :   -0.683670
   6 F :   -0.399375
   7 C :    0.561719
   8 H :    0.005212
   9 H :    0.056675
  10 O :   -0.608690
  11 H :   -0.066453
  12 H :    0.019760
  13 H :    0.041575
Sum of atomic charges:    0.0000000

LOEWDIN ATOMIC CHARGES
----------------------
   0 C :   -0.087218
   1 C :   -0.086770
   2 H :    0.037845
   3 H :    0.042458
   4 S :    1.107097
   5 O :   -0.480747
   6 F :   -0.252220
   7 C :    0.108971
   8 H :    0.044304
   9 H :    0.041787
  10 O :   -0.454697
  11 H :   -0.024609
  12 H :   -0.000438
  13 H :    0.004237

  Mayer bond orders larger than 0.100000
B(  0-C ,  1-C ) :   1.2842 B(  0-C ,  2-H ) :   0.1167 B(  0-C ,  3-H ) :   0.1219
B(  0-C ,  7-C ) :   1.2773 B(  0-C ,  8-H ) :   0.9236 B(  0-C ,  9-H ) :   0.9418
B(  0-C , 11-H ) :   0.1842 B(  0-C , 12-H ) :   0.1554 B(  0-C , 13-H ) :   0.1769
B(  1-C ,  2-H ) :   0.9357 B(  1-C ,  3-H ) :   0.8729 B(  1-C ,  4-S ) :   0.9762
B(  1-C ,  8-H ) :   0.1103 B(  1-C ,  9-H ) :   0.1141 B(  4-S ,  5-O ) :   1.4769
B(  4-S ,  6-F ) :   0.7150 B(  4-S , 10-O ) :   1.5422 B(  7-C , 11-H ) :   0.8660
B(  7-C , 12-H ) :   0.8125 B(  7-C , 13-H ) :   0.7830 B( 11-H , 13-H ) :   0.1117

FINAL SINGLE POINT ENERGY      -765.186587453369

DIPOLE MOMENT
-------------
                                X             Y             Z
Electronic contribution:     -5.91301       0.47130     -12.67038
Nuclear contribution   :      4.74176      -0.43068      13.97705
                        -----------------------------------------
Total Dipole Moment    :     -1.17126       0.04062       1.30667
                        -----------------------------------------
Magnitude (a.u.)       :      1.75524
Magnitude (Debye)      :      4.46147

Rotational constants in cm-1:     0.131248     0.052952     0.050354
Rotational constants in MHz :  3934.713341  1587.473971  1509.583923

                             ****ORCA TERMINATED NORMALLY****
TOTAL RUN TIME: 0 days 0 hours 0 minutes 15 seconds 800 msec
