                         Program Version 5.0.0 -  RELEASE  -
|  1> !LC-PBE RIJCOSX def2-SVPD def2/J TightSCF
|  2> *xyz 0 1
|  3> C          5.55821       -1.99291       -6.21505
|  4> C          4.18188       -2.58967       -6.29891
|  5> N          3.14587       -1.76843       -6.48675
|  6> C          4.01910       -3.86431       -6.22743
|  7> H          4.76849       -4.59115       -5.99077
|  8> H          3.12241       -4.33339       -6.31462
|  9> H          3.28164       -0.77779       -6.56655
| 10> H          2.21255       -2.13419       -6.56225
| 11> C          6.41926       -2.54294       -5.07763
| 12> C          5.89651       -2.16931       -3.69455
| 13> H          7.42888       -2.14367       -5.20808
| 14> H          6.50589       -3.62754       -5.17550
| 15> H          6.03683       -2.19819       -7.17685
| 16> H          5.46761       -0.90737       -6.12797
| 17> H          5.81870       -1.10488       -3.61824
| 18> H          6.57185       -2.53200       -2.94804
| 19> H          4.93221       -2.60892       -3.54698
| 20> *
| 21>
| 22> %MaxCore 64000
| 23>
| 24> %pal nprocs 8
| 25> end
| 26>
| 27> %scf
| 28>   MaxIter 150
| 29> end
| 30>
| 31>
| 32>                          ****END OF INPUT****

CARTESIAN COORDINATES (ANGSTROEM)
---------------------------------
  C      5.558210   -1.992910   -6.215050
  C      4.181880   -2.589670   -6.298910
  N      3.145870   -1.768430   -6.486750
  C      4.019100   -3.864310   -6.227430
  H      4.768490   -4.591150   -5.990770
  H      3.122410   -4.333390   -6.314620
  H      3.281640   -0.777790   -6.566550
  H      2.212550   -2.134190   -6.562250
  C      6.419260   -2.542940   -5.077630
  C      5.896510   -2.169310   -3.694550
  H      7.428880   -2.143670   -5.208080
  H      6.505890   -3.627540   -5.175500
  H      6.036830   -2.198190   -7.176850
  H      5.467610   -0.907370   -6.127970
  H      5.818700   -1.104880   -3.618240
  H      6.571850   -2.532000   -2.948040
  H      4.932210   -2.608920   -3.546980

 Total Charge           Charge          ....    0
 Multiplicity           Mult            ....    1
 Number of Electrons    NEL             ....   48
 Basis Dimension        Dim             ....  208

ORBITAL ENERGIES
----------------

  NO   OCC          E(Eh)            E(eV)
   0   2.0000     -14.225795      -387.1036
   1   2.0000     -10.152530      -276.2644
   2   2.0000     -10.125913      -275.5401
   3   2.0000     -10.121424      -275.4180
   4   2.0000     -10.102143      -274.8933
   5   2.0000     -10.062844      -273.8239
   6   2.0000      -1.091929       -29.7129
   7   2.0000      -0.968056       -26.3421
   8   2.0000      -0.896020       -24.3820
   9   2.0000      -0.847255       -23.0550
  10   2.0000      -0.763227       -20.7685
  11   2.0000      -0.701590       -19.0912
  12   2.0000      -0.667670       -18.1682
  13   2.0000      -0.638516       -17.3749
  14   2.0000      -0.599786       -16.3210
  15   2.0000      -0.578870       -15.7519
  16   2.0000      -0.537915       -14.6374
  17   2.0000      -0.525833       -14.3086
  18   2.0000      -0.505844       -13.7647
  19   2.0000      -0.482974       -13.1424
  20   2.0000      -0.461679       -12.5629
  21   2.0000      -0.454884       -12.3780
  22   2.0000      -0.451430       -12.2840
  23   2.0000      -0.314152        -8.5485
  24   0.0000       0.093248         2.5374
  25   0.0000       0.112829         3.0702
  26   0.0000       0.114512         3.1160
  27   0.0000       0.120268         3.2726
  28   0.0000       0.145070         3.9476

MULLIKEN ATOMIC CHARGES
-----------------------
   0 C :    0.184477
   1 C :    0.355845
   2 N :    0.065803
   3 C :   -0.016298
   4 H :    0.047413
   5 H :   -0.479806
   6 H :   -0.106011
   7 H :   -0.136653
   8 C :   -0.469736
   9 C :    0.473534
  10 H :   -0.027126
  11 H :   -0.001099
  12 H :   -0.017157
  13 H :    0.044657
  14 H :    0.072566
  15 H :   -0.017731
  16 H :    0.027322
Sum of atomic charges:   -0.0000000

LOEWDIN ATOMIC CHARGES
----------------------
   0 C :   -0.021221
   1 C :   -0.260917
   2 N :    0.159755
   3 C :    0.127501
   4 H :   -0.031733
   5 H :   -0.071481
   6 H :   -0.004477
   7 H :    0.009686
   8 C :   -0.096206
   9 C :    0.094496
  10 H :    0.030849
  11 H :    0.018832
  12 H :    0.042677
  13 H :    0.026740
  14 H :   -0.007391
  15 H :   -0.008637
  16 H :   -0.008473

  Mayer bond orders larger than 0.100000
B(  0-C ,  1-C ) :   0.9489 B(  0-C ,  8-C ) :   1.2314 B(  0-C , 10-H ) :   0.1113
B(  0-C , 11-H ) :   0.1288 B(  0-C , 12-H ) :   0.9150 B(  0-C , 13-H ) :   0.7798
B(  1-C ,  2-N ) :   0.9896 B(  1-C ,  3-C ) :   1.6920 B(  1-C ,  5-H ) :   0.1059
B(  1-C ,  7-H ) :  -0.1429 B(  1-C , 12-H ) :   0.1279 B(  1-C , 13-H ) :   0.1098
B(  2-N ,  3-C ) :   0.2964 B(  2-N ,  6-H ) :   1.1439 B(  2-N ,  7-H ) :   1.2855
B(  3-C ,  4-H ) :   0.8704 B(  3-C ,  5-H ) :   0.8792 B(  4-H ,  5-H ) :  -0.1534
B(  6-H ,  7-H ) :  -0.1577 B(  8-C ,  9-C ) :   1.3299 B(  8-C , 10-H ) :   0.9717
B(  8-C , 11-H ) :   0.9229 B(  8-C , 13-H ) :   0.1439 B(  8-C , 14-H ) :   0.1869
B(  8-C , 15-H ) :   0.1765 B(  8-C , 16-H ) :   0.1851 B(  9-C , 14-H ) :   0.8094
B(  9-C , 15-H ) :   0.8302 B(  9-C , 16-H ) :   0.8587

FINAL SINGLE POINT ENERGY      -250.848574174143

DIPOLE MOMENT
-------------
                                X             Y             Z
Electronic contribution:     -2.67865       0.41901      -2.78805
Nuclear contribution   :      2.50934       0.16282       2.72182
                        -----------------------------------------
Total Dipole Moment    :     -0.16931       0.58183      -0.06624
                        -----------------------------------------
Magnitude (a.u.)       :      0.60958
Magnitude (Debye)      :      1.54942

Rotational constants in cm-1:     0.192764     0.074934     0.070466
Rotational constants in MHz :  5778.908020  2246.454937  2112.518546

                             ****ORCA TERMINATED NORMALLY****
TOTAL RUN TIME: 0 days 0 hours 0 minutes 16 seconds 216 msec
