                         Program Version 5.0.0 -  RELEASE  -
|  1> !LC-PBE RIJCOSX def2-SVPD def2/J TightSCF
|  2> *xyz 0 1
|  3> C          4.93020       -7.37532       -2.64962
|  4> C          3.84189       -6.95161       -3.63283
|  5> H          3.45814       -5.95442       -3.40712
|  6> H          2.98848       -7.64361       -3.56708
|  7> S          4.31812       -6.91593       -5.36869
|  8> O          5.40615       -5.89948       -5.51297
|  9> O          3.11191       -6.44508       -6.04379
| 10> C          6.17399       -6.48552       -2.60631
| 11> H          4.46961       -7.40617       -1.65588
| 12> H          5.23013       -8.39868       -2.88591
| 13> F          4.76340       -8.23942       -5.69863
| 14> H          6.62449       -6.45478       -3.57637
| 15> H          6.87304       -6.88376       -1.90088
| 16> H          5.89434       -5.49571       -2.31140
| 17> *
| 18>
| 19> %MaxCore 64000
| 20>
| 21> %pal nprocs 8
| 22> end
| 23>
| 24> %scf
| 25>   MaxIter 150
| 26> end
| 27>
| 28>
| 29>                          ****END OF INPUT****

CARTESIAN COORDINATES (ANGSTROEM)
---------------------------------
  C      4.930200   -7.375320   -2.649620
  C      3.841890   -6.951610   -3.632830
  H      3.458140   -5.954420   -3.407120
  H      2.988480   -7.643610   -3.567080
  S      4.318120   -6.915930   -5.368690
  O      5.406150   -5.899480   -5.512970
  O      3.111910   -6.445080   -6.043790
  C      6.173990   -6.485520   -2.606310
  H      4.469610   -7.406170   -1.655880
  H      5.230130   -8.398680   -2.885910
  F      4.763400   -8.239420   -5.698630
  H      6.624490   -6.454780   -3.576370
  H      6.873040   -6.883760   -1.900880
  H      5.894340   -5.495710   -2.311400

 Total Charge           Charge          ....    0
 Multiplicity           Mult            ....    1
 Number of Electrons    NEL             ....   66
 Basis Dimension        Dim             ....  212

ORBITAL ENERGIES
----------------

  NO   OCC          E(Eh)            E(eV)
   0   2.0000     -88.577894     -2410.3270
   1   2.0000     -24.638066      -670.4359
   2   2.0000     -19.004744      -517.1454
   3   2.0000     -18.997036      -516.9356
   4   2.0000     -10.199342      -277.5382
   5   2.0000     -10.164077      -276.5786
   6   2.0000     -10.122506      -275.4474
   7   2.0000      -8.200223      -223.1394
   8   2.0000      -6.227528      -169.4597
   9   2.0000      -6.219935      -169.2530
  10   2.0000      -6.218689      -169.2191
  11   2.0000      -1.550995       -42.2047
  12   2.0000      -1.274609       -34.6839
  13   2.0000      -1.160332       -31.5742
  14   2.0000      -1.015026       -27.6203
  15   2.0000      -0.925410       -25.1817
  16   2.0000      -0.878186       -23.8966
  17   2.0000      -0.802499       -21.8371
  18   2.0000      -0.758998       -20.6534
  19   2.0000      -0.752159       -20.4673
  20   2.0000      -0.699383       -19.0312
  21   2.0000      -0.643302       -17.5051
  22   2.0000      -0.637332       -17.3427
  23   2.0000      -0.605738       -16.4830
  24   2.0000      -0.584334       -15.9005
  25   2.0000      -0.575304       -15.6548
  26   2.0000      -0.530526       -14.4363
  27   2.0000      -0.519581       -14.1385
  28   2.0000      -0.512552       -13.9472
  29   2.0000      -0.492503       -13.4017
  30   2.0000      -0.466165       -12.6850
  31   2.0000      -0.451344       -12.2817
  32   2.0000      -0.436438       -11.8761
  33   0.0000       0.060625         1.6497
  34   0.0000       0.085772         2.3340
  35   0.0000       0.092931         2.5288
  36   0.0000       0.093726         2.5504
  37   0.0000       0.117866         3.2073

MULLIKEN ATOMIC CHARGES
-----------------------
   0 C :   -0.372359
   1 C :   -0.230392
   2 H :    0.133511
   3 H :    0.151929
   4 S :    1.381464
   5 O :   -0.670864
   6 O :   -0.633080
   7 C :    0.574646
   8 H :   -0.000086
   9 H :    0.030086
  10 F :   -0.356844
  11 H :   -0.072757
  12 H :    0.020354
  13 H :    0.044392
Sum of atomic charges:   -0.0000000

LOEWDIN ATOMIC CHARGES
----------------------
   0 C :   -0.102497
   1 C :   -0.075716
   2 H :    0.051532
   3 H :    0.043559
   4 S :    1.107242
   5 O :   -0.476528
   6 O :   -0.470461
   7 C :    0.106029
   8 H :    0.042293
   9 H :    0.034915
  10 F :   -0.236027
  11 H :   -0.029789
  12 H :   -0.001121
  13 H :    0.006569

  Mayer bond orders larger than 0.100000
B(  0-C ,  1-C ) :   1.2292 B(  0-C ,  2-H ) :   0.1154 B(  0-C ,  3-H ) :   0.1104
B(  0-C ,  7-C ) :   1.2860 B(  0-C ,  8-H ) :   0.9236 B(  0-C ,  9-H ) :   0.9411
B(  0-C , 11-H ) :   0.1896 B(  0-C , 12-H ) :   0.1545 B(  0-C , 13-H ) :   0.1798
B(  1-C ,  2-H ) :   0.9447 B(  1-C ,  3-H ) :   0.9063 B(  1-C ,  4-S ) :   1.0089
B(  1-C ,  8-H ) :   0.1070 B(  1-C ,  9-H ) :   0.1074 B(  4-S ,  5-O ) :   1.5058
B(  4-S ,  6-O ) :   1.5969 B(  4-S , 10-F ) :   0.7038 B(  7-C , 11-H ) :   0.8589
B(  7-C , 12-H ) :   0.8160 B(  7-C , 13-H ) :   0.7861 B( 11-H , 13-H ) :   0.1140

FINAL SINGLE POINT ENERGY      -765.174220112699

DIPOLE MOMENT
-------------
                                X             Y             Z
Electronic contribution:     -3.02306      -2.63479     -12.04159
Nuclear contribution   :      2.96568       1.49902      13.60585
                        -----------------------------------------
Total Dipole Moment    :     -0.05739      -1.13577       1.56426
                        -----------------------------------------
Magnitude (a.u.)       :      1.93395
Magnitude (Debye)      :      4.91571

Rotational constants in cm-1:     0.127173     0.053596     0.051689
Rotational constants in MHz :  3812.547794  1606.772866  1549.597841

                             ****ORCA TERMINATED NORMALLY****
TOTAL RUN TIME: 0 days 0 hours 0 minutes 15 seconds 37 msec
