                         Program Version 5.0.0 -  RELEASE  -
|  1> !LC-PBE RIJCOSX def2-SVPD def2/J TightSCF xyzfile
|  2>
|  3> *xyzfile 0 1 D1.xyz
|  4>
|  5> %MaxCore 64000
|  6>
|  7> %pal nprocs 4
|  8> end
|  9>
| 10> %scf
| 11>   MaxIter 150
| 12> end
| 13>
| 14>
| 15>                          ****END OF INPUT****

CARTESIAN COORDINATES (ANGSTROEM)
---------------------------------
  C      5.558206   -1.992914   -6.215054
  C      4.930199   -7.375319   -2.649623
  C      3.841892   -6.951611   -3.632829
  H      3.458144   -5.954425   -3.407121
  H      2.988484   -7.643606   -3.567078
  S      4.318115   -6.915930   -5.368692
  C      4.181880   -2.589671   -6.298911
  C      3.145873   -1.768431   -6.486753
  N      4.019102   -3.864307   -6.227427
  H      4.768490   -4.591153   -5.990773
  H      3.122405   -4.333392   -6.314620
  H      3.281635   -0.777786   -6.566549
  H      2.212549   -2.134193   -6.562246
  F      5.406154   -5.899480   -5.512972
  O      3.111910   -6.445079   -6.043792
  C      6.419260   -2.542944   -5.077630
  C      5.872267   -5.002756   -2.427819
  C      6.173994   -6.485522   -2.606315
  H      6.734852   -6.613767   -3.534015
  H      6.821463   -6.831018   -1.793617
  H      4.469612   -7.406168   -1.655876
  H      5.230134   -8.398678   -2.885906
  C      5.896512   -2.169314   -3.694552
  H      7.428880   -2.143665   -5.208078
  H      6.505894   -3.627541   -5.175502
  C      6.807804   -2.623428   -2.551019
  H      4.894708   -2.589732   -3.557501
  H      5.778823   -1.081255   -3.635790
  C      7.111544   -4.122463   -2.520363
  H      7.751615   -2.071393   -2.614406
  H      6.345837   -2.326401   -1.604086
  H      5.362882   -4.828697   -1.471335
  H      5.174429   -4.702577   -3.211298
  H      7.778329   -4.329347   -1.677651
  H      7.673189   -4.402845   -3.417586
  O      4.763396   -8.239424   -5.698629
  H      6.036826   -2.198189   -7.176852
  H      5.467610   -0.907371   -6.127968

 Total Charge           Charge          ....    0
 Multiplicity           Mult            ....    1
 Number of Electrons    NEL             ....  136
 Basis Dimension        Dim             ....  512

ORBITAL ENERGIES
----------------

  NO   OCC          E(Eh)            E(eV)
   0   2.0000     -88.595138     -2410.7963
   1   2.0000     -24.640913      -670.5133
   2   2.0000     -19.031784      -517.8812
   3   2.0000     -19.024694      -517.6883
   4   2.0000     -14.211334      -386.7101
   5   2.0000     -10.208257      -277.7808
   6   2.0000     -10.168358      -276.6951
   7   2.0000     -10.150523      -276.2098
   8   2.0000     -10.143586      -276.0210
   9   2.0000     -10.141204      -275.9562
  10   2.0000     -10.133437      -275.7448
  11   2.0000     -10.127775      -275.5908
  12   2.0000     -10.127253      -275.5766
  13   2.0000     -10.122354      -275.4433
  14   2.0000     -10.120684      -275.3978
  15   2.0000     -10.044404      -273.3221
  16   2.0000      -8.216224      -223.5748
  17   2.0000      -6.243662      -169.8987
  18   2.0000      -6.236143      -169.6941
  19   2.0000      -6.234714      -169.6552
  20   2.0000      -1.536135       -41.8004
  21   2.0000      -1.310539       -35.6616
  22   2.0000      -1.205962       -32.8159
  23   2.0000      -1.087899       -29.6032
  24   2.0000      -1.034329       -28.1455
  25   2.0000      -0.998212       -27.1627
  26   2.0000      -0.966402       -26.2971
  27   2.0000      -0.931095       -25.3364
  28   2.0000      -0.909492       -24.7485
  29   2.0000      -0.877870       -23.8881
  30   2.0000      -0.865735       -23.5578
  31   2.0000      -0.824144       -22.4261
  32   2.0000      -0.787428       -21.4270
  33   2.0000      -0.778246       -21.1771
  34   2.0000      -0.769152       -20.9297
  35   2.0000      -0.744847       -20.2683
  36   2.0000      -0.727380       -19.7930
  37   2.0000      -0.714535       -19.4435
  38   2.0000      -0.709291       -19.3008
  39   2.0000      -0.664239       -18.0749
  40   2.0000      -0.657291       -17.8858
  41   2.0000      -0.640885       -17.4394
  42   2.0000      -0.635995       -17.3063
  43   2.0000      -0.625530       -17.0215
  44   2.0000      -0.613896       -16.7050
  45   2.0000      -0.609282       -16.5794
  46   2.0000      -0.598791       -16.2939
  47   2.0000      -0.579767       -15.7763
  48   2.0000      -0.575722       -15.6662
  49   2.0000      -0.566282       -15.4093
  50   2.0000      -0.552954       -15.0467
  51   2.0000      -0.548423       -14.9233
  52   2.0000      -0.532562       -14.4917
  53   2.0000      -0.516406       -14.0521
  54   2.0000      -0.509822       -13.8730
  55   2.0000      -0.506850       -13.7921
  56   2.0000      -0.502756       -13.6807
  57   2.0000      -0.492619       -13.4049
  58   2.0000      -0.490931       -13.3589
  59   2.0000      -0.479196       -13.0396
  60   2.0000      -0.472837       -12.8666
  61   2.0000      -0.469847       -12.7852
  62   2.0000      -0.467029       -12.7085
  63   2.0000      -0.458797       -12.4845
  64   2.0000      -0.446763       -12.1570
  65   2.0000      -0.440119       -11.9762
  66   2.0000      -0.436077       -11.8663
  67   2.0000      -0.292603        -7.9621
  68   0.0000       0.060766         1.6535
  69   0.0000       0.075177         2.0457
  70   0.0000       0.085317         2.3216
  71   0.0000       0.089668         2.4400
  72   0.0000       0.100099         2.7238

MULLIKEN ATOMIC CHARGES
-----------------------
   0 C :    0.561726
   1 C :    0.311468
   2 C :   -0.202779
   3 H :    0.322632
   4 H :   -0.086397
   5 S :    1.351399
   6 C :   -0.336009
   7 C :    0.202512
   8 N :    0.841164
   9 H :   -0.291034
  10 H :   -0.226690
  11 H :   -0.236077
  12 H :   -0.266437
  13 F :   -0.592795
  14 O :   -0.659119
  15 C :    0.185942
  16 C :   -0.099908
  17 C :    0.033900
  18 H :    0.091540
  19 H :   -0.194892
  20 H :    0.164551
  21 H :    0.083317
  22 C :   -0.217471
  23 H :   -0.069213
  24 H :   -0.523266
  25 C :    0.423848
  26 H :    0.176813
  27 H :   -0.193334
  28 C :   -0.043443
  29 H :    0.115479
  30 H :    0.027496
  31 H :    0.082186
  32 H :   -0.315448
  33 H :   -0.207741
  34 H :    0.155697
  35 O :   -0.670142
  36 H :   -0.040069
  37 H :    0.340592
Sum of atomic charges:   -0.0000000

LOEWDIN ATOMIC CHARGES
----------------------
   0 C :   -0.005473
   1 C :   -0.049919
   2 C :   -0.055686
   3 H :    0.032678
   4 H :    0.058615
   5 S :    1.120571
   6 C :   -0.260083
   7 C :    0.150679
   8 N :    0.172132
   9 H :   -0.064387
  10 H :   -0.012714
  11 H :   -0.084894
  12 H :   -0.079033
  13 F :   -0.258971
  14 O :   -0.445203
  15 C :   -0.051540
  16 C :   -0.057338
  17 C :   -0.052252
  18 H :    0.026691
  19 H :    0.045890
  20 H :    0.050027
  21 H :    0.043228
  22 C :   -0.052085
  23 H :    0.041032
  24 H :   -0.002869
  25 C :   -0.054271
  26 H :    0.027048
  27 H :    0.040261
  28 C :   -0.056343
  29 H :    0.035383
  30 H :    0.034749
  31 H :    0.053458
  32 H :   -0.007764
  33 H :    0.037717
  34 H :    0.028469
  35 O :   -0.429478
  36 H :    0.043398
  37 H :    0.038279

  Mayer bond orders larger than 0.100000
B(  0-C ,  6-C ) :   1.0443 B(  0-C ,  8-N ) :   0.1444 B(  0-C , 15-C ) :   1.1984
B(  0-C , 24-H ) :   0.1172 B(  0-C , 36-H ) :   0.6136 B(  0-C , 37-H ) :   0.6819
B(  1-C ,  2-C ) :   1.2644 B(  1-C ,  4-H ) :   0.1454 B(  1-C , 17-C ) :   1.2316
B(  1-C , 20-H ) :   0.7491 B(  1-C , 21-H ) :   0.7336 B(  2-C ,  3-H ) :   0.8173
B(  2-C ,  4-H ) :   0.8846 B(  2-C ,  5-S ) :   1.0494 B(  2-C , 20-H ) :   0.1371
B(  2-C , 21-H ) :   0.1040 B(  4-H ,  5-S ) :   0.1118 B(  5-S , 13-F ) :   0.6060
B(  5-S , 14-O ) :   1.5418 B(  5-S , 35-O ) :   1.5852 B(  6-C ,  7-C ) :   1.8077
B(  6-C ,  8-N ) :   1.3006 B(  6-C , 10-H ) :  -0.2002 B(  6-C , 11-H ) :   0.1221
B(  6-C , 12-H ) :   0.2634 B(  6-C , 24-H ) :  -0.1033 B(  6-C , 36-H ) :   0.2437
B(  7-C ,  8-N ) :   0.1339 B(  7-C , 11-H ) :   0.9491 B(  7-C , 12-H ) :   0.6850
B(  8-N ,  9-H ) :   0.7895 B(  8-N , 10-H ) :   0.9792 B(  8-N , 13-F ) :  -0.1190
B(  9-H , 10-H ) :  -0.1776 B(  9-H , 13-F ) :   0.1462 B( 10-H , 14-O ) :   0.1519
B( 13-F , 14-O ) :   0.1182 B( 13-F , 24-H ) :   0.1342 B( 15-C , 22-C ) :   1.2336
B( 15-C , 23-H ) :   0.8464 B( 15-C , 24-H ) :   0.7285 B( 15-C , 27-H ) :   0.1744
B( 15-C , 36-H ) :   0.2063 B( 15-C , 37-H ) :   0.1351 B( 16-C , 17-C ) :   1.2196
B( 16-C , 19-H ) :   0.1701 B( 16-C , 28-C ) :   1.2494 B( 16-C , 31-H ) :   0.8086
B( 16-C , 32-H ) :   1.0104 B( 16-C , 33-H ) :   0.1827 B( 17-C , 18-H ) :   0.8949
B( 17-C , 19-H ) :   0.9555 B( 17-C , 21-H ) :   0.2140 B( 17-C , 28-C ) :   0.1073
B( 22-C , 23-H ) :   0.1252 B( 22-C , 24-H ) :   0.1792 B( 22-C , 25-C ) :   1.1079
B( 22-C , 26-H ) :   0.8561 B( 22-C , 27-H ) :   1.0626 B( 22-C , 29-H ) :   0.1173
B( 22-C , 30-H ) :   0.1882 B( 22-C , 32-H ) :   0.1043 B( 25-C , 28-C ) :   1.1470
B( 25-C , 29-H ) :   0.7389 B( 25-C , 30-H ) :   0.7821 B( 26-H , 32-H ) :   0.1406
B( 28-C , 29-H ) :   0.1794 B( 28-C , 30-H ) :   0.1077 B( 28-C , 33-H ) :   1.0326
B( 28-C , 34-H ) :   0.8433 B( 31-H , 32-H ) :   0.1184

FINAL SINGLE POINT ENERGY     -1132.292246696171

DIPOLE MOMENT
-------------
                                X             Y             Z
Electronic contribution:     -6.97877     -18.74291     -13.09998
Nuclear contribution   :      7.78491      18.17172      15.09294
                        -----------------------------------------
Total Dipole Moment    :      0.80614      -0.57119       1.99296
                        -----------------------------------------
Magnitude (a.u.)       :      2.22441
Magnitude (Debye)      :      5.65400

Rotational constants in cm-1:     0.018190     0.012573     0.008405
Rotational constants in MHz :   545.327178   376.916509   251.974803

                             ****ORCA TERMINATED NORMALLY****
TOTAL RUN TIME: 0 days 0 hours 5 minutes 29 seconds 538 msec
