                         Program Version 5.0.0 -  RELEASE  -
|  1> !LC-PBE RIJCOSX def2-SVPD def2/J TightSCF xyzfile
|  2>
|  3> *xyzfile 0 1 D3.xyz
|  4>
|  5> %MaxCore 64000
|  6>
|  7> %pal nprocs 4
|  8> end
|  9>
| 10> %scf
| 11>   MaxIter 150
| 12> end
| 13>
| 14>
| 15>                          ****END OF INPUT****

CARTESIAN COORDINATES (ANGSTROEM)
---------------------------------
  C      5.558206   -1.992914   -6.215054
  C      4.930199   -7.375319   -2.649623
  C      3.841892   -6.951611   -3.632829
  H      3.458144   -5.954425   -3.407121
  H      2.988484   -7.643606   -3.567078
  S      4.318115   -6.915930   -5.368692
  C      4.181880   -2.589671   -6.298911
  C      3.145873   -1.768431   -6.486753
  N      4.019102   -3.864307   -6.227427
  H      4.768490   -4.591153   -5.990773
  H      3.122405   -4.333392   -6.314620
  H      3.281635   -0.777786   -6.566549
  H      2.212549   -2.134193   -6.562246
  O      5.406154   -5.899480   -5.512972
  F      3.111910   -6.445079   -6.043792
  C      6.419260   -2.542944   -5.077630
  C      5.872267   -5.002756   -2.427819
  C      6.173994   -6.485522   -2.606315
  H      6.734852   -6.613767   -3.534015
  H      6.821463   -6.831018   -1.793617
  H      4.469612   -7.406168   -1.655876
  H      5.230134   -8.398678   -2.885906
  C      5.896512   -2.169314   -3.694552
  H      7.428880   -2.143665   -5.208078
  H      6.505894   -3.627541   -5.175502
  C      6.807804   -2.623428   -2.551019
  H      4.894708   -2.589732   -3.557501
  H      5.778823   -1.081255   -3.635790
  C      7.111544   -4.122463   -2.520363
  H      7.751615   -2.071393   -2.614406
  H      6.345837   -2.326401   -1.604086
  H      5.362882   -4.828697   -1.471335
  H      5.174429   -4.702577   -3.211298
  H      7.778329   -4.329347   -1.677651
  H      7.673189   -4.402845   -3.417586
  O      4.763396   -8.239424   -5.698629
  H      6.036826   -2.198189   -7.176852
  H      5.467610   -0.907371   -6.127968

 Total Charge           Charge          ....    0
 Multiplicity           Mult            ....    1
 Number of Electrons    NEL             ....  136
 Basis Dimension        Dim             ....  512

ORBITAL ENERGIES
----------------

  NO   OCC          E(Eh)            E(eV)
   0   2.0000     -88.604803     -2411.0593
   1   2.0000     -24.649989      -670.7603
   2   2.0000     -19.037426      -518.0347
   3   2.0000     -19.030041      -517.8337
   4   2.0000     -14.199422      -386.3859
   5   2.0000     -10.213569      -277.9253
   6   2.0000     -10.169735      -276.7325
   7   2.0000     -10.137765      -275.8626
   8   2.0000     -10.137494      -275.8552
   9   2.0000     -10.128191      -275.6021
  10   2.0000     -10.121618      -275.4232
  11   2.0000     -10.117997      -275.3247
  12   2.0000     -10.113008      -275.1889
  13   2.0000     -10.112155      -275.1657
  14   2.0000     -10.111674      -275.1527
  15   2.0000     -10.038632      -273.1651
  16   2.0000      -8.225746      -223.8339
  17   2.0000      -6.252890      -170.1498
  18   2.0000      -6.246044      -169.9635
  19   2.0000      -6.244134      -169.9115
  20   2.0000      -1.554840       -42.3094
  21   2.0000      -1.311856       -35.6974
  22   2.0000      -1.204475       -32.7754
  23   2.0000      -1.079425       -29.3727
  24   2.0000      -1.031788       -28.0764
  25   2.0000      -0.989994       -26.9391
  26   2.0000      -0.961305       -26.1584
  27   2.0000      -0.929323       -25.2882
  28   2.0000      -0.904713       -24.6185
  29   2.0000      -0.874728       -23.8025
  30   2.0000      -0.855531       -23.2802
  31   2.0000      -0.817976       -22.2582
  32   2.0000      -0.783754       -21.3270
  33   2.0000      -0.772800       -21.0289
  34   2.0000      -0.760515       -20.6947
  35   2.0000      -0.749239       -20.3878
  36   2.0000      -0.733101       -19.9487
  37   2.0000      -0.711659       -19.3652
  38   2.0000      -0.704937       -19.1823
  39   2.0000      -0.675802       -18.3895
  40   2.0000      -0.657885       -17.9020
  41   2.0000      -0.646237       -17.5850
  42   2.0000      -0.632140       -17.2014
  43   2.0000      -0.614212       -16.7136
  44   2.0000      -0.606489       -16.5034
  45   2.0000      -0.603042       -16.4096
  46   2.0000      -0.592019       -16.1096
  47   2.0000      -0.574180       -15.6242
  48   2.0000      -0.566815       -15.4238
  49   2.0000      -0.561909       -15.2903
  50   2.0000      -0.554000       -15.0751
  51   2.0000      -0.541773       -14.7424
  52   2.0000      -0.527629       -14.3575
  53   2.0000      -0.524015       -14.2592
  54   2.0000      -0.509149       -13.8547
  55   2.0000      -0.499466       -13.5912
  56   2.0000      -0.495719       -13.4892
  57   2.0000      -0.491271       -13.3682
  58   2.0000      -0.484232       -13.1766
  59   2.0000      -0.468088       -12.7373
  60   2.0000      -0.463843       -12.6218
  61   2.0000      -0.460080       -12.5194
  62   2.0000      -0.455784       -12.4025
  63   2.0000      -0.445062       -12.1108
  64   2.0000      -0.436000       -11.8642
  65   2.0000      -0.428898       -11.6709
  66   2.0000      -0.425485       -11.5780
  67   2.0000      -0.286373        -7.7926
  68   0.0000       0.053507         1.4560
  69   0.0000       0.075024         2.0415
  70   0.0000       0.080889         2.2011
  71   0.0000       0.091974         2.5028
  72   0.0000       0.100223         2.7272

MULLIKEN ATOMIC CHARGES
-----------------------
   0 C :    0.555278
   1 C :    0.276828
   2 C :   -0.266174
   3 H :    0.325914
   4 H :   -0.041910
   5 S :    1.437432
   6 C :   -0.379494
   7 C :    0.219993
   8 N :    0.799894
   9 H :   -0.289666
  10 H :   -0.231338
  11 H :   -0.230511
  12 H :   -0.298113
  13 O :   -0.860103
  14 F :   -0.423065
  15 C :    0.220353
  16 C :   -0.145433
  17 C :    0.075880
  18 H :    0.133702
  19 H :   -0.212814
  20 H :    0.157516
  21 H :    0.092721
  22 C :   -0.213133
  23 H :   -0.052991
  24 H :   -0.546986
  25 C :    0.427754
  26 H :    0.188816
  27 H :   -0.200697
  28 C :   -0.059631
  29 H :    0.115118
  30 H :    0.021579
  31 H :    0.078491
  32 H :   -0.253314
  33 H :   -0.211707
  34 H :    0.171274
  35 O :   -0.669569
  36 H :   -0.044593
  37 H :    0.332697
Sum of atomic charges:   -0.0000000

LOEWDIN ATOMIC CHARGES
----------------------
   0 C :   -0.004137
   1 C :   -0.036431
   2 C :   -0.064496
   3 H :    0.031960
   4 H :    0.046257
   5 S :    1.156220
   6 C :   -0.260868
   7 C :    0.142851
   8 N :    0.162425
   9 H :   -0.110295
  10 H :   -0.008208
  11 H :   -0.087497
  12 H :   -0.084655
  13 O :   -0.438998
  14 F :   -0.236015
  15 C :   -0.046067
  16 C :   -0.056230
  17 C :   -0.048420
  18 H :    0.027217
  19 H :    0.044029
  20 H :    0.052182
  21 H :    0.044751
  22 C :   -0.053031
  23 H :    0.039997
  24 H :    0.000243
  25 C :   -0.055599
  26 H :    0.026234
  27 H :    0.038055
  28 C :   -0.053950
  29 H :    0.034313
  30 H :    0.032959
  31 H :    0.049798
  32 H :   -0.006650
  33 H :    0.035999
  34 H :    0.031883
  35 O :   -0.426168
  36 H :    0.043657
  37 H :    0.036688

  Mayer bond orders larger than 0.100000
B(  0-C ,  6-C ) :   1.0440 B(  0-C ,  8-N ) :   0.1389 B(  0-C , 15-C ) :   1.2057
B(  0-C , 24-H ) :   0.1224 B(  0-C , 36-H ) :   0.6143 B(  0-C , 37-H ) :   0.6800
B(  1-C ,  2-C ) :   1.3122 B(  1-C ,  4-H ) :   0.1526 B(  1-C , 17-C ) :   1.2263
B(  1-C , 20-H ) :   0.7585 B(  1-C , 21-H ) :   0.7249 B(  2-C ,  3-H ) :   0.7702
B(  2-C ,  4-H ) :   0.9067 B(  2-C ,  5-S ) :   1.0153 B(  2-C , 20-H ) :   0.1464
B(  5-S , 13-O ) :   1.2903 B(  5-S , 14-F ) :   0.6825 B(  5-S , 35-O ) :   1.5874
B(  6-C ,  7-C ) :   1.8132 B(  6-C ,  8-N ) :   1.3493 B(  6-C , 10-H ) :  -0.1620
B(  6-C , 11-H ) :   0.1239 B(  6-C , 12-H ) :   0.2555 B(  6-C , 24-H ) :  -0.1049
B(  6-C , 36-H ) :   0.2471 B(  7-C ,  8-N ) :   0.1252 B(  7-C , 11-H ) :   0.9255
B(  7-C , 12-H ) :   0.6923 B(  8-N ,  9-H ) :   0.7854 B(  8-N , 10-H ) :   0.9448
B(  9-H , 10-H ) :  -0.1857 B(  9-H , 13-O ) :   0.1827 B( 10-H , 14-F ) :   0.1142
B( 13-O , 24-H ) :   0.1909 B( 13-O , 35-O ) :   0.1006 B( 15-C , 22-C ) :   1.2368
B( 15-C , 23-H ) :   0.8228 B( 15-C , 24-H ) :   0.6779 B( 15-C , 26-H ) :   0.1046
B( 15-C , 27-H ) :   0.1856 B( 15-C , 36-H ) :   0.2053 B( 15-C , 37-H ) :   0.1467
B( 16-C , 17-C ) :   1.2151 B( 16-C , 19-H ) :   0.1641 B( 16-C , 28-C ) :   1.2635
B( 16-C , 31-H ) :   0.8154 B( 16-C , 32-H ) :   1.0044 B( 16-C , 33-H ) :   0.1840
B( 16-C , 34-H ) :   0.1028 B( 17-C , 18-H ) :   0.8683 B( 17-C , 19-H ) :   0.9542
B( 17-C , 21-H ) :   0.2150 B( 17-C , 28-C ) :   0.1187 B( 22-C , 23-H ) :   0.1278
B( 22-C , 24-H ) :   0.1847 B( 22-C , 25-C ) :   1.1044 B( 22-C , 26-H ) :   0.8434
B( 22-C , 27-H ) :   1.0678 B( 22-C , 29-H ) :   0.1185 B( 22-C , 30-H ) :   0.1895
B( 22-C , 32-H ) :   0.1036 B( 25-C , 28-C ) :   1.1457 B( 25-C , 29-H ) :   0.7371
B( 25-C , 30-H ) :   0.7780 B( 26-H , 32-H ) :   0.1373 B( 28-C , 29-H ) :   0.1782
B( 28-C , 30-H ) :   0.1100 B( 28-C , 33-H ) :   1.0330 B( 28-C , 34-H ) :   0.8334
B( 31-H , 32-H ) :   0.1301

FINAL SINGLE POINT ENERGY     -1132.289821557856

DIPOLE MOMENT
-------------
                                X             Y             Z
Electronic contribution:    -11.00834     -20.01764     -14.13628
Nuclear contribution   :     10.48431      18.81367      15.71750
                        -----------------------------------------
Total Dipole Moment    :     -0.52403      -1.20397       1.58121
                        -----------------------------------------
Magnitude (a.u.)       :      2.05533
Magnitude (Debye)      :      5.22423

Rotational constants in cm-1:     0.017977     0.012528     0.008321
Rotational constants in MHz :   538.924099   375.570730   249.458530

                             ****ORCA TERMINATED NORMALLY****
TOTAL RUN TIME: 0 days 0 hours 4 minutes 48 seconds 833 msec
