                         Program Version 5.0.0 -  RELEASE  -
|  1> !LC-PBE RIJCOSX def2-SVPD def2/J TightSCF xyzfile
|  2>
|  3> *xyzfile 0 1 D5.xyz
|  4>
|  5> %MaxCore 64000
|  6>
|  7> %pal nprocs 4
|  8> end
|  9>
| 10> %scf
| 11>   MaxIter 150
| 12> end
| 13>
| 14>
| 15>                          ****END OF INPUT****

CARTESIAN COORDINATES (ANGSTROEM)
---------------------------------
  C      5.558206   -1.992914   -6.215054
  C      4.930199   -7.375319   -2.649623
  C      3.841892   -6.951611   -3.632829
  H      3.458144   -5.954425   -3.407121
  H      2.988484   -7.643606   -3.567078
  S      4.318115   -6.915930   -5.368692
  C      4.181880   -2.589671   -6.298911
  C      3.145873   -1.768431   -6.486753
  N      4.019102   -3.864307   -6.227427
  H      4.768490   -4.591153   -5.990773
  H      3.122405   -4.333392   -6.314620
  H      3.281635   -0.777786   -6.566549
  H      2.212549   -2.134193   -6.562246
  O      5.406154   -5.899480   -5.512972
  O      3.111910   -6.445079   -6.043792
  C      6.419260   -2.542944   -5.077630
  C      5.872267   -5.002756   -2.427819
  C      6.173994   -6.485522   -2.606315
  H      6.734852   -6.613767   -3.534015
  H      6.821463   -6.831018   -1.793617
  H      4.469612   -7.406168   -1.655876
  H      5.230134   -8.398678   -2.885906
  C      5.896512   -2.169314   -3.694552
  H      7.428880   -2.143665   -5.208078
  H      6.505894   -3.627541   -5.175502
  C      6.807804   -2.623428   -2.551019
  H      4.894708   -2.589732   -3.557501
  H      5.778823   -1.081255   -3.635790
  C      7.111544   -4.122463   -2.520363
  H      7.751615   -2.071393   -2.614406
  H      6.345837   -2.326401   -1.604086
  H      5.362882   -4.828697   -1.471335
  H      5.174429   -4.702577   -3.211298
  H      7.778329   -4.329347   -1.677651
  H      7.673189   -4.402845   -3.417586
  F      4.763396   -8.239424   -5.698629
  H      6.036826   -2.198189   -7.176852
  H      5.467610   -0.907371   -6.127968

 Total Charge           Charge          ....    0
 Multiplicity           Mult            ....    1
 Number of Electrons    NEL             ....  136
 Basis Dimension        Dim             ....  512

ORBITAL ENERGIES
----------------

  NO   OCC          E(Eh)            E(eV)
   0   2.0000     -88.608799     -2411.1680
   1   2.0000     -24.661789      -671.0814
   2   2.0000     -19.032391      -517.8977
   3   2.0000     -19.031915      -517.8847
   4   2.0000     -14.180594      -385.8736
   5   2.0000     -10.215327      -277.9732
   6   2.0000     -10.173240      -276.8279
   7   2.0000     -10.142261      -275.9850
   8   2.0000     -10.129382      -275.6345
   9   2.0000     -10.124717      -275.5076
  10   2.0000     -10.121831      -275.4290
  11   2.0000     -10.116337      -275.2795
  12   2.0000     -10.108388      -275.0632
  13   2.0000     -10.108273      -275.0601
  14   2.0000     -10.103688      -274.9353
  15   2.0000     -10.025600      -272.8105
  16   2.0000      -8.229615      -223.9392
  17   2.0000      -6.256833      -170.2571
  18   2.0000      -6.249913      -170.0688
  19   2.0000      -6.247873      -170.0133
  20   2.0000      -1.574071       -42.8326
  21   2.0000      -1.307827       -35.5878
  22   2.0000      -1.196091       -32.5473
  23   2.0000      -1.063377       -28.9360
  24   2.0000      -1.036120       -28.1942
  25   2.0000      -0.988967       -26.9112
  26   2.0000      -0.959274       -26.1032
  27   2.0000      -0.925796       -25.1922
  28   2.0000      -0.907069       -24.6826
  29   2.0000      -0.874234       -23.7891
  30   2.0000      -0.851529       -23.1713
  31   2.0000      -0.815684       -22.1959
  32   2.0000      -0.791167       -21.5288
  33   2.0000      -0.780915       -21.2498
  34   2.0000      -0.764015       -20.7899
  35   2.0000      -0.750084       -20.4108
  36   2.0000      -0.725621       -19.7452
  37   2.0000      -0.708734       -19.2856
  38   2.0000      -0.698113       -18.9966
  39   2.0000      -0.665754       -18.1161
  40   2.0000      -0.660891       -17.9838
  41   2.0000      -0.652643       -17.7593
  42   2.0000      -0.633067       -17.2266
  43   2.0000      -0.612181       -16.6583
  44   2.0000      -0.608139       -16.5483
  45   2.0000      -0.598352       -16.2820
  46   2.0000      -0.585056       -15.9202
  47   2.0000      -0.573757       -15.6127
  48   2.0000      -0.564947       -15.3730
  49   2.0000      -0.562167       -15.2973
  50   2.0000      -0.545029       -14.8310
  51   2.0000      -0.537545       -14.6273
  52   2.0000      -0.527887       -14.3645
  53   2.0000      -0.514161       -13.9910
  54   2.0000      -0.507537       -13.8108
  55   2.0000      -0.493383       -13.4256
  56   2.0000      -0.490979       -13.3602
  57   2.0000      -0.483074       -13.1451
  58   2.0000      -0.482535       -13.1305
  59   2.0000      -0.470005       -12.7895
  60   2.0000      -0.458872       -12.4865
  61   2.0000      -0.456722       -12.4280
  62   2.0000      -0.453075       -12.3288
  63   2.0000      -0.441486       -12.0134
  64   2.0000      -0.432277       -11.7629
  65   2.0000      -0.423647       -11.5280
  66   2.0000      -0.419227       -11.4077
  67   2.0000      -0.271875        -7.3981
  68   0.0000       0.048362         1.3160
  69   0.0000       0.072529         1.9736
  70   0.0000       0.080861         2.2003
  71   0.0000       0.088458         2.4071
  72   0.0000       0.095903         2.6097

MULLIKEN ATOMIC CHARGES
-----------------------
   0 C :    0.557186
   1 C :    0.307219
   2 C :   -0.246356
   3 H :    0.318705
   4 H :   -0.055441
   5 S :    1.506161
   6 C :   -0.367506
   7 C :    0.225084
   8 N :    0.827854
   9 H :   -0.296333
  10 H :   -0.243964
  11 H :   -0.247486
  12 H :   -0.287315
  13 O :   -0.898830
  14 O :   -0.667567
  15 C :    0.219456
  16 C :   -0.141450
  17 C :    0.100624
  18 H :    0.136389
  19 H :   -0.213006
  20 H :    0.144950
  21 H :    0.068275
  22 C :   -0.214357
  23 H :   -0.051737
  24 H :   -0.547505
  25 C :    0.426742
  26 H :    0.188505
  27 H :   -0.196446
  28 C :   -0.065568
  29 H :    0.113414
  30 H :    0.021445
  31 H :    0.086991
  32 H :   -0.272525
  33 H :   -0.208678
  34 H :    0.173292
  35 F :   -0.482588
  36 H :   -0.047784
  37 H :    0.330148
Sum of atomic charges:    0.0000000

LOEWDIN ATOMIC CHARGES
----------------------
   0 C :   -0.006117
   1 C :   -0.052108
   2 C :   -0.053560
   3 H :    0.046007
   4 H :    0.047349
   5 S :    1.172157
   6 C :   -0.261949
   7 C :    0.138904
   8 N :    0.173909
   9 H :   -0.105100
  10 H :   -0.014999
  11 H :   -0.091334
  12 H :   -0.085080
  13 O :   -0.444736
  14 O :   -0.442487
  15 C :   -0.047510
  16 C :   -0.054151
  17 C :   -0.053357
  18 H :    0.021799
  19 H :    0.043306
  20 H :    0.050224
  21 H :    0.037976
  22 C :   -0.052391
  23 H :    0.038733
  24 H :   -0.000884
  25 C :   -0.055885
  26 H :    0.027123
  27 H :    0.038270
  28 C :   -0.054460
  29 H :    0.034096
  30 H :    0.032792
  31 H :    0.050596
  32 H :   -0.004422
  33 H :    0.035418
  34 H :    0.031356
  35 F :   -0.217348
  36 H :    0.042387
  37 H :    0.035476

  Mayer bond orders larger than 0.100000
B(  0-C ,  6-C ) :   1.0438 B(  0-C ,  8-N ) :   0.1435 B(  0-C , 15-C ) :   1.2035
B(  0-C , 24-H ) :   0.1221 B(  0-C , 36-H ) :   0.6122 B(  0-C , 37-H ) :   0.6805
B(  1-C ,  2-C ) :   1.2583 B(  1-C ,  4-H ) :   0.1454 B(  1-C , 17-C ) :   1.2252
B(  1-C , 20-H ) :   0.7673 B(  1-C , 21-H ) :   0.7204 B(  2-C ,  3-H ) :   0.8017
B(  2-C ,  4-H ) :   0.9110 B(  2-C ,  5-S ) :   1.0347 B(  2-C , 20-H ) :   0.1315
B(  2-C , 35-F ) :   0.1016 B(  4-H ,  5-S ) :   0.1015 B(  5-S , 13-O ) :   1.2543
B(  5-S , 14-O ) :   1.5143 B(  5-S , 35-F ) :   0.6259 B(  6-C ,  7-C ) :   1.8162
B(  6-C ,  8-N ) :   1.3221 B(  6-C , 10-H ) :  -0.1858 B(  6-C , 11-H ) :   0.1337
B(  6-C , 12-H ) :   0.2692 B(  6-C , 24-H ) :  -0.1041 B(  6-C , 36-H ) :   0.2485
B(  7-C ,  8-N ) :   0.1247 B(  7-C , 11-H ) :   0.9273 B(  7-C , 12-H ) :   0.6864
B(  8-N ,  9-H ) :   0.7919 B(  8-N , 10-H ) :   0.9606 B(  8-N , 13-O ) :  -0.1140
B(  9-H , 10-H ) :  -0.1994 B(  9-H , 13-O ) :   0.1744 B( 10-H , 14-O ) :   0.1641
B( 13-O , 14-O ) :   0.1404 B( 13-O , 24-H ) :   0.1758 B( 15-C , 22-C ) :   1.2366
B( 15-C , 23-H ) :   0.8227 B( 15-C , 24-H ) :   0.6767 B( 15-C , 26-H ) :   0.1034
B( 15-C , 27-H ) :   0.1872 B( 15-C , 36-H ) :   0.2059 B( 15-C , 37-H ) :   0.1477
B( 16-C , 17-C ) :   1.2219 B( 16-C , 18-H ) :   0.1012 B( 16-C , 19-H ) :   0.1560
B( 16-C , 28-C ) :   1.2670 B( 16-C , 31-H ) :   0.8059 B( 16-C , 32-H ) :   1.0023
B( 16-C , 33-H ) :   0.1841 B( 16-C , 34-H ) :   0.1025 B( 17-C , 18-H ) :   0.8643
B( 17-C , 19-H ) :   0.9497 B( 17-C , 21-H ) :   0.2160 B( 17-C , 28-C ) :   0.1177
B( 22-C , 23-H ) :   0.1274 B( 22-C , 24-H ) :   0.1867 B( 22-C , 25-C ) :   1.1033
B( 22-C , 26-H ) :   0.8456 B( 22-C , 27-H ) :   1.0651 B( 22-C , 29-H ) :   0.1187
B( 22-C , 30-H ) :   0.1889 B( 22-C , 32-H ) :   0.1022 B( 25-C , 28-C ) :   1.1466
B( 25-C , 29-H ) :   0.7372 B( 25-C , 30-H ) :   0.7792 B( 26-H , 32-H ) :   0.1398
B( 28-C , 29-H ) :   0.1779 B( 28-C , 30-H ) :   0.1092 B( 28-C , 33-H ) :   1.0323
B( 28-C , 34-H ) :   0.8320 B( 31-H , 32-H ) :   0.1326

FINAL SINGLE POINT ENERGY     -1132.281193188118

DIPOLE MOMENT
-------------
                                X             Y             Z
Electronic contribution:     -8.07880     -23.41616     -13.50428
Nuclear contribution   :      8.54118      20.92489      15.31138
                        -----------------------------------------
Total Dipole Moment    :      0.46238      -2.49126       1.80710
                        -----------------------------------------
Magnitude (a.u.)       :      3.11220
Magnitude (Debye)      :      7.91059

Rotational constants in cm-1:     0.018156     0.012306     0.008278
Rotational constants in MHz :   544.309022   368.914527   248.178402

                             ****ORCA TERMINATED NORMALLY****
TOTAL RUN TIME: 0 days 0 hours 4 minutes 50 seconds 550 msec
