                         Program Version 5.0.0 -  RELEASE  -
|  1> !PBE0 D3BJ RIJCOSX def2-SVPD def2/J TightSCF
|  2> *xyz -1 1
|  3> C          4.93020       -7.37532       -2.64962
|  4> C          3.84189       -6.95161       -3.63283
|  5> H          3.45814       -5.95442       -3.40712
|  6> H          2.98848       -7.64361       -3.56708
|  7> S          4.31812       -6.91593       -5.36869
|  8> O          5.40615       -5.89948       -5.51297
|  9> O          3.11191       -6.44508       -6.04379
| 10> O          4.76340       -8.23942       -5.69863
| 11> H          5.27901       -8.35440       -2.90385
| 12> H          4.53000       -7.38577       -1.65734
| 13> H          5.74437       -6.68276       -2.69856
| 14> *
| 15>
| 16> %MaxCore 64000
| 17>
| 18> %pal nprocs 4
| 19> end
| 20>
| 21> %scf
| 22>   MaxIter 150
| 23> end
| 24>
| 25>
| 26>                          ****END OF INPUT****

CARTESIAN COORDINATES (ANGSTROEM)
---------------------------------
  C      4.930200   -7.375320   -2.649620
  C      3.841890   -6.951610   -3.632830
  H      3.458140   -5.954420   -3.407120
  H      2.988480   -7.643610   -3.567080
  S      4.318120   -6.915930   -5.368690
  O      5.406150   -5.899480   -5.512970
  O      3.111910   -6.445080   -6.043790
  O      4.763400   -8.239420   -5.698630
  H      5.279010   -8.354400   -2.903850
  H      4.530000   -7.385770   -1.657340
  H      5.744370   -6.682760   -2.698560

 Total Charge           Charge          ....   -1
 Multiplicity           Mult            ....    1
 Number of Electrons    NEL             ....   58
 Basis Dimension        Dim             ....  176

ORBITAL ENERGIES
----------------

  NO   OCC          E(Eh)            E(eV)
   0   2.0000     -89.037550     -2422.8349
   1   2.0000     -19.002180      -517.0756
   2   2.0000     -18.993119      -516.8290
   3   2.0000     -18.985796      -516.6298
   4   2.0000     -10.101126      -274.8656
   5   2.0000     -10.093074      -274.6465
   6   2.0000      -7.996964      -217.6085
   7   2.0000      -5.939246      -161.6151
   8   2.0000      -5.939028      -161.6092
   9   2.0000      -5.938648      -161.5988
  10   2.0000      -0.956024       -26.0147
  11   2.0000      -0.818513       -22.2729
  12   2.0000      -0.787850       -21.4385
  13   2.0000      -0.653842       -17.7920
  14   2.0000      -0.526095       -14.3158
  15   2.0000      -0.401460       -10.9243
  16   2.0000      -0.335442        -9.1279
  17   2.0000      -0.333234        -9.0677
  18   2.0000      -0.295220        -8.0333
  19   2.0000      -0.281127        -7.6498
  20   2.0000      -0.273217        -7.4346
  21   2.0000      -0.247578        -6.7369
  22   2.0000      -0.228597        -6.2204
  23   2.0000      -0.165776        -4.5110
  24   2.0000      -0.164432        -4.4744
  25   2.0000      -0.130651        -3.5552
  26   2.0000      -0.120551        -3.2804
  27   2.0000      -0.113113        -3.0780
  28   2.0000      -0.076654        -2.0859
  29   0.0000       0.147189         4.0052
  30   0.0000       0.174992         4.7618
  31   0.0000       0.182632         4.9697
  32   0.0000       0.188685         5.1344
  33   0.0000       0.209957         5.7132

MULLIKEN ATOMIC CHARGES
-----------------------
   0 C :    0.583656
   1 C :   -0.513290
   2 H :    0.007119
   3 H :    0.060692
   4 S :    1.430195
   5 O :   -0.869092
   6 O :   -0.836405
   7 O :   -0.817985
   8 H :   -0.001908
   9 H :   -0.037621
  10 H :   -0.005362
Sum of atomic charges:   -1.0000000

LOEWDIN ATOMIC CHARGES
----------------------
   0 C :    0.096946
   1 C :   -0.143511
   2 H :    0.005467
   3 H :    0.010473
   4 S :    0.866482
   5 O :   -0.602615
   6 O :   -0.591544
   7 O :   -0.574477
   8 H :   -0.018319
   9 H :   -0.031755
  10 H :   -0.017145

  Mayer bond orders larger than 0.100000
B(  0-C ,  1-C ) :   1.2843 B(  0-C ,  8-H ) :   0.8429 B(  0-C ,  9-H ) :   0.7815
B(  0-C , 10-H ) :   0.8523 B(  1-C ,  2-H ) :   1.0154 B(  1-C ,  3-H ) :   0.9839
B(  1-C ,  4-S ) :   0.9349 B(  1-C ,  8-H ) :   0.1799 B(  1-C ,  9-H ) :   0.1876
B(  1-C , 10-H ) :   0.1738 B(  4-S ,  5-O ) :   1.2329 B(  4-S ,  6-O ) :   1.2918
B(  4-S ,  7-O ) :   1.2735

Dispersion correction           -0.008216202
FINAL SINGLE POINT ENERGY      -702.319998346456

DIPOLE MOMENT
-------------
                                X             Y             Z
Electronic contribution:     -0.37244       0.79776      -7.74627
Nuclear contribution   :      0.07504      -1.14369       9.75001
                        -----------------------------------------
Total Dipole Moment    :     -0.29739      -0.34593       2.00373
                        -----------------------------------------
Magnitude (a.u.)       :      2.05501
Magnitude (Debye)      :      5.22342

Rotational constants in cm-1:     0.160553     0.082191     0.080550
Rotational constants in MHz :  4813.250478  2464.013016  2414.833054

                             ****ORCA TERMINATED NORMALLY****
TOTAL RUN TIME: 0 days 0 hours 0 minutes 25 seconds 830 msec
