                         Program Version 5.0.0 -  RELEASE  -
|  1> !PBE0 D3BJ RIJCOSX def2-SVPD def2/J TightSCF
|  2> *xyz 1 1
|  3> C          5.55821       -1.99291       -6.21505
|  4> C          4.18188       -2.58967       -6.29891
|  5> N          3.14587       -1.76843       -6.48675
|  6> N          4.01910       -3.86431       -6.22743
|  7> H          4.76849       -4.59115       -5.99077
|  8> H          3.12241       -4.33339       -6.31462
|  9> H          3.28164       -0.77779       -6.56655
| 10> H          2.21255       -2.13419       -6.56225
| 11> C          6.41926       -2.54294       -5.07763
| 12> H          6.03683       -2.19819       -7.17685
| 13> H          5.46761       -0.90737       -6.12797
| 14> H          6.50056       -3.60553       -5.17358
| 15> H          5.96544       -2.30329       -4.13874
| 16> H          7.39438       -2.10494       -5.12457
| 17> *
| 18>
| 19> %MaxCore 64000
| 20>
| 21> %pal nprocs 4
| 22> end
| 23>
| 24> %scf
| 25>   MaxIter 150
| 26> end
| 27>
| 28>
| 29>                          ****END OF INPUT****

CARTESIAN COORDINATES (ANGSTROEM)
---------------------------------
  C      5.558210   -1.992910   -6.215050
  C      4.181880   -2.589670   -6.298910
  N      3.145870   -1.768430   -6.486750
  N      4.019100   -3.864310   -6.227430
  H      4.768490   -4.591150   -5.990770
  H      3.122410   -4.333390   -6.314620
  H      3.281640   -0.777790   -6.566550
  H      2.212550   -2.134190   -6.562250
  C      6.419260   -2.542940   -5.077630
  H      6.036830   -2.198190   -7.176850
  H      5.467610   -0.907370   -6.127970
  H      6.500560   -3.605530   -5.173580
  H      5.965440   -2.303290   -4.138740
  H      7.394380   -2.104940   -5.124570

 Total Charge           Charge          ....    1
 Multiplicity           Mult            ....    1
 Number of Electrons    NEL             ....   40
 Basis Dimension        Dim             ....  172

ORBITAL ENERGIES
----------------

  NO   OCC          E(Eh)            E(eV)
   0   2.0000     -14.648901      -398.6169
   1   2.0000     -14.637723      -398.3127
   2   2.0000     -10.557617      -287.2874
   3   2.0000     -10.432440      -283.8811
   4   2.0000     -10.388710      -282.6912
   5   2.0000      -1.223750       -33.2999
   6   2.0000      -1.123876       -30.5822
   7   2.0000      -0.986527       -26.8448
   8   2.0000      -0.883301       -24.0358
   9   2.0000      -0.832646       -22.6574
  10   2.0000      -0.793094       -21.5812
  11   2.0000      -0.761999       -20.7350
  12   2.0000      -0.713996       -19.4288
  13   2.0000      -0.669176       -18.2092
  14   2.0000      -0.638338       -17.3701
  15   2.0000      -0.617638       -16.8068
  16   2.0000      -0.563874       -15.3438
  17   2.0000      -0.552440       -15.0327
  18   2.0000      -0.536380       -14.5957
  19   2.0000      -0.506154       -13.7731
  20   0.0000      -0.204551        -5.5661
  21   0.0000      -0.150737        -4.1018
  22   0.0000      -0.116054        -3.1580
  23   0.0000      -0.105212        -2.8630
  24   0.0000      -0.084623        -2.3027

MULLIKEN ATOMIC CHARGES
-----------------------
   0 C :   -0.506947
   1 C :    1.073262
   2 N :   -0.101621
   3 N :   -0.061425
   4 H :    0.080236
   5 H :   -0.137738
   6 H :    0.026850
   7 H :   -0.120854
   8 C :    0.578034
   9 H :    0.071414
  10 H :    0.114942
  11 H :   -0.080560
  12 H :    0.006941
  13 H :    0.057466
Sum of atomic charges:    1.0000000

LOEWDIN ATOMIC CHARGES
----------------------
   0 C :    0.008099
   1 C :   -0.037835
   2 N :    0.280955
   3 N :    0.257335
   4 H :    0.099010
   5 H :    0.051822
   6 H :    0.041298
   7 H :    0.040708
   8 C :    0.160175
   9 H :    0.059383
  10 H :    0.041140
  11 H :   -0.019814
  12 H :    0.006023
  13 H :    0.011702

  Mayer bond orders larger than 0.100000
B(  0-C ,  1-C ) :   1.0462 B(  0-C ,  8-C ) :   1.3437 B(  0-C ,  9-H ) :   0.9146
B(  0-C , 10-H ) :   0.8973 B(  0-C , 11-H ) :   0.1683 B(  0-C , 12-H ) :   0.1845
B(  0-C , 13-H ) :   0.1514 B(  1-C ,  2-N ) :   0.8859 B(  1-C ,  3-N ) :   1.0097
B(  1-C ,  5-H ) :  -0.2519 B(  1-C ,  7-H ) :  -0.2362 B(  2-N ,  3-N ) :   0.1652
B(  2-N ,  6-H ) :   1.1118 B(  2-N ,  7-H ) :   1.3538 B(  3-N ,  4-H ) :   1.1118
B(  3-N ,  5-H ) :   1.3238 B(  4-H ,  5-H ) :  -0.1716 B(  6-H ,  7-H ) :  -0.1795
B(  8-C , 11-H ) :   0.8641 B(  8-C , 12-H ) :   0.7958 B(  8-C , 13-H ) :   0.8328

Dispersion correction           -0.008442500
FINAL SINGLE POINT ENERGY      -228.615748575947

DIPOLE MOMENT
-------------
                                X             Y             Z
Electronic contribution:     -3.78061      -0.47908      -1.56817
Nuclear contribution   :      2.76041       0.12669       1.26265
                        -----------------------------------------
Total Dipole Moment    :     -1.02019      -0.35239      -0.30552
                        -----------------------------------------
Magnitude (a.u.)       :      1.12175
Magnitude (Debye)      :      2.85126

Rotational constants in cm-1:     0.280918     0.124524     0.094121
Rotational constants in MHz :  8421.697738  3733.133254  2821.684112

                             ****ORCA TERMINATED NORMALLY****
TOTAL RUN TIME: 0 days 0 hours 0 minutes 21 seconds 7 msec
