                         Program Version 5.0.0 -  RELEASE  -
|  1> !PBE0 D3BJ RIJCOSX def2-SVPD def2/J TightSCF
|  2> *xyz 0 1
|  3> C          4.93020       -7.37532       -2.64962
|  4> C          3.84189       -6.95161       -3.63283
|  5> H          3.45814       -5.95442       -3.40712
|  6> H          2.98848       -7.64361       -3.56708
|  7> S          4.31812       -6.91593       -5.36869
|  8> F          5.40615       -5.89948       -5.51297
|  9> O          3.11191       -6.44508       -6.04379
| 10> O          4.76340       -8.23942       -5.69863
| 11> H          5.27901       -8.35440       -2.90385
| 12> H          4.53000       -7.38577       -1.65734
| 13> H          5.74437       -6.68276       -2.69856
| 14> *
| 15>
| 16> %MaxCore 64000
| 17>
| 18> %pal nprocs 4
| 19> end
| 20>
| 21> %scf
| 22>   MaxIter 150
| 23> end
| 24>
| 25>
| 26>                          ****END OF INPUT****

CARTESIAN COORDINATES (ANGSTROEM)
---------------------------------
  C      4.930200   -7.375320   -2.649620
  C      3.841890   -6.951610   -3.632830
  H      3.458140   -5.954420   -3.407120
  H      2.988480   -7.643610   -3.567080
  S      4.318120   -6.915930   -5.368690
  F      5.406150   -5.899480   -5.512970
  O      3.111910   -6.445080   -6.043790
  O      4.763400   -8.239420   -5.698630
  H      5.279010   -8.354400   -2.903850
  H      4.530000   -7.385770   -1.657340
  H      5.744370   -6.682760   -2.698560

 Total Charge           Charge          ....    0
 Multiplicity           Mult            ....    1
 Number of Electrons    NEL             ....   58
 Basis Dimension        Dim             ....  176

ORBITAL ENERGIES
----------------

  NO   OCC          E(Eh)            E(eV)
   0   2.0000     -89.295507     -2429.8543
   1   2.0000     -24.881852      -677.0696
   2   2.0000     -19.237239      -523.4719
   3   2.0000     -19.227474      -523.2062
   4   2.0000     -10.302589      -280.3477
   5   2.0000     -10.258240      -279.1409
   6   2.0000      -8.255766      -224.6508
   7   2.0000      -6.201742      -168.7580
   8   2.0000      -6.195876      -168.5983
   9   2.0000      -6.194670      -168.5655
  10   2.0000      -1.368102       -37.2279
  11   2.0000      -1.145812       -31.1791
  12   2.0000      -1.048284       -28.5252
  13   2.0000      -0.846286       -23.0286
  14   2.0000      -0.742713       -20.2103
  15   2.0000      -0.693543       -18.8723
  16   2.0000      -0.598815       -16.2946
  17   2.0000      -0.580637       -15.7999
  18   2.0000      -0.567438       -15.4408
  19   2.0000      -0.512471       -13.9450
  20   2.0000      -0.499448       -13.5907
  21   2.0000      -0.477059       -12.9814
  22   2.0000      -0.454713       -12.3734
  23   2.0000      -0.426056       -11.5936
  24   2.0000      -0.420607       -11.4453
  25   2.0000      -0.396920       -10.8007
  26   2.0000      -0.358516        -9.7557
  27   2.0000      -0.345976        -9.4145
  28   2.0000      -0.335540        -9.1305
  29   0.0000      -0.004859        -0.1322
  30   0.0000       0.033582         0.9138
  31   0.0000       0.038774         1.0551
  32   0.0000       0.041913         1.1405
  33   0.0000       0.048876         1.3300

MULLIKEN ATOMIC CHARGES
-----------------------
   0 C :    0.602750
   1 C :   -0.531207
   2 H :    0.053700
   3 H :    0.110294
   4 S :    1.586027
   5 F :   -0.441505
   6 O :   -0.705165
   7 O :   -0.694685
   8 H :    0.025496
   9 H :   -0.002344
  10 H :   -0.003360
Sum of atomic charges:    0.0000000

LOEWDIN ATOMIC CHARGES
----------------------
   0 C :    0.127017
   1 C :   -0.095530
   2 H :    0.024495
   3 H :    0.043529
   4 S :    1.129929
   5 F :   -0.278330
   6 O :   -0.477139
   7 O :   -0.460820
   8 H :   -0.003419
   9 H :   -0.003059
  10 H :   -0.006672

  Mayer bond orders larger than 0.100000
B(  0-C ,  1-C ) :   1.3081 B(  0-C ,  8-H ) :   0.8466 B(  0-C ,  9-H ) :   0.7796
B(  0-C , 10-H ) :   0.8476 B(  1-C ,  2-H ) :   1.0018 B(  1-C ,  3-H ) :   0.9687
B(  1-C ,  4-S ) :   1.0082 B(  1-C ,  8-H ) :   0.1738 B(  1-C ,  9-H ) :   0.1780
B(  1-C , 10-H ) :   0.1650 B(  4-S ,  5-F ) :   0.5767 B(  4-S ,  6-O ) :   1.5080
B(  4-S ,  7-O ) :   1.4951

Dispersion correction           -0.007821282
FINAL SINGLE POINT ENERGY      -726.810668162050

DIPOLE MOMENT
-------------
                                X             Y             Z
Electronic contribution:      1.29409       2.62014      -8.70858
Nuclear contribution   :     -0.98922      -2.24849      10.35711
                        -----------------------------------------
Total Dipole Moment    :      0.30487       0.37165       1.64853
                        -----------------------------------------
Magnitude (a.u.)       :      1.71719
Magnitude (Debye)      :      4.36474

Rotational constants in cm-1:     0.151436     0.080885     0.078670
Rotational constants in MHz :  4539.936009  2424.868817  2358.476812

                             ****ORCA TERMINATED NORMALLY****
TOTAL RUN TIME: 0 days 0 hours 0 minutes 21 seconds 357 msec
