                         Program Version 5.0.0 -  RELEASE  -
|  1> !PBE0 D3BJ RIJCOSX def2-SVPD def2/J TightSCF
|  2> *xyz 0 1
|  3> C          5.55821       -1.99291       -6.21505
|  4> C          4.18188       -2.58967       -6.29891
|  5> C          3.14587       -1.76843       -6.48675
|  6> N          4.01910       -3.86431       -6.22743
|  7> H          4.76849       -4.59115       -5.99077
|  8> H          3.12241       -4.33339       -6.31462
|  9> H          3.28164       -0.77779       -6.56655
| 10> H          2.21255       -2.13419       -6.56225
| 11> C          6.41926       -2.54294       -5.07763
| 12> H          6.03683       -2.19819       -7.17685
| 13> H          5.46761       -0.90737       -6.12797
| 14> H          6.50056       -3.60553       -5.17358
| 15> H          5.96544       -2.30329       -4.13874
| 16> H          7.39438       -2.10494       -5.12457
| 17> *
| 18>
| 19> %MaxCore 64000
| 20>
| 21> %pal nprocs 4
| 22> end
| 23>
| 24> %scf
| 25>   MaxIter 150
| 26> end
| 27>
| 28>
| 29>                          ****END OF INPUT****

CARTESIAN COORDINATES (ANGSTROEM)
---------------------------------
  C      5.558210   -1.992910   -6.215050
  C      4.181880   -2.589670   -6.298910
  C      3.145870   -1.768430   -6.486750
  N      4.019100   -3.864310   -6.227430
  H      4.768490   -4.591150   -5.990770
  H      3.122410   -4.333390   -6.314620
  H      3.281640   -0.777790   -6.566550
  H      2.212550   -2.134190   -6.562250
  C      6.419260   -2.542940   -5.077630
  H      6.036830   -2.198190   -7.176850
  H      5.467610   -0.907370   -6.127970
  H      6.500560   -3.605530   -5.173580
  H      5.965440   -2.303290   -4.138740
  H      7.394380   -2.104940   -5.124570

 Total Charge           Charge          ....    0
 Multiplicity           Mult            ....    1
 Number of Electrons    NEL             ....   40
 Basis Dimension        Dim             ....  172

ORBITAL ENERGIES
----------------

  NO   OCC          E(Eh)            E(eV)
   0   2.0000     -14.405119      -391.9832
   1   2.0000     -10.254819      -279.0478
   2   2.0000     -10.232238      -278.4334
   3   2.0000     -10.221655      -278.1454
   4   2.0000     -10.161050      -276.4962
   5   2.0000      -0.952773       -25.9263
   6   2.0000      -0.794547       -21.6207
   7   2.0000      -0.733472       -19.9588
   8   2.0000      -0.645325       -17.5602
   9   2.0000      -0.599039       -16.3007
  10   2.0000      -0.532520       -14.4906
  11   2.0000      -0.487158       -13.2562
  12   2.0000      -0.457342       -12.4449
  13   2.0000      -0.436008       -11.8644
  14   2.0000      -0.406033       -11.0487
  15   2.0000      -0.395036       -10.7495
  16   2.0000      -0.370517       -10.0823
  17   2.0000      -0.347819        -9.4646
  18   2.0000      -0.340831        -9.2745
  19   2.0000      -0.195784        -5.3275
  20   0.0000       0.020179         0.5491
  21   0.0000       0.046738         1.2718
  22   0.0000       0.057645         1.5686
  23   0.0000       0.062792         1.7087
  24   0.0000       0.081694         2.2230

MULLIKEN ATOMIC CHARGES
-----------------------
   0 C :   -0.275886
   1 C :    0.002081
   2 C :    0.469166
   3 N :    0.047415
   4 H :   -0.072272
   5 H :   -0.226051
   6 H :   -0.137783
   7 H :   -0.406679
   8 C :    0.562419
   9 H :   -0.014118
  10 H :    0.158091
  11 H :   -0.112370
  12 H :   -0.008550
  13 H :    0.014538
Sum of atomic charges:   -0.0000000

LOEWDIN ATOMIC CHARGES
----------------------
   0 C :   -0.033915
   1 C :   -0.268533
   2 C :    0.174452
   3 N :    0.140765
   4 H :    0.042653
   5 H :    0.011842
   6 H :   -0.092415
   7 H :   -0.091386
   8 C :    0.120879
   9 H :    0.029791
  10 H :    0.026364
  11 H :   -0.036273
  12 H :   -0.008805
  13 H :   -0.015420

  Mayer bond orders larger than 0.100000
B(  0-C ,  1-C ) :   1.0994 B(  0-C ,  8-C ) :   1.2981 B(  0-C ,  9-H ) :   0.8662
B(  0-C , 10-H ) :   0.8835 B(  0-C , 11-H ) :   0.1852 B(  0-C , 12-H ) :   0.1807
B(  0-C , 13-H ) :   0.1753 B(  1-C ,  2-C ) :   1.6741 B(  1-C ,  3-N ) :   1.1514
B(  1-C ,  5-H ) :  -0.1361 B(  1-C ,  7-H ) :   0.2118 B(  1-C ,  9-H ) :   0.1928
B(  2-C ,  3-N ) :   0.2416 B(  2-C ,  6-H ) :   1.0540 B(  2-C ,  7-H ) :   0.7006
B(  3-N ,  4-H ) :   1.1980 B(  3-N ,  5-H ) :   1.2808 B(  4-H ,  5-H ) :  -0.1543
B(  8-C , 10-H ) :   0.1003 B(  8-C , 11-H ) :   0.8582 B(  8-C , 12-H ) :   0.8085
B(  8-C , 13-H ) :   0.8139

Dispersion correction           -0.008774511
FINAL SINGLE POINT ENERGY      -212.163288965645

DIPOLE MOMENT
-------------
                                X             Y             Z
Electronic contribution:     -2.04166      -1.06643      -1.02791
Nuclear contribution   :      2.41345       0.31141       1.16343
                        -----------------------------------------
Total Dipole Moment    :      0.37179      -0.75502       0.13553
                        -----------------------------------------
Magnitude (a.u.)       :      0.85243
Magnitude (Debye)      :      2.16672

Rotational constants in cm-1:     0.287957     0.129204     0.097498
Rotational constants in MHz :  8632.737925  3873.424745  2922.919500

                             ****ORCA TERMINATED NORMALLY****
TOTAL RUN TIME: 0 days 0 hours 0 minutes 20 seconds 795 msec
