                         Program Version 5.0.0 -  RELEASE  -
|  1> !PBE0 D3BJ RIJCOSX def2-SVPD def2/J TightSCF
|  2> *xyz 0 1
|  3> C          4.93020       -7.37532       -2.64962
|  4> C          3.84189       -6.95161       -3.63283
|  5> H          3.45814       -5.95442       -3.40712
|  6> H          2.98848       -7.64361       -3.56708
|  7> S          4.31812       -6.91593       -5.36869
|  8> O          5.40615       -5.89948       -5.51297
|  9> F          3.11191       -6.44508       -6.04379
| 10> O          4.76340       -8.23942       -5.69863
| 11> H          5.27901       -8.35440       -2.90385
| 12> H          4.53000       -7.38577       -1.65734
| 13> H          5.74437       -6.68276       -2.69856
| 14> *
| 15>
| 16> %MaxCore 64000
| 17>
| 18> %pal nprocs 4
| 19> end
| 20>
| 21> %scf
| 22>   MaxIter 150
| 23> end
| 24>
| 25>
| 26>                          ****END OF INPUT****

CARTESIAN COORDINATES (ANGSTROEM)
---------------------------------
  C      4.930200   -7.375320   -2.649620
  C      3.841890   -6.951610   -3.632830
  H      3.458140   -5.954420   -3.407120
  H      2.988480   -7.643610   -3.567080
  S      4.318120   -6.915930   -5.368690
  O      5.406150   -5.899480   -5.512970
  F      3.111910   -6.445080   -6.043790
  O      4.763400   -8.239420   -5.698630
  H      5.279010   -8.354400   -2.903850
  H      4.530000   -7.385770   -1.657340
  H      5.744370   -6.682760   -2.698560

 Total Charge           Charge          ....    0
 Multiplicity           Mult            ....    1
 Number of Electrons    NEL             ....   58
 Basis Dimension        Dim             ....  176

ORBITAL ENERGIES
----------------

  NO   OCC          E(Eh)            E(eV)
   0   2.0000     -89.297287     -2429.9027
   1   2.0000     -24.896558      -677.4698
   2   2.0000     -19.236686      -523.4568
   3   2.0000     -19.219746      -522.9959
   4   2.0000     -10.303646      -280.3765
   5   2.0000     -10.256785      -279.1013
   6   2.0000      -8.257559      -224.6996
   7   2.0000      -6.203699      -168.8112
   8   2.0000      -6.197559      -168.6442
   9   2.0000      -6.196270      -168.6091
  10   2.0000      -1.395857       -37.9832
  11   2.0000      -1.139355       -31.0034
  12   2.0000      -1.029030       -28.0013
  13   2.0000      -0.846375       -23.0310
  14   2.0000      -0.757355       -20.6087
  15   2.0000      -0.693855       -18.8808
  16   2.0000      -0.602239       -16.3878
  17   2.0000      -0.600160       -16.3312
  18   2.0000      -0.576919       -15.6988
  19   2.0000      -0.513563       -13.9748
  20   2.0000      -0.503581       -13.7031
  21   2.0000      -0.464303       -12.6343
  22   2.0000      -0.450500       -12.2587
  23   2.0000      -0.428595       -11.6627
  24   2.0000      -0.405476       -11.0336
  25   2.0000      -0.403941       -10.9918
  26   2.0000      -0.354182        -9.6378
  27   2.0000      -0.338989        -9.2244
  28   2.0000      -0.322124        -8.7654
  29   0.0000       0.002806         0.0764
  30   0.0000       0.021974         0.5979
  31   0.0000       0.041379         1.1260
  32   0.0000       0.044673         1.2156
  33   0.0000       0.057195         1.5563

MULLIKEN ATOMIC CHARGES
-----------------------
   0 C :    0.574612
   1 C :   -0.554157
   2 H :    0.061836
   3 H :    0.117764
   4 S :    1.607737
   5 O :   -0.733337
   6 F :   -0.428512
   7 O :   -0.684400
   8 H :    0.020892
   9 H :    0.000229
  10 H :    0.017337
Sum of atomic charges:   -0.0000000

LOEWDIN ATOMIC CHARGES
----------------------
   0 C :    0.142566
   1 C :   -0.107673
   2 H :    0.023401
   3 H :    0.029214
   4 S :    1.132623
   5 O :   -0.488078
   6 F :   -0.269059
   7 O :   -0.462680
   8 H :   -0.000505
   9 H :   -0.000568
  10 H :    0.000760

  Mayer bond orders larger than 0.100000
B(  0-C ,  1-C ) :   1.3576 B(  0-C ,  8-H ) :   0.8386 B(  0-C ,  9-H ) :   0.7857
B(  0-C , 10-H ) :   0.8494 B(  1-C ,  2-H ) :   0.9871 B(  1-C ,  3-H ) :   0.9510
B(  1-C ,  4-S ) :   0.9776 B(  1-C ,  8-H ) :   0.1731 B(  1-C ,  9-H ) :   0.1770
B(  1-C , 10-H ) :   0.1691 B(  4-S ,  5-O ) :   1.4440 B(  4-S ,  6-F ) :   0.6318
B(  4-S ,  7-O ) :   1.4906

Dispersion correction           -0.007853653
FINAL SINGLE POINT ENERGY      -726.798987268929

DIPOLE MOMENT
-------------
                                X             Y             Z
Electronic contribution:     -2.58853       1.68993      -9.61631
Nuclear contribution   :      1.40145      -1.67996      10.91024
                        -----------------------------------------
Total Dipole Moment    :     -1.18708       0.00997       1.29393
                        -----------------------------------------
Magnitude (a.u.)       :      1.75599
Magnitude (Debye)      :      4.46337

Rotational constants in cm-1:     0.155875     0.079864     0.077188
Rotational constants in MHz :  4673.017506  2394.277415  2314.027118

                             ****ORCA TERMINATED NORMALLY****
TOTAL RUN TIME: 0 days 0 hours 0 minutes 21 seconds 155 msec
