                         Program Version 5.0.0 -  RELEASE  -
|  1> !PBE0 D3BJ RIJCOSX def2-SVPD def2/J TightSCF
|  2> *xyz 0 1
|  3> C          5.55821       -1.99291       -6.21505
|  4> C          4.18188       -2.58967       -6.29891
|  5> N          3.14587       -1.76843       -6.48675
|  6> C          4.01910       -3.86431       -6.22743
|  7> H          4.76849       -4.59115       -5.99077
|  8> H          3.12241       -4.33339       -6.31462
|  9> H          3.28164       -0.77779       -6.56655
| 10> H          2.21255       -2.13419       -6.56225
| 11> C          6.41926       -2.54294       -5.07763
| 12> H          6.03683       -2.19819       -7.17685
| 13> H          5.46761       -0.90737       -6.12797
| 14> H          6.50056       -3.60553       -5.17358
| 15> H          5.96544       -2.30329       -4.13874
| 16> H          7.39438       -2.10494       -5.12457
| 17> *
| 18>
| 19> %MaxCore 64000
| 20>
| 21> %pal nprocs 4
| 22> end
| 23>
| 24> %scf
| 25>   MaxIter 150
| 26> end
| 27>
| 28>
| 29>                          ****END OF INPUT****

CARTESIAN COORDINATES (ANGSTROEM)
---------------------------------
  C      5.558210   -1.992910   -6.215050
  C      4.181880   -2.589670   -6.298910
  N      3.145870   -1.768430   -6.486750
  C      4.019100   -3.864310   -6.227430
  H      4.768490   -4.591150   -5.990770
  H      3.122410   -4.333390   -6.314620
  H      3.281640   -0.777790   -6.566550
  H      2.212550   -2.134190   -6.562250
  C      6.419260   -2.542940   -5.077630
  H      6.036830   -2.198190   -7.176850
  H      5.467610   -0.907370   -6.127970
  H      6.500560   -3.605530   -5.173580
  H      5.965440   -2.303290   -4.138740
  H      7.394380   -2.104940   -5.124570

 Total Charge           Charge          ....    0
 Multiplicity           Mult            ....    1
 Number of Electrons    NEL             ....   40
 Basis Dimension        Dim             ....  172

ORBITAL ENERGIES
----------------

  NO   OCC          E(Eh)            E(eV)
   0   2.0000     -14.394367      -391.6906
   1   2.0000     -10.252446      -278.9832
   2   2.0000     -10.233343      -278.4634
   3   2.0000     -10.215581      -277.9801
   4   2.0000     -10.168327      -276.6942
   5   2.0000      -0.942459       -25.6456
   6   2.0000      -0.798217       -21.7206
   7   2.0000      -0.729583       -19.8530
   8   2.0000      -0.655670       -17.8417
   9   2.0000      -0.573413       -15.6034
  10   2.0000      -0.538334       -14.6488
  11   2.0000      -0.501493       -13.6463
  12   2.0000      -0.461365       -12.5544
  13   2.0000      -0.432585       -11.7712
  14   2.0000      -0.398509       -10.8440
  15   2.0000      -0.384802       -10.4710
  16   2.0000      -0.363282        -9.8854
  17   2.0000      -0.348545        -9.4844
  18   2.0000      -0.338439        -9.2094
  19   2.0000      -0.203918        -5.5489
  20   0.0000       0.027995         0.7618
  21   0.0000       0.045726         1.2443
  22   0.0000       0.059275         1.6129
  23   0.0000       0.063565         1.7297
  24   0.0000       0.085128         2.3164

MULLIKEN ATOMIC CHARGES
-----------------------
   0 C :   -0.224861
   1 C :    0.388165
   2 N :    0.036192
   3 C :    0.037725
   4 H :    0.053079
   5 H :   -0.454216
   6 H :   -0.138159
   7 H :   -0.181352
   8 C :    0.588854
   9 H :   -0.020689
  10 H :   -0.001319
  11 H :   -0.086681
  12 H :   -0.015224
  13 H :    0.018484
Sum of atomic charges:   -0.0000000

LOEWDIN ATOMIC CHARGES
----------------------
   0 C :   -0.037662
   1 C :   -0.256370
   2 N :    0.167882
   3 C :    0.148752
   4 H :   -0.044498
   5 H :   -0.083565
   6 H :   -0.013126
   7 H :    0.001941
   8 C :    0.126279
   9 H :    0.031872
  10 H :    0.013635
  11 H :   -0.029011
  12 H :   -0.009139
  13 H :   -0.016989

  Mayer bond orders larger than 0.100000
B(  0-C ,  1-C ) :   0.9925 B(  0-C ,  2-N ) :   0.1093 B(  0-C ,  8-C ) :   1.3331
B(  0-C ,  9-H ) :   0.9158 B(  0-C , 10-H ) :   0.8454 B(  0-C , 11-H ) :   0.1756
B(  0-C , 12-H ) :   0.1896 B(  0-C , 13-H ) :   0.1560 B(  1-C ,  2-N ) :   0.9379
B(  1-C ,  3-C ) :   1.5636 B(  1-C ,  7-H ) :  -0.1534 B(  1-C ,  9-H ) :   0.1206
B(  1-C , 10-H ) :   0.1105 B(  2-N ,  3-C ) :   0.3006 B(  2-N ,  6-H ) :   1.1467
B(  2-N ,  7-H ) :   1.3156 B(  3-C ,  4-H ) :   0.8856 B(  3-C ,  5-H ) :   0.9239
B(  6-H ,  7-H ) :  -0.1590 B(  8-C , 11-H ) :   0.8581 B(  8-C , 12-H ) :   0.8173
B(  8-C , 13-H ) :   0.8148

Dispersion correction           -0.008802735
FINAL SINGLE POINT ENERGY      -212.172992885542

DIPOLE MOMENT
-------------
                                X             Y             Z
Electronic contribution:     -2.81145       0.80089      -1.28776
Nuclear contribution   :      2.61570      -0.17401       1.22349
                        -----------------------------------------
Total Dipole Moment    :     -0.19575       0.62688      -0.06427
                        -----------------------------------------
Magnitude (a.u.)       :      0.65987
Magnitude (Debye)      :      1.67725

Rotational constants in cm-1:     0.298189     0.125314     0.096441
Rotational constants in MHz :  8939.495008  3756.825352  2891.223400

                             ****ORCA TERMINATED NORMALLY****
TOTAL RUN TIME: 0 days 0 hours 0 minutes 20 seconds 794 msec
