                         Program Version 5.0.0 -  RELEASE  -
|  1> !PBE0 D3BJ RIJCOSX def2-SVPD def2/J TightSCF
|  2> *xyz 0 1
|  3> C          4.93020       -7.37532       -2.64962
|  4> C          3.84189       -6.95161       -3.63283
|  5> H          3.45814       -5.95442       -3.40712
|  6> H          2.98848       -7.64361       -3.56708
|  7> S          4.31812       -6.91593       -5.36869
|  8> O          5.40615       -5.89948       -5.51297
|  9> O          3.11191       -6.44508       -6.04379
| 10> F          4.76340       -8.23942       -5.69863
| 11> H          5.27901       -8.35440       -2.90385
| 12> H          4.53000       -7.38577       -1.65734
| 13> H          5.74437       -6.68276       -2.69856
| 14> *
| 15>
| 16> %MaxCore 64000
| 17>
| 18> %pal nprocs 4
| 19> end
| 20>
| 21> %scf
| 22>   MaxIter 150
| 23> end
| 24>
| 25>
| 26>                          ****END OF INPUT****

CARTESIAN COORDINATES (ANGSTROEM)
---------------------------------
  C      4.930200   -7.375320   -2.649620
  C      3.841890   -6.951610   -3.632830
  H      3.458140   -5.954420   -3.407120
  H      2.988480   -7.643610   -3.567080
  S      4.318120   -6.915930   -5.368690
  O      5.406150   -5.899480   -5.512970
  O      3.111910   -6.445080   -6.043790
  F      4.763400   -8.239420   -5.698630
  H      5.279010   -8.354400   -2.903850
  H      4.530000   -7.385770   -1.657340
  H      5.744370   -6.682760   -2.698560

 Total Charge           Charge          ....    0
 Multiplicity           Mult            ....    1
 Number of Electrons    NEL             ....   58
 Basis Dimension        Dim             ....  176

ORBITAL ENERGIES
----------------

  NO   OCC          E(Eh)            E(eV)
   0   2.0000     -89.298730     -2429.9420
   1   2.0000     -24.909859      -677.8317
   2   2.0000     -19.227885      -523.2173
   3   2.0000     -19.220700      -523.0218
   4   2.0000     -10.303947      -280.3846
   5   2.0000     -10.259368      -279.1716
   6   2.0000      -8.259000      -224.7388
   7   2.0000      -6.205402      -168.8576
   8   2.0000      -6.198753      -168.6766
   9   2.0000      -6.197577      -168.6446
  10   2.0000      -1.418440       -38.5977
  11   2.0000      -1.127944       -30.6929
  12   2.0000      -1.021427       -27.7944
  13   2.0000      -0.849120       -23.1057
  14   2.0000      -0.761932       -20.7332
  15   2.0000      -0.703468       -19.1423
  16   2.0000      -0.623576       -16.9684
  17   2.0000      -0.614733       -16.7277
  18   2.0000      -0.570811       -15.5325
  19   2.0000      -0.512355       -13.9419
  20   2.0000      -0.499024       -13.5791
  21   2.0000      -0.471848       -12.8396
  22   2.0000      -0.451226       -12.2785
  23   2.0000      -0.426255       -11.5990
  24   2.0000      -0.414676       -11.2839
  25   2.0000      -0.392021       -10.6674
  26   2.0000      -0.345370        -9.3980
  27   2.0000      -0.338601        -9.2138
  28   2.0000      -0.316480        -8.6119
  29   0.0000      -0.004234        -0.1152
  30   0.0000       0.030732         0.8363
  31   0.0000       0.039720         1.0808
  32   0.0000       0.041873         1.1394
  33   0.0000       0.052961         1.4411

MULLIKEN ATOMIC CHARGES
-----------------------
   0 C :    0.600762
   1 C :   -0.528422
   2 H :    0.054077
   3 H :    0.110457
   4 S :    1.571683
   5 O :   -0.726393
   6 O :   -0.688091
   7 F :   -0.414991
   8 H :    0.001036
   9 H :   -0.001770
  10 H :    0.021651
Sum of atomic charges:    0.0000000

LOEWDIN ATOMIC CHARGES
----------------------
   0 C :    0.126832
   1 C :   -0.096178
   2 H :    0.037700
   3 H :    0.030308
   4 S :    1.132386
   5 O :   -0.485941
   6 O :   -0.476788
   7 F :   -0.255471
   8 H :   -0.008050
   9 H :   -0.002827
  10 H :   -0.001972

  Mayer bond orders larger than 0.100000
B(  0-C ,  1-C ) :   1.3059 B(  0-C ,  8-H ) :   0.8375 B(  0-C ,  9-H ) :   0.7801
B(  0-C , 10-H ) :   0.8573 B(  1-C ,  2-H ) :   1.0057 B(  1-C ,  3-H ) :   0.9657
B(  1-C ,  4-S ) :   1.0047 B(  1-C ,  8-H ) :   0.1689 B(  1-C ,  9-H ) :   0.1784
B(  1-C , 10-H ) :   0.1689 B(  4-S ,  5-O ) :   1.4572 B(  4-S ,  6-O ) :   1.5137
B(  4-S ,  7-F ) :   0.6401

Dispersion correction           -0.007814948
FINAL SINGLE POINT ENERGY      -726.787268471651

DIPOLE MOMENT
-------------
                                X             Y             Z
Electronic contribution:      0.19558      -1.31906      -9.02393
Nuclear contribution   :     -0.31946       0.18980      10.55057
                        -----------------------------------------
Total Dipole Moment    :     -0.12387      -1.12926       1.52664
                        -----------------------------------------
Magnitude (a.u.)       :      1.90295
Magnitude (Debye)      :      4.83690

Rotational constants in cm-1:     0.151421     0.081183     0.078684
Rotational constants in MHz :  4539.489207  2433.790160  2358.892966

                             ****ORCA TERMINATED NORMALLY****
TOTAL RUN TIME: 0 days 0 hours 0 minutes 21 seconds 326 msec
