                         Program Version 5.0.0 -  RELEASE  -
|  1> !PBE0 D3BJ RIJCOSX def2-SVPD def2/J TightSCF xyzfile
|  2>
|  3> *xyzfile 0 1 D2.xyz
|  4>
|  5> %MaxCore 64000
|  6>
|  7> %pal nprocs 4
|  8> end
|  9>
| 10> %scf
| 11>   MaxIter 150
| 12> end
| 13>
| 14>
| 15>                          ****END OF INPUT****

CARTESIAN COORDINATES (ANGSTROEM)
---------------------------------
  C      5.558206   -1.992914   -6.215054
  C      4.930199   -7.375319   -2.649623
  C      3.841892   -6.951611   -3.632829
  H      3.458144   -5.954425   -3.407121
  H      2.988484   -7.643606   -3.567078
  S      4.318115   -6.915930   -5.368692
  C      4.181880   -2.589671   -6.298911
  N      3.145873   -1.768431   -6.486753
  C      4.019102   -3.864307   -6.227427
  H      4.768490   -4.591153   -5.990773
  H      3.122405   -4.333392   -6.314620
  H      3.281635   -0.777786   -6.566549
  H      2.212549   -2.134193   -6.562246
  F      5.406154   -5.899480   -5.512972
  O      3.111910   -6.445079   -6.043792
  C      6.419260   -2.542944   -5.077630
  C      5.872267   -5.002756   -2.427819
  C      6.173994   -6.485522   -2.606315
  H      6.734852   -6.613767   -3.534015
  H      6.821463   -6.831018   -1.793617
  H      4.469612   -7.406168   -1.655876
  H      5.230134   -8.398678   -2.885906
  C      5.896512   -2.169314   -3.694552
  H      7.428880   -2.143665   -5.208078
  H      6.505894   -3.627541   -5.175502
  C      6.807804   -2.623428   -2.551019
  H      4.894708   -2.589732   -3.557501
  H      5.778823   -1.081255   -3.635790
  C      7.111544   -4.122463   -2.520363
  H      7.751615   -2.071393   -2.614406
  H      6.345837   -2.326401   -1.604086
  H      5.362882   -4.828697   -1.471335
  H      5.174429   -4.702577   -3.211298
  H      7.778329   -4.329347   -1.677651
  H      7.673189   -4.402845   -3.417586
  O      4.763396   -8.239424   -5.698629
  H      6.036826   -2.198189   -7.176852
  H      5.467610   -0.907371   -6.127968

 Total Charge           Charge          ....    0
 Multiplicity           Mult            ....    1
 Number of Electrons    NEL             ....  136
 Basis Dimension        Dim             ....  512

ORBITAL ENERGIES
----------------

  NO   OCC          E(Eh)            E(eV)
   0   2.0000     -89.293987     -2429.8129
   1   2.0000     -24.882148      -677.0777
   2   2.0000     -19.234303      -523.3920
   3   2.0000     -19.221984      -523.0568
   4   2.0000     -14.388312      -391.5259
   5   2.0000     -10.294111      -280.1170
   6   2.0000     -10.260497      -279.2023
   7   2.0000     -10.244971      -278.7798
   8   2.0000     -10.243247      -278.7329
   9   2.0000     -10.236888      -278.5599
  10   2.0000     -10.232341      -278.4362
  11   2.0000     -10.229267      -278.3525
  12   2.0000     -10.228960      -278.3442
  13   2.0000     -10.228381      -278.3284
  14   2.0000     -10.224761      -278.2299
  15   2.0000     -10.146490      -276.1000
  16   2.0000      -8.252709      -224.5676
  17   2.0000      -6.198978      -168.6828
  18   2.0000      -6.192828      -168.5154
  19   2.0000      -6.191571      -168.4812
  20   2.0000      -1.373560       -37.3765
  21   2.0000      -1.142718       -31.0949
  22   2.0000      -1.044606       -28.4252
  23   2.0000      -0.935585       -25.4586
  24   2.0000      -0.860835       -23.4245
  25   2.0000      -0.833977       -22.6937
  26   2.0000      -0.804868       -21.9016
  27   2.0000      -0.777049       -21.1446
  28   2.0000      -0.740923       -20.1615
  29   2.0000      -0.730518       -19.8784
  30   2.0000      -0.702876       -19.1262
  31   2.0000      -0.675488       -18.3810
  32   2.0000      -0.639201       -17.3936
  33   2.0000      -0.621526       -16.9126
  34   2.0000      -0.609664       -16.5898
  35   2.0000      -0.584474       -15.9043
  36   2.0000      -0.578008       -15.7284
  37   2.0000      -0.564339       -15.3565
  38   2.0000      -0.555351       -15.1119
  39   2.0000      -0.530280       -14.4296
  40   2.0000      -0.511339       -13.9142
  41   2.0000      -0.507902       -13.8207
  42   2.0000      -0.500697       -13.6247
  43   2.0000      -0.488135       -13.2828
  44   2.0000      -0.473800       -12.8927
  45   2.0000      -0.471554       -12.8316
  46   2.0000      -0.466087       -12.6829
  47   2.0000      -0.449154       -12.2221
  48   2.0000      -0.433843       -11.8055
  49   2.0000      -0.428504       -11.6602
  50   2.0000      -0.422814       -11.5054
  51   2.0000      -0.415387       -11.3032
  52   2.0000      -0.393503       -10.7078
  53   2.0000      -0.388057       -10.5596
  54   2.0000      -0.381214       -10.3734
  55   2.0000      -0.375457       -10.2167
  56   2.0000      -0.364672        -9.9232
  57   2.0000      -0.361674        -9.8416
  58   2.0000      -0.356775        -9.7083
  59   2.0000      -0.350342        -9.5333
  60   2.0000      -0.343380        -9.3438
  61   2.0000      -0.342083        -9.3086
  62   2.0000      -0.335622        -9.1327
  63   2.0000      -0.329883        -8.9766
  64   2.0000      -0.325427        -8.8553
  65   2.0000      -0.320565        -8.7230
  66   2.0000      -0.317224        -8.6321
  67   2.0000      -0.195400        -5.3171
  68   0.0000       0.005245         0.1427
  69   0.0000       0.024071         0.6550
  70   0.0000       0.028293         0.7699
  71   0.0000       0.030174         0.8211
  72   0.0000       0.041176         1.1205

MULLIKEN ATOMIC CHARGES
-----------------------
   0 C :    0.659111
   1 C :    0.392119
   2 C :   -0.182719
   3 H :    0.337751
   4 H :   -0.146602
   5 S :    1.647175
   6 C :    0.323417
   7 N :   -0.022182
   8 C :    1.007854
   9 H :   -0.112193
  10 H :   -0.961593
  11 H :   -0.138527
  12 H :   -0.188079
  13 F :   -0.619259
  14 O :   -0.753468
  15 C :    0.042404
  16 C :   -0.156479
  17 C :    0.022112
  18 H :    0.113502
  19 H :   -0.238412
  20 H :    0.127041
  21 H :    0.067107
  22 C :   -0.248947
  23 H :   -0.078592
  24 H :   -0.380757
  25 C :    0.506187
  26 H :    0.253595
  27 H :   -0.255968
  28 C :   -0.030265
  29 H :    0.086204
  30 H :    0.017206
  31 H :    0.046729
  32 H :   -0.215996
  33 H :   -0.243311
  34 H :    0.144141
  35 O :   -0.838828
  36 H :   -0.064668
  37 H :    0.083189
Sum of atomic charges:    0.0000000

LOEWDIN ATOMIC CHARGES
----------------------
   0 C :    0.012085
   1 C :   -0.034076
   2 C :   -0.039423
   3 H :    0.020028
   4 H :    0.044643
   5 S :    1.145839
   6 C :   -0.233910
   7 N :    0.173691
   8 C :    0.177447
   9 H :   -0.121224
  10 H :   -0.094107
  11 H :   -0.015161
  12 H :    0.003169
  13 F :   -0.293609
  14 O :   -0.456359
  15 C :   -0.026643
  16 C :   -0.037670
  17 C :   -0.033391
  18 H :    0.018100
  19 H :    0.033758
  20 H :    0.037304
  21 H :    0.032029
  22 C :   -0.035103
  23 H :    0.030542
  24 H :   -0.003275
  25 C :   -0.035346
  26 H :    0.015921
  27 H :    0.025431
  28 C :   -0.036991
  29 H :    0.023890
  30 H :    0.023511
  31 H :    0.041751
  32 H :   -0.012250
  33 H :    0.026513
  34 H :    0.019439
  35 O :   -0.446384
  36 H :    0.033848
  37 H :    0.015985

  Mayer bond orders larger than 0.100000
B(  0-C ,  6-C ) :   0.9151 B(  0-C ,  8-C ) :   0.1257 B(  0-C , 15-C ) :   1.2607
B(  0-C , 24-H ) :   0.1055 B(  0-C , 36-H ) :   0.6323 B(  0-C , 37-H ) :   0.7235
B(  1-C ,  2-C ) :   1.2493 B(  1-C ,  4-H ) :   0.1490 B(  1-C , 17-C ) :   1.2543
B(  1-C , 20-H ) :   0.7252 B(  1-C , 21-H ) :   0.7122 B(  2-C ,  3-H ) :   0.7873
B(  2-C ,  4-H ) :   0.8864 B(  2-C ,  5-S ) :   1.0368 B(  2-C , 20-H ) :   0.1517
B(  2-C , 21-H ) :   0.1202 B(  2-C , 35-O ) :   0.1349 B(  4-H ,  5-S ) :   0.1102
B(  5-S , 13-F ) :   0.5305 B(  5-S , 14-O ) :   1.4746 B(  5-S , 35-O ) :   1.3854
B(  6-C ,  7-N ) :   0.7147 B(  6-C ,  8-C ) :   1.8151 B(  6-C , 12-H ) :  -0.1819
B(  6-C , 36-H ) :   0.2220 B(  7-N ,  8-C ) :   0.4928 B(  7-N , 10-H ) :  -0.1072
B(  7-N , 11-H ) :   1.1668 B(  7-N , 12-H ) :   1.3502 B(  8-C ,  9-H ) :   0.4055
B(  8-C , 13-F ) :   0.1125 B(  8-C , 14-O ) :  -0.2640 B(  8-C , 24-H ) :   0.1175
B(  9-H , 10-H ) :  -0.1093 B(  9-H , 13-F ) :  -0.1305 B(  9-H , 14-O ) :   0.1209
B(  9-H , 24-H ) :   0.1422 B( 10-H , 14-O ) :   0.2714 B( 10-H , 24-H ) :  -0.1022
B( 11-H , 12-H ) :  -0.1586 B( 13-F , 24-H ) :   0.1152 B( 13-F , 35-O ) :   0.1239
B( 15-C , 22-C ) :   1.2397 B( 15-C , 23-H ) :   0.8218 B( 15-C , 24-H ) :   0.8420
B( 15-C , 26-H ) :   0.1080 B( 15-C , 27-H ) :   0.1673 B( 15-C , 36-H ) :   0.2757
B( 15-C , 37-H ) :   0.1366 B( 16-C , 17-C ) :   1.2099 B( 16-C , 18-H ) :   0.1038
B( 16-C , 19-H ) :   0.1696 B( 16-C , 28-C ) :   1.2287 B( 16-C , 31-H ) :   0.8111
B( 16-C , 32-H ) :   1.0522 B( 16-C , 33-H ) :   0.1948 B( 16-C , 34-H ) :   0.1212
B( 17-C , 18-H ) :   0.8780 B( 17-C , 19-H ) :   0.9381 B( 17-C , 20-H ) :   0.1043
B( 17-C , 21-H ) :   0.2139 B( 17-C , 31-H ) :   0.1001 B( 22-C , 23-H ) :   0.1549
B( 22-C , 24-H ) :   0.1434 B( 22-C , 25-C ) :   1.1146 B( 22-C , 26-H ) :   0.8007
B( 22-C , 27-H ) :   1.1220 B( 22-C , 29-H ) :   0.1523 B( 22-C , 30-H ) :   0.2075
B( 25-C , 28-C ) :   1.1567 B( 25-C , 29-H ) :   0.6974 B( 25-C , 30-H ) :   0.7378
B( 26-H , 32-H ) :   0.1345 B( 28-C , 29-H ) :   0.1894 B( 28-C , 30-H ) :   0.1241
B( 28-C , 31-H ) :   0.1048 B( 28-C , 33-H ) :   1.0220 B( 28-C , 34-H ) :   0.8346
B( 31-H , 32-H ) :   0.1085

Dispersion correction           -0.040519837
FINAL SINGLE POINT ENERGY     -1133.982951752416

DIPOLE MOMENT
-------------
                                X             Y             Z
Electronic contribution:     -7.74734     -16.93999     -13.58599
Nuclear contribution   :      7.91684      17.85507      15.13212
                        -----------------------------------------
Total Dipole Moment    :      0.16950       0.91508       1.54612
                        -----------------------------------------
Magnitude (a.u.)       :      1.80460
Magnitude (Debye)      :      4.58694

Rotational constants in cm-1:     0.018015     0.012410     0.008313
Rotational constants in MHz :   540.084467   372.038374   249.228144

                             ****ORCA TERMINATED NORMALLY****
TOTAL RUN TIME: 0 days 0 hours 4 minutes 0 seconds 964 msec
