                         Program Version 5.0.0 -  RELEASE  -
|  1> !PBE0 D3BJ RIJCOSX def2-SVPD def2/J TightSCF xyzfile
|  2>
|  3> *xyzfile 0 1 D4.xyz
|  4>
|  5> %MaxCore 64000
|  6>
|  7> %pal nprocs 4
|  8> end
|  9>
| 10> %scf
| 11>   MaxIter 150
| 12> end
| 13>
| 14>
| 15>                          ****END OF INPUT****

CARTESIAN COORDINATES (ANGSTROEM)
---------------------------------
  C      5.558206   -1.992914   -6.215054
  C      4.930199   -7.375319   -2.649623
  C      3.841892   -6.951611   -3.632829
  H      3.458144   -5.954425   -3.407121
  H      2.988484   -7.643606   -3.567078
  S      4.318115   -6.915930   -5.368692
  C      4.181880   -2.589671   -6.298911
  N      3.145873   -1.768431   -6.486753
  C      4.019102   -3.864307   -6.227427
  H      4.768490   -4.591153   -5.990773
  H      3.122405   -4.333392   -6.314620
  H      3.281635   -0.777786   -6.566549
  H      2.212549   -2.134193   -6.562246
  O      5.406154   -5.899480   -5.512972
  F      3.111910   -6.445079   -6.043792
  C      6.419260   -2.542944   -5.077630
  C      5.872267   -5.002756   -2.427819
  C      6.173994   -6.485522   -2.606315
  H      6.734852   -6.613767   -3.534015
  H      6.821463   -6.831018   -1.793617
  H      4.469612   -7.406168   -1.655876
  H      5.230134   -8.398678   -2.885906
  C      5.896512   -2.169314   -3.694552
  H      7.428880   -2.143665   -5.208078
  H      6.505894   -3.627541   -5.175502
  C      6.807804   -2.623428   -2.551019
  H      4.894708   -2.589732   -3.557501
  H      5.778823   -1.081255   -3.635790
  C      7.111544   -4.122463   -2.520363
  H      7.751615   -2.071393   -2.614406
  H      6.345837   -2.326401   -1.604086
  H      5.362882   -4.828697   -1.471335
  H      5.174429   -4.702577   -3.211298
  H      7.778329   -4.329347   -1.677651
  H      7.673189   -4.402845   -3.417586
  O      4.763396   -8.239424   -5.698629
  H      6.036826   -2.198189   -7.176852
  H      5.467610   -0.907371   -6.127968

 Total Charge           Charge          ....    0
 Multiplicity           Mult            ....    1
 Number of Electrons    NEL             ....  136
 Basis Dimension        Dim             ....  512

ORBITAL ENERGIES
----------------

  NO   OCC          E(Eh)            E(eV)
   0   2.0000     -89.301829     -2430.0263
   1   2.0000     -24.895531      -677.4418
   2   2.0000     -19.238508      -523.5064
   3   2.0000     -19.222445      -523.0693
   4   2.0000     -14.384013      -391.4089
   5   2.0000     -10.298483      -280.2360
   6   2.0000     -10.261834      -279.2387
   7   2.0000     -10.237280      -278.5706
   8   2.0000     -10.232687      -278.4456
   9   2.0000     -10.224613      -278.2259
  10   2.0000     -10.221291      -278.1355
  11   2.0000     -10.220826      -278.1228
  12   2.0000     -10.220215      -278.1062
  13   2.0000     -10.215745      -277.9846
  14   2.0000     -10.215455      -277.9766
  15   2.0000     -10.136285      -275.8223
  16   2.0000      -8.260386      -224.7765
  17   2.0000      -6.206492      -168.8872
  18   2.0000      -6.200717      -168.7301
  19   2.0000      -6.199177      -168.6882
  20   2.0000      -1.395352       -37.9695
  21   2.0000      -1.142368       -31.0854
  22   2.0000      -1.038774       -28.2665
  23   2.0000      -0.930952       -25.3325
  24   2.0000      -0.857525       -23.3344
  25   2.0000      -0.825996       -22.4765
  26   2.0000      -0.798950       -21.7405
  27   2.0000      -0.774975       -21.0881
  28   2.0000      -0.742653       -20.2086
  29   2.0000      -0.723012       -19.6742
  30   2.0000      -0.698068       -18.9954
  31   2.0000      -0.667714       -18.1694
  32   2.0000      -0.634505       -17.2658
  33   2.0000      -0.615368       -16.7450
  34   2.0000      -0.604796       -16.4573
  35   2.0000      -0.588268       -16.0076
  36   2.0000      -0.581144       -15.8137
  37   2.0000      -0.566652       -15.4194
  38   2.0000      -0.553477       -15.0609
  39   2.0000      -0.529378       -14.4051
  40   2.0000      -0.512564       -13.9476
  41   2.0000      -0.509757       -13.8712
  42   2.0000      -0.493932       -13.4406
  43   2.0000      -0.484183       -13.1753
  44   2.0000      -0.473855       -12.8942
  45   2.0000      -0.464499       -12.6397
  46   2.0000      -0.459217       -12.4959
  47   2.0000      -0.440395       -11.9838
  48   2.0000      -0.429917       -11.6986
  49   2.0000      -0.423773       -11.5314
  50   2.0000      -0.421805       -11.4779
  51   2.0000      -0.407839       -11.0979
  52   2.0000      -0.401324       -10.9206
  53   2.0000      -0.383945       -10.4477
  54   2.0000      -0.378315       -10.2945
  55   2.0000      -0.371332       -10.1045
  56   2.0000      -0.363654        -9.8955
  57   2.0000      -0.355631        -9.6772
  58   2.0000      -0.352665        -9.5965
  59   2.0000      -0.348150        -9.4736
  60   2.0000      -0.335937        -9.1413
  61   2.0000      -0.334838        -9.1114
  62   2.0000      -0.332913        -9.0590
  63   2.0000      -0.319657        -8.6983
  64   2.0000      -0.314602        -8.5608
  65   2.0000      -0.311239        -8.4692
  66   2.0000      -0.282855        -7.6969
  67   2.0000      -0.189603        -5.1594
  68   0.0000       0.007296         0.1985
  69   0.0000       0.019702         0.5361
  70   0.0000       0.029943         0.8148
  71   0.0000       0.034113         0.9283
  72   0.0000       0.041836         1.1384

MULLIKEN ATOMIC CHARGES
-----------------------
   0 C :    0.651994
   1 C :    0.349614
   2 C :   -0.251428
   3 H :    0.334434
   4 H :   -0.100964
   5 S :    1.717910
   6 C :    0.320861
   7 N :   -0.019608
   8 C :    0.805996
   9 H :    0.069010
  10 H :   -0.987079
  11 H :   -0.140754
  12 H :   -0.192943
  13 O :   -0.902127
  14 F :   -0.491761
  15 C :    0.081186
  16 C :   -0.206262
  17 C :    0.060793
  18 H :    0.154908
  19 H :   -0.256611
  20 H :    0.122690
  21 H :    0.077832
  22 C :   -0.243774
  23 H :   -0.064226
  24 H :   -0.419272
  25 C :    0.509391
  26 H :    0.261836
  27 H :   -0.261961
  28 C :   -0.049277
  29 H :    0.086496
  30 H :    0.012697
  31 H :    0.049454
  32 H :   -0.159650
  33 H :   -0.246010
  34 H :    0.155507
  35 O :   -0.842173
  36 H :   -0.069678
  37 H :    0.082947
Sum of atomic charges:   -0.0000000

LOEWDIN ATOMIC CHARGES
----------------------
   0 C :    0.012917
   1 C :   -0.020260
   2 C :   -0.049477
   3 H :    0.018890
   4 H :    0.031514
   5 S :    1.176901
   6 C :   -0.234925
   7 N :    0.168279
   8 C :    0.167867
   9 H :   -0.160608
  10 H :   -0.093768
  11 H :   -0.016990
  12 H :   -0.001290
  13 O :   -0.461679
  14 F :   -0.259662
  15 C :   -0.020874
  16 C :   -0.036603
  17 C :   -0.029517
  18 H :    0.018851
  19 H :    0.031918
  20 H :    0.039812
  21 H :    0.033666
  22 C :   -0.035944
  23 H :    0.029793
  24 H :    0.000614
  25 C :   -0.036563
  26 H :    0.015057
  27 H :    0.023279
  28 C :   -0.034655
  29 H :    0.022848
  30 H :    0.021769
  31 H :    0.038120
  32 H :   -0.010911
  33 H :    0.024864
  34 H :    0.022798
  35 O :   -0.444499
  36 H :    0.034127
  37 H :    0.014341

  Mayer bond orders larger than 0.100000
B(  0-C ,  6-C ) :   0.9179 B(  0-C ,  8-C ) :   0.1392 B(  0-C , 15-C ) :   1.2565
B(  0-C , 24-H ) :   0.1101 B(  0-C , 36-H ) :   0.6244 B(  0-C , 37-H ) :   0.7277
B(  1-C ,  2-C ) :   1.2981 B(  1-C ,  4-H ) :   0.1559 B(  1-C , 17-C ) :   1.2510
B(  1-C , 20-H ) :   0.7315 B(  1-C , 21-H ) :   0.7029 B(  2-C ,  3-H ) :   0.7499
B(  2-C ,  4-H ) :   0.9142 B(  2-C ,  5-S ) :   1.0173 B(  2-C , 20-H ) :   0.1625
B(  2-C , 21-H ) :   0.1135 B(  2-C , 35-O ) :   0.1469 B(  5-S , 13-O ) :   1.2353
B(  5-S , 14-F ) :   0.5707 B(  5-S , 35-O ) :   1.3852 B(  6-C ,  7-N ) :   0.7112
B(  6-C ,  8-C ) :   1.8937 B(  6-C ,  9-H ) :  -0.1036 B(  6-C , 12-H ) :  -0.1788
B(  6-C , 36-H ) :   0.2397 B(  7-N ,  8-C ) :   0.5036 B(  7-N , 10-H ) :  -0.1035
B(  7-N , 11-H ) :   1.1726 B(  7-N , 12-H ) :   1.3478 B(  8-C ,  9-H ) :   0.5177
B(  8-C , 14-F ) :  -0.1527 B(  8-C , 24-H ) :   0.1510 B(  9-H , 10-H ) :  -0.1837
B(  9-H , 13-O ) :  -0.1201 B(  9-H , 14-F ) :   0.1247 B(  9-H , 24-H ) :   0.1228
B( 10-H , 14-F ) :   0.2199 B( 10-H , 24-H ) :  -0.1042 B( 11-H , 12-H ) :  -0.1586
B( 13-O , 24-H ) :   0.1644 B( 13-O , 35-O ) :   0.1680 B( 15-C , 22-C ) :   1.2404
B( 15-C , 23-H ) :   0.7994 B( 15-C , 24-H ) :   0.7983 B( 15-C , 26-H ) :   0.1126
B( 15-C , 27-H ) :   0.1822 B( 15-C , 36-H ) :   0.2801 B( 15-C , 37-H ) :   0.1464
B( 16-C , 17-C ) :   1.2089 B( 16-C , 18-H ) :   0.1066 B( 16-C , 19-H ) :   0.1603
B( 16-C , 28-C ) :   1.2423 B( 16-C , 31-H ) :   0.8151 B( 16-C , 32-H ) :   1.0381
B( 16-C , 33-H ) :   0.1954 B( 16-C , 34-H ) :   0.1301 B( 17-C , 18-H ) :   0.8499
B( 17-C , 19-H ) :   0.9399 B( 17-C , 20-H ) :   0.1064 B( 17-C , 21-H ) :   0.2185
B( 17-C , 28-C ) :   0.1057 B( 22-C , 23-H ) :   0.1565 B( 22-C , 24-H ) :   0.1479
B( 22-C , 25-C ) :   1.1100 B( 22-C , 26-H ) :   0.7909 B( 22-C , 27-H ) :   1.1293
B( 22-C , 29-H ) :   0.1538 B( 22-C , 30-H ) :   0.2069 B( 25-C , 28-C ) :   1.1554
B( 25-C , 29-H ) :   0.6972 B( 25-C , 30-H ) :   0.7349 B( 26-H , 32-H ) :   0.1338
B( 28-C , 29-H ) :   0.1877 B( 28-C , 30-H ) :   0.1272 B( 28-C , 31-H ) :   0.1079
B( 28-C , 33-H ) :   1.0250 B( 28-C , 34-H ) :   0.8255 B( 31-H , 32-H ) :   0.1187
B( 36-H , 37-H ) :  -0.1001

Dispersion correction           -0.040812854
FINAL SINGLE POINT ENERGY     -1133.974852562038

DIPOLE MOMENT
-------------
                                X             Y             Z
Electronic contribution:    -11.70623     -18.14459     -14.60718
Nuclear contribution   :     10.61624      18.49702      15.75668
                        -----------------------------------------
Total Dipole Moment    :     -1.08999       0.35243       1.14950
                        -----------------------------------------
Magnitude (a.u.)       :      1.62285
Magnitude (Debye)      :      4.12495

Rotational constants in cm-1:     0.017796     0.012372     0.008231
Rotational constants in MHz :   533.524905   370.895973   246.762347

                             ****ORCA TERMINATED NORMALLY****
TOTAL RUN TIME: 0 days 0 hours 4 minutes 29 seconds 452 msec
