                         Program Version 5.0.0 -  RELEASE  -
|  1> !CAM-B3LYP RIJCOSX def2-SVPD def2/J TightSCF
|  2> *xyz -1 1
|  3> C          0.13297        2.38587       -4.02462
|  4> C         -1.36646        2.47911       -4.31393
|  5> C         -2.35773        2.30686       -3.13675
|  6> H         -1.63680        1.72709       -5.06399
|  7> H         -1.58235        3.44561       -4.76869
|  8> O         -3.44376        2.84652       -3.25274
|  9> O         -1.97092        1.58304       -2.15123
| 10> H          0.68084        2.52514       -4.93310
| 11> H          0.35823        1.42282       -3.61633
| 12> H          0.40851        3.14443       -3.32208
| 13> *
| 14> %MaxCore 64000
| 15>
| 16> %pal nprocs 4
| 17> end
| 18>
| 19> %scf
| 20>   MaxIter 150
| 21> end
| 22>
| 23>
| 24>                          ****END OF INPUT****

CARTESIAN COORDINATES (ANGSTROEM)
---------------------------------
  C      0.132970    2.385870   -4.024620
  C     -1.366460    2.479110   -4.313930
  C     -2.357730    2.306860   -3.136750
  H     -1.636800    1.727090   -5.063990
  H     -1.582350    3.445610   -4.768690
  O     -3.443760    2.846520   -3.252740
  O     -1.970920    1.583040   -2.151230
  H      0.680840    2.525140   -4.933100
  H      0.358230    1.422820   -3.616330
  H      0.408510    3.144430   -3.322080

 Total Charge           Charge          ....   -1
 Multiplicity           Mult            ....    1
 Number of Electrons    NEL             ....   40
 Basis Dimension        Dim             ....  146

ORBITAL ENERGIES
----------------

  NO   OCC          E(Eh)            E(eV)
   0   2.0000     -18.958864      -515.8969
   1   2.0000     -18.948106      -515.6042
   2   2.0000     -10.149811      -276.1904
   3   2.0000     -10.095401      -274.7098
   4   2.0000     -10.086209      -274.4597
   5   2.0000      -0.903100       -24.5746
   6   2.0000      -0.800101       -21.7719
   7   2.0000      -0.680821       -18.5261
   8   2.0000      -0.547744       -14.9049
   9   2.0000      -0.387448       -10.5430
  10   2.0000      -0.366406        -9.9704
  11   2.0000      -0.330944        -9.0054
  12   2.0000      -0.301072        -8.1926
  13   2.0000      -0.286675        -7.8008
  14   2.0000      -0.280349        -7.6287
  15   2.0000      -0.249223        -6.7817
  16   2.0000      -0.231451        -6.2981
  17   2.0000      -0.116261        -3.1636
  18   2.0000      -0.110779        -3.0145
  19   2.0000      -0.098985        -2.6935
  20   0.0000       0.181919         4.9503
  21   0.0000       0.218487         5.9453
  22   0.0000       0.230418         6.2700
  23   0.0000       0.245835         6.6895
  24   0.0000       0.271698         7.3933

MULLIKEN ATOMIC CHARGES
-----------------------
   0 C :    0.860722
   1 C :   -0.273030
   2 C :    0.372986
   3 H :   -0.090071
   4 H :   -0.103433
   5 O :   -0.608670
   6 O :   -0.739668
   7 H :   -0.156275
   8 H :   -0.122733
   9 H :   -0.139828
Sum of atomic charges:   -1.0000000

LOEWDIN ATOMIC CHARGES
----------------------
   0 C :    0.092642
   1 C :   -0.037916
   2 C :   -0.312265
   3 H :    0.010450
   4 H :   -0.003136
   5 O :   -0.303860
   6 O :   -0.344717
   7 H :   -0.044828
   8 H :   -0.030225
   9 H :   -0.026145

  Mayer bond orders larger than 0.100000
B(  0-C ,  1-C ) :   1.2622 B(  0-C ,  4-H ) :   0.1011 B(  0-C ,  7-H ) :   0.7179
B(  0-C ,  8-H ) :   0.7828 B(  0-C ,  9-H ) :   0.7860 B(  1-C ,  2-C ) :   1.0129
B(  1-C ,  3-H ) :   0.8980 B(  1-C ,  4-H ) :   0.9176 B(  1-C ,  7-H ) :   0.2584
B(  1-C ,  8-H ) :   0.2311 B(  1-C ,  9-H ) :   0.2107 B(  2-C ,  4-H ) :   0.1729
B(  2-C ,  5-O ) :   1.5692 B(  2-C ,  6-O ) :   1.4760

FINAL SINGLE POINT ENERGY      -267.544071822487

DIPOLE MOMENT
-------------
                                X             Y             Z
Electronic contribution:     -5.20848      -0.35789       3.14467
Nuclear contribution   :      6.75610       0.63068      -4.53972
                        -----------------------------------------
Total Dipole Moment    :      1.54761       0.27279      -1.39505
                        -----------------------------------------
Magnitude (a.u.)       :      2.10136
Magnitude (Debye)      :      5.34122

Rotational constants in cm-1:     0.335096     0.130241     0.099025
Rotational constants in MHz : 10045.924902  3904.536250  2968.708333

                             ****ORCA TERMINATED NORMALLY****
TOTAL RUN TIME: 0 days 0 hours 0 minutes 20 seconds 881 msec
