                         Program Version 5.0.0 -  RELEASE  -
|  1> !CAM-B3LYP RIJCOSX def2-SVPD def2/J TightSCF
|  2> *xyz 1 1
|  3> C          0.64866        1.00359       -3.64560
|  4> N          0.28128        0.67645       -2.24018
|  5> C          0.13297        2.38587       -4.02462
|  6> H          0.39079       -0.31925       -2.02649
|  7> H         -0.69269        0.99010       -2.13812
|  8> H          0.85421        1.21221       -1.57528
|  9> H          0.19099        0.23965       -4.27575
| 10> H          1.73157        0.93173       -3.75075
| 11> H          0.40589        2.60338       -5.03610
| 12> H          0.56342        3.11797       -3.37374
| 13> H         -0.93265        2.40724       -3.93025
| 14> *
| 15> %MaxCore 64000
| 16>
| 17> %pal nprocs 4
| 18> end
| 19>
| 20> %scf
| 21>   MaxIter 150
| 22> end
| 23>
| 24>
| 25>                          ****END OF INPUT****

CARTESIAN COORDINATES (ANGSTROEM)
---------------------------------
  C      0.648660    1.003590   -3.645600
  N      0.281280    0.676450   -2.240180
  C      0.132970    2.385870   -4.024620
  H      0.390790   -0.319250   -2.026490
  H     -0.692690    0.990100   -2.138120
  H      0.854210    1.212210   -1.575280
  H      0.190990    0.239650   -4.275750
  H      1.731570    0.931730   -3.750750
  H      0.405890    2.603380   -5.036100
  H      0.563420    3.117970   -3.373740
  H     -0.932650    2.407240   -3.930250

 Total Charge           Charge          ....    1
 Multiplicity           Mult            ....    1
 Number of Electrons    NEL             ....   26
 Basis Dimension        Dim             ....  124

ORBITAL ENERGIES
----------------

  NO   OCC          E(Eh)            E(eV)
   0   2.0000     -14.741437      -401.1349
   1   2.0000     -10.514357      -286.1102
   2   2.0000     -10.437666      -284.0233
   3   2.0000      -1.292678       -35.1755
   4   2.0000      -1.042913       -28.3791
   5   2.0000      -0.920170       -25.0391
   6   2.0000      -0.874738       -23.8028
   7   2.0000      -0.866894       -23.5894
   8   2.0000      -0.765926       -20.8419
   9   2.0000      -0.713520       -19.4159
  10   2.0000      -0.653401       -17.7799
  11   2.0000      -0.639200       -17.3935
  12   2.0000      -0.620568       -16.8865
  13   0.0000      -0.158068        -4.3012
  14   0.0000      -0.096976        -2.6389
  15   0.0000      -0.093951        -2.5565
  16   0.0000      -0.090403        -2.4600
  17   0.0000      -0.056365        -1.5338

MULLIKEN ATOMIC CHARGES
-----------------------
   0 C :    0.349545
   1 N :   -0.709905
   2 C :    0.789606
   3 H :    0.313073
   4 H :    0.417958
   5 H :    0.362409
   6 H :   -0.128748
   7 H :   -0.163378
   8 H :   -0.101241
   9 H :   -0.045853
  10 H :   -0.083467
Sum of atomic charges:    1.0000000

LOEWDIN ATOMIC CHARGES
----------------------
   0 C :    0.049818
   1 N :    0.331565
   2 C :    0.172918
   3 H :    0.108552
   4 H :    0.100801
   5 H :    0.110769
   6 H :    0.053936
   7 H :    0.053451
   8 H :    0.016174
   9 H :    0.002188
  10 H :   -0.000171

  Mayer bond orders larger than 0.100000
B(  0-C ,  1-N ) :   0.7987 B(  0-C ,  2-C ) :   1.2907 B(  0-C ,  6-H ) :   0.8965
B(  0-C ,  7-H ) :   0.9181 B(  0-C ,  8-H ) :   0.2010 B(  0-C ,  9-H ) :   0.1487
B(  0-C , 10-H ) :   0.1644 B(  1-N ,  3-H ) :   0.8185 B(  1-N ,  4-H ) :   0.6911
B(  1-N ,  5-H ) :   0.7930 B(  1-N ,  7-H ) :   0.1055 B(  2-C ,  8-H ) :   0.8043
B(  2-C ,  9-H ) :   0.7994 B(  2-C , 10-H ) :   0.8139

FINAL SINGLE POINT ENERGY      -135.361666768720

DIPOLE MOMENT
-------------
                                X             Y             Z
Electronic contribution:      0.17118      -1.30838       1.32648
Nuclear contribution   :     -0.22655       0.48066      -0.09136
                        -----------------------------------------
Total Dipole Moment    :     -0.05537      -0.82772       1.23512
                        -----------------------------------------
Magnitude (a.u.)       :      1.48785
Magnitude (Debye)      :      3.78182

Rotational constants in cm-1:     0.998155     0.284845     0.251232
Rotational constants in MHz : 29923.943568  8539.431565  7531.732866

                             ****ORCA TERMINATED NORMALLY****
TOTAL RUN TIME: 0 days 0 hours 0 minutes 16 seconds 108 msec
