                         Program Version 5.0.0 -  RELEASE  -
|  1> !CAM-B3LYP RIJCOSX def2-SVPD def2/J TightSCF xyzfile
|  2>
|  3> *xyzfile 0 1 B.xyz
|  4>
|  5> %MaxCore 64000
|  6>
|  7> %pal nprocs 4
|  8> end
|  9>
| 10> %scf
| 11>   MaxIter 150
| 12> end
| 13>
| 14>
| 15>                          ****END OF INPUT****

CARTESIAN COORDINATES (ANGSTROEM)
---------------------------------
  C      0.648656    1.003595   -3.645601
  N      0.281280    0.676454   -2.240179
  C      0.132968    2.385869   -4.024618
  C     -1.366462    2.479106   -4.313932
  C     -2.357732    2.306858   -3.136753
  H     -1.636802    1.727095   -5.063993
  H     -1.582347    3.445605   -4.768687
  H      0.390790   -0.319253   -2.026495
  H     -0.692686    0.990104   -2.138123
  H      0.854206    1.212214   -1.575279
  O     -3.443763    2.846518   -3.252744
  O     -1.970922    1.583042   -2.151229
  H      0.190993    0.239655   -4.275752
  H      1.731572    0.931729   -3.750751
  H      0.414839    3.102847   -3.245165
  H      0.683167    2.687560   -4.919721

 Total Charge           Charge          ....    0
 Multiplicity           Mult            ....    1
 Number of Electrons    NEL             ....   56
 Basis Dimension        Dim             ....  218

ORBITAL ENERGIES
----------------

  NO   OCC          E(Eh)            E(eV)
   0   2.0000     -19.142946      -520.9060
   1   2.0000     -19.124470      -520.4033
   2   2.0000     -14.516878      -395.0243
   3   2.0000     -10.349873      -281.6344
   4   2.0000     -10.327769      -281.0329
   5   2.0000     -10.289396      -279.9887
   6   2.0000     -10.251572      -278.9594
   7   2.0000      -1.099146       -29.9093
   8   2.0000      -1.075945       -29.2780
   9   2.0000      -0.992094       -26.9962
  10   2.0000      -0.891158       -24.2496
  11   2.0000      -0.794087       -21.6082
  12   2.0000      -0.714125       -19.4323
  13   2.0000      -0.681456       -18.5434
  14   2.0000      -0.668803       -18.1991
  15   2.0000      -0.597209       -16.2509
  16   2.0000      -0.554510       -15.0890
  17   2.0000      -0.553490       -15.0612
  18   2.0000      -0.509097       -13.8532
  19   2.0000      -0.493314       -13.4238
  20   2.0000      -0.460328       -12.5262
  21   2.0000      -0.457513       -12.4496
  22   2.0000      -0.448925       -12.2159
  23   2.0000      -0.429078       -11.6758
  24   2.0000      -0.405534       -11.0351
  25   2.0000      -0.302907        -8.2425
  26   2.0000      -0.301449        -8.2028
  27   2.0000      -0.272907        -7.4262
  28   0.0000       0.001095         0.0298
  29   0.0000       0.040818         1.1107
  30   0.0000       0.044581         1.2131
  31   0.0000       0.068108         1.8533
  32   0.0000       0.085100         2.3157

MULLIKEN ATOMIC CHARGES
-----------------------
   0 C :    0.822702
   1 N :   -0.204258
   2 C :    0.232156
   3 C :    0.164042
   4 C :    0.381880
   5 H :    0.049123
   6 H :   -0.066665
   7 H :    0.240980
   8 H :   -0.254649
   9 H :    0.381231
  10 O :   -0.504047
  11 O :   -0.610288
  12 H :   -0.089128
  13 H :   -0.296693
  14 H :   -0.125420
  15 H :   -0.120966
Sum of atomic charges:    0.0000000

LOEWDIN ATOMIC CHARGES
----------------------
   0 C :    0.083593
   1 N :    0.318885
   2 C :   -0.016970
   3 C :    0.042629
   4 C :   -0.208301
   5 H :    0.032299
   6 H :    0.024958
   7 H :    0.088603
   8 H :   -0.157790
   9 H :    0.094236
  10 O :   -0.205265
  11 O :   -0.229115
  12 H :    0.043635
  13 H :    0.028932
  14 H :    0.033594
  15 H :    0.026077

  Mayer bond orders larger than 0.100000
B(  0-C ,  1-N ) :   0.8319 B(  0-C ,  2-C ) :   1.1617 B(  0-C , 12-H ) :   0.8242
B(  0-C , 13-H ) :   0.8013 B(  0-C , 15-H ) :   0.1114 B(  1-N ,  7-H ) :   0.8677
B(  1-N ,  8-H ) :   1.2026 B(  1-N ,  9-H ) :   0.8068 B(  1-N , 12-H ) :   0.1111
B(  1-N , 13-H ) :   0.1593 B(  2-C ,  3-C ) :   1.1768 B(  2-C ,  5-H ) :   0.1294
B(  2-C ,  6-H ) :   0.1467 B(  2-C , 13-H ) :   0.1337 B(  2-C , 14-H ) :   0.8654
B(  2-C , 15-H ) :   0.8054 B(  3-C ,  4-C ) :   1.0141 B(  3-C ,  5-H ) :   0.7869
B(  3-C ,  6-H ) :   0.8906 B(  3-C , 14-H ) :   0.1127 B(  3-C , 15-H ) :   0.1108
B(  4-C ,  6-H ) :   0.1442 B(  4-C , 10-O ) :   1.6492 B(  4-C , 11-O ) :   1.2736
B(  8-H , 11-O ) :   0.4110 B( 10-O , 11-O ) :   0.1344 B( 12-H , 13-H ) :  -0.1134

FINAL SINGLE POINT ENERGY      -362.635346590328

DIPOLE MOMENT
-------------
                                X             Y             Z
Electronic contribution:     -5.73689       0.91867       2.50498
Nuclear contribution   :      9.92875      -2.62114      -2.63866
                        -----------------------------------------
Total Dipole Moment    :      4.19186      -1.70247      -0.13367
                        -----------------------------------------
Magnitude (a.u.)       :      4.52636
Magnitude (Debye)      :     11.50510

Rotational constants in cm-1:     0.159108     0.062474     0.047603
Rotational constants in MHz :  4769.938632  1872.932224  1427.103830

                             ****ORCA TERMINATED NORMALLY****
TOTAL RUN TIME: 0 days 0 hours 0 minutes 55 seconds 655 msec
