                         Program Version 5.0.0 -  RELEASE  -
|  1> !CAM-B3LYP RIJCOSX def2-SVPD def2/J TightSCF
|  2> *xyz 0 1
|  3> C          0.13297        2.38587       -4.02462
|  4> C         -1.36646        2.47911       -4.31393
|  5> C         -2.35773        2.30686       -3.13675
|  6> H         -1.63680        1.72709       -5.06399
|  7> H         -1.58235        3.44561       -4.76869
|  8> F         -3.44376        2.84652       -3.25274
|  9> O         -1.97092        1.58304       -2.15123
| 10> H          0.68084        2.52514       -4.93310
| 11> H          0.35823        1.42282       -3.61633
| 12> H          0.40851        3.14443       -3.32208
| 13> *
| 14> %MaxCore 64000
| 15>
| 16> %pal nprocs 4
| 17> end
| 18>
| 19> %scf
| 20>   MaxIter 150
| 21> end
| 22>
| 23>
| 24>                          ****END OF INPUT****

CARTESIAN COORDINATES (ANGSTROEM)
---------------------------------
  C      0.132970    2.385870   -4.024620
  C     -1.366460    2.479110   -4.313930
  C     -2.357730    2.306860   -3.136750
  H     -1.636800    1.727090   -5.063990
  H     -1.582350    3.445610   -4.768690
  F     -3.443760    2.846520   -3.252740
  O     -1.970920    1.583040   -2.151230
  H      0.680840    2.525140   -4.933100
  H      0.358230    1.422820   -3.616330
  H      0.408510    3.144430   -3.322080

 Total Charge           Charge          ....    0
 Multiplicity           Mult            ....    1
 Number of Electrons    NEL             ....   40
 Basis Dimension        Dim             ....  146

ORBITAL ENERGIES
----------------

  NO   OCC          E(Eh)            E(eV)
   0   2.0000     -24.862999      -676.5566
   1   2.0000     -19.222745      -523.0775
   2   2.0000     -10.451936      -284.4116
   3   2.0000     -10.295507      -280.1550
   4   2.0000     -10.262035      -279.2442
   5   2.0000      -1.422059       -38.6962
   6   2.0000      -1.093546       -29.7569
   7   2.0000      -0.876558       -23.8524
   8   2.0000      -0.777545       -21.1581
   9   2.0000      -0.725318       -19.7369
  10   2.0000      -0.648040       -17.6341
  11   2.0000      -0.627738       -17.0816
  12   2.0000      -0.581394       -15.8205
  13   2.0000      -0.540571       -14.7097
  14   2.0000      -0.503696       -13.7063
  15   2.0000      -0.463836       -12.6216
  16   2.0000      -0.444498       -12.0954
  17   2.0000      -0.441767       -12.0211
  18   2.0000      -0.413133       -11.2419
  19   2.0000      -0.360338        -9.8053
  20   0.0000       0.014806         0.4029
  21   0.0000       0.042750         1.1633
  22   0.0000       0.069954         1.9035
  23   0.0000       0.086258         2.3472
  24   0.0000       0.103074         2.8048

MULLIKEN ATOMIC CHARGES
-----------------------
   0 C :    0.862082
   1 C :   -0.325446
   2 C :    0.672348
   3 H :   -0.015586
   4 H :   -0.056161
   5 F :   -0.307062
   6 O :   -0.489363
   7 H :   -0.124663
   8 H :   -0.104257
   9 H :   -0.111894
Sum of atomic charges:    0.0000000

LOEWDIN ATOMIC CHARGES
----------------------
   0 C :    0.138518
   1 C :    0.002113
   2 C :   -0.016569
   3 H :    0.039793
   4 H :    0.021328
   5 F :   -0.004794
   6 O :   -0.147963
   7 H :   -0.013480
   8 H :   -0.010594
   9 H :   -0.008352

  Mayer bond orders larger than 0.100000
B(  0-C ,  1-C ) :   1.3373 B(  0-C ,  4-H ) :   0.1016 B(  0-C ,  7-H ) :   0.7290
B(  0-C ,  8-H ) :   0.7782 B(  0-C ,  9-H ) :   0.7887 B(  1-C ,  2-C ) :   1.0794
B(  1-C ,  3-H ) :   0.8756 B(  1-C ,  4-H ) :   0.9001 B(  1-C ,  7-H ) :   0.2443
B(  1-C ,  8-H ) :   0.2187 B(  1-C ,  9-H ) :   0.2054 B(  2-C ,  4-H ) :   0.1144
B(  2-C ,  5-F ) :   0.8336 B(  2-C ,  6-O ) :   1.8439 B(  5-F ,  6-O ) :   0.1030

FINAL SINGLE POINT ENERGY      -292.066634992019

DIPOLE MOMENT
-------------
                                X             Y             Z
Electronic contribution:     -8.36144       0.48880       3.53962
Nuclear contribution   :      8.54799       0.05434      -4.66633
                        -----------------------------------------
Total Dipole Moment    :      0.18655       0.54314      -1.12671
                        -----------------------------------------
Magnitude (a.u.)       :      1.26463
Magnitude (Debye)      :      3.21443

Rotational constants in cm-1:     0.325803     0.123345     0.094275
Rotational constants in MHz :  9767.324172  3697.779805  2826.305733

                             ****ORCA TERMINATED NORMALLY****
TOTAL RUN TIME: 0 days 0 hours 0 minutes 23 seconds 347 msec
