                         Program Version 5.0.0 -  RELEASE  -
|  1> !CAM-B3LYP RIJCOSX def2-SVPD def2/J TightSCF
|  2> *xyz 0 1
|  3> C          0.64866        1.00359       -3.64560
|  4> C          0.28128        0.67645       -2.24018
|  5> C          0.13297        2.38587       -4.02462
|  6> H          0.39079       -0.31925       -2.02649
|  7> H         -0.69269        0.99010       -2.13812
|  8> H          0.85421        1.21221       -1.57528
|  9> H          0.19099        0.23965       -4.27575
| 10> H          1.73157        0.93173       -3.75075
| 11> H          0.40589        2.60338       -5.03610
| 12> H          0.56342        3.11797       -3.37374
| 13> H         -0.93265        2.40724       -3.93025
| 14> *
| 15> %MaxCore 64000
| 16>
| 17> %pal nprocs 4
| 18> end
| 19>
| 20> %scf
| 21>   MaxIter 150
| 22> end
| 23>
| 24>
| 25>                          ****END OF INPUT****

CARTESIAN COORDINATES (ANGSTROEM)
---------------------------------
  C      0.648660    1.003590   -3.645600
  C      0.281280    0.676450   -2.240180
  C      0.132970    2.385870   -4.024620
  H      0.390790   -0.319250   -2.026490
  H     -0.692690    0.990100   -2.138120
  H      0.854210    1.212210   -1.575280
  H      0.190990    0.239650   -4.275750
  H      1.731570    0.931730   -3.750750
  H      0.405890    2.603380   -5.036100
  H      0.563420    3.117970   -3.373740
  H     -0.932650    2.407240   -3.930250

 Total Charge           Charge          ....    0
 Multiplicity           Mult            ....    1
 Number of Electrons    NEL             ....   26
 Basis Dimension        Dim             ....  124

ORBITAL ENERGIES
----------------

  NO   OCC          E(Eh)            E(eV)
   0   2.0000     -10.245065      -278.7824
   1   2.0000     -10.238003      -278.5902
   2   2.0000     -10.220243      -278.1070
   3   2.0000      -0.870787       -23.6953
   4   2.0000      -0.763305       -20.7706
   5   2.0000      -0.657664       -17.8959
   6   2.0000      -0.540648       -14.7118
   7   2.0000      -0.521022       -14.1777
   8   2.0000      -0.471283       -12.8243
   9   2.0000      -0.454628       -12.3711
  10   2.0000      -0.404412       -11.0046
  11   2.0000      -0.400407       -10.8956
  12   2.0000      -0.392285       -10.6746
  13   0.0000       0.056763         1.5446
  14   0.0000       0.083527         2.2729
  15   0.0000       0.090395         2.4598
  16   0.0000       0.118087         3.2133
  17   0.0000       0.136736         3.7208

MULLIKEN ATOMIC CHARGES
-----------------------
   0 C :   -0.421702
   1 C :    1.156560
   2 C :    0.795640
   3 H :   -0.321073
   4 H :   -0.242496
   5 H :   -0.235064
   6 H :   -0.145735
   7 H :   -0.194604
   8 H :   -0.185570
   9 H :   -0.107447
  10 H :   -0.098507
Sum of atomic charges:   -0.0000000

LOEWDIN ATOMIC CHARGES
----------------------
   0 C :   -0.119920
   1 C :    0.114833
   2 C :    0.115295
   3 H :   -0.033270
   4 H :   -0.034468
   5 H :   -0.028699
   6 H :    0.020922
   7 H :    0.019726
   8 H :   -0.022125
   9 H :   -0.014638
  10 H :   -0.017657

  Mayer bond orders larger than 0.100000
B(  0-C ,  1-C ) :   1.2427 B(  0-C ,  2-C ) :   1.2469 B(  0-C ,  3-H ) :   0.2155
B(  0-C ,  4-H ) :   0.2605 B(  0-C ,  5-H ) :   0.2448 B(  0-C ,  6-H ) :   0.9009
B(  0-C ,  7-H ) :   0.9409 B(  0-C ,  8-H ) :   0.1960 B(  0-C ,  9-H ) :   0.1853
B(  0-C , 10-H ) :   0.1721 B(  1-C ,  3-H ) :   0.6728 B(  1-C ,  4-H ) :   0.6647
B(  1-C ,  5-H ) :   0.6407 B(  1-C ,  7-H ) :   0.1026 B(  2-C ,  8-H ) :   0.8026
B(  2-C ,  9-H ) :   0.7974 B(  2-C , 10-H ) :   0.8116 B(  4-H ,  5-H ) :   0.1198

FINAL SINGLE POINT ENERGY      -118.963714682942

DIPOLE MOMENT
-------------
                                X             Y             Z
Electronic contribution:      0.26007      -0.28093      -0.24554
Nuclear contribution   :     -0.24754       0.26111       0.24628
                        -----------------------------------------
Total Dipole Moment    :      0.01253      -0.01982       0.00074
                        -----------------------------------------
Magnitude (a.u.)       :      0.02346
Magnitude (Debye)      :      0.05963

Rotational constants in cm-1:     1.006509     0.299509     0.263145
Rotational constants in MHz : 30174.379724  8979.049324  7888.875355

                             ****ORCA TERMINATED NORMALLY****
TOTAL RUN TIME: 0 days 0 hours 0 minutes 15 seconds 633 msec
