                         Program Version 5.0.0 -  RELEASE  -
|  1> !CAM-B3LYP RIJCOSX def2-SVPD def2/J TightSCF
|  2> *xyz 0 1
|  3> C          0.13297        2.38587       -4.02462
|  4> C         -1.36646        2.47911       -4.31393
|  5> C         -2.35773        2.30686       -3.13675
|  6> H         -1.63680        1.72709       -5.06399
|  7> H         -1.58235        3.44561       -4.76869
|  8> O         -3.44376        2.84652       -3.25274
|  9> F         -1.97092        1.58304       -2.15123
| 10> H          0.68084        2.52514       -4.93310
| 11> H          0.35823        1.42282       -3.61633
| 12> H          0.40851        3.14443       -3.32208
| 13> *
| 14> %MaxCore 64000
| 15>
| 16> %pal nprocs 4
| 17> end
| 18>
| 19> %scf
| 20>   MaxIter 150
| 21> end
| 22>
| 23>
| 24>                          ****END OF INPUT****

CARTESIAN COORDINATES (ANGSTROEM)
---------------------------------
  C      0.132970    2.385870   -4.024620
  C     -1.366460    2.479110   -4.313930
  C     -2.357730    2.306860   -3.136750
  H     -1.636800    1.727090   -5.063990
  H     -1.582350    3.445610   -4.768690
  O     -3.443760    2.846520   -3.252740
  F     -1.970920    1.583040   -2.151230
  H      0.680840    2.525140   -4.933100
  H      0.358230    1.422820   -3.616330
  H      0.408510    3.144430   -3.322080

 Total Charge           Charge          ....    0
 Multiplicity           Mult            ....    1
 Number of Electrons    NEL             ....   40
 Basis Dimension        Dim             ....  146

ORBITAL ENERGIES
----------------

  NO   OCC          E(Eh)            E(eV)
   0   2.0000     -24.839370      -675.9136
   1   2.0000     -19.232372      -523.3395
   2   2.0000     -10.446454      -284.2625
   3   2.0000     -10.293771      -280.1077
   4   2.0000     -10.267195      -279.3846
   5   2.0000      -1.373138       -37.3650
   6   2.0000      -1.134137       -30.8614
   7   2.0000      -0.878895       -23.9159
   8   2.0000      -0.758014       -20.6266
   9   2.0000      -0.716413       -19.4946
  10   2.0000      -0.621617       -16.9151
  11   2.0000      -0.615859       -16.7584
  12   2.0000      -0.571575       -15.5534
  13   2.0000      -0.540523       -14.7084
  14   2.0000      -0.506657       -13.7868
  15   2.0000      -0.480270       -13.0688
  16   2.0000      -0.462844       -12.5946
  17   2.0000      -0.445095       -12.1117
  18   2.0000      -0.424732       -11.5576
  19   2.0000      -0.370534       -10.0828
  20   0.0000       0.019691         0.5358
  21   0.0000       0.040566         1.1039
  22   0.0000       0.075070         2.0428
  23   0.0000       0.083023         2.2592
  24   0.0000       0.103214         2.8086

MULLIKEN ATOMIC CHARGES
-----------------------
   0 C :    0.881544
   1 C :   -0.323543
   2 C :    0.660854
   3 H :   -0.016967
   4 H :   -0.062806
   5 O :   -0.389560
   6 F :   -0.398247
   7 H :   -0.124208
   8 H :   -0.113775
   9 H :   -0.113292
Sum of atomic charges:   -0.0000000

LOEWDIN ATOMIC CHARGES
----------------------
   0 C :    0.127864
   1 C :    0.012378
   2 C :   -0.012688
   3 H :    0.040782
   4 H :    0.031485
   5 O :   -0.111738
   6 F :   -0.047362
   7 H :   -0.013460
   8 H :   -0.015666
   9 H :   -0.011594

  Mayer bond orders larger than 0.100000
B(  0-C ,  1-C ) :   1.3050 B(  0-C ,  7-H ) :   0.7260 B(  0-C ,  8-H ) :   0.7795
B(  0-C ,  9-H ) :   0.7895 B(  1-C ,  2-C ) :   1.0383 B(  1-C ,  3-H ) :   0.8777
B(  1-C ,  4-H ) :   0.9303 B(  1-C ,  7-H ) :   0.2566 B(  1-C ,  8-H ) :   0.2044
B(  1-C ,  9-H ) :   0.1984 B(  2-C ,  4-H ) :   0.1333 B(  2-C ,  5-O ) :   1.9080
B(  2-C ,  6-F ) :   0.7501 B(  5-O ,  6-F ) :   0.1087

FINAL SINGLE POINT ENERGY      -292.084267347516

DIPOLE MOMENT
-------------
                                X             Y             Z
Electronic contribution:     -5.86965      -1.62679       5.37077
Nuclear contribution   :      6.94213       1.43193      -5.86732
                        -----------------------------------------
Total Dipole Moment    :      1.07248      -0.19487      -0.49655
                        -----------------------------------------
Magnitude (a.u.)       :      1.19781
Magnitude (Debye)      :      3.04458

Rotational constants in cm-1:     0.306336     0.129048     0.095707
Rotational constants in MHz :  9183.725605  3868.769583  2869.236577

                             ****ORCA TERMINATED NORMALLY****
TOTAL RUN TIME: 0 days 0 hours 0 minutes 22 seconds 131 msec
