                         Program Version 5.0.0 -  RELEASE  -
|  1> !LC-PBE RIJCOSX def2-SVPD def2/J TightSCF
|  2> *xyz -1 1
|  3> C         -1.36646        2.47911       -4.31393
|  4> C         -2.35773        2.30686       -3.13675
|  5> O         -3.44376        2.84652       -3.25274
|  6> O         -1.97092        1.58304       -2.15123
|  7> H         -1.80853        3.10058       -5.06443
|  8> H         -1.13980        1.52081       -4.73248
|  9> H         -0.46612        2.93495       -3.95827
| 10> *
| 11> %MaxCore 64000
| 12>
| 13> %pal nprocs 4
| 14> end
| 15>
| 16> %scf
| 17>   MaxIter 150
| 18> end
| 19>
| 20>
| 21>                          ****END OF INPUT****

CARTESIAN COORDINATES (ANGSTROEM)
---------------------------------
  C     -1.366460    2.479110   -4.313930
  C     -2.357730    2.306860   -3.136750
  O     -3.443760    2.846520   -3.252740
  O     -1.970920    1.583040   -2.151230
  H     -1.808530    3.100580   -5.064430
  H     -1.139800    1.520810   -4.732480
  H     -0.466120    2.934950   -3.958270

 Total Charge           Charge          ....   -1
 Multiplicity           Mult            ....    1
 Number of Electrons    NEL             ....   32
 Basis Dimension        Dim             ....  110

ORBITAL ENERGIES
----------------

  NO   OCC          E(Eh)            E(eV)
   0   2.0000     -18.731200      -509.7019
   1   2.0000     -18.717991      -509.3424
   2   2.0000     -10.018491      -272.6170
   3   2.0000      -9.938678      -270.4452
   4   2.0000      -0.984856       -26.7993
   5   2.0000      -0.874000       -23.7828
   6   2.0000      -0.707847       -19.2615
   7   2.0000      -0.448769       -12.2116
   8   2.0000      -0.404772       -11.0144
   9   2.0000      -0.387095       -10.5334
  10   2.0000      -0.375328       -10.2132
  11   2.0000      -0.326472        -8.8838
  12   2.0000      -0.312834        -8.5127
  13   2.0000      -0.176828        -4.8117
  14   2.0000      -0.172640        -4.6978
  15   2.0000      -0.161307        -4.3894
  16   0.0000       0.237488         6.4624
  17   0.0000       0.269855         7.3431
  18   0.0000       0.299044         8.1374
  19   0.0000       0.306821         8.3490
  20   0.0000       0.332534         9.0487

MULLIKEN ATOMIC CHARGES
-----------------------
   0 C :    0.235970
   1 C :   -0.057155
   2 O :   -0.530451
   3 O :   -0.664847
   4 H :   -0.002172
   5 H :    0.009220
   6 H :    0.009435
Sum of atomic charges:   -1.0000000

LOEWDIN ATOMIC CHARGES
----------------------
   0 C :    0.110438
   1 C :   -0.357717
   2 O :   -0.307087
   3 O :   -0.362942
   4 H :   -0.032156
   5 H :   -0.024734
   6 H :   -0.025803

  Mayer bond orders larger than 0.100000
B(  0-C ,  1-C ) :   1.2009 B(  0-C ,  4-H ) :   0.9028 B(  0-C ,  5-H ) :   0.8604
B(  0-C ,  6-H ) :   0.8561 B(  1-C ,  2-O ) :   1.6262 B(  1-C ,  3-O ) :   1.5246
B(  1-C ,  4-H ) :   0.1957 B(  1-C ,  5-H ) :   0.1240 B(  1-C ,  6-H ) :   0.1275

FINAL SINGLE POINT ENERGY      -227.724514716258

DIPOLE MOMENT
-------------
                                X             Y             Z
Electronic contribution:     -2.38142      -0.31854       2.63343
Nuclear contribution   :      3.20990       0.60513      -3.84153
                        -----------------------------------------
Total Dipole Moment    :      0.82848       0.28659      -1.20809
                        -----------------------------------------
Magnitude (a.u.)       :      1.49265
Magnitude (Debye)      :      3.79402

Rotational constants in cm-1:     0.394521     0.330294     0.185888
Rotational constants in MHz : 11827.441786  9901.964904  5572.768963

                             ****ORCA TERMINATED NORMALLY****
TOTAL RUN TIME: 0 days 0 hours 0 minutes 7 seconds 675 msec
