                         Program Version 5.0.0 -  RELEASE  -
|  1> !LC-PBE RIJCOSX def2-SVPD def2/J TightSCF
|  2> *xyz 1 1
|  3> C          0.64866        1.00359       -3.64560
|  4> N          0.28128        0.67645       -2.24018
|  5> H          0.39079       -0.31925       -2.02649
|  6> H         -0.69269        0.99010       -2.13812
|  7> H          0.85421        1.21221       -1.57528
|  8> H          0.03905        0.43387       -4.31545
|  9> H          1.67860        0.76457       -3.80989
| 10> H          0.49232        2.04741       -3.82138
| 11> *
| 12> %MaxCore 64000
| 13>
| 14> %pal nprocs 4
| 15> end
| 16>
| 17> %scf
| 18>   MaxIter 150
| 19> end
| 20>
| 21>
| 22>                          ****END OF INPUT****

CARTESIAN COORDINATES (ANGSTROEM)
---------------------------------
  C      0.648660    1.003590   -3.645600
  N      0.281280    0.676450   -2.240180
  H      0.390790   -0.319250   -2.026490
  H     -0.692690    0.990100   -2.138120
  H      0.854210    1.212210   -1.575280
  H      0.039050    0.433870   -4.315450
  H      1.678600    0.764570   -3.809890
  H      0.492320    2.047410   -3.821380

 Total Charge           Charge          ....    1
 Multiplicity           Mult            ....    1
 Number of Electrons    NEL             ....   18
 Basis Dimension        Dim             ....   88

ORBITAL ENERGIES
----------------

  NO   OCC          E(Eh)            E(eV)
   0   2.0000     -14.579147      -396.7188
   1   2.0000     -10.384534      -282.5775
   2   2.0000      -1.392902       -37.9028
   3   2.0000      -1.100162       -29.9369
   4   2.0000      -0.965783       -26.2803
   5   2.0000      -0.956353       -26.0237
   6   2.0000      -0.854363       -23.2484
   7   2.0000      -0.763975       -20.7888
   8   2.0000      -0.761721       -20.7275
   9   0.0000      -0.119293        -3.2461
  10   0.0000      -0.054755        -1.4900
  11   0.0000      -0.046361        -1.2615
  12   0.0000      -0.045212        -1.2303
  13   0.0000      -0.003587        -0.0976

MULLIKEN ATOMIC CHARGES
-----------------------
   0 C :    0.579792
   1 N :   -0.840070
   2 H :    0.379139
   3 H :    0.418444
   4 H :    0.392011
   5 H :    0.026827
   6 H :    0.013387
   7 H :    0.030470
Sum of atomic charges:    1.0000000

LOEWDIN ATOMIC CHARGES
----------------------
   0 C :    0.246765
   1 N :    0.296724
   2 H :    0.117213
   3 H :    0.115993
   4 H :    0.118279
   5 H :    0.035516
   6 H :    0.033640
   7 H :    0.035870

  Mayer bond orders larger than 0.100000
B(  0-C ,  1-N ) :   0.8510 B(  0-C ,  5-H ) :   0.9291 B(  0-C ,  6-H ) :   0.9486
B(  0-C ,  7-H ) :   0.9217 B(  1-N ,  2-H ) :   0.7944 B(  1-N ,  3-H ) :   0.7461
B(  1-N ,  4-H ) :   0.7816

FINAL SINGLE POINT ENERGY       -95.836165057914

DIPOLE MOMENT
-------------
                                X             Y             Z
Electronic contribution:     -0.26368      -0.27642       1.06465
Nuclear contribution   :      0.04246       0.12404      -0.26487
                        -----------------------------------------
Total Dipole Moment    :     -0.22123      -0.15238       0.79978
                        -----------------------------------------
Magnitude (a.u.)       :      0.84368
Magnitude (Debye)      :      2.14447

Rotational constants in cm-1:     2.856727     0.687609     0.685111
Rotational constants in MHz : 85642.512409 20614.005719 20539.101620

                             ****ORCA TERMINATED NORMALLY****
TOTAL RUN TIME: 0 days 0 hours 0 minutes 4 seconds 397 msec
