                         Program Version 5.0.0 -  RELEASE  -
|  1> !LC-PBE RIJCOSX def2-SVPD def2/J TightSCF xyzfile
|  2>
|  3> *xyzfile 0 1 B.xyz
|  4>
|  5> %MaxCore 64000
|  6>
|  7> %pal nprocs 4
|  8> end
|  9>
| 10> %scf
| 11>   MaxIter 150
| 12> end
| 13>
| 14>
| 15>                          ****END OF INPUT****

CARTESIAN COORDINATES (ANGSTROEM)
---------------------------------
  C      0.648656    1.003595   -3.645601
  N      0.281280    0.676454   -2.240179
  C      0.132968    2.385869   -4.024618
  C     -1.366462    2.479106   -4.313932
  C     -2.357732    2.306858   -3.136753
  H     -1.636802    1.727095   -5.063993
  H     -1.582347    3.445605   -4.768687
  H      0.390790   -0.319253   -2.026495
  H     -0.692686    0.990104   -2.138123
  H      0.854206    1.212214   -1.575279
  O     -3.443763    2.846518   -3.252744
  O     -1.970922    1.583042   -2.151229
  H      0.190993    0.239655   -4.275752
  H      1.731572    0.931729   -3.750751
  H      0.414839    3.102847   -3.245165
  H      0.683167    2.687560   -4.919721

 Total Charge           Charge          ....    0
 Multiplicity           Mult            ....    1
 Number of Electrons    NEL             ....   56
 Basis Dimension        Dim             ....  218

ORBITAL ENERGIES
----------------

  NO   OCC          E(Eh)            E(eV)
   0   2.0000     -18.920142      -514.8432
   1   2.0000     -18.900734      -514.3151
   2   2.0000     -14.341633      -390.2557
   3   2.0000     -10.219622      -278.0900
   4   2.0000     -10.198963      -277.5279
   5   2.0000     -10.159905      -276.4651
   6   2.0000     -10.121451      -275.4187
   7   2.0000      -1.190750       -32.4020
   8   2.0000      -1.162938       -31.6451
   9   2.0000      -1.071027       -29.1441
  10   2.0000      -0.986129       -26.8339
  11   2.0000      -0.883307       -24.0360
  12   2.0000      -0.798178       -21.7195
  13   2.0000      -0.760586       -20.6966
  14   2.0000      -0.745429       -20.2842
  15   2.0000      -0.672415       -18.2974
  16   2.0000      -0.630389       -17.1538
  17   2.0000      -0.628350       -17.0983
  18   2.0000      -0.581761       -15.8305
  19   2.0000      -0.564308       -15.3556
  20   2.0000      -0.530870       -14.4457
  21   2.0000      -0.528555       -14.3827
  22   2.0000      -0.518220       -14.1015
  23   2.0000      -0.496552       -13.5119
  24   2.0000      -0.473228       -12.8772
  25   2.0000      -0.368432       -10.0255
  26   2.0000      -0.367179        -9.9915
  27   2.0000      -0.338882        -9.2215
  28   0.0000       0.045548         1.2394
  29   0.0000       0.082518         2.2454
  30   0.0000       0.087363         2.3773
  31   0.0000       0.109141         2.9699
  32   0.0000       0.128484         3.4962

MULLIKEN ATOMIC CHARGES
-----------------------
   0 C :    0.459982
   1 N :   -0.388972
   2 C :   -0.086271
   3 C :   -0.143731
   4 C :    0.329185
   5 H :    0.169688
   6 H :    0.103965
   7 H :    0.305823
   8 H :   -0.168379
   9 H :    0.431107
  10 O :   -0.478992
  11 O :   -0.563735
  12 H :    0.061121
  13 H :   -0.103207
  14 H :    0.014413
  15 H :    0.058003
Sum of atomic charges:    0.0000000

LOEWDIN ATOMIC CHARGES
----------------------
   0 C :    0.061855
   1 N :    0.302062
   2 C :   -0.040818
   3 C :    0.017461
   4 C :   -0.218090
   5 H :    0.045581
   6 H :    0.037611
   7 H :    0.098077
   8 H :   -0.156543
   9 H :    0.103751
  10 O :   -0.203216
  11 O :   -0.227367
  12 H :    0.054908
  13 H :    0.040662
  14 H :    0.045817
  15 H :    0.038249

  Mayer bond orders larger than 0.100000
B(  0-C ,  1-N ) :   0.8517 B(  0-C ,  2-C ) :   1.1719 B(  0-C , 12-H ) :   0.8907
B(  0-C , 13-H ) :   0.9222 B(  1-N ,  7-H ) :   0.8432 B(  1-N ,  8-H ) :   1.1487
B(  1-N ,  9-H ) :   0.7765 B(  1-N , 13-H ) :   0.1210 B(  2-C ,  3-C ) :   1.1895
B(  2-C ,  6-H ) :   0.1086 B(  2-C , 14-H ) :   0.9336 B(  2-C , 15-H ) :   0.8760
B(  3-C ,  4-C ) :   1.0337 B(  3-C ,  5-H ) :   0.8268 B(  3-C ,  6-H ) :   0.9213
B(  4-C ,  6-H ) :   0.1161 B(  4-C , 10-O ) :   1.6967 B(  4-C , 11-O ) :   1.3092
B(  8-H , 11-O ) :   0.4319 B( 10-O , 11-O ) :   0.1220

FINAL SINGLE POINT ENERGY      -361.722992618426

DIPOLE MOMENT
-------------
                                X             Y             Z
Electronic contribution:     -5.68399       0.90536       2.48773
Nuclear contribution   :      9.92875      -2.62114      -2.63866
                        -----------------------------------------
Total Dipole Moment    :      4.24477      -1.71578      -0.15092
                        -----------------------------------------
Magnitude (a.u.)       :      4.58091
Magnitude (Debye)      :     11.64375

Rotational constants in cm-1:     0.159108     0.062474     0.047603
Rotational constants in MHz :  4769.938632  1872.932224  1427.103830

                             ****ORCA TERMINATED NORMALLY****
TOTAL RUN TIME: 0 days 0 hours 0 minutes 38 seconds 98 msec
