                         Program Version 5.0.0 -  RELEASE  -
|  1> !LC-PBE RIJCOSX def2-SVPD def2/J TightSCF
|  2> *xyz 0 1
|  3> C         -1.36646        2.47911       -4.31393
|  4> C         -2.35773        2.30686       -3.13675
|  5> F         -3.44376        2.84652       -3.25274
|  6> O         -1.97092        1.58304       -2.15123
|  7> H         -1.80853        3.10058       -5.06443
|  8> H         -1.13980        1.52081       -4.73248
|  9> H         -0.46612        2.93495       -3.95827
| 10> *
| 11> %MaxCore 64000
| 12>
| 13> %pal nprocs 4
| 14> end
| 15>
| 16> %scf
| 17>   MaxIter 150
| 18> end
| 19>
| 20>
| 21>                          ****END OF INPUT****

CARTESIAN COORDINATES (ANGSTROEM)
---------------------------------
  C     -1.366460    2.479110   -4.313930
  C     -2.357730    2.306860   -3.136750
  F     -3.443760    2.846520   -3.252740
  O     -1.970920    1.583040   -2.151230
  H     -1.808530    3.100580   -5.064430
  H     -1.139800    1.520810   -4.732480
  H     -0.466120    2.934950   -3.958270

 Total Charge           Charge          ....    0
 Multiplicity           Mult            ....    1
 Number of Electrons    NEL             ....   32
 Basis Dimension        Dim             ....  110

ORBITAL ENERGIES
----------------

  NO   OCC          E(Eh)            E(eV)
   0   2.0000     -24.598695      -669.3645
   1   2.0000     -19.001371      -517.0536
   2   2.0000     -10.329106      -281.0693
   3   2.0000     -10.156790      -276.3803
   4   2.0000      -1.500063       -40.8188
   5   2.0000      -1.179005       -32.0824
   6   2.0000      -0.942146       -25.6371
   7   2.0000      -0.834465       -22.7069
   8   2.0000      -0.730274       -19.8718
   9   2.0000      -0.720378       -19.6025
  10   2.0000      -0.653221       -17.7750
  11   2.0000      -0.587676       -15.9915
  12   2.0000      -0.574820       -15.6416
  13   2.0000      -0.541403       -14.7323
  14   2.0000      -0.485929       -13.2228
  15   2.0000      -0.432113       -11.7584
  16   0.0000       0.062912         1.7119
  17   0.0000       0.079183         2.1547
  18   0.0000       0.117994         3.2108
  19   0.0000       0.155840         4.2406
  20   0.0000       0.158560         4.3146

MULLIKEN ATOMIC CHARGES
-----------------------
   0 C :    0.121242
   1 C :    0.317822
   2 F :   -0.242324
   3 O :   -0.457259
   4 H :    0.057305
   5 H :    0.102890
   6 H :    0.100324
Sum of atomic charges:    0.0000000

LOEWDIN ATOMIC CHARGES
----------------------
   0 C :    0.183240
   1 C :   -0.052731
   2 F :    0.001062
   3 O :   -0.156200
   4 H :   -0.003186
   5 H :    0.014210
   6 H :    0.013605

  Mayer bond orders larger than 0.100000
B(  0-C ,  1-C ) :   1.2497 B(  0-C ,  4-H ) :   0.9089 B(  0-C ,  5-H ) :   0.8474
B(  0-C ,  6-H ) :   0.8443 B(  1-C ,  2-F ) :   0.9256 B(  1-C ,  3-O ) :   1.8560
B(  1-C ,  4-H ) :   0.1137 B(  1-C ,  5-H ) :   0.1011 B(  1-C ,  6-H ) :   0.1057

FINAL SINGLE POINT ENERGY      -252.219669928161

DIPOLE MOMENT
-------------
                                X             Y             Z
Electronic contribution:     -4.29667       0.54045       2.64396
Nuclear contribution   :      4.40923       0.04336      -3.80230
                        -----------------------------------------
Total Dipole Moment    :      0.11256       0.58381      -1.15834
                        -----------------------------------------
Magnitude (a.u.)       :      1.30202
Magnitude (Debye)      :      3.30947

Rotational constants in cm-1:     0.364425     0.322930     0.176742
Rotational constants in MHz : 10925.196996  9681.206479  5298.597717

                             ****ORCA TERMINATED NORMALLY****
TOTAL RUN TIME: 0 days 0 hours 0 minutes 7 seconds 447 msec
