                         Program Version 5.0.0 -  RELEASE  -
|  1> !LC-PBE RIJCOSX def2-SVPD def2/J TightSCF
|  2> *xyz 0 1
|  3> C          0.64866        1.00359       -3.64560
|  4> C          0.28128        0.67645       -2.24018
|  5> H          0.39079       -0.31925       -2.02649
|  6> H         -0.69269        0.99010       -2.13812
|  7> H          0.85421        1.21221       -1.57528
|  8> H          0.03905        0.43387       -4.31545
|  9> H          1.67860        0.76457       -3.80989
| 10> H          0.49232        2.04741       -3.82138
| 11> *
| 12> %MaxCore 64000
| 13>
| 14> %pal nprocs 4
| 15> end
| 16>
| 17> %scf
| 18>   MaxIter 150
| 19> end
| 20>
| 21>
| 22>                          ****END OF INPUT****

CARTESIAN COORDINATES (ANGSTROEM)
---------------------------------
  C      0.648660    1.003590   -3.645600
  C      0.281280    0.676450   -2.240180
  H      0.390790   -0.319250   -2.026490
  H     -0.692690    0.990100   -2.138120
  H      0.854210    1.212210   -1.575280
  H      0.039050    0.433870   -4.315450
  H      1.678600    0.764570   -3.809890
  H      0.492320    2.047410   -3.821380

 Total Charge           Charge          ....    0
 Multiplicity           Mult            ....    1
 Number of Electrons    NEL             ....   18
 Basis Dimension        Dim             ....   88

ORBITAL ENERGIES
----------------

  NO   OCC          E(Eh)            E(eV)
   0   2.0000     -10.102583      -274.9053
   1   2.0000     -10.089324      -274.5445
   2   2.0000      -0.941256       -25.6129
   3   2.0000      -0.777024       -21.1439
   4   2.0000      -0.598234       -16.2788
   5   2.0000      -0.592048       -16.1104
   6   2.0000      -0.502769       -13.6810
   7   2.0000      -0.477649       -12.9975
   8   2.0000      -0.472344       -12.8531
   9   0.0000       0.096465         2.6249
  10   0.0000       0.125879         3.4253
  11   0.0000       0.180020         4.8986
  12   0.0000       0.181483         4.9384
  13   0.0000       0.200420         5.4537

MULLIKEN ATOMIC CHARGES
-----------------------
   0 C :   -0.009460
   1 C :    0.318241
   2 H :   -0.126321
   3 H :   -0.072596
   4 H :   -0.095482
   5 H :   -0.003881
   6 H :   -0.012298
   7 H :    0.001797
Sum of atomic charges:    0.0000000

LOEWDIN ATOMIC CHARGES
----------------------
   0 C :    0.039536
   1 C :    0.048293
   2 H :   -0.023643
   3 H :   -0.023285
   4 H :   -0.022997
   5 H :   -0.005400
   6 H :   -0.007953
   7 H :   -0.004551

  Mayer bond orders larger than 0.100000
B(  0-C ,  1-C ) :   1.4343 B(  0-C ,  2-H ) :   0.1248 B(  0-C ,  3-H ) :   0.1506
B(  0-C ,  4-H ) :   0.1234 B(  0-C ,  5-H ) :   0.9049 B(  0-C ,  6-H ) :   0.9278
B(  0-C ,  7-H ) :   0.8978 B(  1-C ,  2-H ) :   0.8669 B(  1-C ,  3-H ) :   0.8450
B(  1-C ,  4-H ) :   0.8521 B(  1-C ,  5-H ) :   0.1122 B(  1-C ,  6-H ) :   0.1025
B(  1-C ,  7-H ) :   0.1163

FINAL SINGLE POINT ENERGY       -79.466051628708

DIPOLE MOMENT
-------------
                                X             Y             Z
Electronic contribution:      0.01373      -0.06044       0.04036
Nuclear contribution   :     -0.02064       0.06655      -0.02194
                        -----------------------------------------
Total Dipole Moment    :     -0.00691       0.00610       0.01842
                        -----------------------------------------
Magnitude (a.u.)       :      0.02060
Magnitude (Debye)      :      0.05236

Rotational constants in cm-1:     2.856742     0.718110     0.715385
Rotational constants in MHz : 85642.970161 21528.388214 21446.695095

                             ****ORCA TERMINATED NORMALLY****
TOTAL RUN TIME: 0 days 0 hours 0 minutes 4 seconds 554 msec
