                         Program Version 5.0.0 -  RELEASE  -
|  1> !LC-PBE RIJCOSX def2-SVPD def2/J TightSCF
|  2> *xyz 0 1
|  3> C         -1.36646        2.47911       -4.31393
|  4> C         -2.35773        2.30686       -3.13675
|  5> O         -3.44376        2.84652       -3.25274
|  6> F         -1.97092        1.58304       -2.15123
|  7> H         -1.80853        3.10058       -5.06443
|  8> H         -1.13980        1.52081       -4.73248
|  9> H         -0.46612        2.93495       -3.95827
| 10> *
| 11> %MaxCore 64000
| 12>
| 13> %pal nprocs 4
| 14> end
| 15>
| 16> %scf
| 17>   MaxIter 150
| 18> end
| 19>
| 20>
| 21>                          ****END OF INPUT****

CARTESIAN COORDINATES (ANGSTROEM)
---------------------------------
  C     -1.366460    2.479110   -4.313930
  C     -2.357730    2.306860   -3.136750
  O     -3.443760    2.846520   -3.252740
  F     -1.970920    1.583040   -2.151230
  H     -1.808530    3.100580   -5.064430
  H     -1.139800    1.520810   -4.732480
  H     -0.466120    2.934950   -3.958270

 Total Charge           Charge          ....    0
 Multiplicity           Mult            ....    1
 Number of Electrons    NEL             ....   32
 Basis Dimension        Dim             ....  110

ORBITAL ENERGIES
----------------

  NO   OCC          E(Eh)            E(eV)
   0   2.0000     -24.575109      -668.7227
   1   2.0000     -19.011907      -517.3403
   2   2.0000     -10.322853      -280.8991
   3   2.0000     -10.155868      -276.3552
   4   2.0000      -1.451578       -39.4994
   5   2.0000      -1.218813       -33.1656
   6   2.0000      -0.938659       -25.5422
   7   2.0000      -0.808611       -22.0034
   8   2.0000      -0.702629       -19.1195
   9   2.0000      -0.696977       -18.9657
  10   2.0000      -0.655710       -17.8428
  11   2.0000      -0.585898       -15.9431
  12   2.0000      -0.578653       -15.7459
  13   2.0000      -0.551256       -15.0004
  14   2.0000      -0.512076       -13.9343
  15   2.0000      -0.441441       -12.0122
  16   0.0000       0.073374         1.9966
  17   0.0000       0.080425         2.1885
  18   0.0000       0.119209         3.2439
  19   0.0000       0.153197         4.1687
  20   0.0000       0.159229         4.3328

MULLIKEN ATOMIC CHARGES
-----------------------
   0 C :    0.142205
   1 C :    0.319938
   2 O :   -0.350958
   3 F :   -0.344897
   4 H :    0.043342
   5 H :    0.096112
   6 H :    0.094258
Sum of atomic charges:   -0.0000000

LOEWDIN ATOMIC CHARGES
----------------------
   0 C :    0.183819
   1 C :   -0.050290
   2 O :   -0.113301
   3 F :   -0.043765
   4 H :    0.008549
   5 H :    0.008100
   6 H :    0.006888

  Mayer bond orders larger than 0.100000
B(  0-C ,  1-C ) :   1.2184 B(  0-C ,  4-H ) :   0.9271 B(  0-C ,  5-H ) :   0.8447
B(  0-C ,  6-H ) :   0.8428 B(  1-C ,  2-O ) :   1.9578 B(  1-C ,  3-F ) :   0.8001
B(  1-C ,  4-H ) :   0.1547

FINAL SINGLE POINT ENERGY      -252.238402882873

DIPOLE MOMENT
-------------
                                X             Y             Z
Electronic contribution:     -1.86668      -1.54259       4.45924
Nuclear contribution   :      2.88734       1.34891      -4.94049
                        -----------------------------------------
Total Dipole Moment    :      1.02066      -0.19368      -0.48125
                        -----------------------------------------
Magnitude (a.u.)       :      1.14493
Magnitude (Debye)      :      2.91018

Rotational constants in cm-1:     0.375207     0.313199     0.176202
Rotational constants in MHz : 11248.433436  9389.476975  5282.390844

                             ****ORCA TERMINATED NORMALLY****
TOTAL RUN TIME: 0 days 0 hours 0 minutes 7 seconds 996 msec
