                         Program Version 5.0.0 -  RELEASE  -
|  1> !LC-PBE RIJCOSX def2-SVPD def2/J TightSCF xyzfile
|  2>
|  3> *xyzfile 0 1 D1.xyz
|  4>
|  5> %MaxCore 64000
|  6>
|  7> %pal nprocs 4
|  8> end
|  9>
| 10> %scf
| 11>   MaxIter 150
| 12> end
| 13>
| 14>
| 15>                          ****END OF INPUT****

CARTESIAN COORDINATES (ANGSTROEM)
---------------------------------
  C      0.648656    1.003595   -3.645601
  C      0.281280    0.676454   -2.240179
  C      0.132968    2.385869   -4.024618
  C     -1.366462    2.479106   -4.313932
  C     -2.357732    2.306858   -3.136753
  H     -1.636802    1.727095   -5.063993
  H     -1.582347    3.445605   -4.768687
  H      0.390790   -0.319253   -2.026495
  H     -0.692686    0.990104   -2.138123
  H      0.854206    1.212214   -1.575279
  F     -3.443763    2.846518   -3.252744
  O     -1.970922    1.583042   -2.151229
  H      0.190993    0.239655   -4.275752
  H      1.731572    0.931729   -3.750751
  H      0.414839    3.102847   -3.245165
  H      0.683167    2.687560   -4.919721

 Total Charge           Charge          ....    0
 Multiplicity           Mult            ....    1
 Number of Electrons    NEL             ....   56
 Basis Dimension        Dim             ....  218

ORBITAL ENERGIES
----------------

  NO   OCC          E(Eh)            E(eV)
   0   2.0000     -24.609011      -669.6452
   1   2.0000     -19.007492      -517.2202
   2   2.0000     -10.339878      -281.3624
   3   2.0000     -10.170112      -276.7428
   4   2.0000     -10.137686      -275.8604
   5   2.0000     -10.108269      -275.0600
   6   2.0000     -10.034098      -273.0417
   7   2.0000      -1.508952       -41.0607
   8   2.0000      -1.201035       -32.6818
   9   2.0000      -0.993264       -27.0281
  10   2.0000      -0.927952       -25.2508
  11   2.0000      -0.851517       -23.1710
  12   2.0000      -0.822445       -22.3799
  13   2.0000      -0.744397       -20.2561
  14   2.0000      -0.732622       -19.9357
  15   2.0000      -0.716998       -19.5105
  16   2.0000      -0.677538       -18.4368
  17   2.0000      -0.634063       -17.2537
  18   2.0000      -0.596917       -16.2429
  19   2.0000      -0.579785       -15.7768
  20   2.0000      -0.552969       -15.0471
  21   2.0000      -0.522513       -14.2183
  22   2.0000      -0.514757       -14.0073
  23   2.0000      -0.492258       -13.3950
  24   2.0000      -0.477862       -13.0033
  25   2.0000      -0.448092       -12.1932
  26   2.0000      -0.441158       -12.0045
  27   2.0000      -0.374969       -10.2034
  28   0.0000       0.050646         1.3782
  29   0.0000       0.080305         2.1852
  30   0.0000       0.104284         2.8377
  31   0.0000       0.117068         3.1856
  32   0.0000       0.119699         3.2572

MULLIKEN ATOMIC CHARGES
-----------------------
   0 C :   -0.367846
   1 C :    1.775247
   2 C :   -0.057524
   3 C :   -0.213195
   4 C :    0.631253
   5 H :    0.250563
   6 H :    0.134827
   7 H :   -0.027575
   8 H :   -1.436629
   9 H :    0.031858
  10 F :   -0.292373
  11 O :   -0.410939
  12 H :    0.051674
  13 H :   -0.108556
  14 H :    0.044525
  15 H :   -0.005311
Sum of atomic charges:   -0.0000000

LOEWDIN ATOMIC CHARGES
----------------------
   0 C :   -0.079641
   1 C :    0.098384
   2 C :   -0.045710
   3 C :    0.039859
   4 C :    0.054293
   5 H :    0.058412
   6 H :    0.037686
   7 H :   -0.017488
   8 H :   -0.198705
   9 H :   -0.010982
  10 F :    0.020755
  11 O :   -0.103133
  12 H :    0.035218
  13 H :    0.029596
  14 H :    0.048067
  15 H :    0.033389

  Mayer bond orders larger than 0.100000
B(  0-C ,  1-C ) :   0.9946 B(  0-C ,  2-C ) :   1.1798 B(  0-C ,  7-H ) :   0.1771
B(  0-C ,  8-H ) :   0.4988 B(  0-C ,  9-H ) :   0.2061 B(  0-C , 12-H ) :   0.8868
B(  0-C , 13-H ) :   0.9860 B(  0-C , 14-H ) :   0.1001 B(  1-C ,  7-H ) :   0.6056
B(  1-C ,  8-H ) :  -0.9964 B(  1-C ,  9-H ) :   0.3962 B(  1-C , 11-O ) :  -0.1283
B(  2-C ,  3-C ) :   1.2479 B(  2-C ,  5-H ) :   0.1023 B(  2-C ,  6-H ) :   0.1244
B(  2-C , 14-H ) :   0.9079 B(  2-C , 15-H ) :   0.9202 B(  3-C ,  4-C ) :   1.1224
B(  3-C ,  5-H ) :   0.7850 B(  3-C ,  6-H ) :   0.8663 B(  3-C , 14-H ) :   0.1049
B(  4-C , 10-F ) :   0.8610 B(  4-C , 11-O ) :   1.7412 B(  7-H ,  8-H ) :   0.1866
B(  8-H ,  9-H ) :   0.4394 B(  8-H , 11-O ) :   0.2850

FINAL SINGLE POINT ENERGY      -369.611534776864

DIPOLE MOMENT
-------------
                                X             Y             Z
Electronic contribution:    -12.99271       4.61407       1.35965
Nuclear contribution   :     12.79331      -3.91961      -2.45895
                        -----------------------------------------
Total Dipole Moment    :     -0.19940       0.69446      -1.09930
                        -----------------------------------------
Magnitude (a.u.)       :      1.31548
Magnitude (Debye)      :      3.34368

Rotational constants in cm-1:     0.162888     0.059977     0.046450
Rotational constants in MHz :  4883.250030  1798.063289  1392.548669

                             ****ORCA TERMINATED NORMALLY****
TOTAL RUN TIME: 0 days 0 hours 0 minutes 41 seconds 564 msec
