                         Program Version 5.0.0 -  RELEASE  -
|  1> !CAM-B3LYP RIJCOSX def2-SVPD def2/J TightSCF
|  2> *xyz -1 1
|  3> C         -0.01741        0.08059       -2.77841
|  4> C         -0.90349       -0.87394       -1.98739
|  5> H         -0.50255       -1.89210       -2.08120
|  6> H         -1.91704       -0.89543       -2.40628
|  7> C         -0.96015       -0.52236       -0.48987
|  8> H         -1.69039       -1.20813       -0.02168
|  9> H         -1.41449        0.48633       -0.40668
| 10> O          0.26170       -0.58031        0.13861
| 11> H         -0.01329       -0.20776       -3.80881
| 12> H          0.98025        0.04284       -2.39348
| 13> H         -0.39697        1.07694       -2.68836
| 14> *
| 15>
| 16> %MaxCore 64000
| 17>
| 18> %pal nprocs 4
| 19> end
| 20>
| 21> %scf
| 22>   MaxIter 150
| 23> end
| 24>
| 25>
| 26>                          ****END OF INPUT****

CARTESIAN COORDINATES (ANGSTROEM)
---------------------------------
  C     -0.017410    0.080590   -2.778410
  C     -0.903490   -0.873940   -1.987390
  H     -0.502550   -1.892100   -2.081200
  H     -1.917040   -0.895430   -2.406280
  C     -0.960150   -0.522360   -0.489870
  H     -1.690390   -1.208130   -0.021680
  H     -1.414490    0.486330   -0.406680
  O      0.261700   -0.580310    0.138610
  H     -0.013290   -0.207760   -3.808810
  H      0.980250    0.042840   -2.393480
  H     -0.396970    1.076940   -2.688360

 Total Charge           Charge          ....   -1
 Multiplicity           Mult            ....    1
 Number of Electrons    NEL             ....   34
 Basis Dimension        Dim             ....  139

ORBITAL ENERGIES
----------------

  NO   OCC          E(Eh)            E(eV)
   0   2.0000     -18.882005      -513.8055
   1   2.0000     -10.076615      -274.1986
   2   2.0000     -10.074661      -274.1455
   3   2.0000     -10.067870      -273.9607
   4   2.0000      -0.753570       -20.5057
   5   2.0000      -0.660569       -17.9750
   6   2.0000      -0.541026       -14.7221
   7   2.0000      -0.437731       -11.9113
   8   2.0000      -0.345772        -9.4089
   9   2.0000      -0.337990        -9.1972
  10   2.0000      -0.288410        -7.8480
  11   2.0000      -0.254623        -6.9286
  12   2.0000      -0.227994        -6.2040
  13   2.0000      -0.219387        -5.9698
  14   2.0000      -0.177150        -4.8205
  15   2.0000      -0.036679        -0.9981
  16   2.0000      -0.033095        -0.9006
  17   0.0000       0.193334         5.2609
  18   0.0000       0.218535         5.9467
  19   0.0000       0.235233         6.4010
  20   0.0000       0.266289         7.2461
  21   0.0000       0.282865         7.6971

MULLIKEN ATOMIC CHARGES
-----------------------
   0 C :    0.784533
   1 C :   -0.357703
   2 H :   -0.116820
   3 H :   -0.153291
   4 C :    0.532750
   5 H :   -0.236228
   6 H :   -0.170734
   7 O :   -0.885191
   8 H :   -0.169990
   9 H :   -0.088753
  10 H :   -0.138573
Sum of atomic charges:   -1.0000000

LOEWDIN ATOMIC CHARGES
----------------------
   0 C :    0.086190
   1 C :   -0.115330
   2 H :    0.004244
   3 H :   -0.011168
   4 C :   -0.218148
   5 H :   -0.032946
   6 H :   -0.027305
   7 O :   -0.571551
   8 H :   -0.048792
   9 H :   -0.030717
  10 H :   -0.034476

  Mayer bond orders larger than 0.100000
B(  0-C ,  1-C ) :   1.2589 B(  0-C ,  8-H ) :   0.7542 B(  0-C ,  9-H ) :   0.8003
B(  0-C , 10-H ) :   0.7915 B(  1-C ,  2-H ) :   0.9462 B(  1-C ,  3-H ) :   0.9781
B(  1-C ,  4-C ) :   1.0350 B(  1-C ,  5-H ) :   0.1543 B(  1-C ,  6-H ) :   0.1291
B(  1-C ,  8-H ) :   0.2209 B(  1-C ,  9-H ) :   0.2202 B(  1-C , 10-H ) :   0.1982
B(  2-H ,  4-C ) :   0.1347 B(  4-C ,  5-H ) :   0.9333 B(  4-C ,  6-H ) :   0.9277
B(  4-C ,  7-O ) :   1.1808

FINAL SINGLE POINT ENERGY      -193.511320603369

DIPOLE MOMENT
-------------
                                X             Y             Z
Electronic contribution:      1.15701      -0.48787       2.62180
Nuclear contribution   :     -2.03764       0.64089      -4.61583
                        -----------------------------------------
Total Dipole Moment    :     -0.88064       0.15302      -1.99403
                        -----------------------------------------
Magnitude (a.u.)       :      2.18519
Magnitude (Debye)      :      5.55432

Rotational constants in cm-1:     0.508897     0.174909     0.148249
Rotational constants in MHz : 15256.351998  5243.652192  4444.387232

                             ****ORCA TERMINATED NORMALLY****
TOTAL RUN TIME: 0 days 0 hours 0 minutes 15 seconds 202 msec
