                         Program Version 5.0.0 -  RELEASE  -
|  1> !CAM-B3LYP RIJCOSX def2-SVPD def2/J TightSCF
|  2> *xyz 1 1
|  3> C          4.36645       -0.13321       -1.41606
|  4> C          4.50829       -0.93187       -2.72425
|  5> H          4.75372       -1.97205       -2.48841
|  6> C          3.29416       -0.91821       -3.65657
|  7> H          5.38564       -0.53624       -3.24264
|  8> C          3.05650       -0.32080       -0.70738
|  9> N          2.38983        0.71129       -0.24391
| 10> N          2.51600       -1.50772       -0.55023
| 11> H          2.96768       -2.32291       -0.95631
| 12> H          1.54987       -1.49063       -0.24988
| 13> H          2.74307        1.64947       -0.41280
| 14> H          1.44036        0.50278        0.03703
| 15> H          4.48784        0.93300       -1.61157
| 16> H          5.16967       -0.41443       -0.72982
| 17> H          3.50670       -1.50229       -4.52754
| 18> H          3.07837        0.08892       -3.94644
| 19> H          2.44880       -1.33173       -3.14739
| 20> *
| 21>
| 22> %MaxCore 64000
| 23>
| 24> %pal nprocs 4
| 25> end
| 26>
| 27> %scf
| 28>   MaxIter 150
| 29> end
| 30>
| 31>
| 32>                          ****END OF INPUT****

CARTESIAN COORDINATES (ANGSTROEM)
---------------------------------
  C      4.366450   -0.133210   -1.416060
  C      4.508290   -0.931870   -2.724250
  H      4.753720   -1.972050   -2.488410
  C      3.294160   -0.918210   -3.656570
  H      5.385640   -0.536240   -3.242640
  C      3.056500   -0.320800   -0.707380
  N      2.389830    0.711290   -0.243910
  N      2.516000   -1.507720   -0.550230
  H      2.967680   -2.322910   -0.956310
  H      1.549870   -1.490630   -0.249880
  H      2.743070    1.649470   -0.412800
  H      1.440360    0.502780    0.037030
  H      4.487840    0.933000   -1.611570
  H      5.169670   -0.414430   -0.729820
  H      3.506700   -1.502290   -4.527540
  H      3.078370    0.088920   -3.946440
  H      2.448800   -1.331730   -3.147390

 Total Charge           Charge          ....    1
 Multiplicity           Mult            ....    1
 Number of Electrons    NEL             ....   48
 Basis Dimension        Dim             ....  208

ORBITAL ENERGIES
----------------

  NO   OCC          E(Eh)            E(eV)
   0   2.0000     -14.651137      -398.6777
   1   2.0000     -14.649432      -398.6313
   2   2.0000     -10.582415      -287.9622
   3   2.0000     -10.455980      -284.5217
   4   2.0000     -10.422287      -283.6049
   5   2.0000     -10.388950      -282.6977
   6   2.0000      -1.288138       -35.0520
   7   2.0000      -1.179248       -32.0890
   8   2.0000      -1.052582       -28.6422
   9   2.0000      -0.964981       -26.2585
  10   2.0000      -0.904743       -24.6193
  11   2.0000      -0.865817       -23.5601
  12   2.0000      -0.838968       -22.8295
  13   2.0000      -0.806139       -21.9362
  14   2.0000      -0.773427       -21.0460
  15   2.0000      -0.731825       -19.9140
  16   2.0000      -0.702781       -19.1237
  17   2.0000      -0.664217       -18.0743
  18   2.0000      -0.649119       -17.6634
  19   2.0000      -0.629971       -17.1424
  20   2.0000      -0.574948       -15.6451
  21   2.0000      -0.570063       -15.5122
  22   2.0000      -0.561237       -15.2720
  23   2.0000      -0.551879       -15.0174
  24   0.0000      -0.166000        -4.5171
  25   0.0000      -0.125344        -3.4108
  26   0.0000      -0.084880        -2.3097
  27   0.0000      -0.081777        -2.2253
  28   0.0000      -0.050573        -1.3762

MULLIKEN ATOMIC CHARGES
-----------------------
   0 C :    0.385529
   1 C :   -0.253743
   2 H :   -0.084208
   3 C :    0.951720
   4 H :   -0.239863
   5 C :    0.335155
   6 N :    0.225240
   7 N :    0.202987
   8 H :    0.014597
   9 H :   -0.107739
  10 H :   -0.018796
  11 H :   -0.101642
  12 H :    0.098122
  13 H :   -0.074011
  14 H :   -0.112491
  15 H :   -0.075287
  16 H :   -0.145570
Sum of atomic charges:    1.0000000

LOEWDIN ATOMIC CHARGES
----------------------
   0 C :    0.054329
   1 C :   -0.046795
   2 H :    0.024691
   3 C :    0.143793
   4 H :    0.039640
   5 C :   -0.050006
   6 N :    0.286779
   7 N :    0.290341
   8 H :    0.055153
   9 H :    0.045716
  10 H :    0.058108
  11 H :    0.043469
  12 H :    0.038183
  13 H :    0.056536
  14 H :    0.001966
  15 H :   -0.005088
  16 H :   -0.036816

  Mayer bond orders larger than 0.100000
B(  0-C ,  1-C ) :   1.2106 B(  0-C ,  2-H ) :   0.1232 B(  0-C ,  4-H ) :   0.1414
B(  0-C ,  5-C ) :   1.1844 B(  0-C , 12-H ) :   0.7564 B(  0-C , 13-H ) :   0.7284
B(  1-C ,  2-H ) :   0.8841 B(  1-C ,  3-C ) :   1.3349 B(  1-C ,  4-H ) :   0.9348
B(  1-C , 12-H ) :   0.1650 B(  1-C , 13-H ) :   0.1192 B(  1-C , 14-H ) :   0.2472
B(  1-C , 15-H ) :   0.2258 B(  1-C , 16-H ) :   0.2335 B(  3-C , 14-H ) :   0.7084
B(  3-C , 15-H ) :   0.7429 B(  3-C , 16-H ) :   0.7754 B(  5-C ,  6-N ) :   1.1439
B(  5-C ,  7-N ) :   1.2060 B(  5-C ,  9-H ) :  -0.1294 B(  5-C , 12-H ) :   0.1767
B(  5-C , 13-H ) :   0.1981 B(  6-N ,  7-N ) :   0.1949 B(  6-N , 10-H ) :   1.1361
B(  6-N , 11-H ) :   1.1762 B(  7-N ,  8-H ) :   1.0468 B(  7-N ,  9-H ) :   1.2429
B(  8-H ,  9-H ) :  -0.1765 B( 10-H , 11-H ) :  -0.1478

FINAL SINGLE POINT ENERGY      -268.012222761563

DIPOLE MOMENT
-------------
                                X             Y             Z
Electronic contribution:     -1.79039       0.89602       5.03800
Nuclear contribution   :      0.92830      -0.63755      -3.99475
                        -----------------------------------------
Total Dipole Moment    :     -0.86209       0.25847       1.04325
                        -----------------------------------------
Magnitude (a.u.)       :      1.37782
Magnitude (Debye)      :      3.50213

Rotational constants in cm-1:     0.183706     0.077449     0.071296
Rotational constants in MHz :  5507.368439  2321.870034  2137.394204

                             ****ORCA TERMINATED NORMALLY****
TOTAL RUN TIME: 0 days 0 hours 0 minutes 34 seconds 793 msec
