                         Program Version 5.0.0 -  RELEASE  -
|  1> !CAM-B3LYP RIJCOSX def2-SVPD def2/J TightSCF
|  2> *xyz 0 1
|  3> C         -0.01741        0.08059       -2.77841
|  4> C         -0.90349       -0.87394       -1.98739
|  5> H         -0.50255       -1.89210       -2.08120
|  6> H         -1.91704       -0.89543       -2.40628
|  7> C         -0.96015       -0.52236       -0.48987
|  8> H         -1.69039       -1.20813       -0.02168
|  9> H         -1.41449        0.48633       -0.40668
| 10> F          0.26170       -0.58031        0.13861
| 11> H         -0.01329       -0.20776       -3.80881
| 12> H          0.98025        0.04284       -2.39348
| 13> H         -0.39697        1.07694       -2.68836
| 14> *
| 15>
| 16> %MaxCore 64000
| 17>
| 18> %pal nprocs 4
| 19> end
| 20>
| 21> %scf
| 22>   MaxIter 150
| 23> end
| 24>
| 25>
| 26>                          ****END OF INPUT****

CARTESIAN COORDINATES (ANGSTROEM)
---------------------------------
  C     -0.017410    0.080590   -2.778410
  C     -0.903490   -0.873940   -1.987390
  H     -0.502550   -1.892100   -2.081200
  H     -1.917040   -0.895430   -2.406280
  C     -0.960150   -0.522360   -0.489870
  H     -1.690390   -1.208130   -0.021680
  H     -1.414490    0.486330   -0.406680
  F      0.261700   -0.580310    0.138610
  H     -0.013290   -0.207760   -3.808810
  H      0.980250    0.042840   -2.393480
  H     -0.396970    1.076940   -2.688360

 Total Charge           Charge          ....    0
 Multiplicity           Mult            ....    1
 Number of Electrons    NEL             ....   34
 Basis Dimension        Dim             ....  139

ORBITAL ENERGIES
----------------

  NO   OCC          E(Eh)            E(eV)
   0   2.0000     -24.762668      -673.8264
   1   2.0000     -10.338557      -281.3264
   2   2.0000     -10.266615      -279.3688
   3   2.0000     -10.246017      -278.8083
   4   2.0000      -1.264621       -34.4121
   5   2.0000      -0.868403       -23.6305
   6   2.0000      -0.765444       -20.8288
   7   2.0000      -0.671405       -18.2699
   8   2.0000      -0.584157       -15.8957
   9   2.0000      -0.568899       -15.4805
  10   2.0000      -0.543809       -14.7978
  11   2.0000      -0.508294       -13.8314
  12   2.0000      -0.472931       -12.8691
  13   2.0000      -0.446351       -12.1458
  14   2.0000      -0.420401       -11.4397
  15   2.0000      -0.395605       -10.7649
  16   2.0000      -0.394290       -10.7292
  17   0.0000       0.051143         1.3917
  18   0.0000       0.076638         2.0854
  19   0.0000       0.085353         2.3226
  20   0.0000       0.101780         2.7696
  21   0.0000       0.125810         3.4235

MULLIKEN ATOMIC CHARGES
-----------------------
   0 C :    0.810244
   1 C :   -0.334465
   2 H :   -0.122654
   3 H :   -0.137673
   4 C :    0.837042
   5 H :   -0.155318
   6 H :   -0.097569
   7 F :   -0.436320
   8 H :   -0.142734
   9 H :   -0.096379
  10 H :   -0.124175
Sum of atomic charges:    0.0000000

LOEWDIN ATOMIC CHARGES
----------------------
   0 C :    0.119636
   1 C :   -0.067591
   2 H :    0.025419
   3 H :    0.026969
   4 C :    0.095950
   5 H :    0.029326
   6 H :    0.033978
   7 F :   -0.212322
   8 H :   -0.018933
   9 H :   -0.014909
  10 H :   -0.017522

  Mayer bond orders larger than 0.100000
B(  0-C ,  1-C ) :   1.2923 B(  0-C ,  8-H ) :   0.7781 B(  0-C ,  9-H ) :   0.7902
B(  0-C , 10-H ) :   0.7870 B(  1-C ,  2-H ) :   0.9343 B(  1-C ,  3-H ) :   0.9475
B(  1-C ,  4-C ) :   1.1681 B(  1-C ,  5-H ) :   0.1255 B(  1-C ,  6-H ) :   0.1050
B(  1-C ,  8-H ) :   0.2082 B(  1-C ,  9-H ) :   0.2008 B(  1-C , 10-H ) :   0.1835
B(  4-C ,  5-H ) :   0.8897 B(  4-C ,  6-H ) :   0.8881 B(  4-C ,  7-F ) :   0.7433

FINAL SINGLE POINT ENERGY      -218.125008444641

DIPOLE MOMENT
-------------
                                X             Y             Z
Electronic contribution:      2.22351      -0.77588       5.87557
Nuclear contribution   :     -2.83598       0.77614      -6.32113
                        -----------------------------------------
Total Dipole Moment    :     -0.61248       0.00026      -0.44556
                        -----------------------------------------
Magnitude (a.u.)       :      0.75740
Magnitude (Debye)      :      1.92516

Rotational constants in cm-1:     0.494803     0.164634     0.139827
Rotational constants in MHz : 14833.819345  4935.593559  4191.919783

                             ****ORCA TERMINATED NORMALLY****
TOTAL RUN TIME: 0 days 0 hours 0 minutes 13 seconds 590 msec
