                         Program Version 5.0.0 -  RELEASE  -
|  1> !CAM-B3LYP RIJCOSX def2-SVPD def2/J TightSCF
|  2> *xyz 0 1
|  3> C          4.36645       -0.13321       -1.41606
|  4> C          4.50829       -0.93187       -2.72425
|  5> H          4.75372       -1.97205       -2.48841
|  6> C          3.29416       -0.91821       -3.65657
|  7> H          5.38564       -0.53624       -3.24264
|  8> C          3.05650       -0.32080       -0.70738
|  9> C          2.38983        0.71129       -0.24391
| 10> N          2.51600       -1.50772       -0.55023
| 11> H          2.96768       -2.32291       -0.95631
| 12> H          1.54987       -1.49063       -0.24988
| 13> H          2.74307        1.64947       -0.41280
| 14> H          1.44036        0.50278        0.03703
| 15> H          4.48784        0.93300       -1.61157
| 16> H          5.16967       -0.41443       -0.72982
| 17> H          3.50670       -1.50229       -4.52754
| 18> H          3.07837        0.08892       -3.94644
| 19> H          2.44880       -1.33173       -3.14739
| 20> *
| 21>
| 22> %MaxCore 64000
| 23>
| 24> %pal nprocs 4
| 25> end
| 26>
| 27> %scf
| 28>   MaxIter 150
| 29> end
| 30>
| 31>
| 32>                          ****END OF INPUT****

CARTESIAN COORDINATES (ANGSTROEM)
---------------------------------
  C      4.366450   -0.133210   -1.416060
  C      4.508290   -0.931870   -2.724250
  H      4.753720   -1.972050   -2.488410
  C      3.294160   -0.918210   -3.656570
  H      5.385640   -0.536240   -3.242640
  C      3.056500   -0.320800   -0.707380
  C      2.389830    0.711290   -0.243910
  N      2.516000   -1.507720   -0.550230
  H      2.967680   -2.322910   -0.956310
  H      1.549870   -1.490630   -0.249880
  H      2.743070    1.649470   -0.412800
  H      1.440360    0.502780    0.037030
  H      4.487840    0.933000   -1.611570
  H      5.169670   -0.414430   -0.729820
  H      3.506700   -1.502290   -4.527540
  H      3.078370    0.088920   -3.946440
  H      2.448800   -1.331730   -3.147390

 Total Charge           Charge          ....    0
 Multiplicity           Mult            ....    1
 Number of Electrons    NEL             ....   48
 Basis Dimension        Dim             ....  208

ORBITAL ENERGIES
----------------

  NO   OCC          E(Eh)            E(eV)
   0   2.0000     -14.404500      -391.9664
   1   2.0000     -10.277567      -279.6668
   2   2.0000     -10.260362      -279.1986
   3   2.0000     -10.258179      -279.1392
   4   2.0000     -10.241364      -278.6817
   5   2.0000     -10.190550      -277.2990
   6   2.0000      -1.009789       -27.4778
   7   2.0000      -0.869709       -23.6660
   8   2.0000      -0.812652       -22.1134
   9   2.0000      -0.760739       -20.7008
  10   2.0000      -0.676118       -18.3981
  11   2.0000      -0.632006       -17.1978
  12   2.0000      -0.604852       -16.4589
  13   2.0000      -0.531875       -14.4730
  14   2.0000      -0.526882       -14.3372
  15   2.0000      -0.523620       -14.2484
  16   2.0000      -0.464575       -12.6417
  17   2.0000      -0.462790       -12.5932
  18   2.0000      -0.448901       -12.2152
  19   2.0000      -0.430970       -11.7273
  20   2.0000      -0.399771       -10.8783
  21   2.0000      -0.398863       -10.8536
  22   2.0000      -0.386694       -10.5225
  23   2.0000      -0.249394        -6.7864
  24   0.0000       0.045071         1.2264
  25   0.0000       0.068228         1.8566
  26   0.0000       0.078592         2.1386
  27   0.0000       0.082265         2.2385
  28   0.0000       0.096907         2.6370

MULLIKEN ATOMIC CHARGES
-----------------------
   0 C :    0.536393
   1 C :   -0.259666
   2 H :   -0.113489
   3 C :    0.960544
   4 H :   -0.253555
   5 C :   -0.441369
   6 C :    0.528470
   7 N :    0.366973
   8 H :   -0.102707
   9 H :   -0.142035
  10 H :   -0.249091
  11 H :   -0.436931
  12 H :    0.148699
  13 H :   -0.159209
  14 H :   -0.111809
  15 H :   -0.104870
  16 H :   -0.166346
Sum of atomic charges:    0.0000000

LOEWDIN ATOMIC CHARGES
----------------------
   0 C :    0.014322
   1 C :   -0.071341
   2 H :    0.009355
   3 C :    0.126236
   4 H :    0.016545
   5 C :   -0.267854
   6 C :    0.174019
   7 N :    0.173505
   8 H :    0.004188
   9 H :    0.006733
  10 H :   -0.079084
  11 H :   -0.085389
  12 H :    0.023002
  13 H :    0.026370
  14 H :   -0.019441
  15 H :   -0.014066
  16 H :   -0.037101

  Mayer bond orders larger than 0.100000
B(  0-C ,  1-C ) :   1.1827 B(  0-C ,  2-H ) :   0.1628 B(  0-C ,  4-H ) :   0.1764
B(  0-C ,  5-C ) :   1.2213 B(  0-C , 10-H ) :  -0.1070 B(  0-C , 12-H ) :   0.7586
B(  0-C , 13-H ) :   0.6568 B(  1-C ,  2-H ) :   0.8540 B(  1-C ,  3-C ) :   1.3104
B(  1-C ,  4-H ) :   0.9014 B(  1-C ,  5-C ) :   0.1250 B(  1-C , 12-H ) :   0.1743
B(  1-C , 13-H ) :   0.1126 B(  1-C , 14-H ) :   0.2538 B(  1-C , 15-H ) :   0.2342
B(  1-C , 16-H ) :   0.2369 B(  3-C , 14-H ) :   0.6768 B(  3-C , 15-H ) :   0.7352
B(  3-C , 16-H ) :   0.7881 B(  5-C ,  6-C ) :   1.8420 B(  5-C ,  7-N ) :   1.2338
B(  5-C , 11-H ) :   0.3662 B(  5-C , 12-H ) :   0.1060 B(  5-C , 13-H ) :   0.2790
B(  6-C ,  7-N ) :   0.3174 B(  6-C , 10-H ) :   0.9691 B(  6-C , 11-H ) :   0.5305
B(  7-N ,  8-H ) :   1.0185 B(  7-N ,  9-H ) :   1.1152 B(  8-H ,  9-H ) :  -0.1544
B( 15-H , 16-H ) :   0.1027

FINAL SINGLE POINT ENERGY      -251.552287579972

DIPOLE MOMENT
-------------
                                X             Y             Z
Electronic contribution:     -0.63675      -0.28914       3.29206
Nuclear contribution   :      0.70803      -0.34641      -3.68680
                        -----------------------------------------
Total Dipole Moment    :      0.07128      -0.63555      -0.39474
                        -----------------------------------------
Magnitude (a.u.)       :      0.75155
Magnitude (Debye)      :      1.91029

Rotational constants in cm-1:     0.186653     0.080341     0.073591
Rotational constants in MHz :  5595.710092  2408.571280  2206.200061

                             ****ORCA TERMINATED NORMALLY****
TOTAL RUN TIME: 0 days 0 hours 0 minutes 37 seconds 24 msec
