                         Program Version 5.0.0 -  RELEASE  -
|  1> !CAM-B3LYP RIJCOSX def2-SVPD def2/J TightSCF
|  2> *xyz 0 1
|  3> C          4.36645       -0.13321       -1.41606
|  4> C          4.50829       -0.93187       -2.72425
|  5> H          4.75372       -1.97205       -2.48841
|  6> C          3.29416       -0.91821       -3.65657
|  7> H          5.38564       -0.53624       -3.24264
|  8> C          3.05650       -0.32080       -0.70738
|  9> N          2.38983        0.71129       -0.24391
| 10> C          2.51600       -1.50772       -0.55023
| 11> H          2.96768       -2.32291       -0.95631
| 12> H          1.54987       -1.49063       -0.24988
| 13> H          2.74307        1.64947       -0.41280
| 14> H          1.44036        0.50278        0.03703
| 15> H          4.48784        0.93300       -1.61157
| 16> H          5.16967       -0.41443       -0.72982
| 17> H          3.50670       -1.50229       -4.52754
| 18> H          3.07837        0.08892       -3.94644
| 19> H          2.44880       -1.33173       -3.14739
| 20> *
| 21>
| 22> %MaxCore 64000
| 23>
| 24> %pal nprocs 4
| 25> end
| 26>
| 27> %scf
| 28>   MaxIter 150
| 29> end
| 30>
| 31>
| 32>                          ****END OF INPUT****

CARTESIAN COORDINATES (ANGSTROEM)
---------------------------------
  C      4.366450   -0.133210   -1.416060
  C      4.508290   -0.931870   -2.724250
  H      4.753720   -1.972050   -2.488410
  C      3.294160   -0.918210   -3.656570
  H      5.385640   -0.536240   -3.242640
  C      3.056500   -0.320800   -0.707380
  N      2.389830    0.711290   -0.243910
  C      2.516000   -1.507720   -0.550230
  H      2.967680   -2.322910   -0.956310
  H      1.549870   -1.490630   -0.249880
  H      2.743070    1.649470   -0.412800
  H      1.440360    0.502780    0.037030
  H      4.487840    0.933000   -1.611570
  H      5.169670   -0.414430   -0.729820
  H      3.506700   -1.502290   -4.527540
  H      3.078370    0.088920   -3.946440
  H      2.448800   -1.331730   -3.147390

 Total Charge           Charge          ....    0
 Multiplicity           Mult            ....    1
 Number of Electrons    NEL             ....   48
 Basis Dimension        Dim             ....  208

ORBITAL ENERGIES
----------------

  NO   OCC          E(Eh)            E(eV)
   0   2.0000     -14.405009      -391.9802
   1   2.0000     -10.277669      -279.6696
   2   2.0000     -10.259932      -279.1869
   3   2.0000     -10.255177      -279.0576
   4   2.0000     -10.234079      -278.4835
   5   2.0000     -10.188324      -277.2384
   6   2.0000      -1.009609       -27.4728
   7   2.0000      -0.870590       -23.6900
   8   2.0000      -0.800256       -21.7761
   9   2.0000      -0.765294       -20.8247
  10   2.0000      -0.680072       -18.5057
  11   2.0000      -0.621748       -16.9186
  12   2.0000      -0.599096       -16.3022
  13   2.0000      -0.553537       -15.0625
  14   2.0000      -0.524807       -14.2807
  15   2.0000      -0.500547       -13.6206
  16   2.0000      -0.472094       -12.8463
  17   2.0000      -0.460009       -12.5175
  18   2.0000      -0.437642       -11.9088
  19   2.0000      -0.428596       -11.6627
  20   2.0000      -0.402356       -10.9487
  21   2.0000      -0.390642       -10.6299
  22   2.0000      -0.388617       -10.5748
  23   2.0000      -0.247000        -6.7212
  24   0.0000       0.050082         1.3628
  25   0.0000       0.066886         1.8201
  26   0.0000       0.074898         2.0381
  27   0.0000       0.083487         2.2718
  28   0.0000       0.100751         2.7416

MULLIKEN ATOMIC CHARGES
-----------------------
   0 C :    0.699427
   1 C :   -0.286403
   2 H :   -0.065451
   3 C :    0.957069
   4 H :   -0.274344
   5 C :   -0.346120
   6 N :    0.320534
   7 C :    0.667084
   8 H :   -0.212496
   9 H :   -0.605842
  10 H :   -0.171604
  11 H :   -0.104553
  12 H :   -0.031079
  13 H :   -0.171189
  14 H :   -0.140607
  15 H :   -0.106693
  16 H :   -0.127734
Sum of atomic charges:   -0.0000000

LOEWDIN ATOMIC CHARGES
----------------------
   0 C :    0.014609
   1 C :   -0.065984
   2 H :    0.015967
   3 C :    0.127279
   4 H :    0.015249
   5 C :   -0.257735
   6 N :    0.169925
   7 C :    0.166805
   8 H :   -0.074518
   9 H :   -0.084008
  10 H :    0.001725
  11 H :    0.004138
  12 H :    0.011761
  13 H :    0.028837
  14 H :   -0.019710
  15 H :   -0.017753
  16 H :   -0.036589

  Mayer bond orders larger than 0.100000
B(  0-C ,  1-C ) :   1.1974 B(  0-C ,  2-H ) :   0.1227 B(  0-C ,  4-H ) :   0.1847
B(  0-C ,  5-C ) :   1.0690 B(  0-C , 12-H ) :   0.5826 B(  0-C , 13-H ) :   0.7421
B(  1-C ,  2-H ) :   0.8621 B(  1-C ,  3-C ) :   1.3208 B(  1-C ,  4-H ) :   0.8939
B(  1-C , 12-H ) :   0.1613 B(  1-C , 13-H ) :   0.1432 B(  1-C , 14-H ) :   0.2628
B(  1-C , 15-H ) :   0.2392 B(  1-C , 16-H ) :   0.2580 B(  3-C , 14-H ) :   0.6775
B(  3-C , 15-H ) :   0.7382 B(  3-C , 16-H ) :   0.7768 B(  5-C ,  6-N ) :   1.1894
B(  5-C ,  7-C ) :   1.9267 B(  5-C ,  8-H ) :   0.1697 B(  5-C ,  9-H ) :   0.3077
B(  5-C , 12-H ) :   0.2708 B(  5-C , 13-H ) :   0.1780 B(  6-N ,  7-C ) :   0.2667
B(  6-N , 10-H ) :   1.1405 B(  6-N , 11-H ) :   1.0909 B(  7-C ,  8-H ) :   0.6965
B(  7-C ,  9-H ) :   0.6191 B(  8-H ,  9-H ) :  -0.1421 B( 10-H , 11-H ) :  -0.1242
B( 15-H , 16-H ) :   0.1014

FINAL SINGLE POINT ENERGY      -251.550408944607

DIPOLE MOMENT
-------------
                                X             Y             Z
Electronic contribution:     -0.74643       1.57241       3.57524
Nuclear contribution   :      0.73787      -0.87128      -3.75926
                        -----------------------------------------
Total Dipole Moment    :     -0.00856       0.70113      -0.18401
                        -----------------------------------------
Magnitude (a.u.)       :      0.72492
Magnitude (Debye)      :      1.84261

Rotational constants in cm-1:     0.191039     0.078358     0.072723
Rotational constants in MHz :  5727.202281  2349.118247  2180.181745

                             ****ORCA TERMINATED NORMALLY****
TOTAL RUN TIME: 0 days 0 hours 0 minutes 38 seconds 603 msec
