                         Program Version 5.0.0 -  RELEASE  -
|  1> !B3LYP D3BJ RIJCOSX def2-TZVP def2/J TightSCF
|  2>
|  3> *xyz -1 1
|  4> C          2.95263        1.86308       -3.57485
|  5> C          4.12921        0.89839       -3.41895
|  6> H          3.73369       -0.10060       -3.23763
|  7> H          4.71910        0.86256       -4.33901
|  8> C          5.01734        1.31521       -2.22130
|  9> O          4.73706        0.85411       -1.12283
| 10> O          5.92815        2.16811       -2.49136
| 11> H          2.35067        1.56005       -4.40594
| 12> H          3.32277        2.85258       -3.74453
| 13> H          2.36134        1.85149       -2.68315
| 14> *
| 15> %MaxCore 64000
| 16>
| 17> %pal nprocs 4
| 18> end
| 19>
| 20> %scf
| 21>   MaxIter 150
| 22> end
| 23>
| 24>
| 25>                          ****END OF INPUT****

CARTESIAN COORDINATES (ANGSTROEM)
---------------------------------
  C      2.952630    1.863080   -3.574850
  C      4.129210    0.898390   -3.418950
  H      3.733690   -0.100600   -3.237630
  H      4.719100    0.862560   -4.339010
  C      5.017340    1.315210   -2.221300
  O      4.737060    0.854110   -1.122830
  O      5.928150    2.168110   -2.491360
  H      2.350670    1.560050   -4.405940
  H      3.322770    2.852580   -3.744530
  H      2.361340    1.851490   -2.683150

 Total Charge           Charge          ....   -1
 Multiplicity           Mult            ....    1
 Number of Electrons    NEL             ....   40
 Basis Dimension        Dim             ....  185

ORBITAL ENERGIES
----------------

  NO   OCC          E(Eh)            E(eV)
   0   2.0000     -18.853995      -513.0433
   1   2.0000     -18.842852      -512.7401
   2   2.0000     -10.040784      -273.2236
   3   2.0000     -10.001450      -272.1533
   4   2.0000      -9.985635      -271.7229
   5   2.0000      -0.815500       -22.1909
   6   2.0000      -0.719574       -19.5806
   7   2.0000      -0.599639       -16.3170
   8   2.0000      -0.464265       -12.6333
   9   2.0000      -0.314306        -8.5527
  10   2.0000      -0.286006        -7.7826
  11   2.0000      -0.253895        -6.9088
  12   2.0000      -0.223087        -6.0705
  13   2.0000      -0.204713        -5.5705
  14   2.0000      -0.204366        -5.5611
  15   2.0000      -0.171642        -4.6706
  16   2.0000      -0.159017        -4.3271
  17   2.0000      -0.040133        -1.0921
  18   2.0000      -0.031189        -0.8487
  19   2.0000      -0.019101        -0.5198
  20   0.0000       0.184605         5.0234
  21   0.0000       0.225219         6.1285
  22   0.0000       0.244259         6.6466
  23   0.0000       0.249633         6.7929
  24   0.0000       0.269826         7.3423

MULLIKEN ATOMIC CHARGES
-----------------------
   0 C :   -0.326832
   1 C :   -0.104186
   2 H :    0.014526
   3 H :    0.021681
   4 C :    0.223820
   5 O :   -0.483994
   6 O :   -0.565765
   7 H :    0.048984
   8 H :    0.086202
   9 H :    0.085562
Sum of atomic charges:   -1.0000000

LOEWDIN ATOMIC CHARGES
----------------------
   0 C :   -0.320369
   1 C :   -0.287912
   2 H :    0.110515
   3 H :    0.111588
   4 C :   -0.706323
   5 O :   -0.063838
   6 O :   -0.151178
   7 H :    0.091520
   8 H :    0.108178
   9 H :    0.107820

  Mayer bond orders larger than 0.100000
B(  0-C ,  1-C ) :   0.9594 B(  0-C ,  7-H ) :   0.9713 B(  0-C ,  8-H ) :   0.9802
B(  0-C ,  9-H ) :   0.9828 B(  1-C ,  2-H ) :   0.9454 B(  1-C ,  3-H ) :   0.9504
B(  1-C ,  4-C ) :   0.9082 B(  4-C ,  5-O ) :   1.9085 B(  4-C ,  6-O ) :   1.8310

Dispersion correction           -0.010997444
FINAL SINGLE POINT ENERGY      -267.809793407163

DIPOLE MOMENT
-------------
                                X             Y             Z
Electronic contribution:      4.48186      -0.17189       3.96221
Nuclear contribution   :     -5.85873      -0.10793      -5.24103
                        -----------------------------------------
Total Dipole Moment    :     -1.37687      -0.27982      -1.27882
                        -----------------------------------------
Magnitude (a.u.)       :      1.89986
Magnitude (Debye)      :      4.82906

Rotational constants in cm-1:     0.292505     0.135951     0.110253
Rotational constants in MHz :  8769.065873  4075.717001  3305.311891

                             ****ORCA TERMINATED NORMALLY****
TOTAL RUN TIME: 0 days 0 hours 0 minutes 20 seconds 642 msec
