                         Program Version 5.0.0 -  RELEASE  -
|  1> !B3LYP D3BJ RIJCOSX def2-TZVP def2/J TightSCF
|  2>
|  3> *xyz 1 1
|  4> C          3.34350        3.35457       -3.59200
|  5> C          2.95263        1.86308       -3.57485
|  6> C          4.25587        3.70385       -4.72605
|  7> N          3.73403        4.29378       -5.80077
|  8> N          5.51504        3.40725       -4.63718
|  9> H          6.14919        3.60120       -5.39905
| 10> H          5.81358        2.89950       -3.80879
| 11> H          2.74138        4.51311       -5.82470
| 12> H          4.28755        4.52126       -6.61434
| 13> H          3.86125        3.59725       -2.66298
| 14> H          2.44649        3.97346       -3.65656
| 15> H          2.44395        1.61721       -4.48352
| 16> H          2.30781        1.67290       -2.74242
| 17> H          3.83491        1.26414       -3.48670
| 18> *
| 19> %MaxCore 64000
| 20>
| 21> %pal nprocs 4
| 22> end
| 23>
| 24> %scf
| 25>   MaxIter 150
| 26> end
| 27>
| 28>
| 29>                          ****END OF INPUT****

CARTESIAN COORDINATES (ANGSTROEM)
---------------------------------
  C      3.343500    3.354570   -3.592000
  C      2.952630    1.863080   -3.574850
  C      4.255870    3.703850   -4.726050
  N      3.734030    4.293780   -5.800770
  N      5.515040    3.407250   -4.637180
  H      6.149190    3.601200   -5.399050
  H      5.813580    2.899500   -3.808790
  H      2.741380    4.513110   -5.824700
  H      4.287550    4.521260   -6.614340
  H      3.861250    3.597250   -2.662980
  H      2.446490    3.973460   -3.656560
  H      2.443950    1.617210   -4.483520
  H      2.307810    1.672900   -2.742420
  H      3.834910    1.264140   -3.486700

 Total Charge           Charge          ....    1
 Multiplicity           Mult            ....    1
 Number of Electrons    NEL             ....   40
 Basis Dimension        Dim             ....  209

ORBITAL ENERGIES
----------------

  NO   OCC          E(Eh)            E(eV)
   0   2.0000     -14.562796      -396.2738
   1   2.0000     -14.558286      -396.1511
   2   2.0000     -10.489638      -285.4376
   3   2.0000     -10.367108      -282.1034
   4   2.0000     -10.323397      -280.9139
   5   2.0000      -1.204203       -32.7680
   6   2.0000      -1.110480       -30.2177
   7   2.0000      -0.967678       -26.3319
   8   2.0000      -0.861039       -23.4301
   9   2.0000      -0.815677       -22.1957
  10   2.0000      -0.778277       -21.1780
  11   2.0000      -0.751405       -20.4468
  12   2.0000      -0.703737       -19.1497
  13   2.0000      -0.647637       -17.6231
  14   2.0000      -0.624416       -16.9912
  15   2.0000      -0.612787       -16.6748
  16   2.0000      -0.545328       -14.8391
  17   2.0000      -0.537329       -14.6215
  18   2.0000      -0.529956       -14.4208
  19   2.0000      -0.493378       -13.4255
  20   0.0000      -0.207932        -5.6581
  21   0.0000      -0.162735        -4.4282
  22   0.0000      -0.116988        -3.1834
  23   0.0000      -0.113798        -3.0966
  24   0.0000      -0.086102        -2.3430

MULLIKEN ATOMIC CHARGES
-----------------------
   0 C :   -0.247147
   1 C :   -0.310458
   2 C :    0.334596
   3 N :   -0.339731
   4 N :   -0.295203
   5 H :    0.274443
   6 H :    0.293502
   7 H :    0.291875
   8 H :    0.272490
   9 H :    0.160603
  10 H :    0.139442
  11 H :    0.135201
  12 H :    0.166217
  13 H :    0.124171
Sum of atomic charges:    1.0000000

LOEWDIN ATOMIC CHARGES
----------------------
   0 C :   -0.215788
   1 C :   -0.253937
   2 C :   -0.289952
   3 N :    0.103692
   4 N :    0.130691
   5 H :    0.200864
   6 H :    0.215171
   7 H :    0.207920
   8 H :    0.193575
   9 H :    0.163262
  10 H :    0.157942
  11 H :    0.126948
  12 H :    0.137335
  13 H :    0.122278

  Mayer bond orders larger than 0.100000
B(  0-C ,  1-C ) :   0.9462 B(  0-C ,  2-C ) :   0.9682 B(  0-C ,  9-H ) :   0.9527
B(  0-C , 10-H ) :   0.9643 B(  1-C , 11-H ) :   0.9630 B(  1-C , 12-H ) :   0.9657
B(  1-C , 13-H ) :   0.9684 B(  2-C ,  3-N ) :   1.4334 B(  2-C ,  4-N ) :   1.4752
B(  3-N ,  7-H ) :   0.8887 B(  3-N ,  8-H ) :   0.8949 B(  4-N ,  5-H ) :   0.8923
B(  4-N ,  6-H ) :   0.8863

Dispersion correction           -0.016658870
FINAL SINGLE POINT ENERGY      -228.993291958945

DIPOLE MOMENT
-------------
                                X             Y             Z
Electronic contribution:      2.37781       2.57756      -2.28702
Nuclear contribution   :     -1.74195      -2.09431       1.58516
                        -----------------------------------------
Total Dipole Moment    :      0.63587       0.48325      -0.70185
                        -----------------------------------------
Magnitude (a.u.)       :      1.06323
Magnitude (Debye)      :      2.70252

Rotational constants in cm-1:     0.258965     0.126500     0.098780
Rotational constants in MHz :  7763.584551  3792.383135  2961.336502

                             ****ORCA TERMINATED NORMALLY****
TOTAL RUN TIME: 0 days 0 hours 0 minutes 23 seconds 674 msec
