                         Program Version 5.0.0 -  RELEASE  -
|  1> !B3LYP D3BJ RIJCOSX def2-TZVP def2/J TightSCF
|  2>
|  3> *xyz 0 1
|  4> C          2.95263        1.86308       -3.57485
|  5> C          4.12921        0.89839       -3.41895
|  6> H          3.73369       -0.10060       -3.23763
|  7> H          4.71910        0.86256       -4.33901
|  8> C          5.01734        1.31521       -2.22130
|  9> F          4.73706        0.85411       -1.12283
| 10> O          5.92815        2.16811       -2.49136
| 11> H          2.35067        1.56005       -4.40594
| 12> H          3.32277        2.85258       -3.74453
| 13> H          2.36134        1.85149       -2.68315
| 14> *
| 15> %MaxCore 64000
| 16>
| 17> %pal nprocs 4
| 18> end
| 19>
| 20> %scf
| 21>   MaxIter 150
| 22> end
| 23>
| 24>
| 25>                          ****END OF INPUT****

CARTESIAN COORDINATES (ANGSTROEM)
---------------------------------
  C      2.952630    1.863080   -3.574850
  C      4.129210    0.898390   -3.418950
  H      3.733690   -0.100600   -3.237630
  H      4.719100    0.862560   -4.339010
  C      5.017340    1.315210   -2.221300
  F      4.737060    0.854110   -1.122830
  O      5.928150    2.168110   -2.491360
  H      2.350670    1.560050   -4.405940
  H      3.322770    2.852580   -3.744530
  H      2.361340    1.851490   -2.683150

 Total Charge           Charge          ....    0
 Multiplicity           Mult            ....    1
 Number of Electrons    NEL             ....   40
 Basis Dimension        Dim             ....  185

ORBITAL ENERGIES
----------------

  NO   OCC          E(Eh)            E(eV)
   0   2.0000     -24.763914      -673.8604
   1   2.0000     -19.125613      -520.4344
   2   2.0000     -10.348830      -281.6060
   3   2.0000     -10.198627      -277.5187
   4   2.0000     -10.175225      -276.8820
   5   2.0000      -1.344120       -36.5754
   6   2.0000      -1.019065       -27.7302
   7   2.0000      -0.800011       -21.7694
   8   2.0000      -0.693791       -18.8790
   9   2.0000      -0.648319       -17.6417
  10   2.0000      -0.562885       -15.3169
  11   2.0000      -0.549029       -14.9398
  12   2.0000      -0.506281       -13.7766
  13   2.0000      -0.465135       -12.6570
  14   2.0000      -0.435432       -11.8487
  15   2.0000      -0.399954       -10.8833
  16   2.0000      -0.378679       -10.3044
  17   2.0000      -0.373468       -10.1626
  18   2.0000      -0.342907        -9.3310
  19   2.0000      -0.284618        -7.7449
  20   0.0000      -0.030398        -0.8272
  21   0.0000       0.033067         0.8998
  22   0.0000       0.072086         1.9616
  23   0.0000       0.088020         2.3951
  24   0.0000       0.100685         2.7398

MULLIKEN ATOMIC CHARGES
-----------------------
   0 C :   -0.344707
   1 C :   -0.179611
   2 H :    0.095361
   3 H :    0.120631
   4 C :    0.384221
   5 F :   -0.076424
   6 O :   -0.357712
   7 H :    0.117188
   8 H :    0.129492
   9 H :    0.111562
Sum of atomic charges:   -0.0000000

LOEWDIN ATOMIC CHARGES
----------------------
   0 C :   -0.285832
   1 C :   -0.253787
   2 H :    0.134962
   3 H :    0.147308
   4 C :   -0.509348
   5 F :    0.375799
   6 O :    0.031799
   7 H :    0.119036
   8 H :    0.122527
   9 H :    0.117537

  Mayer bond orders larger than 0.100000
B(  0-C ,  1-C ) :   0.9538 B(  0-C ,  7-H ) :   0.9709 B(  0-C ,  8-H ) :   0.9734
B(  0-C ,  9-H ) :   0.9740 B(  1-C ,  2-H ) :   0.9507 B(  1-C ,  3-H ) :   0.9590
B(  1-C ,  4-C ) :   0.9767 B(  4-C ,  5-F ) :   1.1795 B(  4-C ,  6-O ) :   2.0311

Dispersion correction           -0.010391843
FINAL SINGLE POINT ENERGY      -292.369426498362

DIPOLE MOMENT
-------------
                                X             Y             Z
Electronic contribution:      5.06574      -1.17207       6.53025
Nuclear contribution   :     -6.06116       0.51860      -6.80802
                        -----------------------------------------
Total Dipole Moment    :     -0.99541      -0.65347      -0.27777
                        -----------------------------------------
Magnitude (a.u.)       :      1.22271
Magnitude (Debye)      :      3.10789

Rotational constants in cm-1:     0.276196     0.132056     0.105465
Rotational constants in MHz :  8280.156449  3958.940601  3161.775929

                             ****ORCA TERMINATED NORMALLY****
TOTAL RUN TIME: 0 days 0 hours 0 minutes 19 seconds 880 msec
