                         Program Version 5.0.0 -  RELEASE  -
|  1> !B3LYP D3BJ RIJCOSX def2-TZVP def2/J TightSCF
|  2>
|  3> *xyz 0 1
|  4> C          3.34350        3.35457       -3.59200
|  5> C          2.95263        1.86308       -3.57485
|  6> C          4.25587        3.70385       -4.72605
|  7> C          3.73403        4.29378       -5.80077
|  8> N          5.51504        3.40725       -4.63718
|  9> H          6.14919        3.60120       -5.39905
| 10> H          5.81358        2.89950       -3.80879
| 11> H          2.74138        4.51311       -5.82470
| 12> H          4.28755        4.52126       -6.61434
| 13> H          3.86125        3.59725       -2.66298
| 14> H          2.44649        3.97346       -3.65656
| 15> H          2.44395        1.61721       -4.48352
| 16> H          2.30781        1.67290       -2.74242
| 17> H          3.83491        1.26414       -3.48670
| 18> *
| 19> %MaxCore 64000
| 20>
| 21> %pal nprocs 4
| 22> end
| 23>
| 24> %scf
| 25>   MaxIter 150
| 26> end
| 27>
| 28>
| 29>                          ****END OF INPUT****

CARTESIAN COORDINATES (ANGSTROEM)
---------------------------------
  C      3.343500    3.354570   -3.592000
  C      2.952630    1.863080   -3.574850
  C      4.255870    3.703850   -4.726050
  C      3.734030    4.293780   -5.800770
  N      5.515040    3.407250   -4.637180
  H      6.149190    3.601200   -5.399050
  H      5.813580    2.899500   -3.808790
  H      2.741380    4.513110   -5.824700
  H      4.287550    4.521260   -6.614340
  H      3.861250    3.597250   -2.662980
  H      2.446490    3.973460   -3.656560
  H      2.443950    1.617210   -4.483520
  H      2.307810    1.672900   -2.742420
  H      3.834910    1.264140   -3.486700

 Total Charge           Charge          ....    0
 Multiplicity           Mult            ....    1
 Number of Electrons    NEL             ....   40
 Basis Dimension        Dim             ....  209

ORBITAL ENERGIES
----------------

  NO   OCC          E(Eh)            E(eV)
   0   2.0000     -14.316468      -389.5709
   1   2.0000     -10.185561      -277.1632
   2   2.0000     -10.166646      -276.6485
   3   2.0000     -10.152821      -276.2723
   4   2.0000     -10.096895      -274.7505
   5   2.0000      -0.936272       -25.4773
   6   2.0000      -0.776224       -21.1221
   7   2.0000      -0.711808       -19.3693
   8   2.0000      -0.634643       -17.2695
   9   2.0000      -0.569099       -15.4860
  10   2.0000      -0.531726       -14.4690
  11   2.0000      -0.477667       -12.9980
  12   2.0000      -0.437087       -11.8937
  13   2.0000      -0.419897       -11.4260
  14   2.0000      -0.392379       -10.6772
  15   2.0000      -0.381428       -10.3792
  16   2.0000      -0.354368        -9.6428
  17   2.0000      -0.333672        -9.0797
  18   2.0000      -0.330324        -8.9886
  19   2.0000      -0.185403        -5.0451
  20   0.0000       0.022213         0.6044
  21   0.0000       0.048403         1.3171
  22   0.0000       0.067418         1.8345
  23   0.0000       0.077917         2.1202
  24   0.0000       0.087052         2.3688

MULLIKEN ATOMIC CHARGES
-----------------------
   0 C :   -0.207884
   1 C :   -0.299668
   2 C :    0.238877
   3 C :   -0.418581
   4 N :   -0.411158
   5 H :    0.220772
   6 H :    0.219270
   7 H :    0.085903
   8 H :    0.078558
   9 H :    0.081992
  10 H :    0.102362
  11 H :    0.114054
  12 H :    0.106023
  13 H :    0.089478
Sum of atomic charges:   -0.0000000

LOEWDIN ATOMIC CHARGES
----------------------
   0 C :   -0.233565
   1 C :   -0.287995
   2 C :   -0.373310
   3 C :   -0.281959
   4 N :    0.017560
   5 H :    0.174115
   6 H :    0.173952
   7 H :    0.102996
   8 H :    0.092027
   9 H :    0.131963
  10 H :    0.144821
  11 H :    0.117269
  12 H :    0.112491
  13 H :    0.109634

  Mayer bond orders larger than 0.100000
B(  0-C ,  1-C ) :   0.9483 B(  0-C ,  2-C ) :   0.9543 B(  0-C ,  9-H ) :   0.9719
B(  0-C , 10-H ) :   0.9825 B(  1-C , 11-H ) :   0.9784 B(  1-C , 12-H ) :   0.9754
B(  1-C , 13-H ) :   0.9750 B(  2-C ,  3-C ) :   1.7219 B(  2-C ,  4-N ) :   1.1947
B(  3-C ,  7-H ) :   0.9952 B(  3-C ,  8-H ) :   0.9903 B(  4-N ,  5-H ) :   0.9194
B(  4-N ,  6-H ) :   0.9249

Dispersion correction           -0.017393645
FINAL SINGLE POINT ENERGY      -212.521756613371

DIPOLE MOMENT
-------------
                                X             Y             Z
Electronic contribution:      2.36647       1.46970      -0.85014
Nuclear contribution   :     -1.79713      -1.86925       1.28073
                        -----------------------------------------
Total Dipole Moment    :      0.56934      -0.39954       0.43059
                        -----------------------------------------
Magnitude (a.u.)       :      0.81804
Magnitude (Debye)      :      2.07930

Rotational constants in cm-1:     0.269040     0.129645     0.102087
Rotational constants in MHz :  8065.609820  3886.645139  3060.489045

                             ****ORCA TERMINATED NORMALLY****
TOTAL RUN TIME: 0 days 0 hours 0 minutes 25 seconds 950 msec
