                         Program Version 5.0.0 -  RELEASE  -
|  1> !B3LYP D3BJ RIJCOSX def2-TZVP def2/J TightSCF
|  2>
|  3> *xyz 0 1
|  4> C          2.95263        1.86308       -3.57485
|  5> C          4.12921        0.89839       -3.41895
|  6> H          3.73369       -0.10060       -3.23763
|  7> H          4.71910        0.86256       -4.33901
|  8> C          5.01734        1.31521       -2.22130
|  9> O          4.73706        0.85411       -1.12283
| 10> F          5.92815        2.16811       -2.49136
| 11> H          2.35067        1.56005       -4.40594
| 12> H          3.32277        2.85258       -3.74453
| 13> H          2.36134        1.85149       -2.68315
| 14> *
| 15> %MaxCore 64000
| 16>
| 17> %pal nprocs 4
| 18> end
| 19>
| 20> %scf
| 21>   MaxIter 150
| 22> end
| 23>
| 24>
| 25>                          ****END OF INPUT****

CARTESIAN COORDINATES (ANGSTROEM)
---------------------------------
  C      2.952630    1.863080   -3.574850
  C      4.129210    0.898390   -3.418950
  H      3.733690   -0.100600   -3.237630
  H      4.719100    0.862560   -4.339010
  C      5.017340    1.315210   -2.221300
  O      4.737060    0.854110   -1.122830
  F      5.928150    2.168110   -2.491360
  H      2.350670    1.560050   -4.405940
  H      3.322770    2.852580   -3.744530
  H      2.361340    1.851490   -2.683150

 Total Charge           Charge          ....    0
 Multiplicity           Mult            ....    1
 Number of Electrons    NEL             ....   40
 Basis Dimension        Dim             ....  185

ORBITAL ENERGIES
----------------

  NO   OCC          E(Eh)            E(eV)
   0   2.0000     -24.742941      -673.2897
   1   2.0000     -19.135078      -520.6919
   2   2.0000     -10.344460      -281.4871
   3   2.0000     -10.198314      -277.5102
   4   2.0000     -10.175550      -276.8908
   5   2.0000      -1.303689       -35.4752
   6   2.0000      -1.053148       -28.6576
   7   2.0000      -0.799787       -21.7633
   8   2.0000      -0.682269       -18.5655
   9   2.0000      -0.635702       -17.2983
  10   2.0000      -0.542475       -14.7615
  11   2.0000      -0.529015       -14.3952
  12   2.0000      -0.506027       -13.7697
  13   2.0000      -0.464418       -12.6374
  14   2.0000      -0.438779       -11.9398
  15   2.0000      -0.403655       -10.9840
  16   2.0000      -0.386573       -10.5192
  17   2.0000      -0.373379       -10.1602
  18   2.0000      -0.359848        -9.7920
  19   2.0000      -0.295969        -8.0537
  20   0.0000      -0.025191        -0.6855
  21   0.0000       0.033420         0.9094
  22   0.0000       0.072032         1.9601
  23   0.0000       0.088415         2.4059
  24   0.0000       0.101416         2.7597

MULLIKEN ATOMIC CHARGES
-----------------------
   0 C :   -0.346774
   1 C :   -0.182523
   2 H :    0.115414
   3 H :    0.102222
   4 C :    0.370959
   5 O :   -0.293955
   6 F :   -0.124510
   7 H :    0.117590
   8 H :    0.114203
   9 H :    0.127374
Sum of atomic charges:    0.0000000

LOEWDIN ATOMIC CHARGES
----------------------
   0 C :   -0.286176
   1 C :   -0.252485
   2 H :    0.146700
   3 H :    0.136267
   4 C :   -0.499470
   5 O :    0.106607
   6 F :    0.289329
   7 H :    0.119137
   8 H :    0.117975
   9 H :    0.122116

  Mayer bond orders larger than 0.100000
B(  0-C ,  1-C ) :   0.9541 B(  0-C ,  7-H ) :   0.9712 B(  0-C ,  8-H ) :   0.9746
B(  0-C ,  9-H ) :   0.9735 B(  1-C ,  2-H ) :   0.9608 B(  1-C ,  3-H ) :   0.9508
B(  1-C ,  4-C ) :   0.9782 B(  4-C ,  5-O ) :   2.0983 B(  4-C ,  6-F ) :   1.1243

Dispersion correction           -0.010391214
FINAL SINGLE POINT ENERGY      -292.385741845960

DIPOLE MOMENT
-------------
                                X             Y             Z
Electronic contribution:      7.04202       1.00999       4.24687
Nuclear contribution   :     -7.35982      -0.91407      -5.31589
                        -----------------------------------------
Total Dipole Moment    :     -0.31780       0.09591      -1.06902
                        -----------------------------------------
Magnitude (a.u.)       :      1.11938
Magnitude (Debye)      :      2.84523

Rotational constants in cm-1:     0.275433     0.132201     0.105422
Rotational constants in MHz :  8257.268192  3963.279062  3160.465566

                             ****ORCA TERMINATED NORMALLY****
TOTAL RUN TIME: 0 days 0 hours 0 minutes 20 seconds 395 msec
