                         Program Version 5.0.0 -  RELEASE  -
|  1> !B3LYP D3BJ RIJCOSX def2-TZVP def2/J TightSCF
|  2>
|  3> *xyz 0 1
|  4> C          3.34350        3.35457       -3.59200
|  5> C          2.95263        1.86308       -3.57485
|  6> C          4.25587        3.70385       -4.72605
|  7> N          3.73403        4.29378       -5.80077
|  8> C          5.51504        3.40725       -4.63718
|  9> H          6.14919        3.60120       -5.39905
| 10> H          5.81358        2.89950       -3.80879
| 11> H          2.74138        4.51311       -5.82470
| 12> H          4.28755        4.52126       -6.61434
| 13> H          3.86125        3.59725       -2.66298
| 14> H          2.44649        3.97346       -3.65656
| 15> H          2.44395        1.61721       -4.48352
| 16> H          2.30781        1.67290       -2.74242
| 17> H          3.83491        1.26414       -3.48670
| 18> *
| 19> %MaxCore 64000
| 20>
| 21> %pal nprocs 4
| 22> end
| 23>
| 24> %scf
| 25>   MaxIter 150
| 26> end
| 27>
| 28>
| 29>                          ****END OF INPUT****

CARTESIAN COORDINATES (ANGSTROEM)
---------------------------------
  C      3.343500    3.354570   -3.592000
  C      2.952630    1.863080   -3.574850
  C      4.255870    3.703850   -4.726050
  N      3.734030    4.293780   -5.800770
  C      5.515040    3.407250   -4.637180
  H      6.149190    3.601200   -5.399050
  H      5.813580    2.899500   -3.808790
  H      2.741380    4.513110   -5.824700
  H      4.287550    4.521260   -6.614340
  H      3.861250    3.597250   -2.662980
  H      2.446490    3.973460   -3.656560
  H      2.443950    1.617210   -4.483520
  H      2.307810    1.672900   -2.742420
  H      3.834910    1.264140   -3.486700

 Total Charge           Charge          ....    0
 Multiplicity           Mult            ....    1
 Number of Electrons    NEL             ....   40
 Basis Dimension        Dim             ....  209

ORBITAL ENERGIES
----------------

  NO   OCC          E(Eh)            E(eV)
   0   2.0000     -14.312191      -389.4545
   1   2.0000     -10.182948      -277.0921
   2   2.0000     -10.166215      -276.6368
   3   2.0000     -10.150654      -276.2133
   4   2.0000     -10.095141      -274.7028
   5   2.0000      -0.921222       -25.0677
   6   2.0000      -0.778705       -21.1896
   7   2.0000      -0.715745       -19.4764
   8   2.0000      -0.635610       -17.2958
   9   2.0000      -0.562508       -15.3066
  10   2.0000      -0.519376       -14.1329
  11   2.0000      -0.481248       -13.0954
  12   2.0000      -0.438399       -11.9295
  13   2.0000      -0.413479       -11.2513
  14   2.0000      -0.392751       -10.6873
  15   2.0000      -0.381808       -10.3895
  16   2.0000      -0.349995        -9.5238
  17   2.0000      -0.337962        -9.1964
  18   2.0000      -0.325721        -8.8633
  19   2.0000      -0.189644        -5.1605
  20   0.0000       0.025418         0.6917
  21   0.0000       0.047854         1.3022
  22   0.0000       0.068910         1.8751
  23   0.0000       0.075084         2.0431
  24   0.0000       0.091316         2.4848

MULLIKEN ATOMIC CHARGES
-----------------------
   0 C :   -0.200385
   1 C :   -0.301241
   2 C :    0.272002
   3 N :   -0.454117
   4 C :   -0.407623
   5 H :    0.077463
   6 H :    0.089274
   7 H :    0.216917
   8 H :    0.217136
   9 H :    0.107782
  10 H :    0.070804
  11 H :    0.099083
  12 H :    0.102146
  13 H :    0.110760
Sum of atomic charges:   -0.0000000

LOEWDIN ATOMIC CHARGES
----------------------
   0 C :   -0.232089
   1 C :   -0.285223
   2 C :   -0.362475
   3 N :   -0.008561
   4 C :   -0.267804
   5 H :    0.097765
   6 H :    0.110196
   7 H :    0.166021
   8 H :    0.166245
   9 H :    0.145470
  10 H :    0.129568
  11 H :    0.113684
  12 H :    0.111008
  13 H :    0.116195

  Mayer bond orders larger than 0.100000
B(  0-C ,  1-C ) :   0.9553 B(  0-C ,  2-C ) :   0.9310 B(  0-C ,  9-H ) :   0.9851
B(  0-C , 10-H ) :   0.9764 B(  1-C , 11-H ) :   0.9773 B(  1-C , 12-H ) :   0.9748
B(  1-C , 13-H ) :   0.9773 B(  2-C ,  3-N ) :   1.1440 B(  2-C ,  4-C ) :   1.7587
B(  3-N ,  7-H ) :   0.9266 B(  3-N ,  8-H ) :   0.9220 B(  4-C ,  5-H ) :   0.9904
B(  4-C ,  6-H ) :   0.9967

Dispersion correction           -0.017415736
FINAL SINGLE POINT ENERGY      -212.521986992199

DIPOLE MOMENT
-------------
                                X             Y             Z
Electronic contribution:      0.75944       2.28619      -1.88895
Nuclear contribution   :     -1.38463      -2.07457       1.55023
                        -----------------------------------------
Total Dipole Moment    :     -0.62519       0.21162      -0.33872
                        -----------------------------------------
Magnitude (a.u.)       :      0.74187
Magnitude (Debye)      :      1.88568

Rotational constants in cm-1:     0.272312     0.128195     0.101724
Rotational constants in MHz :  8163.717141  3843.180148  3049.598073

                             ****ORCA TERMINATED NORMALLY****
TOTAL RUN TIME: 0 days 0 hours 0 minutes 27 seconds 595 msec
