                         Program Version 5.0.0 -  RELEASE  -
|  1> !B3LYP D3BJ RIJCOSX def2-TZVP def2/J TightSCF xyzfile
|  2>
|  3> *xyzfile 0 1 D3.xyz
|  4>
|  5> %MaxCore 64000
|  6>
|  7> %pal nprocs 18
|  8> end
|  9>
| 10> %scf
| 11>   MaxIter 150
| 12> end
| 13>
| 14>
| 15>                          ****END OF INPUT****

CARTESIAN COORDINATES (ANGSTROEM)
---------------------------------
  C      3.343500    3.354571   -3.591998
  C      2.952633    1.863077   -3.574849
  C      4.129209    0.898394   -3.418950
  H      3.733687   -0.100605   -3.237633
  H      4.719095    0.862556   -4.339005
  C      5.017344    1.315212   -2.221305
  C      4.255868    3.703851   -4.726054
  C      3.734032    4.293783   -5.800770
  N      5.515039    3.407255   -4.637185
  H      6.149187    3.601203   -5.399053
  H      5.813584    2.899504   -3.808785
  H      2.741380    4.513109   -5.824701
  H      4.287548    4.521260   -6.614341
  H      2.278938    1.735250   -2.725496
  H      2.377466    1.625787   -4.475869
  O      4.737055    0.854112   -1.122825
  F      5.928146    2.168108   -2.491365
  H      3.861246    3.597252   -2.662979
  H      2.446493    3.973461   -3.656556

 Total Charge           Charge          ....    0
 Multiplicity           Mult            ....    1
 Number of Electrons    NEL             ....   70
 Basis Dimension        Dim             ....  339

ORBITAL ENERGIES
----------------

  NO   OCC          E(Eh)            E(eV)
   0   2.0000     -24.775064      -674.1638
   1   2.0000     -19.152667      -521.1706
   2   2.0000     -14.305960      -389.2850
   3   2.0000     -10.362206      -281.9700
   4   2.0000     -10.204324      -277.6738
   5   2.0000     -10.189667      -277.2749
   6   2.0000     -10.189525      -277.2711
   7   2.0000     -10.178257      -276.9645
   8   2.0000     -10.100637      -274.8523
   9   2.0000      -1.341620       -36.5073
  10   2.0000      -1.070314       -29.1247
  11   2.0000      -0.937131       -25.5006
  12   2.0000      -0.822170       -22.3724
  13   2.0000      -0.756305       -20.5801
  14   2.0000      -0.717742       -19.5308
  15   2.0000      -0.679773       -18.4976
  16   2.0000      -0.638602       -17.3773
  17   2.0000      -0.587262       -15.9802
  18   2.0000      -0.571047       -15.5390
  19   2.0000      -0.553456       -15.0603
  20   2.0000      -0.526088       -14.3156
  21   2.0000      -0.507774       -13.8172
  22   2.0000      -0.485031       -13.1984
  23   2.0000      -0.468800       -12.7567
  24   2.0000      -0.447807       -12.1854
  25   2.0000      -0.425876       -11.5887
  26   2.0000      -0.403187       -10.9713
  27   2.0000      -0.395291       -10.7564
  28   2.0000      -0.385923       -10.5015
  29   2.0000      -0.379577       -10.3288
  30   2.0000      -0.361396        -9.8341
  31   2.0000      -0.337245        -9.1769
  32   2.0000      -0.334216        -9.0945
  33   2.0000      -0.309768        -8.4292
  34   2.0000      -0.187601        -5.1049
  35   0.0000      -0.042396        -1.1536
  36   0.0000       0.027579         0.7505
  37   0.0000       0.040849         1.1116
  38   0.0000       0.056587         1.5398
  39   0.0000       0.065273         1.7762

MULLIKEN ATOMIC CHARGES
-----------------------
   0 C :   -0.243007
   1 C :   -0.159451
   2 C :   -0.226858
   3 H :    0.123950
   4 H :    0.129895
   5 C :    0.351677
   6 C :    0.213367
   7 C :   -0.417910
   8 N :   -0.440291
   9 H :    0.211536
  10 H :    0.248288
  11 H :    0.084049
  12 H :    0.080802
  13 H :    0.106035
  14 H :    0.105174
  15 O :   -0.270310
  16 F :   -0.125081
  17 H :    0.115233
  18 H :    0.112902
Sum of atomic charges:    0.0000000

LOEWDIN ATOMIC CHARGES
----------------------
   0 C :   -0.207215
   1 C :   -0.240846
   2 C :   -0.228181
   3 H :    0.150998
   4 H :    0.143341
   5 C :   -0.494658
   6 C :   -0.374379
   7 C :   -0.281045
   8 N :    0.015067
   9 H :    0.170198
  10 H :    0.141584
  11 H :    0.102126
  12 H :    0.092846
  13 H :    0.141497
  14 H :    0.142277
  15 O :    0.123710
  16 F :    0.312505
  17 H :    0.139044
  18 H :    0.151132

  Mayer bond orders larger than 0.100000
B(  0-C ,  1-C ) :   0.9559 B(  0-C ,  6-C ) :   0.9368 B(  0-C , 17-H ) :   0.9817
B(  0-C , 18-H ) :   0.9764 B(  1-C ,  2-C ) :   0.9745 B(  1-C , 13-H ) :   0.9608
B(  1-C , 14-H ) :   0.9547 B(  2-C ,  3-H ) :   0.9587 B(  2-C ,  4-H ) :   0.9380
B(  2-C ,  5-C ) :   0.9797 B(  5-C , 15-O ) :   2.1245 B(  5-C , 16-F ) :   1.0366
B(  6-C ,  7-C ) :   1.7191 B(  6-C ,  8-N ) :   1.2050 B(  7-C , 11-H ) :   0.9927
B(  7-C , 12-H ) :   0.9906 B(  8-N ,  9-H ) :   0.9221 B(  8-N , 10-H ) :   0.8816

Dispersion correction           -0.030993779
FINAL SINGLE POINT ENERGY      -464.392282260312

DIPOLE MOMENT
-------------
                                X             Y             Z
Electronic contribution:      7.47858      -3.59030       8.06240
Nuclear contribution   :     -7.21688       3.18902      -8.52197
                        -----------------------------------------
Total Dipole Moment    :      0.26170      -0.40128      -0.45957
                        -----------------------------------------
Magnitude (a.u.)       :      0.66387
Magnitude (Debye)      :      1.68742

Rotational constants in cm-1:     0.103917     0.036987     0.030872
Rotational constants in MHz :  3115.342573  1108.839114   925.506342

                             ****ORCA TERMINATED NORMALLY****
TOTAL RUN TIME: 0 days 0 hours 0 minutes 26 seconds 952 msec
