                         Program Version 5.0.0 -  RELEASE  -
|  1> !wB97X-D3 RIJCOSX def2-SVPD def2/J TightSCF
|  2> *xyz -1 1
|  3> C          0.61188        1.65763       -4.50029
|  4> C          1.69499        1.54179       -5.57045
|  5> H          2.69733        1.73466       -5.18400
|  6> H          1.50666        2.27224       -6.35808
|  7> S          1.78029       -0.03313       -6.42874
|  8> O          2.56929        0.21366       -7.60736
|  9> O          0.41688       -0.46297       -6.61859
| 10> C          0.68036        0.65542       -3.34804
| 11> H         -0.35687        1.54923       -4.99113
| 12> H          0.65023        2.67544       -4.09600
| 13> O          2.50513       -0.93326       -5.48257
| 14> H          0.64318       -0.34009       -3.73853
| 15> H         -0.14865        0.81153       -2.68980
| 16> H          1.59447        0.79330       -2.80925
| 17> *
| 18> %MaxCore 64000
| 19>
| 20> %pal nprocs 8
| 21> end
| 22>
| 23> %scf
| 24>   MaxIter 150
| 25> end
| 26>
| 27>
| 28>                          ****END OF INPUT****

CARTESIAN COORDINATES (ANGSTROEM)
---------------------------------
  C      0.611880    1.657630   -4.500290
  C      1.694990    1.541790   -5.570450
  H      2.697330    1.734660   -5.184000
  H      1.506660    2.272240   -6.358080
  S      1.780290   -0.033130   -6.428740
  O      2.569290    0.213660   -7.607360
  O      0.416880   -0.462970   -6.618590
  C      0.680360    0.655420   -3.348040
  H     -0.356870    1.549230   -4.991130
  H      0.650230    2.675440   -4.096000
  O      2.505130   -0.933260   -5.482570
  H      0.643180   -0.340090   -3.738530
  H     -0.148650    0.811530   -2.689800
  H      1.594470    0.793300   -2.809250

 Total Charge           Charge          ....   -1
 Multiplicity           Mult            ....    1
 Number of Electrons    NEL             ....   66
 Basis Dimension        Dim             ....  212

ORBITAL ENERGIES
----------------

  NO   OCC          E(Eh)            E(eV)
   0   2.0000     -88.978500     -2421.2281
   1   2.0000     -19.031443      -517.8719
   2   2.0000     -19.029865      -517.8290
   3   2.0000     -19.011111      -517.3186
   4   2.0000     -10.162007      -276.5223
   5   2.0000     -10.154656      -276.3222
   6   2.0000     -10.142025      -275.9785
   7   2.0000      -8.052113      -219.1091
   8   2.0000      -6.011708      -163.5869
   9   2.0000      -6.011538      -163.5823
  10   2.0000      -6.011119      -163.5709
  11   2.0000      -1.051631       -28.6163
  12   2.0000      -0.913514       -24.8580
  13   2.0000      -0.879000       -23.9188
  14   2.0000      -0.769916       -20.9505
  15   2.0000      -0.678823       -18.4717
  16   2.0000      -0.579429       -15.7671
  17   2.0000      -0.488483       -13.2923
  18   2.0000      -0.437958       -11.9175
  19   2.0000      -0.422851       -11.5064
  20   2.0000      -0.399833       -10.8800
  21   2.0000      -0.384440       -10.4611
  22   2.0000      -0.366501        -9.9730
  23   2.0000      -0.354711        -9.6522
  24   2.0000      -0.321161        -8.7392
  25   2.0000      -0.313201        -8.5226
  26   2.0000      -0.297586        -8.0977
  27   2.0000      -0.253475        -6.8974
  28   2.0000      -0.251930        -6.8554
  29   2.0000      -0.217893        -5.9292
  30   2.0000      -0.205964        -5.6046
  31   2.0000      -0.191580        -5.2131
  32   2.0000      -0.161176        -4.3858
  33   0.0000       0.203213         5.5297
  34   0.0000       0.223003         6.0682
  35   0.0000       0.227107         6.1799
  36   0.0000       0.233243         6.3469
  37   0.0000       0.253339         6.8937

MULLIKEN ATOMIC CHARGES
-----------------------
   0 C :   -0.291402
   1 C :    0.007092
   2 H :   -0.001705
   3 H :    0.003258
   4 S :    1.321512
   5 O :   -0.818797
   6 O :   -0.798536
   7 C :    0.723755
   8 H :    0.007745
   9 H :   -0.141472
  10 O :   -0.837865
  11 H :   -0.071259
  12 H :   -0.068918
  13 H :   -0.033409
Sum of atomic charges:   -1.0000000

LOEWDIN ATOMIC CHARGES
----------------------
   0 C :   -0.097279
   1 C :   -0.096518
   2 H :    0.010709
   3 H :    0.002302
   4 S :    0.862403
   5 O :   -0.574760
   6 O :   -0.569315
   7 C :    0.118024
   8 H :    0.013938
   9 H :    0.007495
  10 O :   -0.602467
  11 H :   -0.026231
  12 H :   -0.030671
  13 H :   -0.017628

  Mayer bond orders larger than 0.100000
B(  0-C ,  1-C ) :   1.2265 B(  0-C ,  2-H ) :   0.1259 B(  0-C ,  3-H ) :   0.1354
B(  0-C ,  7-C ) :   1.2476 B(  0-C ,  8-H ) :   0.9044 B(  0-C ,  9-H ) :   0.9075
B(  0-C , 11-H ) :   0.2183 B(  0-C , 12-H ) :   0.1994 B(  0-C , 13-H ) :   0.2114
B(  1-C ,  2-H ) :   0.9375 B(  1-C ,  3-H ) :   0.9142 B(  1-C ,  4-S ) :   0.9413
B(  1-C ,  8-H ) :   0.1334 B(  1-C ,  9-H ) :   0.1340 B(  4-S ,  5-O ) :   1.3711
B(  4-S ,  6-O ) :   1.3039 B(  4-S , 10-O ) :   1.2597 B(  7-C , 11-H ) :   0.8301
B(  7-C , 12-H ) :   0.7698 B(  7-C , 13-H ) :   0.7682 B( 11-H , 13-H ) :   0.1011

Dispersion correction           -0.004635695
FINAL SINGLE POINT ENERGY      -741.971112680027

DIPOLE MOMENT
-------------
                                X             Y             Z
Electronic contribution:      3.16194      -5.21173      -8.57259
Nuclear contribution   :     -3.81113       6.97418       9.97106
                        -----------------------------------------
Total Dipole Moment    :     -0.64920       1.76246       1.39847
                        -----------------------------------------
Magnitude (a.u.)       :      2.34167
Magnitude (Debye)      :      5.95205

Rotational constants in cm-1:     0.136135     0.055477     0.052562
Rotational constants in MHz :  4081.221574  1663.170947  1575.772362

                             ****ORCA TERMINATED NORMALLY****
TOTAL RUN TIME: 0 days 0 hours 0 minutes 20 seconds 587 msec
