                         Program Version 5.0.0 -  RELEASE  -
|  1> !wB97X-D3 RIJCOSX def2-SVPD def2/J TightSCF
|  2> *xyz 1 1
|  3> C          1.96337       -1.74915       -1.89689
|  4> N          2.73849       -2.01517       -3.09711
|  5> C          4.04974       -2.15472       -3.15204
|  6> N          4.65821       -1.98629       -4.31866
|  7> N          4.76423       -2.45444       -2.05049
|  8> H          4.28736       -2.77626       -1.21750
|  9> H          5.75082       -2.65835       -2.12599
| 10> H          2.34518       -1.69027       -3.97145
| 11> H          4.10900       -1.59268       -5.07176
| 12> H          5.64910       -2.15646       -4.42724
| 13> C          2.08852       -0.30091       -1.41520
| 14> H          2.23127       -2.45162       -1.10264
| 15> H          0.93025       -1.97780       -2.15544
| 16> C          1.96899        0.73358       -2.53565
| 17> H          3.05136       -0.16860       -0.91187
| 18> H          1.31650       -0.13623       -0.65725
| 19> H          2.73046        0.55745       -3.26643
| 20> H          2.08619        1.71595       -2.12808
| 21> H          1.00672        0.65098       -2.99620
| 22> *
| 23> %MaxCore 64000
| 24>
| 25> %pal nprocs 8
| 26> end
| 27>
| 28> %scf
| 29>   MaxIter 150
| 30> end
| 31>
| 32>
| 33>                          ****END OF INPUT****

CARTESIAN COORDINATES (ANGSTROEM)
---------------------------------
  C      1.963370   -1.749150   -1.896890
  N      2.738490   -2.015170   -3.097110
  C      4.049740   -2.154720   -3.152040
  N      4.658210   -1.986290   -4.318660
  N      4.764230   -2.454440   -2.050490
  H      4.287360   -2.776260   -1.217500
  H      5.750820   -2.658350   -2.125990
  H      2.345180   -1.690270   -3.971450
  H      4.109000   -1.592680   -5.071760
  H      5.649100   -2.156460   -4.427240
  C      2.088520   -0.300910   -1.415200
  H      2.231270   -2.451620   -1.102640
  H      0.930250   -1.977800   -2.155440
  C      1.968990    0.733580   -2.535650
  H      3.051360   -0.168600   -0.911870
  H      1.316500   -0.136230   -0.657250
  H      2.730460    0.557450   -3.266430
  H      2.086190    1.715950   -2.128080
  H      1.006720    0.650980   -2.996200

 Total Charge           Charge          ....    1
 Multiplicity           Mult            ....    1
 Number of Electrons    NEL             ....   56
 Basis Dimension        Dim             ....  236

ORBITAL ENERGIES
----------------

  NO   OCC          E(Eh)            E(eV)
   0   2.0000     -14.662126      -398.9767
   1   2.0000     -14.659330      -398.9006
   2   2.0000     -14.658844      -398.8874
   3   2.0000     -10.627687      -289.1941
   4   2.0000     -10.492963      -285.5280
   5   2.0000     -10.432364      -283.8791
   6   2.0000     -10.409120      -283.2466
   7   2.0000      -1.328089       -36.1391
   8   2.0000      -1.213601       -33.0238
   9   2.0000      -1.200316       -32.6623
  10   2.0000      -1.050489       -28.5852
  11   2.0000      -0.974082       -26.5061
  12   2.0000      -0.931897       -25.3582
  13   2.0000      -0.889699       -24.2100
  14   2.0000      -0.874833       -23.8054
  15   2.0000      -0.830870       -22.6091
  16   2.0000      -0.794417       -21.6172
  17   2.0000      -0.785730       -21.3808
  18   2.0000      -0.761408       -20.7190
  19   2.0000      -0.727579       -19.7984
  20   2.0000      -0.701510       -19.0891
  21   2.0000      -0.685991       -18.6668
  22   2.0000      -0.646784       -17.5999
  23   2.0000      -0.603140       -16.4123
  24   2.0000      -0.589921       -16.0526
  25   2.0000      -0.578502       -15.7419
  26   2.0000      -0.567462       -15.4414
  27   2.0000      -0.538440       -14.6517
  28   0.0000      -0.088313        -2.4031
  29   0.0000      -0.076757        -2.0887
  30   0.0000      -0.045517        -1.2386
  31   0.0000      -0.032973        -0.8972
  32   0.0000      -0.007527        -0.2048

MULLIKEN ATOMIC CHARGES
-----------------------
   0 C :    0.733004
   1 N :   -0.485359
   2 C :    1.414863
   3 N :   -0.175652
   4 N :   -0.060516
   5 H :   -0.004508
   6 H :   -0.120210
   7 H :   -0.102253
   8 H :    0.043076
   9 H :   -0.065835
  10 C :   -0.355170
  11 H :   -0.084114
  12 H :   -0.208239
  13 C :    0.695265
  14 H :   -0.005325
  15 H :   -0.051520
  16 H :   -0.152870
  17 H :   -0.035079
  18 H :    0.020444
Sum of atomic charges:    1.0000000

LOEWDIN ATOMIC CHARGES
----------------------
   0 C :    0.076281
   1 N :    0.037293
   2 C :   -0.025475
   3 N :    0.259264
   4 N :    0.274866
   5 H :    0.023801
   6 H :    0.038561
   7 H :    0.052702
   8 H :    0.040188
   9 H :    0.045720
  10 C :   -0.048051
  11 H :    0.027546
  12 H :    0.043464
  13 C :    0.132111
  14 H :    0.021475
  15 H :    0.037721
  16 H :   -0.033061
  17 H :    0.000170
  18 H :   -0.004577

  Mayer bond orders larger than 0.100000
B(  0-C ,  1-N ) :   0.9236 B(  0-C ,  7-H ) :  -0.1278 B(  0-C , 10-C ) :   1.0773
B(  0-C , 11-H ) :   0.9027 B(  0-C , 12-H ) :   0.7808 B(  0-C , 15-H ) :   0.1055
B(  1-N ,  2-C ) :   1.0709 B(  1-N ,  3-N ) :   0.3021 B(  1-N ,  4-N ) :   0.1928
B(  1-N ,  7-H ) :   1.2118 B(  1-N , 11-H ) :   0.1174 B(  1-N , 12-H ) :   0.2502
B(  2-C ,  3-N ) :   0.7569 B(  2-C ,  4-N ) :   0.9396 B(  2-C ,  5-H ) :  -0.1014
B(  2-C ,  6-H ) :  -0.1512 B(  2-C ,  7-H ) :  -0.1866 B(  2-C ,  8-H ) :  -0.1261
B(  2-C ,  9-H ) :  -0.1546 B(  3-N ,  4-N ) :   0.1553 B(  3-N ,  8-H ) :   1.1139
B(  3-N ,  9-H ) :   1.2823 B(  4-N ,  5-H ) :   1.0662 B(  4-N ,  6-H ) :   1.2842
B(  5-H ,  6-H ) :  -0.1990 B(  8-H ,  9-H ) :  -0.1705 B( 10-C , 12-H ) :   0.1291
B( 10-C , 13-C ) :   1.2813 B( 10-C , 14-H ) :   0.9534 B( 10-C , 15-H ) :   0.9716
B( 10-C , 16-H ) :   0.1988 B( 10-C , 17-H ) :   0.1880 B( 10-C , 18-H ) :   0.1889
B( 13-C , 16-H ) :   0.8434 B( 13-C , 17-H ) :   0.8244 B( 13-C , 18-H ) :   0.7755
B( 16-H , 18-H ) :   0.1138

Dispersion correction           -0.005597340
FINAL SINGLE POINT ENERGY      -323.417244742192

DIPOLE MOMENT
-------------
                                X             Y             Z
Electronic contribution:      3.89363      -4.89433      -2.32203
Nuclear contribution   :     -2.72963       4.05673       1.67650
                        -----------------------------------------
Total Dipole Moment    :      1.16401      -0.83760      -0.64553
                        -----------------------------------------
Magnitude (a.u.)       :      1.57264
Magnitude (Debye)      :      3.99733

Rotational constants in cm-1:     0.140891     0.054763     0.048590
Rotational constants in MHz :  4223.814968  1641.764475  1456.690885

                             ****ORCA TERMINATED NORMALLY****
TOTAL RUN TIME: 0 days 0 hours 0 minutes 27 seconds 617 msec
