                         Program Version 5.0.0 -  RELEASE  -
|  1> !wB97X-D3 RIJCOSX def2-SVPD def2/J TightSCF xyzfile
|  2>
|  3> *xyzfile 0 1 B.xyz
|  4>
|  5> %MaxCore 64000
|  6>
|  7> %pal nprocs 18
|  8> end
|  9>
| 10> %scf
| 11>   MaxIter 150
| 12> end
| 13>
| 14>
| 15>                          ****END OF INPUT****

CARTESIAN COORDINATES (ANGSTROEM)
---------------------------------
  C      1.963365   -1.749150   -1.896887
  N      2.738490   -2.015170   -3.097113
  C      0.611877    1.657634   -4.500288
  C      1.694991    1.541794   -5.570447
  H      2.697326    1.734659   -5.183996
  H      1.506656    2.272239   -6.358076
  S      1.780287   -0.033128   -6.428739
  C      4.049736   -2.154717   -3.152044
  N      4.658206   -1.986293   -4.318655
  N      4.764231   -2.454435   -2.050491
  H      4.287363   -2.776259   -1.217496
  H      5.750825   -2.658351   -2.125988
  H      2.345176   -1.690274   -3.971447
  H      4.109004   -1.592677   -5.071760
  H      5.649095   -2.156462   -4.427237
  O      2.569287    0.213657   -7.607360
  O      0.416880   -0.462969   -6.618595
  C      2.088520   -0.300912   -1.415204
  H      2.231272   -2.451616   -1.102643
  H      0.930249   -1.977801   -2.155438
  C      0.680356    0.655418   -3.348038
  H     -0.356865    1.549231   -4.991128
  H      0.650228    2.675438   -4.096000
  C      1.968993    0.733582   -2.535654
  H      3.051356   -0.168602   -0.911868
  H      1.316501   -0.136231   -0.657252
  O      2.505129   -0.933263   -5.482570
  H      2.824195    0.624726   -3.208464
  H      2.058919    1.730331   -2.093112
  H      0.542252   -0.344731   -3.766662
  H     -0.174219    0.829692   -2.685182

 Total Charge           Charge          ....    0
 Multiplicity           Mult            ....    1
 Number of Electrons    NEL             ....  120
 Basis Dimension        Dim             ....  432

ORBITAL ENERGIES
----------------

  NO   OCC          E(Eh)            E(eV)
   0   2.0000     -89.124976     -2425.2139
   1   2.0000     -19.185992      -522.0774
   2   2.0000     -19.165788      -521.5276
   3   2.0000     -19.164615      -521.4957
   4   2.0000     -14.527370      -395.3098
   5   2.0000     -14.497643      -394.5009
   6   2.0000     -14.493155      -394.3788
   7   2.0000     -10.478131      -285.1244
   8   2.0000     -10.364356      -282.0285
   9   2.0000     -10.314284      -280.6659
  10   2.0000     -10.295226      -280.1473
  11   2.0000     -10.283459      -279.8271
  12   2.0000     -10.281602      -279.7766
  13   2.0000     -10.280151      -279.7371
  14   2.0000      -8.197470      -223.0645
  15   2.0000      -6.158149      -167.5718
  16   2.0000      -6.156537      -167.5279
  17   2.0000      -6.155925      -167.5112
  18   2.0000      -1.197337       -32.5812
  19   2.0000      -1.177989       -32.0547
  20   2.0000      -1.067951       -29.0604
  21   2.0000      -1.053681       -28.6721
  22   2.0000      -1.048072       -28.5195
  23   2.0000      -1.043868       -28.4051
  24   2.0000      -0.935334       -25.4517
  25   2.0000      -0.896032       -24.3823
  26   2.0000      -0.846820       -23.0432
  27   2.0000      -0.806630       -21.9495
  28   2.0000      -0.779306       -21.2060
  29   2.0000      -0.744306       -20.2536
  30   2.0000      -0.736868       -20.0512
  31   2.0000      -0.702463       -19.1150
  32   2.0000      -0.680272       -18.5112
  33   2.0000      -0.661716       -18.0062
  34   2.0000      -0.644909       -17.5489
  35   2.0000      -0.626863       -17.0578
  36   2.0000      -0.609210       -16.5774
  37   2.0000      -0.585345       -15.9281
  38   2.0000      -0.582203       -15.8425
  39   2.0000      -0.574453       -15.6317
  40   2.0000      -0.560479       -15.2514
  41   2.0000      -0.544102       -14.8058
  42   2.0000      -0.532263       -14.4836
  43   2.0000      -0.520529       -14.1643
  44   2.0000      -0.505012       -13.7421
  45   2.0000      -0.495785       -13.4910
  46   2.0000      -0.476967       -12.9789
  47   2.0000      -0.469074       -12.7642
  48   2.0000      -0.462148       -12.5757
  49   2.0000      -0.434316       -11.8183
  50   2.0000      -0.430919       -11.7259
  51   2.0000      -0.425711       -11.5842
  52   2.0000      -0.409043       -11.1306
  53   2.0000      -0.404121       -10.9967
  54   2.0000      -0.396672       -10.7940
  55   2.0000      -0.390079       -10.6146
  56   2.0000      -0.359909        -9.7936
  57   2.0000      -0.350480        -9.5370
  58   2.0000      -0.339307        -9.2330
  59   2.0000      -0.315514        -8.5856
  60   0.0000       0.043467         1.1828
  61   0.0000       0.054767         1.4903
  62   0.0000       0.074031         2.0145
  63   0.0000       0.093991         2.5576
  64   0.0000       0.100776         2.7423

MULLIKEN ATOMIC CHARGES
-----------------------
   0 C :    0.954912
   1 N :   -0.047376
   2 C :    0.405767
   3 C :    0.088636
   4 H :    0.074139
   5 H :   -0.074884
   6 S :    1.389685
   7 C :    1.381420
   8 N :    0.156760
   9 N :   -0.010928
  10 H :   -0.030054
  11 H :   -0.153006
  12 H :   -0.654283
  13 H :   -0.152515
  14 H :   -0.181556
  15 O :   -0.789834
  16 O :   -0.810017
  17 C :    0.382659
  18 H :   -0.404116
  19 H :   -0.075781
  20 C :   -0.019713
  21 H :    0.024938
  22 H :   -0.034731
  23 C :   -0.012543
  24 H :   -0.057128
  25 H :   -0.012016
  26 O :   -0.870368
  27 H :    0.066076
  28 H :   -0.296730
  29 H :   -0.063905
  30 H :   -0.173508
Sum of atomic charges:   -0.0000000

LOEWDIN ATOMIC CHARGES
----------------------
   0 C :    0.077779
   1 N :    0.070038
   2 C :   -0.033787
   3 C :   -0.068280
   4 H :    0.009048
   5 H :    0.018739
   6 S :    0.955159
   7 C :   -0.022816
   8 N :    0.276394
   9 N :    0.247321
  10 H :    0.006771
  11 H :    0.020759
  12 H :   -0.069026
  13 H :   -0.058147
  14 H :    0.030879
  15 O :   -0.525501
  16 O :   -0.522217
  17 C :   -0.014221
  18 H :    0.012003
  19 H :    0.033733
  20 C :   -0.026351
  21 H :    0.027912
  22 H :    0.026383
  23 C :   -0.028793
  24 H :    0.015401
  25 H :    0.028186
  26 O :   -0.559108
  27 H :    0.006854
  28 H :    0.029060
  29 H :    0.005456
  30 H :    0.030371

  Mayer bond orders larger than 0.100000
B(  0-C ,  1-N ) :   0.8444 B(  0-C , 12-H ) :  -0.3262 B(  0-C , 17-C ) :   1.0714
B(  0-C , 18-H ) :   0.9062 B(  0-C , 19-H ) :   0.6901 B(  0-C , 25-H ) :   0.1071
B(  1-N ,  7-C ) :   1.1271 B(  1-N ,  8-N ) :   0.1281 B(  1-N ,  9-N ) :   0.2096
B(  1-N , 12-H ) :   1.2443 B(  1-N , 19-H ) :   0.1627 B(  2-C ,  3-C ) :   1.2284
B(  2-C ,  5-H ) :   0.1609 B(  2-C , 20-C ) :   1.2535 B(  2-C , 21-H ) :   0.6838
B(  2-C , 22-H ) :   0.7964 B(  3-C ,  4-H ) :   0.8909 B(  3-C ,  5-H ) :   0.8817
B(  3-C ,  6-S ) :   1.0061 B(  3-C , 21-H ) :   0.1266 B(  3-C , 22-H ) :   0.1298
B(  6-S , 15-O ) :   1.3900 B(  6-S , 16-O ) :   1.2942 B(  6-S , 26-O ) :   1.0957
B(  7-C ,  8-N ) :   0.8293 B(  7-C ,  9-N ) :   0.8837 B(  7-C , 10-H ) :  -0.1015
B(  7-C , 11-H ) :  -0.1175 B(  7-C , 12-H ) :  -0.4304 B(  7-C , 13-H ) :  -0.1838
B(  7-C , 14-H ) :  -0.2151 B(  8-N ,  9-N ) :   0.1389 B(  8-N , 13-H ) :   1.1327
B(  8-N , 14-H ) :   1.3613 B(  9-N , 10-H ) :   1.0749 B(  9-N , 11-H ) :   1.2770
B( 10-H , 11-H ) :  -0.2075 B( 12-H , 19-H ) :   0.1510 B( 12-H , 26-O ) :   0.1419
B( 13-H , 14-H ) :  -0.2100 B( 13-H , 26-O ) :   0.2300 B( 16-O , 26-O ) :   0.1112
B( 17-C , 18-H ) :   0.1383 B( 17-C , 23-C ) :   1.2497 B( 17-C , 24-H ) :   0.7788
B( 17-C , 25-H ) :   0.8531 B( 18-H , 19-H ) :  -0.1245 B( 20-C , 21-H ) :   0.2596
B( 20-C , 23-C ) :   1.1670 B( 20-C , 28-H ) :   0.1393 B( 20-C , 29-H ) :   0.9570
B( 20-C , 30-H ) :   0.8686 B( 23-C , 24-H ) :   0.2056 B( 23-C , 25-H ) :   0.1191
B( 23-C , 27-H ) :   0.8775 B( 23-C , 28-H ) :   0.9536 B( 23-C , 30-H ) :   0.1408

Dispersion correction           -0.016453463
FINAL SINGLE POINT ENERGY     -1064.358903425032

DIPOLE MOMENT
-------------
                                X             Y             Z
Electronic contribution:      2.26435      -4.93833     -14.12419
Nuclear contribution   :      0.44641       3.59123      19.13564
                        -----------------------------------------
Total Dipole Moment    :      2.71077      -1.34710       5.01145
                        -----------------------------------------
Magnitude (a.u.)       :      5.85470
Magnitude (Debye)      :     14.88147

Rotational constants in cm-1:     0.029186     0.014646     0.011115
Rotational constants in MHz :   874.975540   439.070287   333.231642

                             ****ORCA TERMINATED NORMALLY****
TOTAL RUN TIME: 0 days 0 hours 1 minutes 31 seconds 825 msec
