                         Program Version 5.0.0 -  RELEASE  -
|  1> !wB97X-D3 RIJCOSX def2-SVPD def2/J TightSCF
|  2> *xyz 0 1
|  3> C          0.61188        1.65763       -4.50029
|  4> C          1.69499        1.54179       -5.57045
|  5> H          2.69733        1.73466       -5.18400
|  6> H          1.50666        2.27224       -6.35808
|  7> S          1.78029       -0.03313       -6.42874
|  8> F          2.56929        0.21366       -7.60736
|  9> O          0.41688       -0.46297       -6.61859
| 10> C          0.68036        0.65542       -3.34804
| 11> H         -0.35687        1.54923       -4.99113
| 12> H          0.65023        2.67544       -4.09600
| 13> O          2.50513       -0.93326       -5.48257
| 14> H          0.64318       -0.34009       -3.73853
| 15> H         -0.14865        0.81153       -2.68980
| 16> H          1.59447        0.79330       -2.80925
| 17> *
| 18> %MaxCore 64000
| 19>
| 20> %pal nprocs 8
| 21> end
| 22>
| 23> %scf
| 24>   MaxIter 150
| 25> end
| 26>
| 27>
| 28>                          ****END OF INPUT****

CARTESIAN COORDINATES (ANGSTROEM)
---------------------------------
  C      0.611880    1.657630   -4.500290
  C      1.694990    1.541790   -5.570450
  H      2.697330    1.734660   -5.184000
  H      1.506660    2.272240   -6.358080
  S      1.780290   -0.033130   -6.428740
  F      2.569290    0.213660   -7.607360
  O      0.416880   -0.462970   -6.618590
  C      0.680360    0.655420   -3.348040
  H     -0.356870    1.549230   -4.991130
  H      0.650230    2.675440   -4.096000
  O      2.505130   -0.933260   -5.482570
  H      0.643180   -0.340090   -3.738530
  H     -0.148650    0.811530   -2.689800
  H      1.594470    0.793300   -2.809250

 Total Charge           Charge          ....    0
 Multiplicity           Mult            ....    1
 Number of Electrons    NEL             ....   66
 Basis Dimension        Dim             ....  212

ORBITAL ENERGIES
----------------

  NO   OCC          E(Eh)            E(eV)
   0   2.0000     -89.236543     -2428.2498
   1   2.0000     -24.925184      -678.2487
   2   2.0000     -19.263328      -524.1818
   3   2.0000     -19.243044      -523.6299
   4   2.0000     -10.354291      -281.7546
   5   2.0000     -10.319844      -280.8172
   6   2.0000     -10.280975      -279.7596
   7   2.0000      -8.311030      -226.1546
   8   2.0000      -6.274691      -170.7430
   9   2.0000      -6.268274      -170.5684
  10   2.0000      -6.266942      -170.5322
  11   2.0000      -1.498905       -40.7873
  12   2.0000      -1.225331       -33.3430
  13   2.0000      -1.113947       -30.3120
  14   2.0000      -0.945712       -25.7341
  15   2.0000      -0.870914       -23.6988
  16   2.0000      -0.820154       -22.3175
  17   2.0000      -0.746453       -20.3120
  18   2.0000      -0.700070       -19.0499
  19   2.0000      -0.688994       -18.7485
  20   2.0000      -0.662728       -18.0337
  21   2.0000      -0.598766       -16.2932
  22   2.0000      -0.588723       -16.0200
  23   2.0000      -0.558191       -15.1891
  24   2.0000      -0.549118       -14.9422
  25   2.0000      -0.526497       -14.3267
  26   2.0000      -0.488996       -13.3063
  27   2.0000      -0.472393       -12.8545
  28   2.0000      -0.468158       -12.7392
  29   2.0000      -0.451010       -12.2726
  30   2.0000      -0.433712       -11.8019
  31   2.0000      -0.410625       -11.1737
  32   2.0000      -0.400904       -10.9092
  33   0.0000       0.064488         1.7548
  34   0.0000       0.086119         2.3434
  35   0.0000       0.094313         2.5664
  36   0.0000       0.099888         2.7181
  37   0.0000       0.115417         3.1407

MULLIKEN ATOMIC CHARGES
-----------------------
   0 C :   -0.319640
   1 C :   -0.055222
   2 H :    0.063920
   3 H :    0.074571
   4 S :    1.528239
   5 F :   -0.435926
   6 O :   -0.664085
   7 C :    0.710097
   8 H :    0.031999
   9 H :   -0.094607
  10 O :   -0.706443
  11 H :   -0.086209
  12 H :   -0.033926
  13 H :   -0.012769
Sum of atomic charges:    0.0000000

LOEWDIN ATOMIC CHARGES
----------------------
   0 C :   -0.067926
   1 C :   -0.061416
   2 H :    0.028756
   3 H :    0.018472
   4 S :    1.130474
   5 F :   -0.254845
   6 O :   -0.462197
   7 C :    0.138931
   8 H :    0.027385
   9 H :    0.033547
  10 O :   -0.493557
  11 H :   -0.021448
  12 H :   -0.010092
  13 H :   -0.006082

  Mayer bond orders larger than 0.100000
B(  0-C ,  1-C ) :   1.2809 B(  0-C ,  2-H ) :   0.1218 B(  0-C ,  3-H ) :   0.1462
B(  0-C ,  7-C ) :   1.2657 B(  0-C ,  8-H ) :   0.9031 B(  0-C ,  9-H ) :   0.9179
B(  0-C , 11-H ) :   0.2014 B(  0-C , 12-H ) :   0.1896 B(  0-C , 13-H ) :   0.2020
B(  1-C ,  2-H ) :   0.9365 B(  1-C ,  3-H ) :   0.8675 B(  1-C ,  4-S ) :   0.9752
B(  1-C ,  8-H ) :   0.1281 B(  1-C ,  9-H ) :   0.1236 B(  4-S ,  5-F ) :   0.6787
B(  4-S ,  6-O ) :   1.5082 B(  4-S , 10-O ) :   1.4569 B(  7-C , 11-H ) :   0.8389
B(  7-C , 12-H ) :   0.7809 B(  7-C , 13-H ) :   0.7751

Dispersion correction           -0.004622270
FINAL SINGLE POINT ENERGY      -766.451993431283

DIPOLE MOMENT
-------------
                                X             Y             Z
Electronic contribution:      5.11221      -5.37190     -11.98310
Nuclear contribution   :     -4.93724       7.05784      11.92827
                        -----------------------------------------
Total Dipole Moment    :      0.17497       1.68594      -0.05483
                        -----------------------------------------
Magnitude (a.u.)       :      1.69588
Magnitude (Debye)      :      4.31059

Rotational constants in cm-1:     0.134572     0.053398     0.050578
Rotational constants in MHz :  4034.377338  1600.833917  1516.302250

                             ****ORCA TERMINATED NORMALLY****
TOTAL RUN TIME: 0 days 0 hours 0 minutes 22 seconds 704 msec
