                         Program Version 5.0.0 -  RELEASE  -
|  1> !wB97X-D3 RIJCOSX def2-SVPD def2/J TightSCF
|  2> *xyz 0 1
|  3> C          1.96337       -1.74915       -1.89689
|  4> C          2.73849       -2.01517       -3.09711
|  5> C          4.04974       -2.15472       -3.15204
|  6> N          4.65821       -1.98629       -4.31866
|  7> N          4.76423       -2.45444       -2.05049
|  8> H          4.28736       -2.77626       -1.21750
|  9> H          5.75082       -2.65835       -2.12599
| 10> H          2.34518       -1.69027       -3.97145
| 11> H          4.10900       -1.59268       -5.07176
| 12> H          5.64910       -2.15646       -4.42724
| 13> C          2.08852       -0.30091       -1.41520
| 14> H          2.23127       -2.45162       -1.10264
| 15> H          0.93025       -1.97780       -2.15544
| 16> C          1.96899        0.73358       -2.53565
| 17> H          3.05136       -0.16860       -0.91187
| 18> H          1.31650       -0.13623       -0.65725
| 19> H          2.73046        0.55745       -3.26643
| 20> H          2.08619        1.71595       -2.12808
| 21> H          1.00672        0.65098       -2.99620
| 22> *
| 23> %MaxCore 64000
| 24>
| 25> %pal nprocs 8
| 26> end
| 27>
| 28> %scf
| 29>   MaxIter 150
| 30> end
| 31>
| 32>
| 33>                          ****END OF INPUT****

CARTESIAN COORDINATES (ANGSTROEM)
---------------------------------
  C      1.963370   -1.749150   -1.896890
  C      2.738490   -2.015170   -3.097110
  C      4.049740   -2.154720   -3.152040
  N      4.658210   -1.986290   -4.318660
  N      4.764230   -2.454440   -2.050490
  H      4.287360   -2.776260   -1.217500
  H      5.750820   -2.658350   -2.125990
  H      2.345180   -1.690270   -3.971450
  H      4.109000   -1.592680   -5.071760
  H      5.649100   -2.156460   -4.427240
  C      2.088520   -0.300910   -1.415200
  H      2.231270   -2.451620   -1.102640
  H      0.930250   -1.977800   -2.155440
  C      1.968990    0.733580   -2.535650
  H      3.051360   -0.168600   -0.911870
  H      1.316500   -0.136230   -0.657250
  H      2.730460    0.557450   -3.266430
  H      2.086190    1.715950   -2.128080
  H      1.006720    0.650980   -2.996200

 Total Charge           Charge          ....    0
 Multiplicity           Mult            ....    1
 Number of Electrons    NEL             ....   56
 Basis Dimension        Dim             ....  236

ORBITAL ENERGIES
----------------

  NO   OCC          E(Eh)            E(eV)
   0   2.0000     -14.439826      -392.9276
   1   2.0000     -14.437969      -392.8771
   2   2.0000     -10.334964      -281.2287
   3   2.0000     -10.265432      -279.3366
   4   2.0000     -10.262586      -279.2592
   5   2.0000     -10.255642      -279.0702
   6   2.0000     -10.207487      -277.7598
   7   2.0000      -1.071104       -29.1462
   8   2.0000      -0.978896       -26.6371
   9   2.0000      -0.896842       -24.4043
  10   2.0000      -0.827838       -22.5266
  11   2.0000      -0.766994       -20.8710
  12   2.0000      -0.702794       -19.1240
  13   2.0000      -0.673512       -18.3272
  14   2.0000      -0.647372       -17.6159
  15   2.0000      -0.607306       -16.5256
  16   2.0000      -0.574184       -15.6243
  17   2.0000      -0.546840       -14.8803
  18   2.0000      -0.536680       -14.6038
  19   2.0000      -0.506140       -13.7728
  20   2.0000      -0.488801       -13.3010
  21   2.0000      -0.470872       -12.8131
  22   2.0000      -0.452516       -12.3136
  23   2.0000      -0.424718       -11.5572
  24   2.0000      -0.406010       -11.0481
  25   2.0000      -0.400841       -10.9074
  26   2.0000      -0.361951        -9.8492
  27   2.0000      -0.246687        -6.7127
  28   0.0000       0.086328         2.3491
  29   0.0000       0.112325         3.0565
  30   0.0000       0.113511         3.0888
  31   0.0000       0.128323         3.4919
  32   0.0000       0.143391         3.9019

MULLIKEN ATOMIC CHARGES
-----------------------
   0 C :    0.235115
   1 C :   -0.297963
   2 C :    0.806579
   3 N :   -0.106646
   4 N :   -0.113726
   5 H :    0.001416
   6 H :   -0.240159
   7 H :   -0.109957
   8 H :    0.053631
   9 H :   -0.191411
  10 C :   -0.284960
  11 H :   -0.092155
  12 H :   -0.055325
  13 C :    0.684219
  14 H :   -0.034026
  15 H :   -0.060527
  16 H :   -0.142348
  17 H :   -0.043259
  18 H :   -0.008498
Sum of atomic charges:    0.0000000

LOEWDIN ATOMIC CHARGES
----------------------
   0 C :   -0.064456
   1 C :   -0.055193
   2 C :   -0.215595
   3 N :    0.174897
   4 N :    0.195985
   5 H :   -0.005674
   6 H :   -0.009220
   7 H :   -0.049105
   8 H :    0.008676
   9 H :   -0.003422
  10 C :   -0.072584
  11 H :    0.003914
  12 H :    0.015628
  13 C :    0.115490
  14 H :    0.013632
  15 H :    0.012982
  16 H :   -0.029621
  17 H :   -0.021448
  18 H :   -0.014887

  Mayer bond orders larger than 0.100000
B(  0-C ,  1-C ) :   1.2297 B(  0-C ,  7-H ) :   0.3004 B(  0-C , 10-C ) :   1.1173
B(  0-C , 11-H ) :   0.8531 B(  0-C , 12-H ) :   0.7584 B(  0-C , 14-H ) :   0.1009
B(  0-C , 15-H ) :   0.1418 B(  1-C ,  2-C ) :   1.8704 B(  1-C ,  3-N ) :   0.2710
B(  1-C ,  4-N ) :   0.2184 B(  1-C ,  7-H ) :   0.6474 B(  1-C , 11-H ) :   0.2228
B(  1-C , 12-H ) :   0.2652 B(  2-C ,  3-N ) :   0.8350 B(  2-C ,  4-N ) :   0.8822
B(  2-C ,  6-H ) :  -0.1929 B(  2-C ,  7-H ) :   0.3187 B(  2-C ,  9-H ) :  -0.1400
B(  3-N ,  4-N ) :   0.1074 B(  3-N ,  8-H ) :   1.0910 B(  3-N ,  9-H ) :   1.3158
B(  4-N ,  5-H ) :   1.0366 B(  4-N ,  6-H ) :   1.3726 B(  5-H ,  6-H ) :  -0.2016
B(  8-H ,  9-H ) :  -0.1717 B( 10-C , 12-H ) :   0.1067 B( 10-C , 13-C ) :   1.2712
B( 10-C , 14-H ) :   0.9658 B( 10-C , 15-H ) :   0.8964 B( 10-C , 16-H ) :   0.2313
B( 10-C , 17-H ) :   0.2022 B( 10-C , 18-H ) :   0.2053 B( 13-C , 16-H ) :   0.8408
B( 13-C , 17-H ) :   0.7845 B( 13-C , 18-H ) :   0.7720 B( 16-H , 18-H ) :   0.1057

Dispersion correction           -0.005583508
FINAL SINGLE POINT ENERGY      -306.943863724859

DIPOLE MOMENT
-------------
                                X             Y             Z
Electronic contribution:      3.82985      -4.05333      -1.72321
Nuclear contribution   :     -2.83106       3.92601       1.57906
                        -----------------------------------------
Total Dipole Moment    :      0.99879      -0.12733      -0.14415
                        -----------------------------------------
Magnitude (a.u.)       :      1.01714
Magnitude (Debye)      :      2.58536

Rotational constants in cm-1:     0.142679     0.055043     0.048600
Rotational constants in MHz :  4277.395781  1650.135877  1456.977167

                             ****ORCA TERMINATED NORMALLY****
TOTAL RUN TIME: 0 days 0 hours 0 minutes 29 seconds 900 msec
