                         Program Version 5.0.0 -  RELEASE  -
|  1> !wB97X-D3 RIJCOSX def2-SVPD def2/J TightSCF
|  2> *xyz 0 1
|  3> C          0.61188        1.65763       -4.50029
|  4> C          1.69499        1.54179       -5.57045
|  5> H          2.69733        1.73466       -5.18400
|  6> H          1.50666        2.27224       -6.35808
|  7> S          1.78029       -0.03313       -6.42874
|  8> O          2.56929        0.21366       -7.60736
|  9> F          0.41688       -0.46297       -6.61859
| 10> C          0.68036        0.65542       -3.34804
| 11> H         -0.35687        1.54923       -4.99113
| 12> H          0.65023        2.67544       -4.09600
| 13> O          2.50513       -0.93326       -5.48257
| 14> H          0.64318       -0.34009       -3.73853
| 15> H         -0.14865        0.81153       -2.68980
| 16> H          1.59447        0.79330       -2.80925
| 17> *
| 18> %MaxCore 64000
| 19>
| 20> %pal nprocs 8
| 21> end
| 22>
| 23> %scf
| 24>   MaxIter 150
| 25> end
| 26>
| 27>
| 28>                          ****END OF INPUT****

CARTESIAN COORDINATES (ANGSTROEM)
---------------------------------
  C      0.611880    1.657630   -4.500290
  C      1.694990    1.541790   -5.570450
  H      2.697330    1.734660   -5.184000
  H      1.506660    2.272240   -6.358080
  S      1.780290   -0.033130   -6.428740
  O      2.569290    0.213660   -7.607360
  F      0.416880   -0.462970   -6.618590
  C      0.680360    0.655420   -3.348040
  H     -0.356870    1.549230   -4.991130
  H      0.650230    2.675440   -4.096000
  O      2.505130   -0.933260   -5.482570
  H      0.643180   -0.340090   -3.738530
  H     -0.148650    0.811530   -2.689800
  H      1.594470    0.793300   -2.809250

 Total Charge           Charge          ....    0
 Multiplicity           Mult            ....    1
 Number of Electrons    NEL             ....   66
 Basis Dimension        Dim             ....  212

ORBITAL ENERGIES
----------------

  NO   OCC          E(Eh)            E(eV)
   0   2.0000     -89.236018     -2428.2355
   1   2.0000     -24.924980      -678.2432
   2   2.0000     -19.262074      -524.1477
   3   2.0000     -19.242313      -523.6100
   4   2.0000     -10.354002      -281.7467
   5   2.0000     -10.325392      -280.9682
   6   2.0000     -10.290159      -280.0095
   7   2.0000      -8.310491      -226.1400
   8   2.0000      -6.274383      -170.7346
   9   2.0000      -6.267606      -170.5502
  10   2.0000      -6.266307      -170.5149
  11   2.0000      -1.497446       -40.7476
  12   2.0000      -1.225619       -33.3508
  13   2.0000      -1.113198       -30.2917
  14   2.0000      -0.951008       -25.8782
  15   2.0000      -0.868702       -23.6386
  16   2.0000      -0.825209       -22.4551
  17   2.0000      -0.748878       -20.3780
  18   2.0000      -0.705697       -19.2030
  19   2.0000      -0.698675       -19.0119
  20   2.0000      -0.650505       -17.7011
  21   2.0000      -0.598517       -16.2865
  22   2.0000      -0.588805       -16.0222
  23   2.0000      -0.565666       -15.3925
  24   2.0000      -0.546266       -14.8647
  25   2.0000      -0.535443       -14.5701
  26   2.0000      -0.490174       -13.3383
  27   2.0000      -0.483188       -13.1482
  28   2.0000      -0.476448       -12.9648
  29   2.0000      -0.459046       -12.4913
  30   2.0000      -0.428610       -11.6631
  31   2.0000      -0.412157       -11.2154
  32   2.0000      -0.398516       -10.8442
  33   0.0000       0.061637         1.6772
  34   0.0000       0.088933         2.4200
  35   0.0000       0.095845         2.6081
  36   0.0000       0.096985         2.6391
  37   0.0000       0.115106         3.1322

MULLIKEN ATOMIC CHARGES
-----------------------
   0 C :   -0.291433
   1 C :   -0.039085
   2 H :    0.062212
   3 H :    0.060950
   4 S :    1.480930
   5 O :   -0.675566
   6 F :   -0.401788
   7 C :    0.731901
   8 H :    0.007145
   9 H :   -0.097497
  10 O :   -0.701286
  11 H :   -0.099807
  12 H :   -0.031910
  13 H :   -0.004765
Sum of atomic charges:    0.0000000

LOEWDIN ATOMIC CHARGES
----------------------
   0 C :   -0.082458
   1 C :   -0.049087
   2 H :    0.041064
   3 H :    0.022300
   4 S :    1.126293
   5 O :   -0.462975
   6 F :   -0.251969
   7 C :    0.135080
   8 H :    0.022004
   9 H :    0.032084
  10 O :   -0.491657
  11 H :   -0.027324
  12 H :   -0.010351
  13 H :   -0.003002

  Mayer bond orders larger than 0.100000
B(  0-C ,  1-C ) :   1.2191 B(  0-C ,  2-H ) :   0.1202 B(  0-C ,  3-H ) :   0.1291
B(  0-C ,  7-C ) :   1.2683 B(  0-C ,  8-H ) :   0.9063 B(  0-C ,  9-H ) :   0.9212
B(  0-C , 11-H ) :   0.2053 B(  0-C , 12-H ) :   0.1896 B(  0-C , 13-H ) :   0.2071
B(  1-C ,  2-H ) :   0.9341 B(  1-C ,  3-H ) :   0.9217 B(  1-C ,  4-S ) :   1.0097
B(  1-C ,  8-H ) :   0.1199 B(  1-C ,  9-H ) :   0.1226 B(  4-S ,  5-O ) :   1.5821
B(  4-S ,  6-F ) :   0.6607 B(  4-S , 10-O ) :   1.4815 B(  7-C , 11-H ) :   0.8294
B(  7-C , 12-H ) :   0.7816 B(  7-C , 13-H ) :   0.7762 B( 11-H , 13-H ) :   0.1068

Dispersion correction           -0.004581112
FINAL SINGLE POINT ENERGY      -766.451185377702

DIPOLE MOMENT
-------------
                                X             Y             Z
Electronic contribution:      1.41188      -6.51191     -10.22206
Nuclear contribution   :     -2.62245       7.78551      10.86491
                        -----------------------------------------
Total Dipole Moment    :     -1.21058       1.27360       0.64284
                        -----------------------------------------
Magnitude (a.u.)       :      1.87104
Magnitude (Debye)      :      4.75581

Rotational constants in cm-1:     0.129509     0.054228     0.052367
Rotational constants in MHz :  3882.596420  1625.701900  1569.934536

                             ****ORCA TERMINATED NORMALLY****
TOTAL RUN TIME: 0 days 0 hours 0 minutes 22 seconds 686 msec
