                         Program Version 5.0.0 -  RELEASE  -
|  1> !wB97X-D3 RIJCOSX def2-SVPD def2/J TightSCF
|  2> *xyz 0 1
|  3> C          1.96337       -1.74915       -1.89689
|  4> N          2.73849       -2.01517       -3.09711
|  5> C          4.04974       -2.15472       -3.15204
|  6> C          4.65821       -1.98629       -4.31866
|  7> N          4.76423       -2.45444       -2.05049
|  8> H          4.28736       -2.77626       -1.21750
|  9> H          5.75082       -2.65835       -2.12599
| 10> H          2.34518       -1.69027       -3.97145
| 11> H          4.10900       -1.59268       -5.07176
| 12> H          5.64910       -2.15646       -4.42724
| 13> C          2.08852       -0.30091       -1.41520
| 14> H          2.23127       -2.45162       -1.10264
| 15> H          0.93025       -1.97780       -2.15544
| 16> C          1.96899        0.73358       -2.53565
| 17> H          3.05136       -0.16860       -0.91187
| 18> H          1.31650       -0.13623       -0.65725
| 19> H          2.73046        0.55745       -3.26643
| 20> H          2.08619        1.71595       -2.12808
| 21> H          1.00672        0.65098       -2.99620
| 22> *
| 23> %MaxCore 64000
| 24>
| 25> %pal nprocs 8
| 26> end
| 27>
| 28> %scf
| 29>   MaxIter 150
| 30> end
| 31>
| 32>
| 33>                          ****END OF INPUT****

CARTESIAN COORDINATES (ANGSTROEM)
---------------------------------
  C      1.963370   -1.749150   -1.896890
  N      2.738490   -2.015170   -3.097110
  C      4.049740   -2.154720   -3.152040
  C      4.658210   -1.986290   -4.318660
  N      4.764230   -2.454440   -2.050490
  H      4.287360   -2.776260   -1.217500
  H      5.750820   -2.658350   -2.125990
  H      2.345180   -1.690270   -3.971450
  H      4.109000   -1.592680   -5.071760
  H      5.649100   -2.156460   -4.427240
  C      2.088520   -0.300910   -1.415200
  H      2.231270   -2.451620   -1.102640
  H      0.930250   -1.977800   -2.155440
  C      1.968990    0.733580   -2.535650
  H      3.051360   -0.168600   -0.911870
  H      1.316500   -0.136230   -0.657250
  H      2.730460    0.557450   -3.266430
  H      2.086190    1.715950   -2.128080
  H      1.006720    0.650980   -2.996200

 Total Charge           Charge          ....    0
 Multiplicity           Mult            ....    1
 Number of Electrons    NEL             ....   56
 Basis Dimension        Dim             ....  236

ORBITAL ENERGIES
----------------

  NO   OCC          E(Eh)            E(eV)
   0   2.0000     -14.437947      -392.8765
   1   2.0000     -14.435500      -392.8099
   2   2.0000     -10.336517      -281.2709
   3   2.0000     -10.327994      -281.0390
   4   2.0000     -10.288464      -279.9633
   5   2.0000     -10.274792      -279.5913
   6   2.0000     -10.200484      -277.5693
   7   2.0000      -1.079718       -29.3806
   8   2.0000      -0.992154       -26.9979
   9   2.0000      -0.897631       -24.4258
  10   2.0000      -0.834789       -22.7158
  11   2.0000      -0.778246       -21.1772
  12   2.0000      -0.715977       -19.4827
  13   2.0000      -0.691785       -18.8244
  14   2.0000      -0.638158       -17.3652
  15   2.0000      -0.598371       -16.2825
  16   2.0000      -0.581236       -15.8162
  17   2.0000      -0.560988       -15.2653
  18   2.0000      -0.544445       -14.8151
  19   2.0000      -0.503047       -13.6886
  20   2.0000      -0.494047       -13.4437
  21   2.0000      -0.488120       -13.2824
  22   2.0000      -0.469144       -12.7661
  23   2.0000      -0.447693       -12.1823
  24   2.0000      -0.444451       -12.0941
  25   2.0000      -0.430978       -11.7275
  26   2.0000      -0.348118        -9.4728
  27   2.0000      -0.251254        -6.8370
  28   0.0000       0.084193         2.2910
  29   0.0000       0.104822         2.8523
  30   0.0000       0.114702         3.1212
  31   0.0000       0.119526         3.2525
  32   0.0000       0.145341         3.9549

MULLIKEN ATOMIC CHARGES
-----------------------
   0 C :    0.772565
   1 N :   -0.431572
   2 C :    0.661595
   3 C :    0.370147
   4 N :    0.063783
   5 H :   -0.099410
   6 H :   -0.157692
   7 H :   -0.139716
   8 H :   -0.243172
   9 H :   -0.427597
  10 C :   -0.363314
  11 H :   -0.125394
  12 H :   -0.267530
  13 C :    0.694831
  14 H :    0.003469
  15 H :   -0.118818
  16 H :   -0.123525
  17 H :   -0.065893
  18 H :   -0.002756
Sum of atomic charges:    0.0000000

LOEWDIN ATOMIC CHARGES
----------------------
   0 C :    0.046852
   1 N :   -0.023699
   2 C :   -0.236617
   3 C :    0.138653
   4 N :    0.194774
   5 H :   -0.020353
   6 H :    0.007227
   7 H :    0.029537
   8 H :   -0.098983
   9 H :   -0.097121
  10 C :   -0.066609
  11 H :    0.010531
  12 H :    0.021622
  13 C :    0.120360
  14 H :    0.015316
  15 H :    0.016708
  16 H :   -0.026078
  17 H :   -0.016500
  18 H :   -0.015620

  Mayer bond orders larger than 0.100000
B(  0-C ,  1-N ) :   0.9138 B(  0-C ,  7-H ) :  -0.1322 B(  0-C , 10-C ) :   1.0578
B(  0-C , 11-H ) :   0.8947 B(  0-C , 12-H ) :   0.7686 B(  0-C , 15-H ) :   0.1119
B(  1-N ,  2-C ) :   1.0707 B(  1-N ,  3-C ) :   0.2671 B(  1-N ,  4-N ) :   0.1342
B(  1-N ,  7-H ) :   1.1434 B(  1-N , 11-H ) :   0.1364 B(  1-N , 12-H ) :   0.2575
B(  2-C ,  3-C ) :   1.4530 B(  2-C ,  4-N ) :   0.9889 B(  2-C ,  6-H ) :  -0.1047
B(  2-C ,  7-H ) :  -0.1208 B(  2-C ,  9-H ) :   0.1484 B(  3-C ,  4-N ) :   0.1986
B(  3-C ,  8-H ) :   0.8890 B(  3-C ,  9-H ) :   0.7924 B(  4-N ,  5-H ) :   1.0431
B(  4-N ,  6-H ) :   1.2442 B(  5-H ,  6-H ) :  -0.1950 B( 10-C , 12-H ) :   0.1361
B( 10-C , 13-C ) :   1.2751 B( 10-C , 14-H ) :   0.9444 B( 10-C , 15-H ) :   0.9942
B( 10-C , 16-H ) :   0.2062 B( 10-C , 17-H ) :   0.1930 B( 10-C , 18-H ) :   0.1943
B( 13-C , 16-H ) :   0.8545 B( 13-C , 17-H ) :   0.8078 B( 13-C , 18-H ) :   0.7732
B( 16-H , 18-H ) :   0.1135

Dispersion correction           -0.005637449
FINAL SINGLE POINT ENERGY      -306.939455936458

DIPOLE MOMENT
-------------
                                X             Y             Z
Electronic contribution:      1.93356      -3.91563      -0.41623
Nuclear contribution   :     -2.41054       3.93233       1.31148
                        -----------------------------------------
Total Dipole Moment    :     -0.47698       0.01671       0.89525
                        -----------------------------------------
Magnitude (a.u.)       :      1.01453
Magnitude (Debye)      :      2.57873

Rotational constants in cm-1:     0.144008     0.056232     0.050126
Rotational constants in MHz :  4317.255215  1685.791221  1502.728769

                             ****ORCA TERMINATED NORMALLY****
TOTAL RUN TIME: 0 days 0 hours 0 minutes 28 seconds 453 msec
