                         Program Version 5.0.0 -  RELEASE  -
|  1> !wB97X-D3 RIJCOSX def2-SVPD def2/J TightSCF
|  2> *xyz 0 1
|  3> C          0.61188        1.65763       -4.50029
|  4> C          1.69499        1.54179       -5.57045
|  5> H          2.69733        1.73466       -5.18400
|  6> H          1.50666        2.27224       -6.35808
|  7> S          1.78029       -0.03313       -6.42874
|  8> O          2.56929        0.21366       -7.60736
|  9> O          0.41688       -0.46297       -6.61859
| 10> C          0.68036        0.65542       -3.34804
| 11> H         -0.35687        1.54923       -4.99113
| 12> H          0.65023        2.67544       -4.09600
| 13> F          2.50513       -0.93326       -5.48257
| 14> H          0.64318       -0.34009       -3.73853
| 15> H         -0.14865        0.81153       -2.68980
| 16> H          1.59447        0.79330       -2.80925
| 17> *
| 18> %MaxCore 64000
| 19>
| 20> %pal nprocs 8
| 21> end
| 22>
| 23> %scf
| 24>   MaxIter 150
| 25> end
| 26>
| 27>
| 28>                          ****END OF INPUT****

CARTESIAN COORDINATES (ANGSTROEM)
---------------------------------
  C      0.611880    1.657630   -4.500290
  C      1.694990    1.541790   -5.570450
  H      2.697330    1.734660   -5.184000
  H      1.506660    2.272240   -6.358080
  S      1.780290   -0.033130   -6.428740
  O      2.569290    0.213660   -7.607360
  O      0.416880   -0.462970   -6.618590
  C      0.680360    0.655420   -3.348040
  H     -0.356870    1.549230   -4.991130
  H      0.650230    2.675440   -4.096000
  F      2.505130   -0.933260   -5.482570
  H      0.643180   -0.340090   -3.738530
  H     -0.148650    0.811530   -2.689800
  H      1.594470    0.793300   -2.809250

 Total Charge           Charge          ....    0
 Multiplicity           Mult            ....    1
 Number of Electrons    NEL             ....   66
 Basis Dimension        Dim             ....  212

ORBITAL ENERGIES
----------------

  NO   OCC          E(Eh)            E(eV)
   0   2.0000     -89.233754     -2428.1739
   1   2.0000     -24.896938      -677.4801
   2   2.0000     -19.262307      -524.1540
   3   2.0000     -19.261503      -524.1321
   4   2.0000     -10.352919      -281.7173
   5   2.0000     -10.320794      -280.8431
   6   2.0000     -10.294398      -280.1248
   7   2.0000      -8.308015      -226.0726
   8   2.0000      -6.271586      -170.6585
   9   2.0000      -6.265452      -170.4916
  10   2.0000      -6.264126      -170.4555
  11   2.0000      -1.452771       -39.5319
  12   2.0000      -1.236863       -33.6568
  13   2.0000      -1.141763       -31.0689
  14   2.0000      -0.948475       -25.8093
  15   2.0000      -0.864531       -23.5251
  16   2.0000      -0.807853       -21.9828
  17   2.0000      -0.745137       -20.2762
  18   2.0000      -0.676551       -18.4099
  19   2.0000      -0.667576       -18.1657
  20   2.0000      -0.656672       -17.8689
  21   2.0000      -0.602743       -16.4015
  22   2.0000      -0.583639       -15.8816
  23   2.0000      -0.563892       -15.3443
  24   2.0000      -0.555353       -15.1119
  25   2.0000      -0.538973       -14.6662
  26   2.0000      -0.498077       -13.5534
  27   2.0000      -0.484677       -13.1887
  28   2.0000      -0.471508       -12.8304
  29   2.0000      -0.458186       -12.4679
  30   2.0000      -0.440370       -11.9831
  31   2.0000      -0.425728       -11.5846
  32   2.0000      -0.421144       -11.4599
  33   0.0000       0.068639         1.8678
  34   0.0000       0.090095         2.4516
  35   0.0000       0.096035         2.6132
  36   0.0000       0.097214         2.6453
  37   0.0000       0.117925         3.2089

MULLIKEN ATOMIC CHARGES
-----------------------
   0 C :   -0.270814
   1 C :   -0.059283
   2 H :    0.067828
   3 H :    0.071472
   4 S :    1.483632
   5 O :   -0.688499
   6 O :   -0.677304
   7 C :    0.701043
   8 H :    0.034658
   9 H :   -0.092964
  10 F :   -0.413259
  11 H :   -0.114306
  12 H :   -0.029300
  13 H :   -0.012904
Sum of atomic charges:    0.0000000

LOEWDIN ATOMIC CHARGES
----------------------
   0 C :   -0.077558
   1 C :   -0.051691
   2 H :    0.027695
   3 H :    0.032954
   4 S :    1.120411
   5 O :   -0.464218
   6 O :   -0.460863
   7 C :    0.133871
   8 H :    0.027814
   9 H :    0.032090
  10 F :   -0.279134
  11 H :   -0.024753
  12 H :   -0.007980
  13 H :   -0.008637

  Mayer bond orders larger than 0.100000
B(  0-C ,  1-C ) :   1.2636 B(  0-C ,  2-H ) :   0.1230 B(  0-C ,  3-H ) :   0.1243
B(  0-C ,  7-C ) :   1.2620 B(  0-C ,  8-H ) :   0.9089 B(  0-C ,  9-H ) :   0.9098
B(  0-C , 11-H ) :   0.1979 B(  0-C , 12-H ) :   0.1883 B(  0-C , 13-H ) :   0.2003
B(  1-C ,  2-H ) :   0.9317 B(  1-C ,  3-H ) :   0.9021 B(  1-C ,  4-S ) :   1.0095
B(  1-C ,  8-H ) :   0.1314 B(  1-C ,  9-H ) :   0.1251 B(  4-S ,  5-O ) :   1.5763
B(  4-S ,  6-O ) :   1.5289 B(  4-S , 10-F ) :   0.6016 B(  7-C , 11-H ) :   0.8380
B(  7-C , 12-H ) :   0.7893 B(  7-C , 13-H ) :   0.7794

Dispersion correction           -0.004577549
FINAL SINGLE POINT ENERGY      -766.476185658207

DIPOLE MOMENT
-------------
                                X             Y             Z
Electronic contribution:      4.98930      -7.33839      -8.25284
Nuclear contribution   :     -4.86824       8.29128       9.64318
                        -----------------------------------------
Total Dipole Moment    :      0.12106       0.95289       1.39034
                        -----------------------------------------
Magnitude (a.u.)       :      1.68989
Magnitude (Debye)      :      4.29535

Rotational constants in cm-1:     0.129339     0.055092     0.051542
Rotational constants in MHz :  3877.477482  1651.602611  1545.182728

                             ****ORCA TERMINATED NORMALLY****
TOTAL RUN TIME: 0 days 0 hours 0 minutes 22 seconds 819 msec
