                         Program Version 5.0.0 -  RELEASE  -
|  1> !wB97X-D3 RIJCOSX def2-SVPD def2/J TightSCF
|  2> *xyz 0 1
|  3> C          1.96337       -1.74915       -1.89689
|  4> N          2.73849       -2.01517       -3.09711
|  5> C          4.04974       -2.15472       -3.15204
|  6> N          4.65821       -1.98629       -4.31866
|  7> C          4.76423       -2.45444       -2.05049
|  8> H          4.28736       -2.77626       -1.21750
|  9> H          5.75082       -2.65835       -2.12599
| 10> H          2.34518       -1.69027       -3.97145
| 11> H          4.10900       -1.59268       -5.07176
| 12> H          5.64910       -2.15646       -4.42724
| 13> C          2.08852       -0.30091       -1.41520
| 14> H          2.23127       -2.45162       -1.10264
| 15> H          0.93025       -1.97780       -2.15544
| 16> C          1.96899        0.73358       -2.53565
| 17> H          3.05136       -0.16860       -0.91187
| 18> H          1.31650       -0.13623       -0.65725
| 19> H          2.73046        0.55745       -3.26643
| 20> H          2.08619        1.71595       -2.12808
| 21> H          1.00672        0.65098       -2.99620
| 22> *
| 23> %MaxCore 64000
| 24>
| 25> %pal nprocs 8
| 26> end
| 27>
| 28> %scf
| 29>   MaxIter 150
| 30> end
| 31>
| 32>
| 33>                          ****END OF INPUT****

CARTESIAN COORDINATES (ANGSTROEM)
---------------------------------
  C      1.963370   -1.749150   -1.896890
  N      2.738490   -2.015170   -3.097110
  C      4.049740   -2.154720   -3.152040
  N      4.658210   -1.986290   -4.318660
  C      4.764230   -2.454440   -2.050490
  H      4.287360   -2.776260   -1.217500
  H      5.750820   -2.658350   -2.125990
  H      2.345180   -1.690270   -3.971450
  H      4.109000   -1.592680   -5.071760
  H      5.649100   -2.156460   -4.427240
  C      2.088520   -0.300910   -1.415200
  H      2.231270   -2.451620   -1.102640
  H      0.930250   -1.977800   -2.155440
  C      1.968990    0.733580   -2.535650
  H      3.051360   -0.168600   -0.911870
  H      1.316500   -0.136230   -0.657250
  H      2.730460    0.557450   -3.266430
  H      2.086190    1.715950   -2.128080
  H      1.006720    0.650980   -2.996200

 Total Charge           Charge          ....    0
 Multiplicity           Mult            ....    1
 Number of Electrons    NEL             ....   56
 Basis Dimension        Dim             ....  236

ORBITAL ENERGIES
----------------

  NO   OCC          E(Eh)            E(eV)
   0   2.0000     -14.440534      -392.9469
   1   2.0000     -14.439614      -392.9219
   2   2.0000     -10.338181      -281.3162
   3   2.0000     -10.321784      -280.8700
   4   2.0000     -10.282671      -279.8057
   5   2.0000     -10.274483      -279.5829
   6   2.0000     -10.200354      -277.5657
   7   2.0000      -1.085611       -29.5410
   8   2.0000      -0.996775       -27.1236
   9   2.0000      -0.887854       -24.1597
  10   2.0000      -0.819484       -22.2993
  11   2.0000      -0.800844       -21.7921
  12   2.0000      -0.714777       -19.4501
  13   2.0000      -0.657708       -17.8971
  14   2.0000      -0.651681       -17.7331
  15   2.0000      -0.627558       -17.0767
  16   2.0000      -0.577004       -15.7011
  17   2.0000      -0.553130       -15.0514
  18   2.0000      -0.538415       -14.6510
  19   2.0000      -0.501955       -13.6589
  20   2.0000      -0.494973       -13.4689
  21   2.0000      -0.480193       -13.0667
  22   2.0000      -0.466834       -12.7032
  23   2.0000      -0.447280       -12.1711
  24   2.0000      -0.441233       -12.0066
  25   2.0000      -0.424161       -11.5420
  26   2.0000      -0.345693        -9.4068
  27   2.0000      -0.252198        -6.8627
  28   0.0000       0.081554         2.2192
  29   0.0000       0.107527         2.9260
  30   0.0000       0.116125         3.1599
  31   0.0000       0.120591         3.2814
  32   0.0000       0.139728         3.8022

MULLIKEN ATOMIC CHARGES
-----------------------
   0 C :    0.728350
   1 N :   -0.450972
   2 C :    0.702681
   3 N :   -0.039167
   4 C :    0.384079
   5 H :   -0.080970
   6 H :   -0.583271
   7 H :   -0.225757
   8 H :   -0.075701
   9 H :   -0.105984
  10 C :   -0.327971
  11 H :    0.005757
  12 H :   -0.288576
  13 C :    0.698131
  14 H :   -0.042458
  15 H :   -0.093751
  16 H :   -0.139510
  17 H :   -0.063049
  18 H :   -0.001861
Sum of atomic charges:   -0.0000000

LOEWDIN ATOMIC CHARGES
----------------------
   0 C :    0.055893
   1 N :   -0.026365
   2 C :   -0.238887
   3 N :    0.180565
   4 C :    0.153879
   5 H :   -0.110633
   6 H :   -0.104016
   7 H :    0.017191
   8 H :   -0.006428
   9 H :    0.014307
  10 C :   -0.060144
  11 H :    0.018519
  12 H :    0.021378
  13 C :    0.115704
  14 H :    0.015831
  15 H :    0.018738
  16 H :   -0.031225
  17 H :   -0.016929
  18 H :   -0.017378

  Mayer bond orders larger than 0.100000
B(  0-C ,  1-N ) :   0.8864 B(  0-C ,  7-H ) :  -0.1313 B(  0-C , 10-C ) :   1.0376
B(  0-C , 11-H ) :   0.8796 B(  0-C , 12-H ) :   0.8337 B(  0-C , 15-H ) :   0.1087
B(  1-N ,  2-C ) :   0.9400 B(  1-N ,  3-N ) :   0.2082 B(  1-N ,  4-C ) :   0.3477
B(  1-N ,  7-H ) :   1.2371 B(  1-N , 12-H ) :   0.2057 B(  2-C ,  3-N ) :   0.8329
B(  2-C ,  4-C ) :   1.6910 B(  2-C ,  5-H ) :   0.2593 B(  2-C ,  6-H ) :   0.1339
B(  2-C ,  7-H ) :  -0.1858 B(  2-C ,  9-H ) :  -0.1049 B(  3-N ,  4-C ) :   0.2157
B(  3-N ,  8-H ) :   1.1281 B(  3-N ,  9-H ) :   1.2596 B(  4-C ,  5-H ) :   0.6306
B(  4-C ,  6-H ) :   0.9128 B(  5-H , 11-H ) :   0.1187 B(  8-H ,  9-H ) :  -0.1597
B( 10-C , 12-H ) :   0.1320 B( 10-C , 13-C ) :   1.2674 B( 10-C , 14-H ) :   0.9756
B( 10-C , 15-H ) :   0.9635 B( 10-C , 16-H ) :   0.2138 B( 10-C , 17-H ) :   0.1919
B( 10-C , 18-H ) :   0.1960 B( 11-H , 12-H ) :  -0.1341 B( 13-C , 16-H ) :   0.8473
B( 13-C , 17-H ) :   0.8073 B( 13-C , 18-H ) :   0.7687 B( 16-H , 18-H ) :   0.1078

Dispersion correction           -0.005601115
FINAL SINGLE POINT ENERGY      -306.938447877971

DIPOLE MOMENT
-------------
                                X             Y             Z
Electronic contribution:      1.86138      -3.40781      -2.62060
Nuclear contribution   :     -2.38731       3.82978       1.80833
                        -----------------------------------------
Total Dipole Moment    :     -0.52593       0.42197      -0.81227
                        -----------------------------------------
Magnitude (a.u.)       :      1.05567
Magnitude (Debye)      :      2.68331

Rotational constants in cm-1:     0.144922     0.055791     0.049560
Rotational constants in MHz :  4344.653038  1672.561873  1485.775629

                             ****ORCA TERMINATED NORMALLY****
TOTAL RUN TIME: 0 days 0 hours 0 minutes 28 seconds 172 msec
