                         Program Version 5.0.0 -  RELEASE  -
|  1> !wB97X-D3 RIJCOSX def2-SVPD def2/J TightSCF xyzfile
|  2>
|  3> *xyzfile 0 1 D3.xyz
|  4>
|  5> %MaxCore 64000
|  6>
|  7> %pal nprocs 18
|  8> end
|  9>
| 10> %scf
| 11>   MaxIter 150
| 12> end
| 13>
| 14>
| 15>                          ****END OF INPUT****

CARTESIAN COORDINATES (ANGSTROEM)
---------------------------------
  C      1.963365   -1.749150   -1.896887
  N      2.738490   -2.015170   -3.097113
  C      0.611877    1.657634   -4.500288
  C      1.694991    1.541794   -5.570447
  H      2.697326    1.734659   -5.183996
  H      1.506656    2.272239   -6.358076
  S      1.780287   -0.033128   -6.428739
  C      4.049736   -2.154717   -3.152044
  N      4.658206   -1.986293   -4.318655
  C      4.764231   -2.454435   -2.050491
  H      4.287363   -2.776259   -1.217496
  H      5.750825   -2.658351   -2.125988
  H      2.345176   -1.690274   -3.971447
  H      4.109004   -1.592677   -5.071760
  H      5.649095   -2.156462   -4.427237
  F      2.569287    0.213657   -7.607360
  O      0.416880   -0.462969   -6.618595
  C      2.088520   -0.300912   -1.415204
  H      2.231272   -2.451616   -1.102643
  H      0.930249   -1.977801   -2.155438
  C      0.680356    0.655418   -3.348038
  H     -0.356865    1.549231   -4.991128
  H      0.650228    2.675438   -4.096000
  C      1.968993    0.733582   -2.535654
  H      3.051356   -0.168602   -0.911868
  H      1.316501   -0.136231   -0.657252
  O      2.505129   -0.933263   -5.482570
  H      2.824195    0.624726   -3.208464
  H      2.058919    1.730331   -2.093112
  H      0.542252   -0.344731   -3.766662
  H     -0.174219    0.829692   -2.685182

 Total Charge           Charge          ....    0
 Multiplicity           Mult            ....    1
 Number of Electrons    NEL             ....  120
 Basis Dimension        Dim             ....  432

ORBITAL ENERGIES
----------------

  NO   OCC          E(Eh)            E(eV)
   0   2.0000     -89.267359     -2429.0883
   1   2.0000     -24.950514      -678.9380
   2   2.0000     -19.288566      -524.8686
   3   2.0000     -19.279692      -524.6271
   4   2.0000     -14.405278      -391.9875
   5   2.0000     -14.404406      -391.9638
   6   2.0000     -10.372226      -282.2426
   7   2.0000     -10.330919      -281.1186
   8   2.0000     -10.313889      -280.6552
   9   2.0000     -10.306351      -280.4501
  10   2.0000     -10.301525      -280.3188
  11   2.0000     -10.289078      -279.9801
  12   2.0000     -10.277164      -279.6559
  13   2.0000     -10.177573      -276.9459
  14   2.0000      -8.340630      -226.9601
  15   2.0000      -6.304293      -171.5485
  16   2.0000      -6.298268      -171.3846
  17   2.0000      -6.296406      -171.3339
  18   2.0000      -1.523682       -41.4615
  19   2.0000      -1.254819       -34.1454
  20   2.0000      -1.151254       -31.3272
  21   2.0000      -1.057272       -28.7698
  22   2.0000      -0.972544       -26.4643
  23   2.0000      -0.964921       -26.2568
  24   2.0000      -0.910730       -24.7822
  25   2.0000      -0.874118       -23.7860
  26   2.0000      -0.836908       -22.7734
  27   2.0000      -0.798715       -21.7341
  28   2.0000      -0.789215       -21.4756
  29   2.0000      -0.749845       -20.4043
  30   2.0000      -0.727540       -19.7974
  31   2.0000      -0.713643       -19.4192
  32   2.0000      -0.698992       -19.0205
  33   2.0000      -0.677629       -18.4392
  34   2.0000      -0.645450       -17.5636
  35   2.0000      -0.629654       -17.1337
  36   2.0000      -0.622175       -16.9302
  37   2.0000      -0.613595       -16.6968
  38   2.0000      -0.600673       -16.3451
  39   2.0000      -0.584876       -15.9153
  40   2.0000      -0.565017       -15.3749
  41   2.0000      -0.559240       -15.2177
  42   2.0000      -0.543174       -14.7805
  43   2.0000      -0.526403       -14.3242
  44   2.0000      -0.521376       -14.1874
  45   2.0000      -0.516835       -14.0638
  46   2.0000      -0.489571       -13.3219
  47   2.0000      -0.484551       -13.1853
  48   2.0000      -0.470698       -12.8083
  49   2.0000      -0.465101       -12.6561
  50   2.0000      -0.461027       -12.5452
  51   2.0000      -0.448255       -12.1976
  52   2.0000      -0.446100       -12.1390
  53   2.0000      -0.438522       -11.9328
  54   2.0000      -0.432020       -11.7559
  55   2.0000      -0.424769       -11.5586
  56   2.0000      -0.420666       -11.4469
  57   2.0000      -0.408709       -11.1215
  58   2.0000      -0.318035        -8.6542
  59   2.0000      -0.229001        -6.2314
  60   0.0000       0.049424         1.3449
  61   0.0000       0.072110         1.9622
  62   0.0000       0.078927         2.1477
  63   0.0000       0.091914         2.5011
  64   0.0000       0.095387         2.5956

MULLIKEN ATOMIC CHARGES
-----------------------
   0 C :    0.905767
   1 N :    0.101829
   2 C :    0.363499
   3 C :    0.012579
   4 H :    0.168549
   5 H :   -0.025937
   6 S :    1.678994
   7 C :    0.716197
   8 N :    0.345809
   9 C :    0.422027
  10 H :   -0.015929
  11 H :   -0.659295
  12 H :   -0.861390
  13 H :   -0.304982
  14 H :   -0.216696
  15 F :   -0.469997
  16 O :   -0.695040
  17 C :    0.411607
  18 H :   -0.281472
  19 H :   -0.155600
  20 C :   -0.020895
  21 H :    0.024905
  22 H :   -0.006578
  23 C :   -0.004976
  24 H :   -0.087515
  25 H :   -0.022574
  26 O :   -0.838883
  27 H :    0.052537
  28 H :   -0.291731
  29 H :   -0.080541
  30 H :   -0.164268
Sum of atomic charges:    0.0000000

LOEWDIN ATOMIC CHARGES
----------------------
   0 C :    0.068741
   1 N :    0.004206
   2 C :   -0.018741
   3 C :   -0.042243
   4 H :    0.025424
   5 H :    0.022496
   6 S :    1.202814
   7 C :   -0.219397
   8 N :    0.200574
   9 C :    0.142638
  10 H :   -0.118095
  11 H :   -0.111201
  12 H :   -0.083858
  13 H :   -0.092151
  14 H :    0.010655
  15 F :   -0.237619
  16 O :   -0.438141
  17 C :   -0.010856
  18 H :    0.015370
  19 H :    0.017266
  20 C :   -0.022336
  21 H :    0.031009
  22 H :    0.041245
  23 C :   -0.028882
  24 H :    0.018957
  25 H :    0.020969
  26 O :   -0.477023
  27 H :    0.008348
  28 H :    0.025271
  29 H :    0.007878
  30 H :    0.036682

  Mayer bond orders larger than 0.100000
B(  0-C ,  1-N ) :   0.9156 B(  0-C , 12-H ) :  -0.3728 B(  0-C , 17-C ) :   1.0333
B(  0-C , 18-H ) :   0.9219 B(  0-C , 19-H ) :   0.7423 B(  0-C , 25-H ) :   0.1018
B(  1-N ,  7-C ) :   0.9365 B(  1-N ,  9-C ) :   0.4439 B(  1-N , 12-H ) :   0.9848
B(  1-N , 13-H ) :   0.1018 B(  1-N , 19-H ) :   0.1419 B(  2-C ,  3-C ) :   1.2873
B(  2-C ,  4-H ) :   0.1021 B(  2-C ,  5-H ) :   0.1887 B(  2-C , 20-C ) :   1.2411
B(  2-C , 21-H ) :   0.6916 B(  2-C , 22-H ) :   0.8089 B(  3-C ,  4-H ) :   0.8719
B(  3-C ,  5-H ) :   0.8232 B(  3-C ,  6-S ) :   1.0440 B(  3-C , 21-H ) :   0.1111
B(  3-C , 22-H ) :   0.1222 B(  6-S , 15-F ) :   0.5939 B(  6-S , 16-O ) :   1.4855
B(  6-S , 26-O ) :   1.2911 B(  7-C ,  8-N ) :   0.8286 B(  7-C ,  9-C ) :   1.5922
B(  7-C , 10-H ) :   0.3146 B(  7-C , 11-H ) :   0.2372 B(  7-C , 12-H ) :  -0.3522
B(  7-C , 14-H ) :  -0.1713 B(  8-N ,  9-C ) :   0.2262 B(  8-N , 13-H ) :   1.0417
B(  8-N , 14-H ) :   1.3129 B(  9-C , 10-H ) :   0.5764 B(  9-C , 11-H ) :   0.7800
B(  9-C , 12-H ) :  -0.1016 B( 10-H , 18-H ) :   0.1436 B( 12-H , 19-H ) :   0.1101
B( 12-H , 26-O ) :   0.1416 B( 12-H , 27-H ) :   0.1147 B( 13-H , 14-H ) :  -0.1955
B( 13-H , 26-O ) :   0.2154 B( 16-O , 26-O ) :   0.1340 B( 17-C , 23-C ) :   1.2538
B( 17-C , 24-H ) :   0.8091 B( 17-C , 25-H ) :   0.8395 B( 18-H , 19-H ) :  -0.1705
B( 20-C , 21-H ) :   0.2596 B( 20-C , 23-C ) :   1.1558 B( 20-C , 28-H ) :   0.1548
B( 20-C , 29-H ) :   0.9679 B( 20-C , 30-H ) :   0.8750 B( 23-C , 24-H ) :   0.2173
B( 23-C , 25-H ) :   0.1214 B( 23-C , 27-H ) :   0.8650 B( 23-C , 28-H ) :   0.9261
B( 23-C , 30-H ) :   0.1385

Dispersion correction           -0.016403738
FINAL SINGLE POINT ENERGY     -1072.203616512489

DIPOLE MOMENT
-------------
                                X             Y             Z
Electronic contribution:     -1.13813      -0.16418     -24.52697
Nuclear contribution   :      0.44707       2.53104      23.12246
                        -----------------------------------------
Total Dipole Moment    :     -0.69107       2.36687      -1.40451
                        -----------------------------------------
Magnitude (a.u.)       :      2.83765
Magnitude (Debye)      :      7.21274

Rotational constants in cm-1:     0.028906     0.014696     0.011110
Rotational constants in MHz :   866.591909   440.585554   333.081943

                             ****ORCA TERMINATED NORMALLY****
TOTAL RUN TIME: 0 days 0 hours 1 minutes 17 seconds 126 msec
