                         Program Version 5.0.0 -  RELEASE  -
|  1> !wB97X-D3 RIJCOSX def2-SVPD def2/J TightSCF xyzfile
|  2>
|  3> *xyzfile 0 1 D7.xyz
|  4>
|  5> %MaxCore 64000
|  6>
|  7> %pal nprocs 18
|  8> end
|  9>
| 10> %scf
| 11>   MaxIter 150
| 12> end
| 13>
| 14>
| 15>                          ****END OF INPUT****

CARTESIAN COORDINATES (ANGSTROEM)
---------------------------------
  C      1.963365   -1.749150   -1.896887
  C      2.738490   -2.015170   -3.097113
  C      0.611877    1.657634   -4.500288
  C      1.694991    1.541794   -5.570447
  H      2.697326    1.734659   -5.183996
  H      1.506656    2.272239   -6.358076
  S      1.780287   -0.033128   -6.428739
  C      4.049736   -2.154717   -3.152044
  N      4.658206   -1.986293   -4.318655
  N      4.764231   -2.454435   -2.050491
  H      4.287363   -2.776259   -1.217496
  H      5.750825   -2.658351   -2.125988
  H      2.345176   -1.690274   -3.971447
  H      4.109004   -1.592677   -5.071760
  H      5.649095   -2.156462   -4.427237
  O      2.569287    0.213657   -7.607360
  O      0.416880   -0.462969   -6.618595
  C      2.088520   -0.300912   -1.415204
  H      2.231272   -2.451616   -1.102643
  H      0.930249   -1.977801   -2.155438
  C      0.680356    0.655418   -3.348038
  H     -0.356865    1.549231   -4.991128
  H      0.650228    2.675438   -4.096000
  C      1.968993    0.733582   -2.535654
  H      3.051356   -0.168602   -0.911868
  H      1.316501   -0.136231   -0.657252
  F      2.505129   -0.933263   -5.482570
  H      2.824195    0.624726   -3.208464
  H      2.058919    1.730331   -2.093112
  H      0.542252   -0.344731   -3.766662
  H     -0.174219    0.829692   -2.685182

 Total Charge           Charge          ....    0
 Multiplicity           Mult            ....    1
 Number of Electrons    NEL             ....  120
 Basis Dimension        Dim             ....  432

ORBITAL ENERGIES
----------------

  NO   OCC          E(Eh)            E(eV)
   0   2.0000     -89.238518     -2428.3035
   1   2.0000     -24.909208      -677.8140
   2   2.0000     -19.265895      -524.2517
   3   2.0000     -19.265243      -524.2339
   4   2.0000     -14.441586      -392.9755
   5   2.0000     -14.436003      -392.8236
   6   2.0000     -10.352069      -281.6941
   7   2.0000     -10.336473      -281.2697
   8   2.0000     -10.314602      -280.6746
   9   2.0000     -10.294446      -280.1261
  10   2.0000     -10.285760      -279.8898
  11   2.0000     -10.275847      -279.6200
  12   2.0000     -10.267746      -279.3996
  13   2.0000     -10.204606      -277.6815
  14   2.0000      -8.311927      -226.1790
  15   2.0000      -6.275758      -170.7721
  16   2.0000      -6.269291      -170.5961
  17   2.0000      -6.267934      -170.5591
  18   2.0000      -1.468036       -39.9473
  19   2.0000      -1.241813       -33.7915
  20   2.0000      -1.144991       -31.1568
  21   2.0000      -1.072547       -29.1855
  22   2.0000      -0.980964       -26.6934
  23   2.0000      -0.952840       -25.9281
  24   2.0000      -0.914198       -24.8766
  25   2.0000      -0.868164       -23.6239
  26   2.0000      -0.846000       -23.0208
  27   2.0000      -0.807719       -21.9792
  28   2.0000      -0.776427       -21.1277
  29   2.0000      -0.736228       -20.0338
  30   2.0000      -0.699431       -19.0325
  31   2.0000      -0.689671       -18.7669
  32   2.0000      -0.683383       -18.5958
  33   2.0000      -0.673563       -18.3286
  34   2.0000      -0.652093       -17.7444
  35   2.0000      -0.647040       -17.6069
  36   2.0000      -0.610643       -16.6164
  37   2.0000      -0.600127       -16.3303
  38   2.0000      -0.594295       -16.1716
  39   2.0000      -0.575243       -15.6531
  40   2.0000      -0.572129       -15.5684
  41   2.0000      -0.560379       -15.2487
  42   2.0000      -0.548908       -14.9365
  43   2.0000      -0.534129       -14.5344
  44   2.0000      -0.523003       -14.2316
  45   2.0000      -0.499871       -13.6022
  46   2.0000      -0.498264       -13.5585
  47   2.0000      -0.492008       -13.3882
  48   2.0000      -0.485003       -13.1976
  49   2.0000      -0.465585       -12.6692
  50   2.0000      -0.454582       -12.3698
  51   2.0000      -0.441054       -12.0017
  52   2.0000      -0.438551       -11.9336
  53   2.0000      -0.428974       -11.6730
  54   2.0000      -0.424335       -11.5467
  55   2.0000      -0.417226       -11.3533
  56   2.0000      -0.407264       -11.0822
  57   2.0000      -0.402154       -10.9432
  58   2.0000      -0.363140        -9.8816
  59   2.0000      -0.248577        -6.7641
  60   0.0000       0.070581         1.9206
  61   0.0000       0.084867         2.3094
  62   0.0000       0.091390         2.4869
  63   0.0000       0.092788         2.5249
  64   0.0000       0.107027         2.9124

MULLIKEN ATOMIC CHARGES
-----------------------
   0 C :    0.248191
   1 C :    0.109024
   2 C :    0.431794
   3 C :    0.025984
   4 H :    0.164292
   5 H :   -0.095046
   6 S :    1.562389
   7 C :    0.758818
   8 N :    0.141774
   9 N :   -0.079922
  10 H :   -0.006424
  11 H :   -0.239810
  12 H :   -0.437012
  13 H :   -0.202719
  14 H :   -0.235952
  15 O :   -0.703645
  16 O :   -0.725893
  17 C :    0.527359
  18 H :   -0.332757
  19 H :    0.120075
  20 C :   -0.004079
  21 H :    0.005723
  22 H :   -0.012618
  23 C :   -0.137794
  24 H :   -0.020498
  25 H :    0.043175
  26 F :   -0.485053
  27 H :    0.022600
  28 H :   -0.176485
  29 H :   -0.128948
  30 H :   -0.136545
Sum of atomic charges:   -0.0000000

LOEWDIN ATOMIC CHARGES
----------------------
   0 C :   -0.047301
   1 C :   -0.032997
   2 C :   -0.031404
   3 C :   -0.038657
   4 H :    0.021614
   5 H :    0.033244
   6 S :    1.146788
   7 C :   -0.192897
   8 N :    0.196006
   9 N :    0.197216
  10 H :   -0.005750
  11 H :   -0.008525
  12 H :   -0.107242
  13 H :   -0.048432
  14 H :    0.002263
  15 O :   -0.456442
  16 O :   -0.447002
  17 C :   -0.021183
  18 H :    0.004289
  19 H :    0.013624
  20 C :   -0.021788
  21 H :    0.029703
  22 H :    0.036241
  23 C :   -0.031666
  24 H :    0.018910
  25 H :    0.018582
  26 F :   -0.302595
  27 H :    0.005354
  28 H :    0.025496
  29 H :    0.008111
  30 H :    0.036437

  Mayer bond orders larger than 0.100000
B(  0-C ,  1-C ) :   1.1031 B(  0-C ,  7-C ) :   0.1170 B(  0-C , 12-H ) :   0.3924
B(  0-C , 17-C ) :   1.1164 B(  0-C , 18-H ) :   0.8314 B(  0-C , 19-H ) :   0.6858
B(  0-C , 23-C ) :   0.1005 B(  0-C , 24-H ) :   0.1212 B(  0-C , 25-H ) :   0.1709
B(  1-C ,  7-C ) :   1.6995 B(  1-C ,  8-N ) :   0.2482 B(  1-C ,  9-N ) :   0.2234
B(  1-C , 10-H ) :  -0.1024 B(  1-C , 18-H ) :   0.2425 B(  1-C , 19-H ) :   0.2820
B(  2-C ,  3-C ) :   1.2357 B(  2-C ,  4-H ) :   0.1166 B(  2-C ,  5-H ) :   0.1669
B(  2-C , 20-C ) :   1.2387 B(  2-C , 21-H ) :   0.7017 B(  2-C , 22-H ) :   0.7848
B(  3-C ,  4-H ) :   0.8734 B(  3-C ,  5-H ) :   0.8483 B(  3-C ,  6-S ) :   1.0828
B(  3-C , 21-H ) :   0.1222 B(  3-C , 22-H ) :   0.1162 B(  6-S , 15-O ) :   1.5213
B(  6-S , 16-O ) :   1.4619 B(  6-S , 26-F ) :   0.5930 B(  7-C ,  8-N ) :   0.7927
B(  7-C ,  9-N ) :   0.8935 B(  7-C , 11-H ) :  -0.1817 B(  7-C , 12-H ) :   0.5905
B(  7-C , 14-H ) :  -0.2327 B(  8-N , 13-H ) :   1.1723 B(  8-N , 14-H ) :   1.3546
B(  9-N , 10-H ) :   1.0437 B(  9-N , 11-H ) :   1.3632 B( 10-H , 11-H ) :  -0.2066
B( 12-H , 23-C ) :   0.1098 B( 13-H , 14-H ) :  -0.1798 B( 13-H , 26-F ) :   0.1451
B( 17-C , 23-C ) :   1.2326 B( 17-C , 24-H ) :   0.7682 B( 17-C , 25-H ) :   0.6992
B( 20-C , 21-H ) :   0.2594 B( 20-C , 22-H ) :   0.1007 B( 20-C , 23-C ) :   1.1750
B( 20-C , 28-H ) :   0.1574 B( 20-C , 29-H ) :   0.9635 B( 20-C , 30-H ) :   0.8576
B( 23-C , 24-H ) :   0.2458 B( 23-C , 25-H ) :   0.1453 B( 23-C , 27-H ) :   0.9140
B( 23-C , 28-H ) :   0.9055 B( 23-C , 30-H ) :   0.1624

Dispersion correction           -0.016306792
FINAL SINGLE POINT ENERGY     -1072.214163578807

DIPOLE MOMENT
-------------
                                X             Y             Z
Electronic contribution:      0.77154      -3.07809     -19.35636
Nuclear contribution   :      0.26049       3.89757      20.56096
                        -----------------------------------------
Total Dipole Moment    :      1.03203       0.81948       1.20461
                        -----------------------------------------
Magnitude (a.u.)       :      1.78542
Magnitude (Debye)      :      4.53818

Rotational constants in cm-1:     0.029090     0.014735     0.011139
Rotational constants in MHz :   872.086433   441.731892   333.928051

                             ****ORCA TERMINATED NORMALLY****
TOTAL RUN TIME: 0 days 0 hours 1 minutes 41 seconds 921 msec
