                         Program Version 5.0.0 -  RELEASE  -
|  1> !TPSS D3BJ RIJCOSX def2-SVP def2/J TightSCF
|  2> *xyz -1 1
|  3> C         -0.10608        1.76991       -4.08984
|  4> C         -0.25875        1.00432       -5.40983
|  5> C          0.39596       -0.37070       -5.33994
|  6> H          0.23915        1.56939       -6.20125
|  7> H         -1.30936        0.88869       -5.68245
|  8> O         -0.32633       -1.39040       -5.49128
|  9> O          1.61941       -0.40073       -5.03683
| 10> H         -0.57627        2.72718       -4.17630
| 11> H          0.93321        1.90140       -3.87192
| 12> H         -0.56868        1.21534       -3.30031
| 13> *
| 14> %MaxCore 64000
| 15>
| 16> %pal nprocs 4
| 17> end
| 18>
| 19> %scf
| 20>   MaxIter 150
| 21> end
| 22>
| 23>
| 24>                          ****END OF INPUT****

CARTESIAN COORDINATES (ANGSTROEM)
---------------------------------
  C     -0.106080    1.769910   -4.089840
  C     -0.258750    1.004320   -5.409830
  C      0.395960   -0.370700   -5.339940
  H      0.239150    1.569390   -6.201250
  H     -1.309360    0.888690   -5.682450
  O     -0.326330   -1.390400   -5.491280
  O      1.619410   -0.400730   -5.036830
  H     -0.576270    2.727180   -4.176300
  H      0.933210    1.901400   -3.871920
  H     -0.568680    1.215340   -3.300310

 Total Charge           Charge          ....   -1
 Multiplicity           Mult            ....    1
 Number of Electrons    NEL             ....   40
 Basis Dimension        Dim             ....   95

ORBITAL ENERGIES
----------------

  NO   OCC          E(Eh)            E(eV)
   0   2.0000     -18.591499      -505.9004
   1   2.0000     -18.591315      -505.8954
   2   2.0000      -9.839370      -267.7429
   3   2.0000      -9.829174      -267.4654
   4   2.0000      -9.806968      -266.8612
   5   2.0000      -0.699176       -19.0256
   6   2.0000      -0.608286       -16.5523
   7   2.0000      -0.526441       -14.3252
   8   2.0000      -0.401465       -10.9244
   9   2.0000      -0.252596        -6.8735
  10   2.0000      -0.236181        -6.4268
  11   2.0000      -0.190884        -5.1942
  12   2.0000      -0.167320        -4.5530
  13   2.0000      -0.153583        -4.1792
  14   2.0000      -0.132523        -3.6061
  15   2.0000      -0.098862        -2.6902
  16   2.0000      -0.091090        -2.4787
  17   2.0000       0.028601         0.7783
  18   2.0000       0.036941         1.0052
  19   2.0000       0.057285         1.5588
  20   0.0000       0.206663         5.6236
  21   0.0000       0.252576         6.8729
  22   0.0000       0.258132         7.0241
  23   0.0000       0.269827         7.3424
  24   0.0000       0.274597         7.4722

MULLIKEN ATOMIC CHARGES
-----------------------
   0 C :    0.024857
   1 C :    0.018751
   2 C :    0.016321
   3 H :   -0.046523
   4 H :   -0.062598
   5 O :   -0.427112
   6 O :   -0.438622
   7 H :   -0.054332
   8 H :   -0.014013
   9 H :   -0.016728
Sum of atomic charges:   -1.0000000

LOEWDIN ATOMIC CHARGES
----------------------
   0 C :   -0.050520
   1 C :   -0.085126
   2 C :   -0.069876
   3 H :   -0.002890
   4 H :   -0.012117
   5 O :   -0.383104
   6 O :   -0.391485
   7 H :   -0.013659
   8 H :    0.003739
   9 H :    0.005038

  Mayer bond orders larger than 0.100000
B(  0-C ,  1-C ) :   1.0953 B(  0-C ,  7-H ) :   0.9579 B(  0-C ,  8-H ) :   0.9575
B(  0-C ,  9-H ) :   0.9701 B(  1-C ,  2-C ) :   0.9134 B(  1-C ,  3-H ) :   0.9266
B(  1-C ,  4-H ) :   0.9266 B(  2-C ,  5-O ) :   1.8540 B(  2-C ,  6-O ) :   1.8032
B(  5-O ,  6-O ) :   0.1341

Dispersion correction           -0.008074690
FINAL SINGLE POINT ENERGY      -267.660196883489

DIPOLE MOMENT
-------------
                                X             Y             Z
Electronic contribution:      1.86185      -5.61851      -1.71047
Nuclear contribution   :     -2.46071       7.20791       1.95694
                        -----------------------------------------
Total Dipole Moment    :     -0.59886       1.58940       0.24646
                        -----------------------------------------
Magnitude (a.u.)       :      1.71627
Magnitude (Debye)      :      4.36241

Rotational constants in cm-1:     0.309435     0.135317     0.107436
Rotational constants in MHz :  9276.637721  4056.700783  3220.846587

                             ****ORCA TERMINATED NORMALLY****
TOTAL RUN TIME: 0 days 0 hours 0 minutes 7 seconds 913 msec
