                         Program Version 5.0.0 -  RELEASE  -
|  1> !TPSS D3BJ RIJCOSX def2-SVP def2/J TightSCF
|  2> *xyz 1 1
|  3> C          0.81607       -2.10149       -2.18655
|  4> H          1.69623       -2.36869       -1.60046
|  5> N          1.10055       -2.46749       -3.59927
|  6> C          0.51624       -0.61363       -2.03937
|  7> H         -0.02007       -2.71285       -1.84084
|  8> H          1.70061       -1.75723       -4.07838
|  9> H          0.29386       -2.35977       -4.25632
| 10> H          1.50132       -3.42848       -3.69491
| 11> H         -0.34841       -0.36504       -2.61858
| 12> H          1.35358       -0.04503       -2.38643
| 13> H          0.33317       -0.38682       -1.00984
| 14> *
| 15> %MaxCore 64000
| 16>
| 17> %pal nprocs 4
| 18> end
| 19>
| 20> %scf
| 21>   MaxIter 150
| 22> end
| 23>
| 24>
| 25>                          ****END OF INPUT****

CARTESIAN COORDINATES (ANGSTROEM)
---------------------------------
  C      0.816070   -2.101490   -2.186550
  H      1.696230   -2.368690   -1.600460
  N      1.100550   -2.467490   -3.599270
  C      0.516240   -0.613630   -2.039370
  H     -0.020070   -2.712850   -1.840840
  H      1.700610   -1.757230   -4.078380
  H      0.293860   -2.359770   -4.256320
  H      1.501320   -3.428480   -3.694910
  H     -0.348410   -0.365040   -2.618580
  H      1.353580   -0.045030   -2.386430
  H      0.333170   -0.386820   -1.009840

 Total Charge           Charge          ....    1
 Multiplicity           Mult            ....    1
 Number of Electrons    NEL             ....   26
 Basis Dimension        Dim             ....   82

ORBITAL ENERGIES
----------------

  NO   OCC          E(Eh)            E(eV)
   0   2.0000     -14.457355      -393.4046
   1   2.0000     -10.255139      -279.0565
   2   2.0000     -10.179795      -277.0063
   3   2.0000      -1.142815       -31.0976
   4   2.0000      -0.906093       -24.6560
   5   2.0000      -0.799210       -21.7476
   6   2.0000      -0.746341       -20.3090
   7   2.0000      -0.729537       -19.8517
   8   2.0000      -0.661665       -18.0048
   9   2.0000      -0.598992       -16.2994
  10   2.0000      -0.545519       -14.8443
  11   2.0000      -0.532088       -14.4789
  12   2.0000      -0.516056       -14.0426
  13   0.0000      -0.201349        -5.4790
  14   0.0000      -0.148425        -4.0388
  15   0.0000      -0.141243        -3.8434
  16   0.0000      -0.106267        -2.8917
  17   0.0000      -0.069180        -1.8825

MULLIKEN ATOMIC CHARGES
-----------------------
   0 C :   -0.020582
   1 H :    0.101158
   2 N :   -0.004088
   3 C :   -0.033154
   4 H :    0.104657
   5 H :    0.202931
   6 H :    0.205961
   7 H :    0.228284
   8 H :    0.059789
   9 H :    0.059829
  10 H :    0.095216
Sum of atomic charges:    1.0000000

LOEWDIN ATOMIC CHARGES
----------------------
   0 C :    0.056819
   1 H :    0.053376
   2 N :    0.279467
   3 C :   -0.028205
   4 H :    0.054111
   5 H :    0.146862
   6 H :    0.148717
   7 H :    0.154351
   8 H :    0.036386
   9 H :    0.036181
  10 H :    0.061935

  Mayer bond orders larger than 0.100000
B(  0-C ,  1-H ) :   0.9484 B(  0-C ,  2-N ) :   0.9200 B(  0-C ,  3-C ) :   1.1028
B(  0-C ,  4-H ) :   0.9483 B(  2-N ,  5-H ) :   0.9297 B(  2-N ,  6-H ) :   0.9294
B(  2-N ,  7-H ) :   0.9243 B(  3-C ,  8-H ) :   0.9707 B(  3-C ,  9-H ) :   0.9662
B(  3-C , 10-H ) :   0.9553

Dispersion correction           -0.007428710
FINAL SINGLE POINT ENERGY      -135.460693326326

DIPOLE MOMENT
-------------
                                X             Y             Z
Electronic contribution:      0.42977      -1.45497      -1.10512
Nuclear contribution   :     -0.07506       0.54337      -0.16191
                        -----------------------------------------
Total Dipole Moment    :      0.35472      -0.91161      -1.26703
                        -----------------------------------------
Magnitude (a.u.)       :      1.60070
Magnitude (Debye)      :      4.06865

Rotational constants in cm-1:     0.999557     0.280801     0.246932
Rotational constants in MHz : 29965.963633  8418.199581  7402.841054

                             ****ORCA TERMINATED NORMALLY****
TOTAL RUN TIME: 0 days 0 hours 0 minutes 7 seconds 287 msec
