                         Program Version 5.0.0 -  RELEASE  -
|  1> !TPSS D3BJ RIJCOSX def2-SVP def2/J TightSCF
|  2> *xyz 0 1
|  3> C         -0.10608        1.76991       -4.08984
|  4> C         -0.25875        1.00432       -5.40983
|  5> C          0.39596       -0.37070       -5.33994
|  6> H          0.23915        1.56939       -6.20125
|  7> H         -1.30936        0.88869       -5.68245
|  8> F         -0.32633       -1.39040       -5.49128
|  9> O          1.61941       -0.40073       -5.03683
| 10> H         -0.57627        2.72718       -4.17630
| 11> H          0.93321        1.90140       -3.87192
| 12> H         -0.56868        1.21534       -3.30031
| 13> *
| 14> %MaxCore 64000
| 15>
| 16> %pal nprocs 4
| 17> end
| 18>
| 19> %scf
| 20>   MaxIter 150
| 21> end
| 22>
| 23>
| 24>                          ****END OF INPUT****

CARTESIAN COORDINATES (ANGSTROEM)
---------------------------------
  C     -0.106080    1.769910   -4.089840
  C     -0.258750    1.004320   -5.409830
  C      0.395960   -0.370700   -5.339940
  H      0.239150    1.569390   -6.201250
  H     -1.309360    0.888690   -5.682450
  F     -0.326330   -1.390400   -5.491280
  O      1.619410   -0.400730   -5.036830
  H     -0.576270    2.727180   -4.176300
  H      0.933210    1.901400   -3.871920
  H     -0.568680    1.215340   -3.300310

 Total Charge           Charge          ....    0
 Multiplicity           Mult            ....    1
 Number of Electrons    NEL             ....   40
 Basis Dimension        Dim             ....   95

ORBITAL ENERGIES
----------------

  NO   OCC          E(Eh)            E(eV)
   0   2.0000     -24.477559      -666.0682
   1   2.0000     -18.888421      -513.9801
   2   2.0000     -10.156468      -276.3716
   3   2.0000     -10.027779      -272.8697
   4   2.0000     -10.006681      -272.2956
   5   2.0000      -1.210214       -32.9316
   6   2.0000      -0.939516       -25.5655
   7   2.0000      -0.732577       -19.9344
   8   2.0000      -0.622675       -16.9439
   9   2.0000      -0.571785       -15.5591
  10   2.0000      -0.485177       -13.2023
  11   2.0000      -0.470582       -12.8052
  12   2.0000      -0.446106       -12.1392
  13   2.0000      -0.417291       -11.3551
  14   2.0000      -0.382350       -10.4043
  15   2.0000      -0.354368        -9.6428
  16   2.0000      -0.335888        -9.1400
  17   2.0000      -0.327350        -8.9077
  18   2.0000      -0.298553        -8.1240
  19   2.0000      -0.236359        -6.4317
  20   0.0000      -0.053517        -1.4563
  21   0.0000       0.050565         1.3759
  22   0.0000       0.091666         2.4944
  23   0.0000       0.095591         2.6012
  24   0.0000       0.113254         3.0818

MULLIKEN ATOMIC CHARGES
-----------------------
   0 C :    0.007136
   1 C :   -0.067674
   2 C :    0.222336
   3 H :    0.057569
   4 H :    0.022038
   5 F :   -0.065447
   6 O :   -0.264689
   7 H :    0.023618
   8 H :    0.042405
   9 H :    0.022709
Sum of atomic charges:    0.0000000

LOEWDIN ATOMIC CHARGES
----------------------
   0 C :   -0.024452
   1 C :   -0.063545
   2 C :    0.086262
   3 H :    0.046906
   4 H :    0.022561
   5 F :    0.051083
   6 O :   -0.192173
   7 H :    0.023787
   8 H :    0.027687
   9 H :    0.021885

  Mayer bond orders larger than 0.100000
B(  0-C ,  1-C ) :   1.0909 B(  0-C ,  7-H ) :   0.9665 B(  0-C ,  8-H ) :   0.9686
B(  0-C ,  9-H ) :   0.9756 B(  1-C ,  2-C ) :   0.9978 B(  1-C ,  3-H ) :   0.9285
B(  1-C ,  4-H ) :   0.9347 B(  2-C ,  5-F ) :   1.2036 B(  2-C ,  6-O ) :   2.0372

Dispersion correction           -0.007659160
FINAL SINGLE POINT ENERGY      -292.218059908077

DIPOLE MOMENT
-------------
                                X             Y             Z
Electronic contribution:      0.93372      -8.28038      -2.55926
Nuclear contribution   :     -1.80992       8.85192       2.42184
                        -----------------------------------------
Total Dipole Moment    :     -0.87620       0.57155      -0.13742
                        -----------------------------------------
Magnitude (a.u.)       :      1.05512
Magnitude (Debye)      :      2.68190

Rotational constants in cm-1:     0.298360     0.128849     0.102271
Rotational constants in MHz :  8944.606599  3862.796179  3066.020510

                             ****ORCA TERMINATED NORMALLY****
TOTAL RUN TIME: 0 days 0 hours 0 minutes 7 seconds 245 msec
