                         Program Version 5.0.0 -  RELEASE  -
|  1> !TPSS D3BJ RIJCOSX def2-SVP def2/J TightSCF
|  2> *xyz 0 1
|  3> C          0.81607       -2.10149       -2.18655
|  4> H          1.69623       -2.36869       -1.60046
|  5> C          1.10055       -2.46749       -3.59927
|  6> C          0.51624       -0.61363       -2.03937
|  7> H         -0.02007       -2.71285       -1.84084
|  8> H          1.70061       -1.75723       -4.07838
|  9> H          0.29386       -2.35977       -4.25632
| 10> H          1.50132       -3.42848       -3.69491
| 11> H         -0.34841       -0.36504       -2.61858
| 12> H          1.35358       -0.04503       -2.38643
| 13> H          0.33317       -0.38682       -1.00984
| 14> *
| 15> %MaxCore 64000
| 16>
| 17> %pal nprocs 4
| 18> end
| 19>
| 20> %scf
| 21>   MaxIter 150
| 22> end
| 23>
| 24>
| 25>                          ****END OF INPUT****

CARTESIAN COORDINATES (ANGSTROEM)
---------------------------------
  C      0.816070   -2.101490   -2.186550
  H      1.696230   -2.368690   -1.600460
  C      1.100550   -2.467490   -3.599270
  C      0.516240   -0.613630   -2.039370
  H     -0.020070   -2.712850   -1.840840
  H      1.700610   -1.757230   -4.078380
  H      0.293860   -2.359770   -4.256320
  H      1.501320   -3.428480   -3.694910
  H     -0.348410   -0.365040   -2.618580
  H      1.353580   -0.045030   -2.386430
  H      0.333170   -0.386820   -1.009840

 Total Charge           Charge          ....    0
 Multiplicity           Mult            ....    1
 Number of Electrons    NEL             ....   26
 Basis Dimension        Dim             ....   82

ORBITAL ENERGIES
----------------

  NO   OCC          E(Eh)            E(eV)
   0   2.0000      -9.988036      -271.7883
   1   2.0000      -9.981748      -271.6172
   2   2.0000      -9.969217      -271.2762
   3   2.0000      -0.723615       -19.6906
   4   2.0000      -0.628189       -17.0939
   5   2.0000      -0.535370       -14.5682
   6   2.0000      -0.415975       -11.3192
   7   2.0000      -0.402182       -10.9439
   8   2.0000      -0.371055       -10.0969
   9   2.0000      -0.336706        -9.1622
  10   2.0000      -0.303504        -8.2588
  11   2.0000      -0.298205        -8.1146
  12   2.0000      -0.284838        -7.7508
  13   0.0000       0.054560         1.4846
  14   0.0000       0.099860         2.7173
  15   0.0000       0.100923         2.7463
  16   0.0000       0.102995         2.8026
  17   0.0000       0.134046         3.6476

MULLIKEN ATOMIC CHARGES
-----------------------
   0 C :   -0.070188
   1 H :    0.009761
   2 C :    0.048749
   3 C :    0.003806
   4 H :    0.011808
   5 H :   -0.021298
   6 H :   -0.017728
   7 H :    0.004277
   8 H :    0.009937
   9 H :    0.011143
  10 H :    0.009733
Sum of atomic charges:   -0.0000000

LOEWDIN ATOMIC CHARGES
----------------------
   0 C :   -0.035810
   1 H :    0.017261
   2 C :   -0.046754
   3 C :   -0.040945
   4 H :    0.017193
   5 H :    0.012483
   6 H :    0.012864
   7 H :    0.014321
   8 H :    0.016104
   9 H :    0.016359
  10 H :    0.016923

  Mayer bond orders larger than 0.100000
B(  0-C ,  1-H ) :   0.9521 B(  0-C ,  2-C ) :   1.1133 B(  0-C ,  3-C ) :   1.1054
B(  0-C ,  4-H ) :   0.9518 B(  2-C ,  5-H ) :   0.9609 B(  2-C ,  6-H ) :   0.9598
B(  2-C ,  7-H ) :   0.9665 B(  3-C ,  8-H ) :   0.9749 B(  3-C ,  9-H ) :   0.9718
B(  3-C , 10-H ) :   0.9679

Dispersion correction           -0.007453076
FINAL SINGLE POINT ENERGY      -119.068473100070

DIPOLE MOMENT
-------------
                                X             Y             Z
Electronic contribution:     -0.01901      -0.29764       0.46492
Nuclear contribution   :      0.01737       0.30387      -0.47422
                        -----------------------------------------
Total Dipole Moment    :     -0.00164       0.00624      -0.00929
                        -----------------------------------------
Magnitude (a.u.)       :      0.01131
Magnitude (Debye)      :      0.02875

Rotational constants in cm-1:     1.006891     0.295208     0.258491
Rotational constants in MHz : 30185.831813  8850.104914  7749.351732

                             ****ORCA TERMINATED NORMALLY****
TOTAL RUN TIME: 0 days 0 hours 0 minutes 7 seconds 314 msec
