                         Program Version 5.0.0 -  RELEASE  -
|  1> !TPSS D3BJ RIJCOSX def2-SVP def2/J TightSCF
|  2> *xyz 0 1
|  3> C         -0.10608        1.76991       -4.08984
|  4> C         -0.25875        1.00432       -5.40983
|  5> C          0.39596       -0.37070       -5.33994
|  6> H          0.23915        1.56939       -6.20125
|  7> H         -1.30936        0.88869       -5.68245
|  8> O         -0.32633       -1.39040       -5.49128
|  9> F          1.61941       -0.40073       -5.03683
| 10> H         -0.57627        2.72718       -4.17630
| 11> H          0.93321        1.90140       -3.87192
| 12> H         -0.56868        1.21534       -3.30031
| 13> *
| 14> %MaxCore 64000
| 15>
| 16> %pal nprocs 4
| 17> end
| 18>
| 19> %scf
| 20>   MaxIter 150
| 21> end
| 22>
| 23>
| 24>                          ****END OF INPUT****

CARTESIAN COORDINATES (ANGSTROEM)
---------------------------------
  C     -0.106080    1.769910   -4.089840
  C     -0.258750    1.004320   -5.409830
  C      0.395960   -0.370700   -5.339940
  H      0.239150    1.569390   -6.201250
  H     -1.309360    0.888690   -5.682450
  O     -0.326330   -1.390400   -5.491280
  F      1.619410   -0.400730   -5.036830
  H     -0.576270    2.727180   -4.176300
  H      0.933210    1.901400   -3.871920
  H     -0.568680    1.215340   -3.300310

 Total Charge           Charge          ....    0
 Multiplicity           Mult            ....    1
 Number of Electrons    NEL             ....   40
 Basis Dimension        Dim             ....   95

ORBITAL ENERGIES
----------------

  NO   OCC          E(Eh)            E(eV)
   0   2.0000     -24.476744      -666.0461
   1   2.0000     -18.888536      -513.9832
   2   2.0000     -10.155500      -276.3452
   3   2.0000     -10.027255      -272.8555
   4   2.0000     -10.011376      -272.4234
   5   2.0000      -1.209106       -32.9014
   6   2.0000      -0.938961       -25.5504
   7   2.0000      -0.736984       -20.0543
   8   2.0000      -0.620579       -16.8868
   9   2.0000      -0.574845       -15.6423
  10   2.0000      -0.486917       -13.2497
  11   2.0000      -0.473139       -12.8748
  12   2.0000      -0.441548       -12.0151
  13   2.0000      -0.415466       -11.3054
  14   2.0000      -0.385805       -10.4983
  15   2.0000      -0.356213        -9.6930
  16   2.0000      -0.339725        -9.2444
  17   2.0000      -0.331399        -9.0178
  18   2.0000      -0.302767        -8.2387
  19   2.0000      -0.233170        -6.3449
  20   0.0000      -0.049898        -1.3578
  21   0.0000       0.046009         1.2520
  22   0.0000       0.090126         2.4525
  23   0.0000       0.096477         2.6253
  24   0.0000       0.117464         3.1964

MULLIKEN ATOMIC CHARGES
-----------------------
   0 C :   -0.013534
   1 C :   -0.059385
   2 C :    0.220497
   3 H :    0.040772
   4 H :    0.048606
   5 O :   -0.253600
   6 F :   -0.074351
   7 H :    0.029508
   8 H :    0.027994
   9 H :    0.033492
Sum of atomic charges:    0.0000000

LOEWDIN ATOMIC CHARGES
----------------------
   0 C :   -0.032824
   1 C :   -0.060007
   2 C :    0.085528
   3 H :    0.035987
   4 H :    0.039781
   5 O :   -0.185733
   6 F :    0.045702
   7 H :    0.026258
   8 H :    0.020981
   9 H :    0.024327

  Mayer bond orders larger than 0.100000
B(  0-C ,  1-C ) :   1.0759 B(  0-C ,  7-H ) :   0.9666 B(  0-C ,  8-H ) :   0.9714
B(  0-C ,  9-H ) :   0.9753 B(  1-C ,  2-C ) :   1.0060 B(  1-C ,  3-H ) :   0.9244
B(  1-C ,  4-H ) :   0.9473 B(  2-C ,  5-O ) :   2.0660 B(  2-C ,  6-F ) :   1.1832

Dispersion correction           -0.007611329
FINAL SINGLE POINT ENERGY      -292.219219244084

DIPOLE MOMENT
-------------
                                X             Y             Z
Electronic contribution:      4.09740      -6.64871      -1.81041
Nuclear contribution   :     -3.93139       7.77287       1.92635
                        -----------------------------------------
Total Dipole Moment    :      0.16602       1.12416       0.11594
                        -----------------------------------------
Magnitude (a.u.)       :      1.14225
Magnitude (Debye)      :      2.90338

Rotational constants in cm-1:     0.286068     0.133630     0.103472
Rotational constants in MHz :  8576.109806  4006.118234  3102.010802

                             ****ORCA TERMINATED NORMALLY****
TOTAL RUN TIME: 0 days 0 hours 0 minutes 8 seconds 58 msec
