                         Program Version 5.0.0 -  RELEASE  -
|  1> !TPSS D3BJ RIJCOSX def2-TZVP def2/J TightSCF xyzfile
|  2>
|  3> *xyzfile 0 1 D1.xyz
|  4>
|  5> %MaxCore 64000
|  6>
|  7> %pal nprocs 18
|  8> end
|  9>
| 10> %scf
| 11>   MaxIter 150
| 12> end
| 13>
| 14>
| 15>                          ****END OF INPUT****

CARTESIAN COORDINATES (ANGSTROEM)
---------------------------------
  C      0.816067   -2.101491   -2.186546
  H      1.696232   -2.368691   -1.600457
  C      1.100552   -2.467492   -3.599269
  C      0.516243   -0.613634   -2.039373
  H     -0.020066   -2.712849   -1.840844
  C     -0.868621   -0.193925   -2.546303
  C     -0.984801    1.284739   -2.928686
  H     -0.764939    1.904116   -2.051568
  H     -2.032613    1.478953   -3.178952
  C     -0.106085    1.769914   -4.089836
  H     -0.347744    2.822196   -4.262942
  H      0.949683    1.745875   -3.808781
  C     -0.258747    1.004323   -5.409829
  C      0.395958   -0.370696   -5.339939
  H      0.239150    1.569393   -6.201253
  H     -1.309360    0.888694   -5.682455
  H      1.700606   -1.757225   -4.078378
  H      0.293855   -2.359766   -4.256324
  H      1.501324   -3.428479   -3.694915
  F     -0.326329   -1.390398   -5.491279
  O      1.619412   -0.400726   -5.036827
  H     -1.607271   -0.412651   -1.768955
  H     -1.157234   -0.796164   -3.409254
  H      1.299044   -0.056805   -2.558982
  H      0.612393   -0.365579   -0.979171

 Total Charge           Charge          ....    0
 Multiplicity           Mult            ....    1
 Number of Electrons    NEL             ....   80
 Basis Dimension        Dim             ....  400

ORBITAL ENERGIES
----------------

  NO   OCC          E(Eh)            E(eV)
   0   2.0000     -24.483442      -666.2283
   1   2.0000     -18.891895      -514.0746
   2   2.0000     -10.157546      -276.4009
   3   2.0000     -10.018415      -272.6149
   4   2.0000      -9.999233      -272.0930
   5   2.0000      -9.987774      -271.7812
   6   2.0000      -9.980597      -271.5859
   7   2.0000      -9.967301      -271.2240
   8   2.0000      -9.957858      -270.9671
   9   2.0000      -9.910460      -269.6773
  10   2.0000      -1.248362       -33.9696
  11   2.0000      -0.973840       -26.4995
  12   2.0000      -0.766408       -20.8550
  13   2.0000      -0.735147       -20.0044
  14   2.0000      -0.689622       -18.7656
  15   2.0000      -0.651861       -17.7380
  16   2.0000      -0.609059       -16.5733
  17   2.0000      -0.586787       -15.9673
  18   2.0000      -0.548625       -14.9288
  19   2.0000      -0.510542       -13.8925
  20   2.0000      -0.503159       -13.6917
  21   2.0000      -0.486287       -13.2325
  22   2.0000      -0.474218       -12.9041
  23   2.0000      -0.433680       -11.8010
  24   2.0000      -0.414230       -11.2718
  25   2.0000      -0.402855       -10.9622
  26   2.0000      -0.397343       -10.8123
  27   2.0000      -0.381351       -10.3771
  28   2.0000      -0.371302       -10.1036
  29   2.0000      -0.357679        -9.7330
  30   2.0000      -0.339540        -9.2394
  31   2.0000      -0.330102        -8.9825
  32   2.0000      -0.323305        -8.7976
  33   2.0000      -0.314651        -8.5621
  34   2.0000      -0.302063        -8.2196
  35   2.0000      -0.289236        -7.8705
  36   2.0000      -0.279120        -7.5953
  37   2.0000      -0.270884        -7.3711
  38   2.0000      -0.262055        -7.1309
  39   2.0000      -0.225326        -6.1314
  40   0.0000      -0.072514        -1.9732
  41   0.0000       0.018350         0.4993
  42   0.0000       0.045130         1.2280
  43   0.0000       0.050945         1.3863
  44   0.0000       0.051553         1.4028

MULLIKEN ATOMIC CHARGES
-----------------------
   0 C :   -0.069475
   1 H :    0.071994
   2 C :   -0.419095
   3 C :   -0.201406
   4 H :    0.055950
   5 C :   -0.197091
   6 C :   -0.141252
   7 H :    0.085878
   8 H :    0.081883
   9 C :   -0.216073
  10 H :    0.101324
  11 H :    0.132805
  12 C :   -0.121342
  13 C :    0.266740
  14 H :    0.124883
  15 H :    0.094120
  16 H :    0.156880
  17 H :    0.102082
  18 H :    0.090090
  19 F :   -0.072317
  20 O :   -0.308783
  21 H :    0.085698
  22 H :    0.102508
  23 H :    0.115851
  24 H :    0.078146
Sum of atomic charges:    0.0000000

LOEWDIN ATOMIC CHARGES
----------------------
   0 C :   -0.296009
   1 H :    0.131191
   2 C :   -0.329987
   3 C :   -0.262252
   4 H :    0.127839
   5 C :   -0.261251
   6 C :   -0.261405
   7 H :    0.137542
   8 H :    0.133327
   9 C :   -0.252304
  10 H :    0.138506
  11 H :    0.141952
  12 C :   -0.225590
  13 C :   -0.511592
  14 H :    0.157117
  15 H :    0.139490
  16 H :    0.112769
  17 H :    0.102310
  18 H :    0.102340
  19 F :    0.342552
  20 O :    0.097360
  21 H :    0.135477
  22 H :    0.134446
  23 H :    0.136541
  24 H :    0.129632

  Mayer bond orders larger than 0.100000
B(  0-C ,  1-H ) :   0.9369 B(  0-C ,  2-C ) :   1.0284 B(  0-C ,  3-C ) :   1.0281
B(  0-C ,  4-H ) :   0.9445 B(  2-C , 16-H ) :   0.9462 B(  2-C , 17-H ) :   0.9782
B(  2-C , 18-H ) :   0.9477 B(  3-C ,  5-C ) :   0.9901 B(  3-C , 23-H ) :   0.9678
B(  3-C , 24-H ) :   0.9382 B(  5-C ,  6-C ) :   1.0251 B(  5-C , 21-H ) :   0.9397
B(  5-C , 22-H ) :   0.9547 B(  6-C ,  7-H ) :   0.9406 B(  6-C ,  8-H ) :   0.9432
B(  6-C ,  9-C ) :   1.0337 B(  9-C , 10-H ) :   0.9364 B(  9-C , 11-H ) :   0.9595
B(  9-C , 12-C ) :   0.9860 B( 12-C , 13-C ) :   1.0380 B( 12-C , 14-H ) :   0.9170
B( 12-C , 15-H ) :   0.9322 B( 13-C , 19-F ) :   1.1489 B( 13-C , 20-O ) :   1.9729

Dispersion correction           -0.032507623
FINAL SINGLE POINT ENERGY      -489.186171422798

DIPOLE MOMENT
-------------
                                X             Y             Z
Electronic contribution:      0.38057      -2.01665     -10.56278
Nuclear contribution   :     -1.21560       2.80077      10.24180
                        -----------------------------------------
Total Dipole Moment    :     -0.83504       0.78412      -0.32097
                        -----------------------------------------
Magnitude (a.u.)       :      1.18960
Magnitude (Debye)      :      3.02372

Rotational constants in cm-1:     0.051255     0.042531     0.028894
Rotational constants in MHz :  1536.587743  1275.050721   866.218876

                             ****ORCA TERMINATED NORMALLY****
TOTAL RUN TIME: 0 days 0 hours 0 minutes 13 seconds 703 msec
