                         Program Version 5.0.0 -  RELEASE  -
|  1> !LC-BLYP RIJCOSX def2-SVP def2/J TightSCF
|  2> *xyz -1 1
|  3> C          1.44442        5.26658       -0.97546
|  4> O          1.56525        4.23349       -1.86489
|  5> C          0.14812        5.21087       -0.13809
|  6> H          1.47425        6.26464       -1.47692
|  7> H          2.28962        5.30327       -0.26445
|  8> H         -0.69779        5.17417       -0.79230
|  9> H          0.08430        6.08276        0.47887
| 10> H          0.15965        4.33708        0.47938
| 11> *
| 12> %MaxCore 64000
| 13>
| 14> %pal nprocs 4
| 15> end
| 16>
| 17> %scf
| 18>   MaxIter 150
| 19> end
| 20>
| 21>
| 22>                          ****END OF INPUT****

CARTESIAN COORDINATES (ANGSTROEM)
---------------------------------
  C      1.444420    5.266580   -0.975460
  O      1.565250    4.233490   -1.864890
  C      0.148120    5.210870   -0.138090
  H      1.474250    6.264640   -1.476920
  H      2.289620    5.303270   -0.264450
  H     -0.697790    5.174170   -0.792300
  H      0.084300    6.082760    0.478870
  H      0.159650    4.337080    0.479380

 Total Charge           Charge          ....   -1
 Multiplicity           Mult            ....    1
 Number of Electrons    NEL             ....   26
 Basis Dimension        Dim             ....   67

ORBITAL ENERGIES
----------------

  NO   OCC          E(Eh)            E(eV)
   0   2.0000     -18.553933      -504.8782
   1   2.0000      -9.871569      -268.6190
   2   2.0000      -9.860596      -268.3205
   3   2.0000      -0.718318       -19.5464
   4   2.0000      -0.603012       -16.4088
   5   2.0000      -0.448264       -12.1979
   6   2.0000      -0.335845        -9.1388
   7   2.0000      -0.311432        -8.4745
   8   2.0000      -0.252765        -6.8781
   9   2.0000      -0.233090        -6.3427
  10   2.0000      -0.161389        -4.3916
  11   2.0000      -0.012616        -0.3433
  12   2.0000      -0.008956        -0.2437
  13   0.0000       0.324800         8.8382
  14   0.0000       0.371284        10.1032
  15   0.0000       0.384801        10.4710
  16   0.0000       0.394195        10.7266
  17   0.0000       0.438946        11.9443

MULLIKEN ATOMIC CHARGES
-----------------------
   0 C :    0.223605
   1 O :   -0.658540
   2 C :    0.060210
   3 H :   -0.186339
   4 H :   -0.182788
   5 H :   -0.069282
   6 H :   -0.118383
   7 H :   -0.068482
Sum of atomic charges:   -1.0000000

LOEWDIN ATOMIC CHARGES
----------------------
   0 C :   -0.010403
   1 O :   -0.651008
   2 C :   -0.123992
   3 H :   -0.083669
   4 H :   -0.080013
   5 H :   -0.011237
   6 H :   -0.028842
   7 H :   -0.010835

  Mayer bond orders larger than 0.100000
B(  0-C ,  1-O ) :   1.5771 B(  0-C ,  2-C ) :   0.9974 B(  0-C ,  3-H ) :   0.8622
B(  0-C ,  4-H ) :   0.8655 B(  2-C ,  5-H ) :   0.9521 B(  2-C ,  6-H ) :   0.9204
B(  2-C ,  7-H ) :   0.9559

FINAL SINGLE POINT ENERGY      -153.885632256263

DIPOLE MOMENT
-------------
                                X             Y             Z
Electronic contribution:      1.19793      -1.90166      -2.26605
Nuclear contribution   :     -1.83256       2.47114       3.17273
                        -----------------------------------------
Total Dipole Moment    :     -0.63463       0.56948       0.90669
                        -----------------------------------------
Magnitude (a.u.)       :      1.24465
Magnitude (Debye)      :      3.16364

Rotational constants in cm-1:     1.286062     0.322579     0.284728
Rotational constants in MHz : 38555.180127  9670.683110  8535.939140

                             ****ORCA TERMINATED NORMALLY****
TOTAL RUN TIME: 0 days 0 hours 0 minutes 8 seconds 794 msec
