                         Program Version 5.0.0 -  RELEASE  -
|  1> !LC-BLYP RIJCOSX def2-SVP def2/J TightSCF
|  2> *xyz 1 1
|  3> C         -0.70169        4.07250       -4.00392
|  4> N          0.68053        4.61482       -4.04800
|  5> H          0.69993        5.58489       -4.38827
|  6> H          1.27804        4.05598       -4.66824
|  7> H          1.08573        4.53358       -3.10652
|  8> C         -1.70347        5.09320       -3.47740
|  9> H         -0.99590        3.74039       -5.00065
| 10> H         -0.64358        3.20191       -3.35153
| 11> H         -1.73704        5.93384       -4.13853
| 12> H         -1.40338        5.41759       -2.50291
| 13> H         -2.67335        4.64479       -3.42108
| 14> *
| 15> %MaxCore 64000
| 16>
| 17> %pal nprocs 4
| 18> end
| 19>
| 20> %scf
| 21>   MaxIter 150
| 22> end
| 23>
| 24>
| 25>                          ****END OF INPUT****

CARTESIAN COORDINATES (ANGSTROEM)
---------------------------------
  C     -0.701690    4.072500   -4.003920
  N      0.680530    4.614820   -4.048000
  H      0.699930    5.584890   -4.388270
  H      1.278040    4.055980   -4.668240
  H      1.085730    4.533580   -3.106520
  C     -1.703470    5.093200   -3.477400
  H     -0.995900    3.740390   -5.000650
  H     -0.643580    3.201910   -3.351530
  H     -1.737040    5.933840   -4.138530
  H     -1.403380    5.417590   -2.502910
  H     -2.673350    4.644790   -3.421080

 Total Charge           Charge          ....    1
 Multiplicity           Mult            ....    1
 Number of Electrons    NEL             ....   26
 Basis Dimension        Dim             ....   82

ORBITAL ENERGIES
----------------

  NO   OCC          E(Eh)            E(eV)
   0   2.0000     -14.524555      -395.2332
   1   2.0000     -10.337839      -281.3069
   2   2.0000     -10.259992      -279.1886
   3   2.0000      -1.311673       -35.6924
   4   2.0000      -1.067640       -29.0520
   5   2.0000      -0.948641       -25.8138
   6   2.0000      -0.910883       -24.7864
   7   2.0000      -0.891411       -24.2565
   8   2.0000      -0.799777       -21.7630
   9   2.0000      -0.745137       -20.2762
  10   2.0000      -0.682593       -18.5743
  11   2.0000      -0.665986       -18.1224
  12   2.0000      -0.647075       -17.6078
  13   0.0000      -0.113321        -3.0836
  14   0.0000      -0.052491        -1.4284
  15   0.0000      -0.046640        -1.2691
  16   0.0000      -0.016988        -0.4623
  17   0.0000       0.025743         0.7005

MULLIKEN ATOMIC CHARGES
-----------------------
   0 C :   -0.069416
   1 N :    0.011763
   2 H :    0.218587
   3 H :    0.221501
   4 H :    0.223386
   5 C :   -0.026509
   6 H :    0.107563
   7 H :    0.098306
   8 H :    0.062117
   9 H :    0.055700
  10 H :    0.097001
Sum of atomic charges:    1.0000000

LOEWDIN ATOMIC CHARGES
----------------------
   0 C :    0.034544
   1 N :    0.290957
   2 H :    0.148112
   3 H :    0.152756
   4 H :    0.152614
   5 C :   -0.054204
   6 H :    0.060447
   7 H :    0.057675
   8 H :    0.044699
   9 H :    0.043153
  10 H :    0.069247

  Mayer bond orders larger than 0.100000
B(  0-C ,  1-N ) :   0.9417 B(  0-C ,  5-C ) :   1.1071 B(  0-C ,  6-H ) :   0.9535
B(  0-C ,  7-H ) :   0.9529 B(  1-N ,  2-H ) :   0.9302 B(  1-N ,  3-H ) :   0.9314
B(  1-N ,  4-H ) :   0.9351 B(  5-C ,  8-H ) :   0.9654 B(  5-C ,  9-H ) :   0.9692
B(  5-C , 10-H ) :   0.9542

FINAL SINGLE POINT ENERGY      -135.032888763917

DIPOLE MOMENT
-------------
                                X             Y             Z
Electronic contribution:      1.84085      -0.32399      -0.46645
Nuclear contribution   :     -0.23930       0.27560       0.19485
                        -----------------------------------------
Total Dipole Moment    :      1.60154      -0.04839      -0.27160
                        -----------------------------------------
Magnitude (a.u.)       :      1.62513
Magnitude (Debye)      :      4.13076

Rotational constants in cm-1:     1.018556     0.279088     0.248454
Rotational constants in MHz : 30535.536069  8366.847891  7448.451392

                             ****ORCA TERMINATED NORMALLY****
TOTAL RUN TIME: 0 days 0 hours 0 minutes 12 seconds 123 msec
