                         Program Version 5.0.0 -  RELEASE  -
|  1> !LC-BLYP RIJCOSX def2-SVP def2/J TightSCF
|  2> *xyz 0 1
|  3> C          1.44442        5.26658       -0.97546
|  4> F          1.56525        4.23349       -1.86489
|  5> C          0.14812        5.21087       -0.13809
|  6> H          1.47425        6.26464       -1.47692
|  7> H          2.28962        5.30327       -0.26445
|  8> H         -0.69779        5.17417       -0.79230
|  9> H          0.08430        6.08276        0.47887
| 10> H          0.15965        4.33708        0.47938
| 11> *
| 12> %MaxCore 64000
| 13>
| 14> %pal nprocs 4
| 15> end
| 16>
| 17> %scf
| 18>   MaxIter 150
| 19> end
| 20>
| 21>
| 22>                          ****END OF INPUT****

CARTESIAN COORDINATES (ANGSTROEM)
---------------------------------
  C      1.444420    5.266580   -0.975460
  F      1.565250    4.233490   -1.864890
  C      0.148120    5.210870   -0.138090
  H      1.474250    6.264640   -1.476920
  H      2.289620    5.303270   -0.264450
  H     -0.697790    5.174170   -0.792300
  H      0.084300    6.082760    0.478870
  H      0.159650    4.337080    0.479380

 Total Charge           Charge          ....    0
 Multiplicity           Mult            ....    1
 Number of Electrons    NEL             ....   26
 Basis Dimension        Dim             ....   67

ORBITAL ENERGIES
----------------

  NO   OCC          E(Eh)            E(eV)
   0   2.0000     -24.435710      -664.9295
   1   2.0000     -10.157337      -276.3952
   2   2.0000     -10.079058      -274.2651
   3   2.0000      -1.244011       -33.8513
   4   2.0000      -0.860499       -23.4154
   5   2.0000      -0.725648       -19.7459
   6   2.0000      -0.600005       -16.3270
   7   2.0000      -0.592044       -16.1103
   8   2.0000      -0.549423       -14.9506
   9   2.0000      -0.497127       -13.5275
  10   2.0000      -0.496340       -13.5061
  11   2.0000      -0.422866       -11.5068
  12   2.0000      -0.416170       -11.3246
  13   0.0000       0.135855         3.6968
  14   0.0000       0.182816         4.9747
  15   0.0000       0.192322         5.2333
  16   0.0000       0.211608         5.7581
  17   0.0000       0.230025         6.2593

MULLIKEN ATOMIC CHARGES
-----------------------
   0 C :    0.179940
   1 F :   -0.223755
   2 C :   -0.041525
   3 H :    0.008731
   4 H :    0.007010
   5 H :    0.027070
   6 H :    0.016285
   7 H :    0.026243
Sum of atomic charges:   -0.0000000

LOEWDIN ATOMIC CHARGES
----------------------
   0 C :    0.084620
   1 F :   -0.116805
   2 C :   -0.087370
   3 H :    0.013947
   4 H :    0.012554
   5 H :    0.029946
   6 H :    0.034114
   7 H :    0.028993

  Mayer bond orders larger than 0.100000
B(  0-C ,  1-F ) :   1.0601 B(  0-C ,  2-C ) :   1.0960 B(  0-C ,  3-H ) :   0.9572
B(  0-C ,  4-H ) :   0.9570 B(  2-C ,  5-H ) :   0.9691 B(  2-C ,  6-H ) :   0.9592
B(  2-C ,  7-H ) :   0.9707

FINAL SINGLE POINT ENERGY      -178.517850909121

DIPOLE MOMENT
-------------
                                X             Y             Z
Electronic contribution:      2.31777      -2.78706      -3.74473
Nuclear contribution   :     -2.43357       3.25919       4.19687
                        -----------------------------------------
Total Dipole Moment    :     -0.11580       0.47213       0.45214
                        -----------------------------------------
Magnitude (a.u.)       :      0.66389
Magnitude (Debye)      :      1.68748

Rotational constants in cm-1:     1.264662     0.300144     0.266170
Rotational constants in MHz : 37913.611527  8998.095216  7979.576054

                             ****ORCA TERMINATED NORMALLY****
TOTAL RUN TIME: 0 days 0 hours 0 minutes 8 seconds 89 msec
