                         Program Version 5.0.0 -  RELEASE  -
|  1> !LC-BLYP RIJCOSX def2-SVP def2/J TightSCF
|  2> *xyz 0 1
|  3> C         -0.70169        4.07250       -4.00392
|  4> C          0.68053        4.61482       -4.04800
|  5> H          0.69993        5.58489       -4.38827
|  6> H          1.27804        4.05598       -4.66824
|  7> H          1.08573        4.53358       -3.10652
|  8> C         -1.70347        5.09320       -3.47740
|  9> H         -0.99590        3.74039       -5.00065
| 10> H         -0.64358        3.20191       -3.35153
| 11> H         -1.73704        5.93384       -4.13853
| 12> H         -1.40338        5.41759       -2.50291
| 13> H         -2.67335        4.64479       -3.42108
| 14> *
| 15> %MaxCore 64000
| 16>
| 17> %pal nprocs 4
| 18> end
| 19>
| 20> %scf
| 21>   MaxIter 150
| 22> end
| 23>
| 24>
| 25>                          ****END OF INPUT****

CARTESIAN COORDINATES (ANGSTROEM)
---------------------------------
  C     -0.701690    4.072500   -4.003920
  C      0.680530    4.614820   -4.048000
  H      0.699930    5.584890   -4.388270
  H      1.278040    4.055980   -4.668240
  H      1.085730    4.533580   -3.106520
  C     -1.703470    5.093200   -3.477400
  H     -0.995900    3.740390   -5.000650
  H     -0.643580    3.201910   -3.351530
  H     -1.737040    5.933840   -4.138530
  H     -1.403380    5.417590   -2.502910
  H     -2.673350    4.644790   -3.421080

 Total Charge           Charge          ....    0
 Multiplicity           Mult            ....    1
 Number of Electrons    NEL             ....   26
 Basis Dimension        Dim             ....   82

ORBITAL ENERGIES
----------------

  NO   OCC          E(Eh)            E(eV)
   0   2.0000     -10.069424      -274.0029
   1   2.0000     -10.062718      -273.8205
   2   2.0000     -10.046705      -273.3847
   3   2.0000      -0.892734       -24.2925
   4   2.0000      -0.790113       -21.5001
   5   2.0000      -0.684165       -18.6171
   6   2.0000      -0.574038       -15.6204
   7   2.0000      -0.547933       -14.9100
   8   2.0000      -0.502143       -13.6640
   9   2.0000      -0.489510       -13.3202
  10   2.0000      -0.433601       -11.7989
  11   2.0000      -0.429637       -11.6910
  12   2.0000      -0.419842       -11.4245
  13   0.0000       0.134262         3.6534
  14   0.0000       0.183616         4.9964
  15   0.0000       0.187214         5.0943
  16   0.0000       0.190823         5.1925
  17   0.0000       0.221189         6.0189

MULLIKEN ATOMIC CHARGES
-----------------------
   0 C :   -0.061456
   1 C :    0.068831
   2 H :   -0.013785
   3 H :   -0.015239
   4 H :   -0.010439
   5 C :    0.010776
   6 H :    0.001763
   7 H :    0.000193
   8 H :    0.007528
   9 H :    0.004358
  10 H :    0.007471
Sum of atomic charges:   -0.0000000

LOEWDIN ATOMIC CHARGES
----------------------
   0 C :   -0.046864
   1 C :   -0.057769
   2 H :    0.015575
   3 H :    0.019915
   4 H :    0.019321
   5 C :   -0.065030
   6 H :    0.020951
   7 H :    0.023275
   8 H :    0.023205
   9 H :    0.022852
  10 H :    0.024569

  Mayer bond orders larger than 0.100000
B(  0-C ,  1-C ) :   1.1122 B(  0-C ,  5-C ) :   1.1090 B(  0-C ,  6-H ) :   0.9572
B(  0-C ,  7-H ) :   0.9558 B(  1-C ,  2-H ) :   0.9668 B(  1-C ,  3-H ) :   0.9561
B(  1-C ,  4-H ) :   0.9660 B(  5-C ,  8-H ) :   0.9712 B(  5-C ,  9-H ) :   0.9737
B(  5-C , 10-H ) :   0.9681

FINAL SINGLE POINT ENERGY      -118.641484688156

DIPOLE MOMENT
-------------
                                X             Y             Z
Electronic contribution:     -0.13618      -0.30220      -0.13311
Nuclear contribution   :      0.16058       0.27975       0.12812
                        -----------------------------------------
Total Dipole Moment    :      0.02440      -0.02245      -0.00499
                        -----------------------------------------
Magnitude (a.u.)       :      0.03353
Magnitude (Debye)      :      0.08523

Rotational constants in cm-1:     1.027122     0.293327     0.260229
Rotational constants in MHz : 30792.337141  8793.723318  7801.458329

                             ****ORCA TERMINATED NORMALLY****
TOTAL RUN TIME: 0 days 0 hours 0 minutes 9 seconds 637 msec
