                         Program Version 5.0.0 -  RELEASE  -
|  1> !B3LYP D3BJ RIJCOSX def2-SVPD def2/J TightSCF
|  2> *xyz -1 1
|  3> C          3.76678       -2.26611       -6.51175
|  4> C          2.49670       -1.84416       -5.73570
|  5> H          1.62642       -2.21743       -6.30895
|  6> H          2.48182       -2.45607       -4.79341
|  7> O          2.45973       -0.50920       -5.50576
|  8> H          3.82914       -1.70941       -7.42340
|  9> H          3.71764       -3.31144       -6.73483
| 10> H          4.63199       -2.06931       -5.91377
| 11> *
| 12>
| 13> %MaxCore 64000
| 14>
| 15> %pal nprocs 4
| 16> end
| 17>
| 18> %scf
| 19>   MaxIter 150
| 20> end
| 21>
| 22>
| 23>                          ****END OF INPUT****

CARTESIAN COORDINATES (ANGSTROEM)
---------------------------------
  C      3.766780   -2.266110   -6.511750
  C      2.496700   -1.844160   -5.735700
  H      1.626420   -2.217430   -6.308950
  H      2.481820   -2.456070   -4.793410
  O      2.459730   -0.509200   -5.505760
  H      3.829140   -1.709410   -7.423400
  H      3.717640   -3.311440   -6.734830
  H      4.631990   -2.069310   -5.913770

 Total Charge           Charge          ....   -1
 Multiplicity           Mult            ....    1
 Number of Electrons    NEL             ....   26
 Basis Dimension        Dim             ....  103

ORBITAL ENERGIES
----------------

  NO   OCC          E(Eh)            E(eV)
   0   2.0000     -18.809921      -511.8440
   1   2.0000      -9.999406      -272.0977
   2   2.0000      -9.974392      -271.4170
   3   2.0000      -0.676057       -18.3964
   4   2.0000      -0.516742       -14.0613
   5   2.0000      -0.365833        -9.9548
   6   2.0000      -0.248444        -6.7605
   7   2.0000      -0.226023        -6.1504
   8   2.0000      -0.173732        -4.7275
   9   2.0000      -0.157209        -4.2779
  10   2.0000      -0.116635        -3.1738
  11   2.0000       0.028294         0.7699
  12   2.0000       0.029912         0.8140
  13   0.0000       0.178666         4.8617
  14   0.0000       0.208399         5.6708
  15   0.0000       0.241729         6.5778
  16   0.0000       0.254574         6.9273
  17   0.0000       0.273514         7.4427

MULLIKEN ATOMIC CHARGES
-----------------------
   0 C :    0.471500
   1 C :    0.274192
   2 H :   -0.243586
   3 H :   -0.195489
   4 O :   -0.869263
   5 H :   -0.158591
   6 H :   -0.125334
   7 H :   -0.153429
Sum of atomic charges:   -1.0000000

LOEWDIN ATOMIC CHARGES
----------------------
   0 C :    0.071275
   1 C :   -0.259847
   2 H :   -0.042890
   3 H :   -0.035565
   4 O :   -0.566909
   5 H :   -0.048309
   6 H :   -0.068410
   7 H :   -0.049345

  Mayer bond orders larger than 0.100000
B(  0-C ,  1-C ) :   1.1566 B(  0-C ,  2-H ) :   0.1505 B(  0-C ,  3-H ) :   0.1463
B(  0-C ,  4-O ) :   0.2047 B(  0-C ,  5-H ) :   0.8861 B(  0-C ,  6-H ) :   0.8916
B(  0-C ,  7-H ) :   0.8775 B(  1-C ,  2-H ) :   0.9456 B(  1-C ,  3-H ) :   0.9576
B(  1-C ,  4-O ) :   1.1457 B(  1-C ,  5-H ) :   0.1954 B(  1-C ,  6-H ) :   0.1447
B(  1-C ,  7-H ) :   0.1888 B(  2-H ,  3-H ) :   0.1027

Dispersion correction           -0.006238131
FINAL SINGLE POINT ENERGY      -154.237288690307

DIPOLE MOMENT
-------------
                                X             Y             Z
Electronic contribution:     -1.07825       2.51819       0.95653
Nuclear contribution   :      1.63615      -3.79938      -1.48621
                        -----------------------------------------
Total Dipole Moment    :      0.55790      -1.28119      -0.52968
                        -----------------------------------------
Magnitude (a.u.)       :      1.49441
Magnitude (Debye)      :      3.79849

Rotational constants in cm-1:     1.265582     0.329289     0.289024
Rotational constants in MHz : 37941.194363  9871.829581  8664.719106

                             ****ORCA TERMINATED NORMALLY****
TOTAL RUN TIME: 0 days 0 hours 0 minutes 10 seconds 859 msec
