                         Program Version 5.0.0 -  RELEASE  -
|  1> !B3LYP D3BJ RIJCOSX def2-SVPD def2/J TightSCF
|  2> *xyz 1 1
|  3> C          4.99986       -1.59613       -5.92488
|  4> N          5.28156       -1.97413       -4.53576
|  5> C          3.76678       -2.26611       -6.51175
|  6> C          4.79250       -1.36132       -3.45730
|  7> N          3.93990       -0.37492       -3.55736
|  8> N          5.25986       -1.75422       -2.23913
|  9> H          5.92282       -2.52145       -2.18672
| 10> H          4.65468       -1.64040       -1.44202
| 11> H          5.70914       -2.87560       -4.38702
| 12> H          3.33010       -0.31764       -4.36125
| 13> H          3.69849        0.11447       -2.70833
| 14> H          4.84333       -0.51793       -5.94302
| 15> H          5.90170       -1.82250       -6.49647
| 16> H          3.63046       -1.94025       -7.52177
| 17> H          2.90710       -2.00116       -5.93240
| 18> H          3.89538       -3.32820       -6.49392
| 19> *
| 20>
| 21> %MaxCore 64000
| 22>
| 23> %pal nprocs 4
| 24> end
| 25>
| 26> %scf
| 27>   MaxIter 150
| 28> end
| 29>
| 30>
| 31>                          ****END OF INPUT****

CARTESIAN COORDINATES (ANGSTROEM)
---------------------------------
  C      4.999860   -1.596130   -5.924880
  N      5.281560   -1.974130   -4.535760
  C      3.766780   -2.266110   -6.511750
  C      4.792500   -1.361320   -3.457300
  N      3.939900   -0.374920   -3.557360
  N      5.259860   -1.754220   -2.239130
  H      5.922820   -2.521450   -2.186720
  H      4.654680   -1.640400   -1.442020
  H      5.709140   -2.875600   -4.387020
  H      3.330100   -0.317640   -4.361250
  H      3.698490    0.114470   -2.708330
  H      4.843330   -0.517930   -5.943020
  H      5.901700   -1.822500   -6.496470
  H      3.630460   -1.940250   -7.521770
  H      2.907100   -2.001160   -5.932400
  H      3.895380   -3.328200   -6.493920

 Total Charge           Charge          ....    1
 Multiplicity           Mult            ....    1
 Number of Electrons    NEL             ....   48
 Basis Dimension        Dim             ....  200

ORBITAL ENERGIES
----------------

  NO   OCC          E(Eh)            E(eV)
   0   2.0000     -14.559395      -396.1813
   1   2.0000     -14.554113      -396.0375
   2   2.0000     -14.549810      -395.9205
   3   2.0000     -10.519102      -286.2393
   4   2.0000     -10.389877      -282.7229
   5   2.0000     -10.324621      -280.9472
   6   2.0000      -1.207381       -32.8545
   7   2.0000      -1.098954       -29.9041
   8   2.0000      -1.083351       -29.4795
   9   2.0000      -0.926153       -25.2019
  10   2.0000      -0.839068       -22.8322
  11   2.0000      -0.801301       -21.8045
  12   2.0000      -0.789836       -21.4925
  13   2.0000      -0.740135       -20.1401
  14   2.0000      -0.698283       -19.0012
  15   2.0000      -0.695070       -18.9138
  16   2.0000      -0.643954       -17.5229
  17   2.0000      -0.630269       -17.1505
  18   2.0000      -0.607919       -16.5423
  19   2.0000      -0.563043       -15.3212
  20   2.0000      -0.535588       -14.5741
  21   2.0000      -0.516910       -14.0658
  22   2.0000      -0.482116       -13.1191
  23   2.0000      -0.454004       -12.3541
  24   0.0000      -0.180772        -4.9190
  25   0.0000      -0.153684        -4.1820
  26   0.0000      -0.123125        -3.3504
  27   0.0000      -0.112411        -3.0589
  28   0.0000      -0.093489        -2.5440

MULLIKEN ATOMIC CHARGES
-----------------------
   0 C :    0.498435
   1 N :   -0.315963
   2 C :    0.924351
   3 C :    1.115744
   4 N :    0.191224
   5 N :    0.047994
   6 H :   -0.066135
   7 H :   -0.053428
   8 H :   -0.291920
   9 H :   -0.085820
  10 H :   -0.118919
  11 H :   -0.134548
  12 H :   -0.366689
  13 H :   -0.028162
  14 H :   -0.204017
  15 H :   -0.112147
Sum of atomic charges:    1.0000000

LOEWDIN ATOMIC CHARGES
----------------------
   0 C :    0.046288
   1 N :    0.051905
   2 C :    0.166618
   3 C :   -0.040330
   4 N :    0.290608
   5 N :    0.268210
   6 H :    0.031328
   7 H :    0.025404
   8 H :    0.053399
   9 H :    0.026432
  10 H :    0.043630
  11 H :    0.023699
  12 H :    0.039660
  13 H :    0.003608
  14 H :   -0.023735
  15 H :   -0.006725

  Mayer bond orders larger than 0.100000
B(  0-C ,  1-N ) :   0.9318 B(  0-C ,  2-C ) :   1.2382 B(  0-C ,  8-H ) :  -0.2100
B(  0-C , 11-H ) :   0.8201 B(  0-C , 12-H ) :   0.8529 B(  0-C , 13-H ) :   0.1865
B(  0-C , 14-H ) :   0.2256 B(  0-C , 15-H ) :   0.2537 B(  1-N ,  3-C ) :   1.0723
B(  1-N ,  4-N ) :   0.2193 B(  1-N ,  5-N ) :   0.1912 B(  1-N ,  8-H ) :   1.2988
B(  1-N , 11-H ) :   0.1688 B(  1-N , 12-H ) :   0.1662 B(  2-C , 13-H ) :   0.7549
B(  2-C , 14-H ) :   0.7632 B(  2-C , 15-H ) :   0.7500 B(  3-C ,  4-N ) :   1.1070
B(  3-C ,  5-N ) :   0.8739 B(  3-C ,  6-H ) :  -0.1065 B(  3-C ,  8-H ) :  -0.2233
B(  3-C ,  9-H ) :  -0.1204 B(  3-C , 10-H ) :  -0.1089 B(  4-N ,  5-N ) :   0.1542
B(  4-N ,  9-H ) :   1.1386 B(  4-N , 10-H ) :   1.1920 B(  5-N ,  6-H ) :   1.0882
B(  5-N ,  7-H ) :   1.1486 B(  6-H ,  7-H ) :  -0.1347 B(  9-H , 10-H ) :  -0.1763

Dispersion correction           -0.020262152
FINAL SINGLE POINT ENERGY      -284.055700142478

DIPOLE MOMENT
-------------
                                X             Y             Z
Electronic contribution:      1.75348       1.09652       4.72354
Nuclear contribution   :     -1.95709      -1.20097      -3.70214
                        -----------------------------------------
Total Dipole Moment    :     -0.20360      -0.10445       1.02140
                        -----------------------------------------
Magnitude (a.u.)       :      1.04672
Magnitude (Debye)      :      2.66056

Rotational constants in cm-1:     0.241661     0.071598     0.061743
Rotational constants in MHz :  7244.800091  2146.442409  1851.001864

                             ****ORCA TERMINATED NORMALLY****
TOTAL RUN TIME: 0 days 0 hours 0 minutes 27 seconds 191 msec
