                         Program Version 5.0.0 -  RELEASE  -
|  1> !B3LYP D3BJ RIJCOSX def2-SVPD def2/J TightSCF
|  2> *xyz 0 1
|  3> C          3.76678       -2.26611       -6.51175
|  4> C          2.49670       -1.84416       -5.73570
|  5> H          1.62642       -2.21743       -6.30895
|  6> H          2.48182       -2.45607       -4.79341
|  7> F          2.45973       -0.50920       -5.50576
|  8> H          3.82914       -1.70941       -7.42340
|  9> H          3.71764       -3.31144       -6.73483
| 10> H          4.63199       -2.06931       -5.91377
| 11> *
| 12>
| 13> %MaxCore 64000
| 14>
| 15> %pal nprocs 4
| 16> end
| 17>
| 18> %scf
| 19>   MaxIter 150
| 20> end
| 21>
| 22>
| 23>                          ****END OF INPUT****

CARTESIAN COORDINATES (ANGSTROEM)
---------------------------------
  C      3.766780   -2.266110   -6.511750
  C      2.496700   -1.844160   -5.735700
  H      1.626420   -2.217430   -6.308950
  H      2.481820   -2.456070   -4.793410
  F      2.459730   -0.509200   -5.505760
  H      3.829140   -1.709410   -7.423400
  H      3.717640   -3.311440   -6.734830
  H      4.631990   -2.069310   -5.913770

 Total Charge           Charge          ....    0
 Multiplicity           Mult            ....    1
 Number of Electrons    NEL             ....   26
 Basis Dimension        Dim             ....  103

ORBITAL ENERGIES
----------------

  NO   OCC          E(Eh)            E(eV)
   0   2.0000     -24.689323      -671.8306
   1   2.0000     -10.266141      -279.3559
   2   2.0000     -10.180642      -277.0294
   3   2.0000      -1.192195       -32.4413
   4   2.0000      -0.755930       -20.5699
   5   2.0000      -0.628015       -17.0891
   6   2.0000      -0.516068       -14.0429
   7   2.0000      -0.498969       -13.5776
   8   2.0000      -0.464484       -12.6393
   9   2.0000      -0.408126       -11.1057
  10   2.0000      -0.403028       -10.9670
  11   2.0000      -0.337968        -9.1966
  12   2.0000      -0.333094        -9.0640
  13   0.0000       0.020984         0.5710
  14   0.0000       0.052160         1.4194
  15   0.0000       0.073449         1.9986
  16   0.0000       0.079170         2.1543
  17   0.0000       0.106513         2.8984

MULLIKEN ATOMIC CHARGES
-----------------------
   0 C :    0.542831
   1 C :    0.544320
   2 H :   -0.148293
   3 H :   -0.105859
   4 F :   -0.436710
   5 H :   -0.142914
   6 H :   -0.119184
   7 H :   -0.134191
Sum of atomic charges:   -0.0000000

LOEWDIN ATOMIC CHARGES
----------------------
   0 C :    0.146440
   1 C :    0.062820
   2 H :    0.024126
   3 H :    0.033590
   4 F :   -0.209824
   5 H :   -0.018984
   6 H :   -0.018448
   7 H :   -0.019720

  Mayer bond orders larger than 0.100000
B(  0-C ,  1-C ) :   1.3198 B(  0-C ,  5-H ) :   0.8621 B(  0-C ,  6-H ) :   0.8329
B(  0-C ,  7-H ) :   0.8586 B(  1-C ,  2-H ) :   0.9124 B(  1-C ,  3-H ) :   0.9182
B(  1-C ,  4-F ) :   0.7576 B(  1-C ,  5-H ) :   0.1544 B(  1-C ,  6-H ) :   0.1323
B(  1-C ,  7-H ) :   0.1492

Dispersion correction           -0.005742869
FINAL SINGLE POINT ENERGY      -178.846824418112

DIPOLE MOMENT
-------------
                                X             Y             Z
Electronic contribution:     -2.07714       4.32249       1.80831
Nuclear contribution   :      2.16248      -5.01128      -1.96962
                        -----------------------------------------
Total Dipole Moment    :      0.08533      -0.68879      -0.16131
                        -----------------------------------------
Magnitude (a.u.)       :      0.71256
Magnitude (Debye)      :      1.81118

Rotational constants in cm-1:     1.244010     0.306580     0.270375
Rotational constants in MHz : 37294.476802  9191.037795  8105.639967

                             ****ORCA TERMINATED NORMALLY****
TOTAL RUN TIME: 0 days 0 hours 0 minutes 9 seconds 463 msec
