                         Program Version 5.0.0 -  RELEASE  -
|  1> !B3LYP D3BJ RIJCOSX def2-SVPD def2/J TightSCF
|  2> *xyz 0 1
|  3> C          4.99986       -1.59613       -5.92488
|  4> C          5.28156       -1.97413       -4.53576
|  5> C          3.76678       -2.26611       -6.51175
|  6> C          4.79250       -1.36132       -3.45730
|  7> N          3.93990       -0.37492       -3.55736
|  8> N          5.25986       -1.75422       -2.23913
|  9> H          5.92282       -2.52145       -2.18672
| 10> H          4.65468       -1.64040       -1.44202
| 11> H          5.70914       -2.87560       -4.38702
| 12> H          3.33010       -0.31764       -4.36125
| 13> H          3.69849        0.11447       -2.70833
| 14> H          4.84333       -0.51793       -5.94302
| 15> H          5.90170       -1.82250       -6.49647
| 16> H          3.63046       -1.94025       -7.52177
| 17> H          2.90710       -2.00116       -5.93240
| 18> H          3.89538       -3.32820       -6.49392
| 19> *
| 20>
| 21> %MaxCore 64000
| 22>
| 23> %pal nprocs 4
| 24> end
| 25>
| 26> %scf
| 27>   MaxIter 150
| 28> end
| 29>
| 30>
| 31>                          ****END OF INPUT****

CARTESIAN COORDINATES (ANGSTROEM)
---------------------------------
  C      4.999860   -1.596130   -5.924880
  C      5.281560   -1.974130   -4.535760
  C      3.766780   -2.266110   -6.511750
  C      4.792500   -1.361320   -3.457300
  N      3.939900   -0.374920   -3.557360
  N      5.259860   -1.754220   -2.239130
  H      5.922820   -2.521450   -2.186720
  H      4.654680   -1.640400   -1.442020
  H      5.709140   -2.875600   -4.387020
  H      3.330100   -0.317640   -4.361250
  H      3.698490    0.114470   -2.708330
  H      4.843330   -0.517930   -5.943020
  H      5.901700   -1.822500   -6.496470
  H      3.630460   -1.940250   -7.521770
  H      2.907100   -2.001160   -5.932400
  H      3.895380   -3.328200   -6.493920

 Total Charge           Charge          ....    0
 Multiplicity           Mult            ....    1
 Number of Electrons    NEL             ....   48
 Basis Dimension        Dim             ....  200

ORBITAL ENERGIES
----------------

  NO   OCC          E(Eh)            E(eV)
   0   2.0000     -14.335472      -390.0880
   1   2.0000     -14.326988      -389.8572
   2   2.0000     -10.225002      -278.2365
   3   2.0000     -10.156169      -276.3634
   4   2.0000     -10.152816      -276.2722
   5   2.0000     -10.107874      -275.0492
   6   2.0000      -0.954037       -25.9607
   7   2.0000      -0.862730       -23.4761
   8   2.0000      -0.766048       -20.8452
   9   2.0000      -0.688661       -18.7394
  10   2.0000      -0.611041       -16.6273
  11   2.0000      -0.576052       -15.6752
  12   2.0000      -0.546194       -14.8627
  13   2.0000      -0.503049       -13.6887
  14   2.0000      -0.479899       -13.0587
  15   2.0000      -0.443840       -12.0775
  16   2.0000      -0.415841       -11.3156
  17   2.0000      -0.394773       -10.7423
  18   2.0000      -0.384019       -10.4497
  19   2.0000      -0.352558        -9.5936
  20   2.0000      -0.328189        -8.9305
  21   2.0000      -0.320442        -8.7197
  22   2.0000      -0.266604        -7.2547
  23   2.0000      -0.163543        -4.4502
  24   0.0000       0.010441         0.2841
  25   0.0000       0.037075         1.0089
  26   0.0000       0.050315         1.3691
  27   0.0000       0.060391         1.6433
  28   0.0000       0.075374         2.0510

MULLIKEN ATOMIC CHARGES
-----------------------
   0 C :    0.036452
   1 C :   -0.306271
   2 C :    0.897759
   3 C :    0.788776
   4 N :    0.275402
   5 N :    0.036036
   6 H :   -0.057649
   7 H :   -0.152095
   8 H :   -0.401879
   9 H :   -0.131395
  10 H :   -0.256378
  11 H :   -0.111342
  12 H :   -0.200461
  13 H :   -0.075607
  14 H :   -0.217999
  15 H :   -0.123348
Sum of atomic charges:    0.0000000

LOEWDIN ATOMIC CHARGES
----------------------
   0 C :   -0.095294
   1 C :   -0.022422
   2 C :    0.122831
   3 C :   -0.228015
   4 N :    0.205658
   5 N :    0.186121
   6 H :   -0.002585
   7 H :   -0.026913
   8 H :   -0.057732
   9 H :   -0.004741
  10 H :   -0.005643
  11 H :    0.000874
  12 H :    0.010518
  13 H :   -0.027490
  14 H :   -0.033661
  15 H :   -0.021508

  Mayer bond orders larger than 0.100000
B(  0-C ,  1-C ) :   1.1633 B(  0-C ,  2-C ) :   1.1951 B(  0-C ,  8-H ) :   0.2646
B(  0-C , 11-H ) :   0.7846 B(  0-C , 12-H ) :   0.8101 B(  0-C , 13-H ) :   0.1821
B(  0-C , 14-H ) :   0.2307 B(  0-C , 15-H ) :   0.2555 B(  1-C ,  3-C ) :   1.4961
B(  1-C ,  4-N ) :   0.3162 B(  1-C ,  5-N ) :   0.3414 B(  1-C ,  8-H ) :   0.8273
B(  1-C , 11-H ) :   0.3252 B(  1-C , 12-H ) :   0.2017 B(  2-C , 13-H ) :   0.7698
B(  2-C , 14-H ) :   0.7793 B(  2-C , 15-H ) :   0.7603 B(  3-C ,  4-N ) :   1.1025
B(  3-C ,  5-N ) :   0.7703 B(  3-C ,  8-H ) :   0.1258 B(  3-C , 10-H ) :  -0.1008
B(  3-C , 11-H ) :  -0.1323 B(  4-N ,  9-H ) :   1.1068 B(  4-N , 10-H ) :   1.2280
B(  5-N ,  6-H ) :   1.0797 B(  5-N ,  7-H ) :   1.1408 B(  6-H ,  7-H ) :  -0.1190
B(  9-H , 10-H ) :  -0.1645

Dispersion correction           -0.021196901
FINAL SINGLE POINT ENERGY      -267.588084434841

DIPOLE MOMENT
-------------
                                X             Y             Z
Electronic contribution:      1.23585       1.38661       4.50459
Nuclear contribution   :     -1.82485      -1.28952      -3.74132
                        -----------------------------------------
Total Dipole Moment    :     -0.58900       0.09709       0.76328
                        -----------------------------------------
Magnitude (a.u.)       :      0.96899
Magnitude (Debye)      :      2.46298

Rotational constants in cm-1:     0.245790     0.071632     0.062004
Rotational constants in MHz :  7368.599517  2147.482078  1858.844841

                             ****ORCA TERMINATED NORMALLY****
TOTAL RUN TIME: 0 days 0 hours 0 minutes 29 seconds 202 msec
