                         Program Version 5.0.0 -  RELEASE  -
|  1> !B3LYP D3BJ RIJCOSX def2-SVPD def2/J TightSCF
|  2> *xyz 0 1
|  3> C          4.99986       -1.59613       -5.92488
|  4> N          5.28156       -1.97413       -4.53576
|  5> C          3.76678       -2.26611       -6.51175
|  6> C          4.79250       -1.36132       -3.45730
|  7> C          3.93990       -0.37492       -3.55736
|  8> N          5.25986       -1.75422       -2.23913
|  9> H          5.92282       -2.52145       -2.18672
| 10> H          4.65468       -1.64040       -1.44202
| 11> H          5.70914       -2.87560       -4.38702
| 12> H          3.33010       -0.31764       -4.36125
| 13> H          3.69849        0.11447       -2.70833
| 14> H          4.84333       -0.51793       -5.94302
| 15> H          5.90170       -1.82250       -6.49647
| 16> H          3.63046       -1.94025       -7.52177
| 17> H          2.90710       -2.00116       -5.93240
| 18> H          3.89538       -3.32820       -6.49392
| 19> *
| 20>
| 21> %MaxCore 64000
| 22>
| 23> %pal nprocs 4
| 24> end
| 25>
| 26> %scf
| 27>   MaxIter 150
| 28> end
| 29>
| 30>
| 31>                          ****END OF INPUT****

CARTESIAN COORDINATES (ANGSTROEM)
---------------------------------
  C      4.999860   -1.596130   -5.924880
  N      5.281560   -1.974130   -4.535760
  C      3.766780   -2.266110   -6.511750
  C      4.792500   -1.361320   -3.457300
  C      3.939900   -0.374920   -3.557360
  N      5.259860   -1.754220   -2.239130
  H      5.922820   -2.521450   -2.186720
  H      4.654680   -1.640400   -1.442020
  H      5.709140   -2.875600   -4.387020
  H      3.330100   -0.317640   -4.361250
  H      3.698490    0.114470   -2.708330
  H      4.843330   -0.517930   -5.943020
  H      5.901700   -1.822500   -6.496470
  H      3.630460   -1.940250   -7.521770
  H      2.907100   -2.001160   -5.932400
  H      3.895380   -3.328200   -6.493920

 Total Charge           Charge          ....    0
 Multiplicity           Mult            ....    1
 Number of Electrons    NEL             ....   48
 Basis Dimension        Dim             ....  200

ORBITAL ENERGIES
----------------

  NO   OCC          E(Eh)            E(eV)
   0   2.0000     -14.330804      -389.9610
   1   2.0000     -14.327762      -389.8782
   2   2.0000     -10.226546      -278.2785
   3   2.0000     -10.213847      -277.9329
   4   2.0000     -10.169006      -276.7127
   5   2.0000     -10.098311      -274.7890
   6   2.0000      -0.953192       -25.9377
   7   2.0000      -0.870323       -23.6827
   8   2.0000      -0.749267       -20.3886
   9   2.0000      -0.710667       -19.3382
  10   2.0000      -0.632855       -17.2208
  11   2.0000      -0.561832       -15.2882
  12   2.0000      -0.543278       -14.7834
  13   2.0000      -0.511015       -13.9054
  14   2.0000      -0.457909       -12.4603
  15   2.0000      -0.446219       -12.1422
  16   2.0000      -0.424456       -11.5500
  17   2.0000      -0.401157       -10.9160
  18   2.0000      -0.384791       -10.4707
  19   2.0000      -0.373084       -10.1521
  20   2.0000      -0.354306        -9.6412
  21   2.0000      -0.346873        -9.4389
  22   2.0000      -0.250966        -6.8291
  23   2.0000      -0.174015        -4.7352
  24   0.0000       0.012469         0.3393
  25   0.0000       0.036418         0.9910
  26   0.0000       0.046865         1.2753
  27   0.0000       0.055712         1.5160
  28   0.0000       0.074352         2.0232

MULLIKEN ATOMIC CHARGES
-----------------------
   0 C :    0.454402
   1 N :   -0.287720
   2 C :    0.954089
   3 C :    0.712011
   4 C :    0.436735
   5 N :    0.111910
   6 H :   -0.193365
   7 H :   -0.076903
   8 H :   -0.408489
   9 H :   -0.328016
  10 H :   -0.445317
  11 H :   -0.051604
  12 H :   -0.426508
  13 H :   -0.072729
  14 H :   -0.242697
  15 H :   -0.135800
Sum of atomic charges:    0.0000000

LOEWDIN ATOMIC CHARGES
----------------------
   0 C :    0.021023
   1 N :   -0.015912
   2 C :    0.141319
   3 C :   -0.235516
   4 C :    0.160757
   5 N :    0.191552
   6 H :   -0.018865
   7 H :   -0.008403
   8 H :    0.012277
   9 H :   -0.107156
  10 H :   -0.097229
  11 H :    0.013374
  12 H :    0.014138
  13 H :   -0.019920
  14 H :   -0.027172
  15 H :   -0.024268

  Mayer bond orders larger than 0.100000
B(  0-C ,  1-N ) :   0.9184 B(  0-C ,  2-C ) :   1.2015 B(  0-C ,  4-C ) :   0.1106
B(  0-C ,  8-H ) :  -0.1994 B(  0-C , 11-H ) :   0.8137 B(  0-C , 12-H ) :   0.8753
B(  0-C , 13-H ) :   0.2026 B(  0-C , 14-H ) :   0.2278 B(  0-C , 15-H ) :   0.2448
B(  1-N ,  3-C ) :   0.9751 B(  1-N ,  4-C ) :   0.3867 B(  1-N ,  5-N ) :   0.1276
B(  1-N ,  8-H ) :   1.3274 B(  1-N , 11-H ) :   0.1502 B(  1-N , 12-H ) :   0.1608
B(  2-C , 13-H ) :   0.7426 B(  2-C , 14-H ) :   0.7992 B(  2-C , 15-H ) :   0.7459
B(  3-C ,  4-C ) :   1.6352 B(  3-C ,  5-N ) :   0.8598 B(  3-C ,  8-H ) :  -0.2457
B(  3-C ,  9-H ) :   0.2003 B(  3-C , 10-H ) :   0.3137 B(  4-C ,  5-N ) :   0.3015
B(  4-C ,  9-H ) :   0.6110 B(  4-C , 10-H ) :   0.6640 B(  5-N ,  6-H ) :   1.0834
B(  5-N ,  7-H ) :   1.1181 B(  6-H ,  7-H ) :  -0.1260 B(  9-H , 11-H ) :   0.1142
B( 11-H , 12-H ) :  -0.1210

Dispersion correction           -0.021089241
FINAL SINGLE POINT ENERGY      -267.581236245762

DIPOLE MOMENT
-------------
                                X             Y             Z
Electronic contribution:      2.40293      -0.07319       3.49694
Nuclear contribution   :     -2.10948      -0.95026      -3.53375
                        -----------------------------------------
Total Dipole Moment    :      0.29345      -1.02344      -0.03681
                        -----------------------------------------
Magnitude (a.u.)       :      1.06532
Magnitude (Debye)      :      2.70783

Rotational constants in cm-1:     0.255209     0.072067     0.062929
Rotational constants in MHz :  7650.964615  2160.525743  1886.569524

                             ****ORCA TERMINATED NORMALLY****
TOTAL RUN TIME: 0 days 0 hours 0 minutes 27 seconds 397 msec
