                         Program Version 5.0.0 -  RELEASE  -
|  1> !B3LYP D3BJ RIJCOSX def2-SVPD def2/J TightSCF
|  2> *xyz 0 1
|  3> C          4.99986       -1.59613       -5.92488
|  4> N          5.28156       -1.97413       -4.53576
|  5> C          3.76678       -2.26611       -6.51175
|  6> C          4.79250       -1.36132       -3.45730
|  7> N          3.93990       -0.37492       -3.55736
|  8> C          5.25986       -1.75422       -2.23913
|  9> H          5.92282       -2.52145       -2.18672
| 10> H          4.65468       -1.64040       -1.44202
| 11> H          5.70914       -2.87560       -4.38702
| 12> H          3.33010       -0.31764       -4.36125
| 13> H          3.69849        0.11447       -2.70833
| 14> H          4.84333       -0.51793       -5.94302
| 15> H          5.90170       -1.82250       -6.49647
| 16> H          3.63046       -1.94025       -7.52177
| 17> H          2.90710       -2.00116       -5.93240
| 18> H          3.89538       -3.32820       -6.49392
| 19> *
| 20>
| 21> %MaxCore 64000
| 22>
| 23> %pal nprocs 4
| 24> end
| 25>
| 26> %scf
| 27>   MaxIter 150
| 28> end
| 29>
| 30>
| 31>                          ****END OF INPUT****

CARTESIAN COORDINATES (ANGSTROEM)
---------------------------------
  C      4.999860   -1.596130   -5.924880
  N      5.281560   -1.974130   -4.535760
  C      3.766780   -2.266110   -6.511750
  C      4.792500   -1.361320   -3.457300
  N      3.939900   -0.374920   -3.557360
  C      5.259860   -1.754220   -2.239130
  H      5.922820   -2.521450   -2.186720
  H      4.654680   -1.640400   -1.442020
  H      5.709140   -2.875600   -4.387020
  H      3.330100   -0.317640   -4.361250
  H      3.698490    0.114470   -2.708330
  H      4.843330   -0.517930   -5.943020
  H      5.901700   -1.822500   -6.496470
  H      3.630460   -1.940250   -7.521770
  H      2.907100   -2.001160   -5.932400
  H      3.895380   -3.328200   -6.493920

 Total Charge           Charge          ....    0
 Multiplicity           Mult            ....    1
 Number of Electrons    NEL             ....   48
 Basis Dimension        Dim             ....  200

ORBITAL ENERGIES
----------------

  NO   OCC          E(Eh)            E(eV)
   0   2.0000     -14.335227      -390.0814
   1   2.0000     -14.330784      -389.9605
   2   2.0000     -10.230470      -278.3852
   3   2.0000     -10.222785      -278.1761
   4   2.0000     -10.179882      -277.0087
   5   2.0000     -10.093290      -274.6524
   6   2.0000      -0.963563       -26.2199
   7   2.0000      -0.881392       -23.9839
   8   2.0000      -0.766378       -20.8542
   9   2.0000      -0.690654       -18.7937
  10   2.0000      -0.624083       -16.9822
  11   2.0000      -0.602037       -16.3822
  12   2.0000      -0.545720       -14.8498
  13   2.0000      -0.500556       -13.6208
  14   2.0000      -0.483166       -13.1476
  15   2.0000      -0.446596       -12.1525
  16   2.0000      -0.430732       -11.7208
  17   2.0000      -0.405615       -11.0373
  18   2.0000      -0.387702       -10.5499
  19   2.0000      -0.368948       -10.0396
  20   2.0000      -0.365364        -9.9420
  21   2.0000      -0.348269        -9.4769
  22   2.0000      -0.257812        -7.0154
  23   2.0000      -0.160073        -4.3558
  24   0.0000       0.007638         0.2078
  25   0.0000       0.040266         1.0957
  26   0.0000       0.042755         1.1634
  27   0.0000       0.050396         1.3713
  28   0.0000       0.068502         1.8640

MULLIKEN ATOMIC CHARGES
-----------------------
   0 C :    0.511020
   1 N :   -0.182239
   2 C :    0.923291
   3 C :    0.401127
   4 N :    0.286785
   5 C :    0.613748
   6 H :   -0.328349
   7 H :   -0.513596
   8 H :   -0.354132
   9 H :   -0.188001
  10 H :   -0.138709
  11 H :   -0.165400
  12 H :   -0.437173
  13 H :   -0.069236
  14 H :   -0.216883
  15 H :   -0.142252
Sum of atomic charges:   -0.0000000

LOEWDIN ATOMIC CHARGES
----------------------
   0 C :    0.014706
   1 N :   -0.003465
   2 C :    0.137400
   3 C :   -0.239512
   4 N :    0.204863
   5 C :    0.149752
   6 H :   -0.114441
   7 H :   -0.121545
   8 H :    0.027864
   9 H :   -0.017846
  10 H :    0.011342
  11 H :    0.007653
  12 H :    0.014910
  13 H :   -0.020195
  14 H :   -0.030925
  15 H :   -0.020562

  Mayer bond orders larger than 0.100000
B(  0-C ,  1-N ) :   0.9278 B(  0-C ,  2-C ) :   1.2102 B(  0-C ,  8-H ) :  -0.2283
B(  0-C , 11-H ) :   0.8334 B(  0-C , 12-H ) :   0.8369 B(  0-C , 13-H ) :   0.1982
B(  0-C , 14-H ) :   0.2407 B(  0-C , 15-H ) :   0.2656 B(  1-N ,  3-C ) :   1.0890
B(  1-N ,  4-N ) :   0.1682 B(  1-N ,  5-C ) :   0.2236 B(  1-N ,  8-H ) :   1.2340
B(  1-N , 11-H ) :   0.1669 B(  1-N , 12-H ) :   0.1712 B(  2-C , 13-H ) :   0.7589
B(  2-C , 14-H ) :   0.7633 B(  2-C , 15-H ) :   0.7469 B(  3-C ,  4-N ) :   1.1291
B(  3-C ,  5-C ) :   1.6239 B(  3-C ,  6-H ) :   0.2067 B(  3-C ,  7-H ) :   0.2453
B(  3-C ,  8-H ) :  -0.1820 B(  4-N ,  5-C ) :   0.2137 B(  4-N ,  9-H ) :   1.1097
B(  4-N , 10-H ) :   1.1749 B(  5-C ,  6-H ) :   0.7224 B(  5-C ,  7-H ) :   0.6562
B(  6-H ,  7-H ) :   0.1712 B(  9-H , 10-H ) :  -0.1652 B( 11-H , 12-H ) :  -0.1030

Dispersion correction           -0.020936293
FINAL SINGLE POINT ENERGY      -267.575654807164

DIPOLE MOMENT
-------------
                                X             Y             Z
Electronic contribution:      1.16137       1.25146       2.14857
Nuclear contribution   :     -1.82946      -1.24287      -3.25410
                        -----------------------------------------
Total Dipole Moment    :     -0.66809       0.00859      -1.10553
                        -----------------------------------------
Magnitude (a.u.)       :      1.29175
Magnitude (Debye)      :      3.28337

Rotational constants in cm-1:     0.244672     0.074506     0.064043
Rotational constants in MHz :  7335.067153  2233.624025  1919.970379

                             ****ORCA TERMINATED NORMALLY****
TOTAL RUN TIME: 0 days 0 hours 0 minutes 28 seconds 456 msec
