                         Program Version 5.0.0 -  RELEASE  -
|  1> !LC-PBE RIJCOSX def2-TZVP def2/J TightSCF
|  2>
|  3> *xyz -1 1
|  4> C          2.95263        1.86308       -3.57485
|  5> C          4.12921        0.89839       -3.41895
|  6> H          3.73369       -0.10060       -3.23763
|  7> H          4.71910        0.86256       -4.33901
|  8> C          5.01734        1.31521       -2.22130
|  9> O          4.73706        0.85411       -1.12283
| 10> O          5.92815        2.16811       -2.49136
| 11> H          2.35067        1.56005       -4.40594
| 12> H          3.32277        2.85258       -3.74453
| 13> H          2.36134        1.85149       -2.68315
| 14> *
| 15> %MaxCore 64000
| 16>
| 17> %pal nprocs 4
| 18> end
| 19>
| 20> %scf
| 21>   MaxIter 150
| 22> end
| 23>
| 24>
| 25>                          ****END OF INPUT****

CARTESIAN COORDINATES (ANGSTROEM)
---------------------------------
  C      2.952630    1.863080   -3.574850
  C      4.129210    0.898390   -3.418950
  H      3.733690   -0.100600   -3.237630
  H      4.719100    0.862560   -4.339010
  C      5.017340    1.315210   -2.221300
  O      4.737060    0.854110   -1.122830
  O      5.928150    2.168110   -2.491360
  H      2.350670    1.560050   -4.405940
  H      3.322770    2.852580   -3.744530
  H      2.361340    1.851490   -2.683150

 Total Charge           Charge          ....   -1
 Multiplicity           Mult            ....    1
 Number of Electrons    NEL             ....   40
 Basis Dimension        Dim             ....  185

ORBITAL ENERGIES
----------------

  NO   OCC          E(Eh)            E(eV)
   0   2.0000     -18.705805      -509.0108
   1   2.0000     -18.693415      -508.6737
   2   2.0000      -9.994939      -271.9761
   3   2.0000      -9.949179      -270.7309
   4   2.0000      -9.935464      -270.3577
   5   2.0000      -0.985959       -26.8293
   6   2.0000      -0.879861       -23.9422
   7   2.0000      -0.780612       -21.2415
   8   2.0000      -0.631826       -17.1929
   9   2.0000      -0.468232       -12.7412
  10   2.0000      -0.433833       -11.8052
  11   2.0000      -0.400171       -10.8892
  12   2.0000      -0.371195       -10.1007
  13   2.0000      -0.346540        -9.4298
  14   2.0000      -0.345655        -9.4058
  15   2.0000      -0.306487        -8.3399
  16   2.0000      -0.301767        -8.2115
  17   2.0000      -0.170991        -4.6529
  18   2.0000      -0.163906        -4.4601
  19   2.0000      -0.155659        -4.2357
  20   0.0000       0.266746         7.2585
  21   0.0000       0.308578         8.3968
  22   0.0000       0.329271         8.9599
  23   0.0000       0.333531         9.0758
  24   0.0000       0.362772         9.8715

MULLIKEN ATOMIC CHARGES
-----------------------
   0 C :   -0.437137
   1 C :   -0.226119
   2 H :    0.077772
   3 H :    0.083453
   4 C :    0.159386
   5 O :   -0.466691
   6 O :   -0.549944
   7 H :    0.092725
   8 H :    0.134522
   9 H :    0.132033
Sum of atomic charges:   -1.0000000

LOEWDIN ATOMIC CHARGES
----------------------
   0 C :   -0.344281
   1 C :   -0.305730
   2 H :    0.124235
   3 H :    0.125122
   4 C :   -0.717813
   5 O :   -0.066232
   6 O :   -0.156836
   7 H :    0.102366
   8 H :    0.119988
   9 H :    0.119180

  Mayer bond orders larger than 0.100000
B(  0-C ,  1-C ) :   0.9570 B(  0-C ,  7-H ) :   0.9818 B(  0-C ,  8-H ) :   0.9755
B(  0-C ,  9-H ) :   0.9779 B(  1-C ,  2-H ) :   0.9665 B(  1-C ,  3-H ) :   0.9684
B(  1-C ,  4-C ) :   0.9283 B(  4-C ,  5-O ) :   1.9239 B(  4-C ,  6-O ) :   1.8435

FINAL SINGLE POINT ENERGY      -267.151202838031

DIPOLE MOMENT
-------------
                                X             Y             Z
Electronic contribution:      4.38936      -0.20671       3.86656
Nuclear contribution   :     -5.85873      -0.10793      -5.24103
                        -----------------------------------------
Total Dipole Moment    :     -1.46937      -0.31464      -1.37447
                        -----------------------------------------
Magnitude (a.u.)       :      2.03647
Magnitude (Debye)      :      5.17629

Rotational constants in cm-1:     0.292505     0.135951     0.110253
Rotational constants in MHz :  8769.065873  4075.717001  3305.311891

                             ****ORCA TERMINATED NORMALLY****
TOTAL RUN TIME: 0 days 0 hours 0 minutes 25 seconds 156 msec
