                         Program Version 5.0.0 -  RELEASE  -
|  1> !LC-PBE RIJCOSX def2-TZVP def2/J TightSCF
|  2>
|  3> *xyz 1 1
|  4> C          3.34350        3.35457       -3.59200
|  5> C          2.95263        1.86308       -3.57485
|  6> C          4.25587        3.70385       -4.72605
|  7> N          3.73403        4.29378       -5.80077
|  8> N          5.51504        3.40725       -4.63718
|  9> H          6.14919        3.60120       -5.39905
| 10> H          5.81358        2.89950       -3.80879
| 11> H          2.74138        4.51311       -5.82470
| 12> H          4.28755        4.52126       -6.61434
| 13> H          3.86125        3.59725       -2.66298
| 14> H          2.44649        3.97346       -3.65656
| 15> H          2.44395        1.61721       -4.48352
| 16> H          2.30781        1.67290       -2.74242
| 17> H          3.83491        1.26414       -3.48670
| 18> *
| 19> %MaxCore 64000
| 20>
| 21> %pal nprocs 4
| 22> end
| 23>
| 24> %scf
| 25>   MaxIter 150
| 26> end
| 27>
| 28>
| 29>                          ****END OF INPUT****

CARTESIAN COORDINATES (ANGSTROEM)
---------------------------------
  C      3.343500    3.354570   -3.592000
  C      2.952630    1.863080   -3.574850
  C      4.255870    3.703850   -4.726050
  N      3.734030    4.293780   -5.800770
  N      5.515040    3.407250   -4.637180
  H      6.149190    3.601200   -5.399050
  H      5.813580    2.899500   -3.808790
  H      2.741380    4.513110   -5.824700
  H      4.287550    4.521260   -6.614340
  H      3.861250    3.597250   -2.662980
  H      2.446490    3.973460   -3.656560
  H      2.443950    1.617210   -4.483520
  H      2.307810    1.672900   -2.742420
  H      3.834910    1.264140   -3.486700

 Total Charge           Charge          ....    1
 Multiplicity           Mult            ....    1
 Number of Electrons    NEL             ....   40
 Basis Dimension        Dim             ....  209

ORBITAL ENERGIES
----------------

  NO   OCC          E(Eh)            E(eV)
   0   2.0000     -14.463042      -393.5594
   1   2.0000     -14.457904      -393.4196
   2   2.0000     -10.446870      -284.2738
   3   2.0000     -10.315175      -280.6902
   4   2.0000     -10.268884      -279.4306
   5   2.0000      -1.384014       -37.6609
   6   2.0000      -1.279568       -34.8188
   7   2.0000      -1.146664       -31.2023
   8   2.0000      -1.023997       -27.8644
   9   2.0000      -0.974276       -26.5114
  10   2.0000      -0.927819       -25.2472
  11   2.0000      -0.901824       -24.5399
  12   2.0000      -0.841882       -22.9088
  13   2.0000      -0.799452       -21.7542
  14   2.0000      -0.767344       -20.8805
  15   2.0000      -0.756048       -20.5731
  16   2.0000      -0.678362       -18.4592
  17   2.0000      -0.668586       -18.1931
  18   2.0000      -0.659462       -17.9449
  19   2.0000      -0.623749       -16.9731
  20   0.0000      -0.112783        -3.0690
  21   0.0000      -0.071940        -1.9576
  22   0.0000      -0.027766        -0.7556
  23   0.0000      -0.025171        -0.6849
  24   0.0000       0.005636         0.1534

MULLIKEN ATOMIC CHARGES
-----------------------
   0 C :   -0.382993
   1 C :   -0.421023
   2 C :    0.309126
   3 N :   -0.376164
   4 N :   -0.325864
   5 H :    0.304263
   6 H :    0.324997
   7 H :    0.321764
   8 H :    0.302426
   9 H :    0.212934
  10 H :    0.186478
  11 H :    0.176357
  12 H :    0.204091
  13 H :    0.163609
Sum of atomic charges:    1.0000000

LOEWDIN ATOMIC CHARGES
----------------------
   0 C :   -0.237783
   1 C :   -0.281195
   2 C :   -0.294819
   3 N :    0.092621
   4 N :    0.122182
   5 H :    0.207845
   6 H :    0.221526
   7 H :    0.214009
   8 H :    0.200450
   9 H :    0.173667
  10 H :    0.168071
  11 H :    0.136291
  12 H :    0.145659
  13 H :    0.131474

  Mayer bond orders larger than 0.100000
B(  0-C ,  1-C ) :   0.9403 B(  0-C ,  2-C ) :   0.9577 B(  0-C ,  9-H ) :   0.9503
B(  0-C , 10-H ) :   0.9663 B(  1-C , 11-H ) :   0.9546 B(  1-C , 12-H ) :   0.9633
B(  1-C , 13-H ) :   0.9613 B(  2-C ,  3-N ) :   1.4444 B(  2-C ,  4-N ) :   1.4842
B(  3-N ,  7-H ) :   0.8800 B(  3-N ,  8-H ) :   0.8881 B(  4-N ,  5-H ) :   0.8853
B(  4-N ,  6-H ) :   0.8765

FINAL SINGLE POINT ENERGY      -228.367819571350

DIPOLE MOMENT
-------------
                                X             Y             Z
Electronic contribution:      2.38185       2.58431      -2.28264
Nuclear contribution   :     -1.74195      -2.09431       1.58516
                        -----------------------------------------
Total Dipole Moment    :      0.63991       0.49001      -0.69748
                        -----------------------------------------
Magnitude (a.u.)       :      1.06587
Magnitude (Debye)      :      2.70922

Rotational constants in cm-1:     0.258965     0.126500     0.098780
Rotational constants in MHz :  7763.584551  3792.383135  2961.336502

                             ****ORCA TERMINATED NORMALLY****
TOTAL RUN TIME: 0 days 0 hours 0 minutes 31 seconds 256 msec
