                         Program Version 5.0.0 -  RELEASE  -
|  1> !LC-PBE RIJCOSX def2-TZVP def2/J TightSCF xyzfile
|  2>
|  3> *xyzfile 0 1 B.xyz
|  4>
|  5> %MaxCore 64000
|  6>
|  7> %pal nprocs 18
|  8> end
|  9>
| 10> %scf
| 11>   MaxIter 150
| 12> end
| 13>
| 14>
| 15>                          ****END OF INPUT****

CARTESIAN COORDINATES (ANGSTROEM)
---------------------------------
  C      3.343500    3.354571   -3.591998
  C      2.952633    1.863077   -3.574849
  C      4.129209    0.898394   -3.418950
  H      3.733687   -0.100605   -3.237633
  H      4.719095    0.862556   -4.339005
  C      5.017344    1.315212   -2.221305
  C      4.255868    3.703851   -4.726054
  N      3.734032    4.293783   -5.800770
  N      5.515039    3.407255   -4.637185
  H      6.149187    3.601203   -5.399053
  H      5.813584    2.899504   -3.808785
  H      2.741380    4.513109   -5.824701
  H      4.287548    4.521260   -6.614341
  H      2.278938    1.735250   -2.725496
  H      2.377466    1.625787   -4.475869
  O      4.737055    0.854112   -1.122825
  O      5.928146    2.168108   -2.491365
  H      3.861246    3.597252   -2.662979
  H      2.446493    3.973461   -3.656556

 Total Charge           Charge          ....    0
 Multiplicity           Mult            ....    1
 Number of Electrons    NEL             ....   70
 Basis Dimension        Dim             ....  339

ORBITAL ENERGIES
----------------

  NO   OCC          E(Eh)            E(eV)
   0   2.0000     -18.880749      -513.7713
   1   2.0000     -18.867574      -513.4128
   2   2.0000     -14.313431      -389.4882
   3   2.0000     -14.273618      -388.4049
   4   2.0000     -10.286910      -279.9211
   5   2.0000     -10.165317      -276.6123
   6   2.0000     -10.160975      -276.4942
   7   2.0000     -10.136579      -275.8303
   8   2.0000     -10.094402      -274.6826
   9   2.0000      -1.225092       -33.3365
  10   2.0000      -1.159617       -31.5548
  11   2.0000      -1.119783       -30.4709
  12   2.0000      -1.060826       -28.8665
  13   2.0000      -1.003571       -27.3086
  14   2.0000      -0.909845       -24.7581
  15   2.0000      -0.836455       -22.7611
  16   2.0000      -0.792624       -21.5684
  17   2.0000      -0.769272       -20.9330
  18   2.0000      -0.740576       -20.1521
  19   2.0000      -0.688579       -18.7372
  20   2.0000      -0.653608       -17.7856
  21   2.0000      -0.634622       -17.2690
  22   2.0000      -0.606502       -16.5038
  23   2.0000      -0.591832       -16.1046
  24   2.0000      -0.566196       -15.4070
  25   2.0000      -0.539187       -14.6720
  26   2.0000      -0.518645       -14.1131
  27   2.0000      -0.510399       -13.8887
  28   2.0000      -0.502536       -13.6747
  29   2.0000      -0.471801       -12.8384
  30   2.0000      -0.464145       -12.6300
  31   2.0000      -0.459223       -12.4961
  32   2.0000      -0.347207        -9.4480
  33   2.0000      -0.343964        -9.3597
  34   2.0000      -0.322718        -8.7816
  35   0.0000       0.042494         1.1563
  36   0.0000       0.056495         1.5373
  37   0.0000       0.093833         2.5533
  38   0.0000       0.122052         3.3212
  39   0.0000       0.138415         3.7665

MULLIKEN ATOMIC CHARGES
-----------------------
   0 C :   -0.458612
   1 C :   -0.240920
   2 C :   -0.388235
   3 H :    0.155344
   4 H :    0.153677
   5 C :    0.222651
   6 C :    0.298344
   7 N :   -0.418077
   8 N :   -0.310638
   9 H :    0.251190
  10 H :    0.320909
  11 H :    0.294429
  12 H :    0.275411
  13 H :    0.174508
  14 H :    0.138948
  15 O :   -0.377013
  16 O :   -0.518137
  17 H :    0.263617
  18 H :    0.162604
Sum of atomic charges:    0.0000000

LOEWDIN ATOMIC CHARGES
----------------------
   0 C :   -0.220515
   1 C :   -0.265873
   2 C :   -0.266124
   3 H :    0.152283
   4 H :    0.136194
   5 C :   -0.671998
   6 C :   -0.305650
   7 N :    0.044646
   8 N :    0.128999
   9 H :    0.184088
  10 H :    0.141225
  11 H :    0.198330
  12 H :    0.185623
  13 H :    0.161405
  14 H :    0.140526
  15 O :    0.007202
  16 O :   -0.088290
  17 H :    0.184659
  18 H :    0.153266

  Mayer bond orders larger than 0.100000
B(  0-C ,  1-C ) :   0.9129 B(  0-C ,  6-C ) :   0.9496 B(  0-C , 16-O ) :   0.1063
B(  0-C , 17-H ) :   0.9402 B(  0-C , 18-H ) :   0.9731 B(  1-C ,  2-C ) :   0.9605
B(  1-C , 13-H ) :   0.9600 B(  1-C , 14-H ) :   0.9699 B(  2-C ,  3-H ) :   0.9674
B(  2-C ,  4-H ) :   0.9662 B(  2-C ,  5-C ) :   0.9365 B(  5-C , 15-O ) :   2.0161
B(  5-C , 16-O ) :   1.5120 B(  6-C ,  7-N ) :   1.3368 B(  6-C ,  8-N ) :   1.6173
B(  7-N , 11-H ) :   0.8948 B(  7-N , 12-H ) :   0.9027 B(  8-N ,  9-H ) :   0.9083
B(  8-N , 10-H ) :   0.6889 B( 10-H , 16-O ) :   0.2874

FINAL SINGLE POINT ENERGY      -455.311730718782

DIPOLE MOMENT
-------------
                                X             Y             Z
Electronic contribution:      3.83546       0.04944       2.51410
Nuclear contribution   :     -5.42217       2.65262      -7.07590
                        -----------------------------------------
Total Dipole Moment    :     -1.58671       2.70206      -4.56180
                        -----------------------------------------
Magnitude (a.u.)       :      5.53433
Magnitude (Debye)      :     14.06715

Rotational constants in cm-1:     0.107541     0.035862     0.030371
Rotational constants in MHz :  3223.996852  1075.120464   910.508313

                             ****ORCA TERMINATED NORMALLY****
TOTAL RUN TIME: 0 days 0 hours 0 minutes 22 seconds 835 msec
