                         Program Version 5.0.0 -  RELEASE  -
|  1> !LC-PBE RIJCOSX def2-TZVP def2/J TightSCF
|  2>
|  3> *xyz 0 1
|  4> C          2.95263        1.86308       -3.57485
|  5> C          4.12921        0.89839       -3.41895
|  6> H          3.73369       -0.10060       -3.23763
|  7> H          4.71910        0.86256       -4.33901
|  8> C          5.01734        1.31521       -2.22130
|  9> F          4.73706        0.85411       -1.12283
| 10> O          5.92815        2.16811       -2.49136
| 11> H          2.35067        1.56005       -4.40594
| 12> H          3.32277        2.85258       -3.74453
| 13> H          2.36134        1.85149       -2.68315
| 14> *
| 15> %MaxCore 64000
| 16>
| 17> %pal nprocs 4
| 18> end
| 19>
| 20> %scf
| 21>   MaxIter 150
| 22> end
| 23>
| 24>
| 25>                          ****END OF INPUT****

CARTESIAN COORDINATES (ANGSTROEM)
---------------------------------
  C      2.952630    1.863080   -3.574850
  C      4.129210    0.898390   -3.418950
  H      3.733690   -0.100600   -3.237630
  H      4.719100    0.862560   -4.339010
  C      5.017340    1.315210   -2.221300
  F      4.737060    0.854110   -1.122830
  O      5.928150    2.168110   -2.491360
  H      2.350670    1.560050   -4.405940
  H      3.322770    2.852580   -3.744530
  H      2.361340    1.851490   -2.683150

 Total Charge           Charge          ....    0
 Multiplicity           Mult            ....    1
 Number of Electrons    NEL             ....   40
 Basis Dimension        Dim             ....  185

ORBITAL ENERGIES
----------------

  NO   OCC          E(Eh)            E(eV)
   0   2.0000     -24.574963      -668.7187
   1   2.0000     -18.979064      -516.4466
   2   2.0000     -10.304115      -280.3892
   3   2.0000     -10.147864      -276.1374
   4   2.0000     -10.121304      -275.4147
   5   2.0000      -1.503241       -40.9053
   6   2.0000      -1.186010       -32.2730
   7   2.0000      -0.980944       -26.6929
   8   2.0000      -0.856371       -23.3030
   9   2.0000      -0.809584       -22.0299
  10   2.0000      -0.721368       -19.6294
  11   2.0000      -0.704801       -19.1786
  12   2.0000      -0.657317       -17.8865
  13   2.0000      -0.610827       -16.6214
  14   2.0000      -0.577323       -15.7098
  15   2.0000      -0.538229       -14.6460
  16   2.0000      -0.513930       -13.9848
  17   2.0000      -0.503857       -13.7107
  18   2.0000      -0.478387       -13.0176
  19   2.0000      -0.421223       -11.4621
  20   0.0000       0.070272         1.9122
  21   0.0000       0.119280         3.2458
  22   0.0000       0.157817         4.2944
  23   0.0000       0.174111         4.7378
  24   0.0000       0.190299         5.1783

MULLIKEN ATOMIC CHARGES
-----------------------
   0 C :   -0.458687
   1 C :   -0.285317
   2 H :    0.146525
   3 H :    0.170517
   4 C :    0.315605
   5 F :   -0.039552
   6 O :   -0.330116
   7 H :    0.157067
   8 H :    0.171247
   9 H :    0.152710
Sum of atomic charges:   -0.0000000

LOEWDIN ATOMIC CHARGES
----------------------
   0 C :   -0.312770
   1 C :   -0.274685
   2 H :    0.146103
   3 H :    0.158147
   4 C :   -0.522705
   5 F :    0.386845
   6 O :    0.031055
   7 H :    0.128262
   8 H :    0.132553
   9 H :    0.127196

  Mayer bond orders larger than 0.100000
B(  0-C ,  1-C ) :   0.9541 B(  0-C ,  7-H ) :   0.9727 B(  0-C ,  8-H ) :   0.9646
B(  0-C ,  9-H ) :   0.9679 B(  1-C ,  2-H ) :   0.9581 B(  1-C ,  3-H ) :   0.9582
B(  1-C ,  4-C ) :   0.9739 B(  4-C ,  5-F ) :   1.2330 B(  4-C ,  6-O ) :   2.0540

FINAL SINGLE POINT ENERGY      -291.683046648526

DIPOLE MOMENT
-------------
                                X             Y             Z
Electronic contribution:      5.02474      -1.20818       6.51306
Nuclear contribution   :     -6.06116       0.51860      -6.80802
                        -----------------------------------------
Total Dipole Moment    :     -1.03642      -0.68958      -0.29496
                        -----------------------------------------
Magnitude (a.u.)       :      1.27933
Magnitude (Debye)      :      3.25180

Rotational constants in cm-1:     0.276196     0.132056     0.105465
Rotational constants in MHz :  8280.156449  3958.940601  3161.775929

                             ****ORCA TERMINATED NORMALLY****
TOTAL RUN TIME: 0 days 0 hours 0 minutes 22 seconds 884 msec
