                         Program Version 5.0.0 -  RELEASE  -
|  1> !LC-PBE RIJCOSX def2-TZVP def2/J TightSCF
|  2>
|  3> *xyz 0 1
|  4> C          3.34350        3.35457       -3.59200
|  5> C          2.95263        1.86308       -3.57485
|  6> C          4.25587        3.70385       -4.72605
|  7> C          3.73403        4.29378       -5.80077
|  8> N          5.51504        3.40725       -4.63718
|  9> H          6.14919        3.60120       -5.39905
| 10> H          5.81358        2.89950       -3.80879
| 11> H          2.74138        4.51311       -5.82470
| 12> H          4.28755        4.52126       -6.61434
| 13> H          3.86125        3.59725       -2.66298
| 14> H          2.44649        3.97346       -3.65656
| 15> H          2.44395        1.61721       -4.48352
| 16> H          2.30781        1.67290       -2.74242
| 17> H          3.83491        1.26414       -3.48670
| 18> *
| 19> %MaxCore 64000
| 20>
| 21> %pal nprocs 4
| 22> end
| 23>
| 24> %scf
| 25>   MaxIter 150
| 26> end
| 27>
| 28>
| 29>                          ****END OF INPUT****

CARTESIAN COORDINATES (ANGSTROEM)
---------------------------------
  C      3.343500    3.354570   -3.592000
  C      2.952630    1.863080   -3.574850
  C      4.255870    3.703850   -4.726050
  C      3.734030    4.293780   -5.800770
  N      5.515040    3.407250   -4.637180
  H      6.149190    3.601200   -5.399050
  H      5.813580    2.899500   -3.808790
  H      2.741380    4.513110   -5.824700
  H      4.287550    4.521260   -6.614340
  H      3.861250    3.597250   -2.662980
  H      2.446490    3.973460   -3.656560
  H      2.443950    1.617210   -4.483520
  H      2.307810    1.672900   -2.742420
  H      3.834910    1.264140   -3.486700

 Total Charge           Charge          ....    0
 Multiplicity           Mult            ....    1
 Number of Electrons    NEL             ....   40
 Basis Dimension        Dim             ....  209

ORBITAL ENERGIES
----------------

  NO   OCC          E(Eh)            E(eV)
   0   2.0000     -14.214272      -386.7900
   1   2.0000     -10.138888      -275.8932
   2   2.0000     -10.114758      -275.2365
   3   2.0000     -10.099150      -274.8118
   4   2.0000     -10.041918      -273.2545
   5   2.0000      -1.112132       -30.2627
   6   2.0000      -0.955088       -25.9893
   7   2.0000      -0.883953       -24.0536
   8   2.0000      -0.800060       -21.7707
   9   2.0000      -0.721633       -19.6366
  10   2.0000      -0.678776       -18.4704
  11   2.0000      -0.626675       -17.0527
  12   2.0000      -0.579434       -15.7672
  13   2.0000      -0.563235       -15.3264
  14   2.0000      -0.530791       -14.4436
  15   2.0000      -0.518601       -14.1118
  16   2.0000      -0.483717       -13.1626
  17   2.0000      -0.467747       -12.7280
  18   2.0000      -0.460372       -12.5274
  19   2.0000      -0.305443        -8.3115
  20   0.0000       0.108561         2.9541
  21   0.0000       0.136353         3.7104
  22   0.0000       0.152903         4.1607
  23   0.0000       0.162792         4.4298
  24   0.0000       0.172182         4.6853

MULLIKEN ATOMIC CHARGES
-----------------------
   0 C :   -0.337568
   1 C :   -0.401850
   2 C :    0.197650
   3 C :   -0.507710
   4 N :   -0.454394
   5 H :    0.256057
   6 H :    0.255361
   7 H :    0.131690
   8 H :    0.128732
   9 H :    0.142319
  10 H :    0.153488
  11 H :    0.157202
  12 H :    0.148620
  13 H :    0.130403
Sum of atomic charges:   -0.0000000

LOEWDIN ATOMIC CHARGES
----------------------
   0 C :   -0.254275
   1 C :   -0.313062
   2 C :   -0.385983
   3 C :   -0.294712
   4 N :    0.005124
   5 H :    0.181592
   6 H :    0.181442
   7 H :    0.110718
   8 H :    0.100134
   9 H :    0.144059
  10 H :    0.155469
  11 H :    0.127654
  12 H :    0.122245
  13 H :    0.119595

  Mayer bond orders larger than 0.100000
B(  0-C ,  1-C ) :   0.9356 B(  0-C ,  2-C ) :   0.9323 B(  0-C ,  9-H ) :   0.9866
B(  0-C , 10-H ) :   0.9893 B(  1-C , 11-H ) :   0.9707 B(  1-C , 12-H ) :   0.9796
B(  1-C , 13-H ) :   0.9707 B(  2-C ,  3-C ) :   1.7376 B(  2-C ,  4-N ) :   1.1770
B(  3-C ,  7-H ) :   0.9962 B(  3-C ,  8-H ) :   0.9949 B(  4-N ,  5-H ) :   0.9195
B(  4-N ,  6-H ) :   0.9218

FINAL SINGLE POINT ENERGY      -211.912621555975

DIPOLE MOMENT
-------------
                                X             Y             Z
Electronic contribution:      2.33857       1.45908      -0.82944
Nuclear contribution   :     -1.79713      -1.86925       1.28073
                        -----------------------------------------
Total Dipole Moment    :      0.54144      -0.41017       0.45129
                        -----------------------------------------
Magnitude (a.u.)       :      0.81552
Magnitude (Debye)      :      2.07288

Rotational constants in cm-1:     0.269040     0.129645     0.102087
Rotational constants in MHz :  8065.609820  3886.645139  3060.489045

                             ****ORCA TERMINATED NORMALLY****
TOTAL RUN TIME: 0 days 0 hours 0 minutes 29 seconds 718 msec
