                         Program Version 5.0.0 -  RELEASE  -
|  1> !LC-PBE RIJCOSX def2-TZVP def2/J TightSCF
|  2>
|  3> *xyz 0 1
|  4> C          2.95263        1.86308       -3.57485
|  5> C          4.12921        0.89839       -3.41895
|  6> H          3.73369       -0.10060       -3.23763
|  7> H          4.71910        0.86256       -4.33901
|  8> C          5.01734        1.31521       -2.22130
|  9> O          4.73706        0.85411       -1.12283
| 10> F          5.92815        2.16811       -2.49136
| 11> H          2.35067        1.56005       -4.40594
| 12> H          3.32277        2.85258       -3.74453
| 13> H          2.36134        1.85149       -2.68315
| 14> *
| 15> %MaxCore 64000
| 16>
| 17> %pal nprocs 4
| 18> end
| 19>
| 20> %scf
| 21>   MaxIter 150
| 22> end
| 23>
| 24>
| 25>                          ****END OF INPUT****

CARTESIAN COORDINATES (ANGSTROEM)
---------------------------------
  C      2.952630    1.863080   -3.574850
  C      4.129210    0.898390   -3.418950
  H      3.733690   -0.100600   -3.237630
  H      4.719100    0.862560   -4.339010
  C      5.017340    1.315210   -2.221300
  O      4.737060    0.854110   -1.122830
  F      5.928150    2.168110   -2.491360
  H      2.350670    1.560050   -4.405940
  H      3.322770    2.852580   -3.744530
  H      2.361340    1.851490   -2.683150

 Total Charge           Charge          ....    0
 Multiplicity           Mult            ....    1
 Number of Electrons    NEL             ....   40
 Basis Dimension        Dim             ....  185

ORBITAL ENERGIES
----------------

  NO   OCC          E(Eh)            E(eV)
   0   2.0000     -24.553402      -668.1320
   1   2.0000     -18.989260      -516.7240
   2   2.0000     -10.299296      -280.2581
   3   2.0000     -10.147352      -276.1235
   4   2.0000     -10.121510      -275.4203
   5   2.0000      -1.462991       -39.8100
   6   2.0000      -1.219085       -33.1730
   7   2.0000      -0.980806       -26.6891
   8   2.0000      -0.847195       -23.0533
   9   2.0000      -0.794650       -21.6235
  10   2.0000      -0.700615       -19.0647
  11   2.0000      -0.684676       -18.6310
  12   2.0000      -0.657385       -17.8883
  13   2.0000      -0.609984       -16.5985
  14   2.0000      -0.581305       -15.8181
  15   2.0000      -0.543743       -14.7960
  16   2.0000      -0.522401       -14.2153
  17   2.0000      -0.504495       -13.7280
  18   2.0000      -0.494473       -13.4553
  19   2.0000      -0.431308       -11.7365
  20   0.0000       0.075927         2.0661
  21   0.0000       0.119965         3.2644
  22   0.0000       0.157823         4.2946
  23   0.0000       0.174630         4.7519
  24   0.0000       0.191536         5.2120

MULLIKEN ATOMIC CHARGES
-----------------------
   0 C :   -0.460533
   1 C :   -0.287344
   2 H :    0.165632
   3 H :    0.152392
   4 C :    0.301285
   5 O :   -0.263956
   6 F :   -0.088765
   7 H :    0.157337
   8 H :    0.155403
   9 H :    0.168550
Sum of atomic charges:    0.0000000

LOEWDIN ATOMIC CHARGES
----------------------
   0 C :   -0.313178
   1 C :   -0.273575
   2 H :    0.157470
   3 H :    0.147315
   4 C :   -0.513726
   5 O :    0.108046
   6 F :    0.299683
   7 H :    0.128315
   8 H :    0.127685
   9 H :    0.131964

  Mayer bond orders larger than 0.100000
B(  0-C ,  1-C ) :   0.9544 B(  0-C ,  7-H ) :   0.9729 B(  0-C ,  8-H ) :   0.9683
B(  0-C ,  9-H ) :   0.9648 B(  1-C ,  2-H ) :   0.9608 B(  1-C ,  3-H ) :   0.9568
B(  1-C ,  4-C ) :   0.9754 B(  4-C ,  5-O ) :   2.1219 B(  4-C ,  6-F ) :   1.1753

FINAL SINGLE POINT ENERGY      -291.700095417968

DIPOLE MOMENT
-------------
                                X             Y             Z
Electronic contribution:      7.03217       1.00627       4.20064
Nuclear contribution   :     -7.35982      -0.91407      -5.31589
                        -----------------------------------------
Total Dipole Moment    :     -0.32764       0.09220      -1.11526
                        -----------------------------------------
Magnitude (a.u.)       :      1.16604
Magnitude (Debye)      :      2.96384

Rotational constants in cm-1:     0.275433     0.132201     0.105422
Rotational constants in MHz :  8257.268192  3963.279062  3160.465566

                             ****ORCA TERMINATED NORMALLY****
TOTAL RUN TIME: 0 days 0 hours 0 minutes 22 seconds 521 msec
