                         Program Version 5.0.0 -  RELEASE  -
|  1> !LC-PBE RIJCOSX def2-TZVP def2/J TightSCF
|  2>
|  3> *xyz 0 1
|  4> C          3.34350        3.35457       -3.59200
|  5> C          2.95263        1.86308       -3.57485
|  6> C          4.25587        3.70385       -4.72605
|  7> N          3.73403        4.29378       -5.80077
|  8> C          5.51504        3.40725       -4.63718
|  9> H          6.14919        3.60120       -5.39905
| 10> H          5.81358        2.89950       -3.80879
| 11> H          2.74138        4.51311       -5.82470
| 12> H          4.28755        4.52126       -6.61434
| 13> H          3.86125        3.59725       -2.66298
| 14> H          2.44649        3.97346       -3.65656
| 15> H          2.44395        1.61721       -4.48352
| 16> H          2.30781        1.67290       -2.74242
| 17> H          3.83491        1.26414       -3.48670
| 18> *
| 19> %MaxCore 64000
| 20>
| 21> %pal nprocs 4
| 22> end
| 23>
| 24> %scf
| 25>   MaxIter 150
| 26> end
| 27>
| 28>
| 29>                          ****END OF INPUT****

CARTESIAN COORDINATES (ANGSTROEM)
---------------------------------
  C      3.343500    3.354570   -3.592000
  C      2.952630    1.863080   -3.574850
  C      4.255870    3.703850   -4.726050
  N      3.734030    4.293780   -5.800770
  C      5.515040    3.407250   -4.637180
  H      6.149190    3.601200   -5.399050
  H      5.813580    2.899500   -3.808790
  H      2.741380    4.513110   -5.824700
  H      4.287550    4.521260   -6.614340
  H      3.861250    3.597250   -2.662980
  H      2.446490    3.973460   -3.656560
  H      2.443950    1.617210   -4.483520
  H      2.307810    1.672900   -2.742420
  H      3.834910    1.264140   -3.486700

 Total Charge           Charge          ....    0
 Multiplicity           Mult            ....    1
 Number of Electrons    NEL             ....   40
 Basis Dimension        Dim             ....  209

ORBITAL ENERGIES
----------------

  NO   OCC          E(Eh)            E(eV)
   0   2.0000     -14.209954      -386.6725
   1   2.0000     -10.135833      -275.8100
   2   2.0000     -10.114030      -275.2167
   3   2.0000     -10.096785      -274.7475
   4   2.0000     -10.040635      -273.2196
   5   2.0000      -1.097594       -29.8671
   6   2.0000      -0.957092       -26.0438
   7   2.0000      -0.887454       -24.1488
   8   2.0000      -0.801383       -21.8067
   9   2.0000      -0.714774       -19.4500
  10   2.0000      -0.666041       -18.1239
  11   2.0000      -0.630418       -17.1545
  12   2.0000      -0.582411       -15.8482
  13   2.0000      -0.554014       -15.0755
  14   2.0000      -0.529883       -14.4188
  15   2.0000      -0.520173       -14.1546
  16   2.0000      -0.478498       -13.0206
  17   2.0000      -0.465574       -12.6689
  18   2.0000      -0.463657       -12.6168
  19   2.0000      -0.311191        -8.4679
  20   0.0000       0.111588         3.0365
  21   0.0000       0.135743         3.6937
  22   0.0000       0.154446         4.2027
  23   0.0000       0.159918         4.3516
  24   0.0000       0.176181         4.7941

MULLIKEN ATOMIC CHARGES
-----------------------
   0 C :   -0.331820
   1 C :   -0.409691
   2 C :    0.236439
   3 N :   -0.500209
   4 C :   -0.497479
   5 H :    0.129350
   6 H :    0.139477
   7 H :    0.251380
   8 H :    0.252707
   9 H :    0.165427
  10 H :    0.123622
  11 H :    0.142861
  12 H :    0.145167
  13 H :    0.152770
Sum of atomic charges:   -0.0000000

LOEWDIN ATOMIC CHARGES
----------------------
   0 C :   -0.253199
   1 C :   -0.310655
   2 C :   -0.374941
   3 N :   -0.022256
   4 C :   -0.278683
   5 H :    0.106094
   6 H :    0.118307
   7 H :    0.173424
   8 H :    0.173709
   9 H :    0.156531
  10 H :    0.140767
  11 H :    0.123861
  12 H :    0.120866
  13 H :    0.126173

  Mayer bond orders larger than 0.100000
B(  0-C ,  1-C ) :   0.9428 B(  0-C ,  2-C ) :   0.9079 B(  0-C ,  9-H ) :   0.9903
B(  0-C , 10-H ) :   0.9935 B(  1-C , 11-H ) :   0.9719 B(  1-C , 12-H ) :   0.9803
B(  1-C , 13-H ) :   0.9707 B(  2-C ,  3-N ) :   1.1374 B(  2-C ,  4-C ) :   1.7587
B(  3-N ,  7-H ) :   0.9244 B(  3-N ,  8-H ) :   0.9217 B(  4-C ,  5-H ) :   0.9960
B(  4-C ,  6-H ) :   0.9928

FINAL SINGLE POINT ENERGY      -211.913365181446

DIPOLE MOMENT
-------------
                                X             Y             Z
Electronic contribution:      0.75226       2.26943      -1.86235
Nuclear contribution   :     -1.38463      -2.07457       1.55023
                        -----------------------------------------
Total Dipole Moment    :     -0.63237       0.19485      -0.31211
                        -----------------------------------------
Magnitude (a.u.)       :      0.73163
Magnitude (Debye)      :      1.85965

Rotational constants in cm-1:     0.272312     0.128195     0.101724
Rotational constants in MHz :  8163.717141  3843.180148  3049.598073

                             ****ORCA TERMINATED NORMALLY****
TOTAL RUN TIME: 0 days 0 hours 0 minutes 31 seconds 488 msec
