                         Program Version 5.0.0 -  RELEASE  -
|  1> !LC-PBE RIJCOSX def2-TZVP def2/J TightSCF xyzfile
|  2>
|  3> *xyzfile 0 1 D2.xyz
|  4>
|  5> %MaxCore 64000
|  6>
|  7> %pal nprocs 18
|  8> end
|  9>
| 10> %scf
| 11>   MaxIter 150
| 12> end
| 13>
| 14>
| 15>                          ****END OF INPUT****

CARTESIAN COORDINATES (ANGSTROEM)
---------------------------------
  C      3.343500    3.354571   -3.591998
  C      2.952633    1.863077   -3.574849
  C      4.129209    0.898394   -3.418950
  H      3.733687   -0.100605   -3.237633
  H      4.719095    0.862556   -4.339005
  C      5.017344    1.315212   -2.221305
  C      4.255868    3.703851   -4.726054
  N      3.734032    4.293783   -5.800770
  C      5.515039    3.407255   -4.637185
  H      6.149187    3.601203   -5.399053
  H      5.813584    2.899504   -3.808785
  H      2.741380    4.513109   -5.824701
  H      4.287548    4.521260   -6.614341
  H      2.278938    1.735250   -2.725496
  H      2.377466    1.625787   -4.475869
  F      4.737055    0.854112   -1.122825
  O      5.928146    2.168108   -2.491365
  H      3.861246    3.597252   -2.662979
  H      2.446493    3.973461   -3.656556

 Total Charge           Charge          ....    0
 Multiplicity           Mult            ....    1
 Number of Electrons    NEL             ....   70
 Basis Dimension        Dim             ....  339

ORBITAL ENERGIES
----------------

  NO   OCC          E(Eh)            E(eV)
   0   2.0000     -24.579880      -668.8525
   1   2.0000     -18.983139      -516.5575
   2   2.0000     -14.199231      -386.3807
   3   2.0000     -10.311759      -280.5972
   4   2.0000     -10.144809      -276.0543
   5   2.0000     -10.135859      -275.8107
   6   2.0000     -10.121661      -275.4244
   7   2.0000     -10.116337      -275.2795
   8   2.0000     -10.008959      -272.3576
   9   2.0000      -1.507958       -41.0336
  10   2.0000      -1.201215       -32.6867
  11   2.0000      -1.088036       -29.6070
  12   2.0000      -0.997916       -27.1547
  13   2.0000      -0.921046       -25.0629
  14   2.0000      -0.869423       -23.6582
  15   2.0000      -0.839382       -22.8407
  16   2.0000      -0.782907       -21.3040
  17   2.0000      -0.731712       -19.9109
  18   2.0000      -0.718426       -19.5494
  19   2.0000      -0.697148       -18.9704
  20   2.0000      -0.678865       -18.4728
  21   2.0000      -0.644652       -17.5419
  22   2.0000      -0.625399       -17.0180
  23   2.0000      -0.610804       -16.6208
  24   2.0000      -0.590122       -16.0580
  25   2.0000      -0.557022       -15.1573
  26   2.0000      -0.529963       -14.4210
  27   2.0000      -0.525666       -14.3041
  28   2.0000      -0.497628       -13.5412
  29   2.0000      -0.487102       -13.2547
  30   2.0000      -0.480403       -13.0724
  31   2.0000      -0.458880       -12.4868
  32   2.0000      -0.448460       -12.2032
  33   2.0000      -0.397377       -10.8132
  34   2.0000      -0.296459        -8.0671
  35   0.0000       0.061297         1.6680
  36   0.0000       0.110560         3.0085
  37   0.0000       0.133250         3.6259
  38   0.0000       0.141369         3.8468
  39   0.0000       0.156309         4.2534

MULLIKEN ATOMIC CHARGES
-----------------------
   0 C :   -0.477037
   1 C :   -0.233519
   2 C :   -0.417903
   3 H :    0.168223
   4 H :    0.228408
   5 C :    0.327371
   6 C :    0.272169
   7 N :   -0.510400
   8 C :   -0.541640
   9 H :    0.116313
  10 H :    0.207268
  11 H :    0.242289
  12 H :    0.251133
  13 H :    0.159331
  14 H :    0.157971
  15 F :   -0.031800
  16 O :   -0.287850
  17 H :    0.222434
  18 H :    0.147241
Sum of atomic charges:    0.0000000

LOEWDIN ATOMIC CHARGES
----------------------
   0 C :   -0.230289
   1 C :   -0.266249
   2 C :   -0.247091
   3 H :    0.150600
   4 H :    0.168482
   5 C :   -0.500982
   6 C :   -0.386433
   7 N :   -0.032979
   8 C :   -0.265106
   9 H :    0.101555
  10 H :    0.091109
  11 H :    0.168532
  12 H :    0.172159
  13 H :    0.147847
  14 H :    0.151286
  15 F :    0.392390
  16 O :    0.076964
  17 H :    0.162573
  18 H :    0.145632

  Mayer bond orders larger than 0.100000
B(  0-C ,  1-C ) :   0.8974 B(  0-C ,  6-C ) :   0.8712 B(  0-C , 17-H ) :   1.0020
B(  0-C , 18-H ) :   0.9916 B(  1-C ,  2-C ) :   0.9358 B(  1-C , 13-H ) :   0.9825
B(  1-C , 14-H ) :   0.9647 B(  2-C ,  3-H ) :   0.9645 B(  2-C ,  4-H ) :   0.9502
B(  2-C ,  5-C ) :   0.9828 B(  5-C , 15-F ) :   1.2463 B(  5-C , 16-O ) :   1.9650
B(  6-C ,  7-N ) :   1.1001 B(  6-C ,  8-C ) :   1.7166 B(  7-N , 11-H ) :   0.9279
B(  7-N , 12-H ) :   0.9243 B(  8-C ,  9-H ) :   0.9989 B(  8-C , 10-H ) :   0.9682

FINAL SINGLE POINT ENERGY      -463.194580023275

DIPOLE MOMENT
-------------
                                X             Y             Z
Electronic contribution:      4.24400      -5.18429       9.56951
Nuclear contribution   :     -5.64491       4.57111      -9.93176
                        -----------------------------------------
Total Dipole Moment    :     -1.40090      -0.61318      -0.36225
                        -----------------------------------------
Magnitude (a.u.)       :      1.57154
Magnitude (Debye)      :      3.99455

Rotational constants in cm-1:     0.109825     0.034347     0.029470
Rotational constants in MHz :  3292.465653  1029.684117   883.494260

                             ****ORCA TERMINATED NORMALLY****
TOTAL RUN TIME: 0 days 0 hours 0 minutes 23 seconds 917 msec
