                         Program Version 5.0.0 -  RELEASE  -
|  1> !LC-PBE RIJCOSX def2-TZVP def2/J TightSCF xyzfile
|  2>
|  3> *xyzfile 0 1 D4.xyz
|  4>
|  5> %MaxCore 64000
|  6>
|  7> %pal nprocs 18
|  8> end
|  9>
| 10> %scf
| 11>   MaxIter 150
| 12> end
| 13>
| 14>
| 15>                          ****END OF INPUT****

CARTESIAN COORDINATES (ANGSTROEM)
---------------------------------
  C      3.343500    3.354571   -3.591998
  C      2.952633    1.863077   -3.574849
  C      4.129209    0.898394   -3.418950
  H      3.733687   -0.100605   -3.237633
  H      4.719095    0.862556   -4.339005
  C      5.017344    1.315212   -2.221305
  C      4.255868    3.703851   -4.726054
  N      3.734032    4.293783   -5.800770
  C      5.515039    3.407255   -4.637185
  H      6.149187    3.601203   -5.399053
  H      5.813584    2.899504   -3.808785
  H      2.741380    4.513109   -5.824701
  H      4.287548    4.521260   -6.614341
  H      2.278938    1.735250   -2.725496
  H      2.377466    1.625787   -4.475869
  O      4.737055    0.854112   -1.122825
  F      5.928146    2.168108   -2.491365
  H      3.861246    3.597252   -2.662979
  H      2.446493    3.973461   -3.656556

 Total Charge           Charge          ....    0
 Multiplicity           Mult            ....    1
 Number of Electrons    NEL             ....   70
 Basis Dimension        Dim             ....  339

ORBITAL ENERGIES
----------------

  NO   OCC          E(Eh)            E(eV)
   0   2.0000     -24.557023      -668.2306
   1   2.0000     -18.991672      -516.7897
   2   2.0000     -14.213480      -386.7685
   3   2.0000     -10.301387      -280.3150
   4   2.0000     -10.141798      -275.9724
   5   2.0000     -10.139650      -275.9139
   6   2.0000     -10.136127      -275.8180
   7   2.0000     -10.126423      -275.5540
   8   2.0000     -10.033484      -273.0250
   9   2.0000      -1.473975       -40.1089
  10   2.0000      -1.221548       -33.2400
  11   2.0000      -1.102555       -30.0021
  12   2.0000      -1.001581       -27.2544
  13   2.0000      -0.926813       -25.2199
  14   2.0000      -0.882011       -24.0007
  15   2.0000      -0.834957       -22.7203
  16   2.0000      -0.781885       -21.2762
  17   2.0000      -0.741068       -20.1655
  18   2.0000      -0.701699       -19.0942
  19   2.0000      -0.687515       -18.7082
  20   2.0000      -0.674368       -18.3505
  21   2.0000      -0.655139       -17.8273
  22   2.0000      -0.630069       -17.1451
  23   2.0000      -0.609005       -16.5719
  24   2.0000      -0.590457       -16.0672
  25   2.0000      -0.562492       -15.3062
  26   2.0000      -0.535603       -14.5745
  27   2.0000      -0.522416       -14.2157
  28   2.0000      -0.513263       -13.9666
  29   2.0000      -0.501793       -13.6545
  30   2.0000      -0.483239       -13.1496
  31   2.0000      -0.467327       -12.7166
  32   2.0000      -0.457381       -12.4460
  33   2.0000      -0.431535       -11.7427
  34   2.0000      -0.314174        -8.5491
  35   0.0000       0.072961         1.9854
  36   0.0000       0.107010         2.9119
  37   0.0000       0.126024         3.4293
  38   0.0000       0.140823         3.8320
  39   0.0000       0.149725         4.0742

MULLIKEN ATOMIC CHARGES
-----------------------
   0 C :   -0.488255
   1 C :   -0.216177
   2 C :   -0.418511
   3 H :    0.177125
   4 H :    0.220208
   5 C :    0.300146
   6 C :    0.291402
   7 N :   -0.503795
   8 C :   -0.525981
   9 H :    0.126998
  10 H :    0.150023
  11 H :    0.248644
  12 H :    0.253983
  13 H :    0.167549
  14 H :    0.152297
  15 O :   -0.250377
  16 F :   -0.059587
  17 H :    0.220743
  18 H :    0.153568
Sum of atomic charges:   -0.0000000

LOEWDIN ATOMIC CHARGES
----------------------
   0 C :   -0.228045
   1 C :   -0.263340
   2 C :   -0.246548
   3 H :    0.159699
   4 H :    0.158737
   5 C :   -0.506373
   6 C :   -0.377873
   7 N :   -0.023681
   8 C :   -0.276542
   9 H :    0.104726
  10 H :    0.095134
  11 H :    0.172223
  12 H :    0.174105
  13 H :    0.153185
  14 H :    0.149737
  15 O :    0.114900
  16 F :    0.329714
  17 H :    0.162153
  18 H :    0.148089

  Mayer bond orders larger than 0.100000
B(  0-C ,  1-C ) :   0.9119 B(  0-C ,  6-C ) :   0.8680 B(  0-C , 17-H ) :   1.0008
B(  0-C , 18-H ) :   0.9904 B(  1-C ,  2-C ) :   0.9391 B(  1-C , 13-H ) :   0.9745
B(  1-C , 14-H ) :   0.9627 B(  2-C ,  3-H ) :   0.9631 B(  2-C ,  4-H ) :   0.9464
B(  2-C ,  5-C ) :   0.9677 B(  5-C , 15-O ) :   2.1425 B(  5-C , 16-F ) :   1.1299
B(  6-C ,  7-N ) :   1.1225 B(  6-C ,  8-C ) :   1.7005 B(  7-N , 11-H ) :   0.9246
B(  7-N , 12-H ) :   0.9229 B(  8-C ,  9-H ) :   0.9955 B(  8-C , 10-H ) :   1.0112

FINAL SINGLE POINT ENERGY      -463.213233353266

DIPOLE MOMENT
-------------
                                X             Y             Z
Electronic contribution:      6.14534      -2.82371       7.06995
Nuclear contribution   :     -6.99695       3.07955      -8.37829
                        -----------------------------------------
Total Dipole Moment    :     -0.85161       0.25584      -1.30834
                        -----------------------------------------
Magnitude (a.u.)       :      1.58191
Magnitude (Debye)      :      4.02090

Rotational constants in cm-1:     0.106302     0.035771     0.030198
Rotational constants in MHz :  3186.860872  1072.397550   905.318354

                             ****ORCA TERMINATED NORMALLY****
TOTAL RUN TIME: 0 days 0 hours 0 minutes 25 seconds 90 msec
