                         Program Version 5.0.0 -  RELEASE  -
|  1> !LC-PBE RIJCOSX def2-SVPD def2/J TightSCF
|  2> *xyz -1 1
|  3> C         -0.77455        2.78833       -0.54394
|  4> C          0.69721        3.22791       -0.52513
|  5> O          1.48929        2.37470        0.19919
|  6> H          0.71600        4.26403       -0.13077
|  7> H          1.03615        3.33092       -1.58367
|  8> H         -1.34746        3.48478       -1.11982
|  9> H         -1.15078        2.75876        0.45729
| 10> H         -0.85058        1.81526       -0.98241
| 11> *
| 12>
| 13> %MaxCore 64000
| 14> %pal nprocs 4
| 15> end
| 16>
| 17> %scf
| 18>   MaxIter 150
| 19> end
| 20>
| 21>
| 22>                          ****END OF INPUT****

CARTESIAN COORDINATES (ANGSTROEM)
---------------------------------
  C     -0.774550    2.788330   -0.543940
  C      0.697210    3.227910   -0.525130
  O      1.489290    2.374700    0.199190
  H      0.716000    4.264030   -0.130770
  H      1.036150    3.330920   -1.583670
  H     -1.347460    3.484780   -1.119820
  H     -1.150780    2.758760    0.457290
  H     -0.850580    1.815260   -0.982410

 Total Charge           Charge          ....   -1
 Multiplicity           Mult            ....    1
 Number of Electrons    NEL             ....   26
 Basis Dimension        Dim             ....  103

ORBITAL ENERGIES
----------------

  NO   OCC          E(Eh)            E(eV)
   0   2.0000     -18.647404      -507.4217
   1   2.0000      -9.939681      -270.4725
   2   2.0000      -9.916846      -269.8511
   3   2.0000      -0.832095       -22.6425
   4   2.0000      -0.687757       -18.7148
   5   2.0000      -0.522650       -14.2220
   6   2.0000      -0.394792       -10.7428
   7   2.0000      -0.367384        -9.9970
   8   2.0000      -0.310008        -8.4358
   9   2.0000      -0.287384        -7.8201
  10   2.0000      -0.241370        -6.5680
  11   2.0000      -0.091797        -2.4979
  12   2.0000      -0.089204        -2.4274
  13   0.0000       0.244608         6.6561
  14   0.0000       0.276882         7.5344
  15   0.0000       0.317363         8.6359
  16   0.0000       0.330160         8.9841
  17   0.0000       0.345144         9.3918

MULLIKEN ATOMIC CHARGES
-----------------------
   0 C :    0.138767
   1 C :   -0.039614
   2 O :   -0.869550
   3 H :   -0.089504
   4 H :   -0.079153
   5 H :   -0.003803
   6 H :   -0.027892
   7 H :   -0.029252
Sum of atomic charges:   -1.0000000

LOEWDIN ATOMIC CHARGES
----------------------
   0 C :    0.028161
   1 C :   -0.293639
   2 O :   -0.597949
   3 H :   -0.019248
   4 H :   -0.015044
   5 H :   -0.044539
   6 H :   -0.028618
   7 H :   -0.029123

  Mayer bond orders larger than 0.100000
B(  0-C ,  1-C ) :   1.1894 B(  0-C ,  5-H ) :   0.9032 B(  0-C ,  6-H ) :   0.9243
B(  0-C ,  7-H ) :   0.9273 B(  1-C ,  2-O ) :   1.2917 B(  1-C ,  3-H ) :   0.9945
B(  1-C ,  4-H ) :   1.0005 B(  1-C ,  6-H ) :   0.1398 B(  1-C ,  7-H ) :   0.1385

FINAL SINGLE POINT ENERGY      -153.847560285910

DIPOLE MOMENT
-------------
                                X             Y             Z
Electronic contribution:      2.22592      -0.91934       1.06594
Nuclear contribution   :     -3.69910       1.55962      -1.78699
                        -----------------------------------------
Total Dipole Moment    :     -1.47318       0.64028      -0.72106
                        -----------------------------------------
Magnitude (a.u.)       :      1.76072
Magnitude (Debye)      :      4.47540

Rotational constants in cm-1:     1.268893     0.327436     0.287754
Rotational constants in MHz : 38040.440181  9816.269339  8626.646564

                             ****ORCA TERMINATED NORMALLY****
TOTAL RUN TIME: 0 days 0 hours 0 minutes 10 seconds 601 msec
