                         Program Version 5.0.0 -  RELEASE  -
|  1> !LC-PBE RIJCOSX def2-SVPD def2/J TightSCF
|  2> *xyz 1 1
|  3> C          3.95643        0.50147       -0.37910
|  4> H          3.16840        0.02920        0.20738
|  5> N          3.80389        1.96157       -0.15675
|  6> C          3.84232        0.14849       -1.85406
|  7> H          4.92323        0.17798        0.00937
|  8> H          4.20643        2.24441        0.74536
|  9> H          2.80827        2.21132       -0.09610
| 10> H          4.28076        2.50155       -0.89104
| 11> H          4.62951        0.62800       -2.39748
| 12> H          2.89665        0.48102       -2.22825
| 13> H          3.92053       -0.91187       -1.97413
| 14> *
| 15>
| 16> %MaxCore 64000
| 17> %pal nprocs 4
| 18> end
| 19>
| 20> %scf
| 21>   MaxIter 150
| 22> end
| 23>
| 24>
| 25>                          ****END OF INPUT****

CARTESIAN COORDINATES (ANGSTROEM)
---------------------------------
  C      3.956430    0.501470   -0.379100
  H      3.168400    0.029200    0.207380
  N      3.803890    1.961570   -0.156750
  C      3.842320    0.148490   -1.854060
  H      4.923230    0.177980    0.009370
  H      4.206430    2.244410    0.745360
  H      2.808270    2.211320   -0.096100
  H      4.280760    2.501550   -0.891040
  H      4.629510    0.628000   -2.397480
  H      2.896650    0.481020   -2.228250
  H      3.920530   -0.911870   -1.974130

 Total Charge           Charge          ....    1
 Multiplicity           Mult            ....    1
 Number of Electrons    NEL             ....   26
 Basis Dimension        Dim             ....  124

ORBITAL ENERGIES
----------------

  NO   OCC          E(Eh)            E(eV)
   0   2.0000     -14.566298      -396.3691
   1   2.0000     -10.382312      -282.5171
   2   2.0000     -10.301301      -280.3127
   3   2.0000      -1.384346       -37.6700
   4   2.0000      -1.135422       -30.8964
   5   2.0000      -1.003988       -27.3199
   6   2.0000      -0.954194       -25.9649
   7   2.0000      -0.934479       -25.4285
   8   2.0000      -0.841637       -22.9021
   9   2.0000      -0.785606       -21.3774
  10   2.0000      -0.718715       -19.5572
  11   2.0000      -0.702194       -19.1077
  12   2.0000      -0.681211       -18.5367
  13   0.0000      -0.109774        -2.9871
  14   0.0000      -0.050970        -1.3870
  15   0.0000      -0.048743        -1.3264
  16   0.0000      -0.044175        -1.2021
  17   0.0000      -0.012002        -0.3266

MULLIKEN ATOMIC CHARGES
-----------------------
   0 C :    0.007584
   1 H :    0.024962
   2 N :   -0.873429
   3 C :    0.318909
   4 H :    0.046485
   5 H :    0.398632
   6 H :    0.438083
   7 H :    0.441582
   8 H :    0.044415
   9 H :    0.076220
  10 H :    0.076558
Sum of atomic charges:    1.0000000

LOEWDIN ATOMIC CHARGES
----------------------
   0 C :    0.026370
   1 H :    0.063478
   2 N :    0.310652
   3 C :    0.135663
   4 H :    0.064679
   5 H :    0.115582
   6 H :    0.119113
   7 H :    0.115374
   8 H :    0.011168
   9 H :    0.012246
  10 H :    0.025675

  Mayer bond orders larger than 0.100000
B(  0-C ,  1-H ) :   0.9539 B(  0-C ,  2-N ) :   0.7911 B(  0-C ,  3-C ) :   1.3093
B(  0-C ,  4-H ) :   0.9681 B(  0-C ,  8-H ) :   0.1196 B(  0-C ,  9-H ) :   0.1086
B(  0-C , 10-H ) :   0.1431 B(  2-N ,  5-H ) :   0.7593 B(  2-N ,  6-H ) :   0.7107
B(  2-N ,  7-H ) :   0.6903 B(  3-C ,  8-H ) :   0.8758 B(  3-C ,  9-H ) :   0.8640
B(  3-C , 10-H ) :   0.8642

FINAL SINGLE POINT ENERGY      -134.992197630929

DIPOLE MOMENT
-------------
                                X             Y             Z
Electronic contribution:     -0.01386       1.36158       1.26824
Nuclear contribution   :     -0.06214      -0.04120      -0.39947
                        -----------------------------------------
Total Dipole Moment    :     -0.07600       1.32038       0.86877
                        -----------------------------------------
Magnitude (a.u.)       :      1.58238
Magnitude (Debye)      :      4.02210

Rotational constants in cm-1:     1.011771     0.281435     0.249812
Rotational constants in MHz : 30332.138762  8437.210602  7489.166323

                             ****ORCA TERMINATED NORMALLY****
TOTAL RUN TIME: 0 days 0 hours 0 minutes 12 seconds 523 msec
