                         Program Version 5.0.0 -  RELEASE  -
|  1> !LC-PBE RIJCOSX def2-SVPD def2/J TightSCF
|  2> *xyz 0 1
|  3> C         -0.77455        2.78833       -0.54394
|  4> C          0.69721        3.22791       -0.52513
|  5> F          1.48929        2.37470        0.19919
|  6> H          0.71600        4.26403       -0.13077
|  7> H          1.03615        3.33092       -1.58367
|  8> H         -1.34746        3.48478       -1.11982
|  9> H         -1.15078        2.75876        0.45729
| 10> H         -0.85058        1.81526       -0.98241
| 11> *
| 12>
| 13> %MaxCore 64000
| 14> %pal nprocs 4
| 15> end
| 16>
| 17> %scf
| 18>   MaxIter 150
| 19> end
| 20>
| 21>
| 22>                          ****END OF INPUT****

CARTESIAN COORDINATES (ANGSTROEM)
---------------------------------
  C     -0.774550    2.788330   -0.543940
  C      0.697210    3.227910   -0.525130
  F      1.489290    2.374700    0.199190
  H      0.716000    4.264030   -0.130770
  H      1.036150    3.330920   -1.583670
  H     -1.347460    3.484780   -1.119820
  H     -1.150780    2.758760    0.457290
  H     -0.850580    1.815260   -0.982410

 Total Charge           Charge          ....    0
 Multiplicity           Mult            ....    1
 Number of Electrons    NEL             ....   26
 Basis Dimension        Dim             ....  103

ORBITAL ENERGIES
----------------

  NO   OCC          E(Eh)            E(eV)
   0   2.0000     -24.495063      -666.5445
   1   2.0000     -10.210638      -277.8456
   2   2.0000     -10.123747      -275.4812
   3   2.0000      -1.340491       -36.4766
   4   2.0000      -0.935570       -25.4582
   5   2.0000      -0.789756       -21.4904
   6   2.0000      -0.660721       -17.9791
   7   2.0000      -0.650075       -17.6894
   8   2.0000      -0.609053       -16.5732
   9   2.0000      -0.547537       -14.8992
  10   2.0000      -0.538298       -14.6478
  11   2.0000      -0.473729       -12.8908
  12   2.0000      -0.463451       -12.6111
  13   0.0000       0.091200         2.4817
  14   0.0000       0.121234         3.2989
  15   0.0000       0.155609         4.2343
  16   0.0000       0.158410         4.3106
  17   0.0000       0.187265         5.0957

MULLIKEN ATOMIC CHARGES
-----------------------
   0 C :    0.089872
   1 C :    0.207294
   2 F :   -0.421118
   3 H :    0.020731
   4 H :    0.032422
   5 H :    0.039640
   6 H :    0.016500
   7 H :    0.014657
Sum of atomic charges:   -0.0000000

LOEWDIN ATOMIC CHARGES
----------------------
   0 C :    0.099609
   1 C :    0.031908
   2 F :   -0.211893
   3 H :    0.041153
   4 H :    0.046160
   5 H :   -0.001612
   6 H :   -0.002434
   7 H :   -0.002891

  Mayer bond orders larger than 0.100000
B(  0-C ,  1-C ) :   1.3171 B(  0-C ,  5-H ) :   0.8901 B(  0-C ,  6-H ) :   0.9212
B(  0-C ,  7-H ) :   0.9243 B(  1-C ,  2-F ) :   0.8135 B(  1-C ,  3-H ) :   0.9685
B(  1-C ,  4-H ) :   0.9696 B(  1-C ,  6-H ) :   0.1056 B(  1-C ,  7-H ) :   0.1037

FINAL SINGLE POINT ENERGY      -178.438482771332

DIPOLE MOMENT
-------------
                                X             Y             Z
Electronic contribution:      4.37443      -1.61004       1.96378
Nuclear contribution   :     -4.89513       2.05627      -2.36166
                        -----------------------------------------
Total Dipole Moment    :     -0.52070       0.44623      -0.39789
                        -----------------------------------------
Magnitude (a.u.)       :      0.79283
Magnitude (Debye)      :      2.01520

Rotational constants in cm-1:     1.247826     0.304622     0.269019
Rotational constants in MHz : 37408.889506  9132.346906  8064.979146

                             ****ORCA TERMINATED NORMALLY****
TOTAL RUN TIME: 0 days 0 hours 0 minutes 9 seconds 329 msec
