                         Program Version 5.0.0 -  RELEASE  -
|  1> !LC-PBE RIJCOSX def2-SVPD def2/J TightSCF
|  2> *xyz 0 1
|  3> C          3.95643        0.50147       -0.37910
|  4> H          3.16840        0.02920        0.20738
|  5> C          3.80389        1.96157       -0.15675
|  6> C          3.84232        0.14849       -1.85406
|  7> H          4.92323        0.17798        0.00937
|  8> H          4.20643        2.24441        0.74536
|  9> H          2.80827        2.21132       -0.09610
| 10> H          4.28076        2.50155       -0.89104
| 11> H          4.62951        0.62800       -2.39748
| 12> H          2.89665        0.48102       -2.22825
| 13> H          3.92053       -0.91187       -1.97413
| 14> *
| 15>
| 16> %MaxCore 64000
| 17> %pal nprocs 4
| 18> end
| 19>
| 20> %scf
| 21>   MaxIter 150
| 22> end
| 23>
| 24>
| 25>                          ****END OF INPUT****

CARTESIAN COORDINATES (ANGSTROEM)
---------------------------------
  C      3.956430    0.501470   -0.379100
  H      3.168400    0.029200    0.207380
  C      3.803890    1.961570   -0.156750
  C      3.842320    0.148490   -1.854060
  H      4.923230    0.177980    0.009370
  H      4.206430    2.244410    0.745360
  H      2.808270    2.211320   -0.096100
  H      4.280760    2.501550   -0.891040
  H      4.629510    0.628000   -2.397480
  H      2.896650    0.481020   -2.228250
  H      3.920530   -0.911870   -1.974130

 Total Charge           Charge          ....    0
 Multiplicity           Mult            ....    1
 Number of Electrons    NEL             ....   26
 Basis Dimension        Dim             ....  124

ORBITAL ENERGIES
----------------

  NO   OCC          E(Eh)            E(eV)
   0   2.0000     -10.113689      -275.2075
   1   2.0000     -10.103971      -274.9430
   2   2.0000     -10.086580      -274.4698
   3   2.0000      -0.966398       -26.2970
   4   2.0000      -0.853872       -23.2350
   5   2.0000      -0.739794       -20.1308
   6   2.0000      -0.617440       -16.8014
   7   2.0000      -0.591078       -16.0840
   8   2.0000      -0.540897       -14.7185
   9   2.0000      -0.526589       -14.3292
  10   2.0000      -0.467779       -12.7289
  11   2.0000      -0.464089       -12.6285
  12   2.0000      -0.452114       -12.3026
  13   0.0000       0.096355         2.6220
  14   0.0000       0.121593         3.3087
  15   0.0000       0.129329         3.5192
  16   0.0000       0.162282         4.4159
  17   0.0000       0.181355         4.9349

MULLIKEN ATOMIC CHARGES
-----------------------
   0 C :   -0.691884
   1 H :   -0.009969
   2 C :    0.643874
   3 C :    0.371164
   4 H :   -0.014838
   5 H :   -0.096708
   6 H :   -0.084585
   7 H :   -0.140847
   8 H :    0.027958
   9 H :    0.006783
  10 H :   -0.010948
Sum of atomic charges:    0.0000000

LOEWDIN ATOMIC CHARGES
----------------------
   0 C :   -0.144566
   1 H :    0.032268
   2 C :    0.078951
   3 C :    0.080157
   4 H :    0.032506
   5 H :   -0.023414
   6 H :   -0.017314
   7 H :   -0.019721
   8 H :   -0.005282
   9 H :   -0.003219
  10 H :   -0.010366

  Mayer bond orders larger than 0.100000
B(  0-C ,  1-H ) :   0.9756 B(  0-C ,  2-C ) :   1.2962 B(  0-C ,  3-C ) :   1.2586
B(  0-C ,  4-H ) :   0.9819 B(  0-C ,  5-H ) :   0.1654 B(  0-C ,  6-H ) :   0.2063
B(  0-C ,  7-H ) :   0.1599 B(  0-C ,  8-H ) :   0.1212 B(  0-C ,  9-H ) :   0.1478
B(  0-C , 10-H ) :   0.1493 B(  2-C ,  5-H ) :   0.7861 B(  2-C ,  6-H ) :   0.7579
B(  2-C ,  7-H ) :   0.8181 B(  3-C ,  8-H ) :   0.8715 B(  3-C ,  9-H ) :   0.8759
B(  3-C , 10-H ) :   0.8715

FINAL SINGLE POINT ENERGY      -118.613827346633

DIPOLE MOMENT
-------------
                                X             Y             Z
Electronic contribution:      0.08011      -0.29654       0.23590
Nuclear contribution   :     -0.08172       0.30475      -0.19303
                        -----------------------------------------
Total Dipole Moment    :     -0.00160       0.00821       0.04287
                        -----------------------------------------
Magnitude (a.u.)       :      0.04368
Magnitude (Debye)      :      0.11101

Rotational constants in cm-1:     1.020248     0.295755     0.261591
Rotational constants in MHz : 30586.266829  8866.511639  7842.297953

                             ****ORCA TERMINATED NORMALLY****
TOTAL RUN TIME: 0 days 0 hours 0 minutes 13 seconds 968 msec
