                         Program Version 5.0.0 -  RELEASE  -
|  1> !BLYP D3BJ RIJCOSX def2-SVPD def2/J TightSCF
|  2> *xyz -1 1
|  3> C         -0.15102        0.25496       -4.09426
|  4> C         -0.72184       -0.99951       -3.43931
|  5> H         -1.08340       -1.69755       -4.20566
|  6> H         -1.58106       -0.72385       -2.82049
|  7> C          0.28725       -1.71177       -2.52740
|  8> H          1.13178       -2.06738       -3.15940
|  9> H         -0.20414       -2.63733       -2.17048
| 10> O          0.71050       -0.92751       -1.48177
| 11> H         -0.89787        0.70479       -4.71455
| 12> H          0.69695       -0.00870       -4.69119
| 13> H          0.14812        0.94842       -3.33628
| 14> *
| 15> %MaxCore 64000
| 16>
| 17> %pal nprocs 4
| 18> end
| 19>
| 20> %scf
| 21>   MaxIter 150
| 22> end
| 23>
| 24>
| 25>                          ****END OF INPUT****

CARTESIAN COORDINATES (ANGSTROEM)
---------------------------------
  C     -0.151020    0.254960   -4.094260
  C     -0.721840   -0.999510   -3.439310
  H     -1.083400   -1.697550   -4.205660
  H     -1.581060   -0.723850   -2.820490
  C      0.287250   -1.711770   -2.527400
  H      1.131780   -2.067380   -3.159400
  H     -0.204140   -2.637330   -2.170480
  O      0.710500   -0.927510   -1.481770
  H     -0.897870    0.704790   -4.714550
  H      0.696950   -0.008700   -4.691190
  H      0.148120    0.948420   -3.336280

 Total Charge           Charge          ....   -1
 Multiplicity           Mult            ....    1
 Number of Electrons    NEL             ....   34
 Basis Dimension        Dim             ....  139

ORBITAL ENERGIES
----------------

  NO   OCC          E(Eh)            E(eV)
   0   2.0000     -18.473584      -502.6918
   1   2.0000      -9.741250      -265.0729
   2   2.0000      -9.740905      -265.0635
   3   2.0000      -9.731891      -264.8182
   4   2.0000      -0.591633       -16.0992
   5   2.0000      -0.500969       -13.6321
   6   2.0000      -0.393844       -10.7170
   7   2.0000      -0.300548        -8.1783
   8   2.0000      -0.222927        -6.0662
   9   2.0000      -0.215749        -5.8708
  10   2.0000      -0.172111        -4.6834
  11   2.0000      -0.142133        -3.8676
  12   2.0000      -0.118316        -3.2195
  13   2.0000      -0.110119        -2.9965
  14   2.0000      -0.069962        -1.9038
  15   2.0000       0.063452         1.7266
  16   2.0000       0.068242         1.8570
  17   0.0000       0.148588         4.0433
  18   0.0000       0.173513         4.7215
  19   0.0000       0.188308         5.1241
  20   0.0000       0.214165         5.8277
  21   0.0000       0.229542         6.2461

MULLIKEN ATOMIC CHARGES
-----------------------
   0 C :    0.971419
   1 C :   -0.302755
   2 H :   -0.192745
   3 H :   -0.177150
   4 C :    0.608399
   5 H :   -0.226897
   6 H :   -0.303718
   7 O :   -0.816351
   8 H :   -0.231012
   9 H :   -0.186478
  10 H :   -0.142712
Sum of atomic charges:   -1.0000000

LOEWDIN ATOMIC CHARGES
----------------------
   0 C :    0.096784
   1 C :   -0.107915
   2 H :   -0.022102
   3 H :   -0.004900
   4 C :   -0.218961
   5 H :   -0.038096
   6 H :   -0.045863
   7 O :   -0.521812
   8 H :   -0.056105
   9 H :   -0.042224
  10 H :   -0.038806

  Mayer bond orders larger than 0.100000
B(  0-C ,  1-C ) :   1.2618 B(  0-C ,  2-H ) :   0.1128 B(  0-C ,  3-H ) :   0.1051
B(  0-C ,  8-H ) :   0.6868 B(  0-C ,  9-H ) :   0.7409 B(  0-C , 10-H ) :   0.7506
B(  1-C ,  2-H ) :   0.9720 B(  1-C ,  3-H ) :   0.9024 B(  1-C ,  4-C ) :   1.0329
B(  1-C ,  5-H ) :   0.1779 B(  1-C ,  6-H ) :   0.2095 B(  1-C ,  7-O ) :   0.2243
B(  1-C ,  8-H ) :   0.2702 B(  1-C ,  9-H ) :   0.2487 B(  1-C , 10-H ) :   0.2609
B(  2-H ,  4-C ) :   0.1283 B(  3-H ,  4-C ) :   0.1723 B(  4-C ,  5-H ) :   0.8967
B(  4-C ,  6-H ) :   0.8798 B(  4-C ,  7-O ) :   1.1606

Dispersion correction           -0.013561160
FINAL SINGLE POINT ENERGY      -193.535719367045

DIPOLE MOMENT
-------------
                                X             Y             Z
Electronic contribution:      1.11113      -0.15856       2.90589
Nuclear contribution   :     -1.95025       0.39850      -4.64834
                        -----------------------------------------
Total Dipole Moment    :     -0.83912       0.23994      -1.74245
                        -----------------------------------------
Magnitude (a.u.)       :      1.94880
Magnitude (Debye)      :      4.95346

Rotational constants in cm-1:     0.507767     0.175836     0.148827
Rotational constants in MHz : 15222.471408  5271.439482  4461.706759

                             ****ORCA TERMINATED NORMALLY****
TOTAL RUN TIME: 0 days 0 hours 0 minutes 4 seconds 661 msec
