                         Program Version 5.0.0 -  RELEASE  -
|  1> !BLYP D3BJ RIJCOSX def2-SVPD def2/J TightSCF
|  2> *xyz 1 1
|  3> C          3.48828        1.60092       -1.52204
|  4> C          4.34297        1.31342       -2.75683
|  5> N          2.81029        0.42878       -1.01420
|  6> H          5.13203        0.60499       -2.48447
|  7> C          3.53590        0.74925       -3.92460
|  8> H          4.84125        2.24214       -3.05408
|  9> H          2.71455        2.33145       -1.76030
| 10> H          4.09099        2.06315       -0.73338
| 11> C          3.29098       -0.41802       -0.12908
| 12> N          2.51754       -1.43202        0.23936
| 13> N          4.53549       -0.28441        0.39580
| 14> H          5.04363        0.57189        0.22290
| 15> H          4.72335       -0.73327        1.28180
| 16> H          1.93479        0.10230       -1.40379
| 17> H          1.67464       -1.50562       -0.31610
| 18> H          2.92850       -2.21850        0.72549
| 19> H          4.18704        0.56990       -4.75451
| 20> H          2.78096        1.45217       -4.20898
| 21> H          3.07436       -0.16949       -3.62832
| 22> *
| 23> %MaxCore 64000
| 24>
| 25> %pal nprocs 4
| 26> end
| 27>
| 28> %scf
| 29>   MaxIter 150
| 30> end
| 31>
| 32>
| 33>                          ****END OF INPUT****

CARTESIAN COORDINATES (ANGSTROEM)
---------------------------------
  C      3.488280    1.600920   -1.522040
  C      4.342970    1.313420   -2.756830
  N      2.810290    0.428780   -1.014200
  H      5.132030    0.604990   -2.484470
  C      3.535900    0.749250   -3.924600
  H      4.841250    2.242140   -3.054080
  H      2.714550    2.331450   -1.760300
  H      4.090990    2.063150   -0.733380
  C      3.290980   -0.418020   -0.129080
  N      2.517540   -1.432020    0.239360
  N      4.535490   -0.284410    0.395800
  H      5.043630    0.571890    0.222900
  H      4.723350   -0.733270    1.281800
  H      1.934790    0.102300   -1.403790
  H      1.674640   -1.505620   -0.316100
  H      2.928500   -2.218500    0.725490
  H      4.187040    0.569900   -4.754510
  H      2.780960    1.452170   -4.208980
  H      3.074360   -0.169490   -3.628320

 Total Charge           Charge          ....    1
 Multiplicity           Mult            ....    1
 Number of Electrons    NEL             ....   56
 Basis Dimension        Dim             ....  236

ORBITAL ENERGIES
----------------

  NO   OCC          E(Eh)            E(eV)
   0   2.0000     -14.248327      -387.7167
   1   2.0000     -14.245535      -387.6407
   2   2.0000     -14.243206      -387.5773
   3   2.0000     -10.244759      -278.7741
   4   2.0000     -10.126960      -275.5686
   5   2.0000     -10.065841      -273.9055
   6   2.0000     -10.039204      -273.1806
   7   2.0000      -1.117596       -30.4113
   8   2.0000      -1.013155       -27.5693
   9   2.0000      -1.000773       -27.2324
  10   2.0000      -0.859949       -23.4004
  11   2.0000      -0.787381       -21.4257
  12   2.0000      -0.758091       -20.6287
  13   2.0000      -0.721470       -19.6322
  14   2.0000      -0.704839       -19.1796
  15   2.0000      -0.667264       -18.1572
  16   2.0000      -0.639338       -17.3973
  17   2.0000      -0.630468       -17.1559
  18   2.0000      -0.601805       -16.3760
  19   2.0000      -0.582334       -15.8461
  20   2.0000      -0.548263       -14.9190
  21   2.0000      -0.531521       -14.4634
  22   2.0000      -0.503969       -13.7137
  23   2.0000      -0.458829       -12.4854
  24   2.0000      -0.447474       -12.1764
  25   2.0000      -0.439996       -11.9729
  26   2.0000      -0.430913       -11.7257
  27   2.0000      -0.407041       -11.0761
  28   0.0000      -0.200686        -5.4609
  29   0.0000      -0.180716        -4.9175
  30   0.0000      -0.150396        -4.0925
  31   0.0000      -0.132438        -3.6038
  32   0.0000      -0.109873        -2.9898

MULLIKEN ATOMIC CHARGES
-----------------------
   0 C :    1.045106
   1 C :   -0.040604
   2 N :   -0.318003
   3 H :   -0.140848
   4 C :    1.131620
   5 H :   -0.241162
   6 H :   -0.413373
   7 H :   -0.236650
   8 C :    0.938847
   9 N :    0.303766
  10 N :    0.303549
  11 H :   -0.118101
  12 H :   -0.221044
  13 H :   -0.240724
  14 H :   -0.059538
  15 H :   -0.153186
  16 H :   -0.214232
  17 H :   -0.086213
  18 H :   -0.239211
Sum of atomic charges:    1.0000000

LOEWDIN ATOMIC CHARGES
----------------------
   0 C :    0.077636
   1 C :   -0.040543
   2 N :    0.064713
   3 H :    0.017676
   4 C :    0.151491
   5 H :    0.034352
   6 H :    0.040096
   7 H :    0.023715
   8 C :   -0.058939
   9 N :    0.283830
  10 N :    0.303480
  11 H :    0.003140
  12 H :    0.029262
  13 H :    0.051252
  14 H :    0.027856
  15 H :    0.039658
  16 H :   -0.006081
  17 H :   -0.010653
  18 H :   -0.031942

  Mayer bond orders larger than 0.100000
B(  0-C ,  1-C ) :   1.0837 B(  0-C ,  2-N ) :   1.0011 B(  0-C ,  3-H ) :   0.1408
B(  0-C ,  5-H ) :   0.1029 B(  0-C ,  6-H ) :   0.6257 B(  0-C ,  7-H ) :   0.7894
B(  0-C ,  8-C ) :  -0.1143 B(  0-C , 13-H ) :  -0.2510 B(  1-C ,  3-H ) :   0.8365
B(  1-C ,  4-C ) :   1.3087 B(  1-C ,  5-H ) :   0.9018 B(  1-C ,  6-H ) :   0.1506
B(  1-C , 16-H ) :   0.2818 B(  1-C , 17-H ) :   0.2594 B(  1-C , 18-H ) :   0.2498
B(  2-N ,  6-H ) :   0.2773 B(  2-N ,  7-H ) :   0.1423 B(  2-N ,  8-C ) :   1.0806
B(  2-N ,  9-N ) :   0.2833 B(  2-N , 10-N ) :   0.2291 B(  2-N , 13-H ) :   1.2651
B(  4-C , 16-H ) :   0.6918 B(  4-C , 17-H ) :   0.6815 B(  4-C , 18-H ) :   0.7196
B(  6-H ,  7-H ) :  -0.1592 B(  8-C ,  9-N ) :   1.0164 B(  8-C , 10-N ) :   1.0348
B(  8-C , 11-H ) :  -0.1254 B(  8-C , 12-H ) :  -0.1189 B(  8-C , 13-H ) :  -0.2823
B(  8-C , 14-H ) :  -0.1046 B(  9-N , 10-N ) :   0.1436 B(  9-N , 14-H ) :   1.0689
B(  9-N , 15-H ) :   1.1817 B( 10-N , 11-H ) :   1.0506 B( 10-N , 12-H ) :   1.2265
B( 11-H , 12-H ) :  -0.1730 B( 14-H , 15-H ) :  -0.1521

Dispersion correction           -0.031749956
FINAL SINGLE POINT ENERGY      -323.370473074474

DIPOLE MOMENT
-------------
                                X             Y             Z
Electronic contribution:     -1.33571      -2.87003       6.34564
Nuclear contribution   :      1.03951       2.07316      -5.00363
                        -----------------------------------------
Total Dipole Moment    :     -0.29620      -0.79687       1.34201
                        -----------------------------------------
Magnitude (a.u.)       :      1.58863
Magnitude (Debye)      :      4.03797

Rotational constants in cm-1:     0.160664     0.048801     0.043832
Rotational constants in MHz :  4816.589604  1463.007061  1314.037102

                             ****ORCA TERMINATED NORMALLY****
TOTAL RUN TIME: 0 days 0 hours 0 minutes 9 seconds 374 msec
