                         Program Version 5.0.0 -  RELEASE  -
|  1> !BLYP D3BJ RIJCOSX def2-SVPD def2/J TightSCF
|  2> *xyz 0 1
|  3> C         -0.15102        0.25496       -4.09426
|  4> C         -0.72184       -0.99951       -3.43931
|  5> H         -1.08340       -1.69755       -4.20566
|  6> H         -1.58106       -0.72385       -2.82049
|  7> C          0.28725       -1.71177       -2.52740
|  8> H          1.13178       -2.06738       -3.15940
|  9> H         -0.20414       -2.63733       -2.17048
| 10> F          0.71050       -0.92751       -1.48177
| 11> H         -0.89787        0.70479       -4.71455
| 12> H          0.69695       -0.00870       -4.69119
| 13> H          0.14812        0.94842       -3.33628
| 14> *
| 15> %MaxCore 64000
| 16>
| 17> %pal nprocs 4
| 18> end
| 19>
| 20> %scf
| 21>   MaxIter 150
| 22> end
| 23>
| 24>
| 25>                          ****END OF INPUT****

CARTESIAN COORDINATES (ANGSTROEM)
---------------------------------
  C     -0.151020    0.254960   -4.094260
  C     -0.721840   -0.999510   -3.439310
  H     -1.083400   -1.697550   -4.205660
  H     -1.581060   -0.723850   -2.820490
  C      0.287250   -1.711770   -2.527400
  H      1.131780   -2.067380   -3.159400
  H     -0.204140   -2.637330   -2.170480
  F      0.710500   -0.927510   -1.481770
  H     -0.897870    0.704790   -4.714550
  H      0.696950   -0.008700   -4.691190
  H      0.148120    0.948420   -3.336280

 Total Charge           Charge          ....    0
 Multiplicity           Mult            ....    1
 Number of Electrons    NEL             ....   34
 Basis Dimension        Dim             ....  139

ORBITAL ENERGIES
----------------

  NO   OCC          E(Eh)            E(eV)
   0   2.0000     -24.294868      -661.0970
   1   2.0000      -9.998900      -272.0839
   2   2.0000      -9.929035      -270.1828
   3   2.0000      -9.910601      -269.6812
   4   2.0000      -1.077293       -29.3146
   5   2.0000      -0.705167       -19.1886
   6   2.0000      -0.612769       -16.6743
   7   2.0000      -0.528417       -14.3790
   8   2.0000      -0.453877       -12.3506
   9   2.0000      -0.433817       -11.8048
  10   2.0000      -0.413934       -11.2637
  11   2.0000      -0.384368       -10.4592
  12   2.0000      -0.347712        -9.4617
  13   2.0000      -0.327531        -8.9126
  14   2.0000      -0.309040        -8.4094
  15   2.0000      -0.280692        -7.6380
  16   2.0000      -0.279556        -7.6071
  17   0.0000       0.002325         0.0633
  18   0.0000       0.028672         0.7802
  19   0.0000       0.037129         1.0103
  20   0.0000       0.044018         1.1978
  21   0.0000       0.066828         1.8185

MULLIKEN ATOMIC CHARGES
-----------------------
   0 C :    1.017788
   1 C :   -0.192700
   2 H :   -0.210431
   3 H :   -0.205179
   4 C :    0.924497
   5 H :   -0.164168
   6 H :   -0.231402
   7 F :   -0.388988
   8 H :   -0.212730
   9 H :   -0.180847
  10 H :   -0.155841
Sum of atomic charges:    0.0000000

LOEWDIN ATOMIC CHARGES
----------------------
   0 C :    0.135390
   1 C :   -0.058177
   2 H :    0.022878
   3 H :    0.018356
   4 C :    0.087343
   5 H :    0.028977
   6 H :    0.022276
   7 F :   -0.189041
   8 H :   -0.024312
   9 H :   -0.022678
  10 H :   -0.021011

  Mayer bond orders larger than 0.100000
B(  0-C ,  1-C ) :   1.3212 B(  0-C ,  8-H ) :   0.7022 B(  0-C ,  9-H ) :   0.7233
B(  0-C , 10-H ) :   0.7358 B(  1-C ,  2-H ) :   0.8854 B(  1-C ,  3-H ) :   0.8624
B(  1-C ,  4-C ) :   1.1926 B(  1-C ,  5-H ) :   0.1345 B(  1-C ,  6-H ) :   0.1649
B(  1-C ,  8-H ) :   0.2551 B(  1-C ,  9-H ) :   0.2254 B(  1-C , 10-H ) :   0.2398
B(  3-H ,  4-C ) :   0.1206 B(  4-C ,  5-H ) :   0.8371 B(  4-C ,  6-H ) :   0.8198
B(  4-C ,  7-F ) :   0.7981

Dispersion correction           -0.012789102
FINAL SINGLE POINT ENERGY      -218.145814083025

DIPOLE MOMENT
-------------
                                X             Y             Z
Electronic contribution:      2.47792      -0.80399       5.77677
Nuclear contribution   :     -2.76068       0.49992      -6.33880
                        -----------------------------------------
Total Dipole Moment    :     -0.28277      -0.30407      -0.56203
                        -----------------------------------------
Magnitude (a.u.)       :      0.69878
Magnitude (Debye)      :      1.77617

Rotational constants in cm-1:     0.493380     0.165620     0.140427
Rotational constants in MHz : 14791.174622  4965.163858  4209.902284

                             ****ORCA TERMINATED NORMALLY****
TOTAL RUN TIME: 0 days 0 hours 0 minutes 3 seconds 768 msec
