                         Program Version 5.0.0 -  RELEASE  -
|  1> !BLYP D3BJ RIJCOSX def2-SVPD def2/J TightSCF
|  2> *xyz 0 1
|  3> C          3.48828        1.60092       -1.52204
|  4> C          4.34297        1.31342       -2.75683
|  5> C          2.81029        0.42878       -1.01420
|  6> H          5.13203        0.60499       -2.48447
|  7> C          3.53590        0.74925       -3.92460
|  8> H          4.84125        2.24214       -3.05408
|  9> H          2.71455        2.33145       -1.76030
| 10> H          4.09099        2.06315       -0.73338
| 11> C          3.29098       -0.41802       -0.12908
| 12> N          2.51754       -1.43202        0.23936
| 13> N          4.53549       -0.28441        0.39580
| 14> H          5.04363        0.57189        0.22290
| 15> H          4.72335       -0.73327        1.28180
| 16> H          1.93479        0.10230       -1.40379
| 17> H          1.67464       -1.50562       -0.31610
| 18> H          2.92850       -2.21850        0.72549
| 19> H          4.18704        0.56990       -4.75451
| 20> H          2.78096        1.45217       -4.20898
| 21> H          3.07436       -0.16949       -3.62832
| 22> *
| 23> %MaxCore 64000
| 24>
| 25> %pal nprocs 4
| 26> end
| 27>
| 28> %scf
| 29>   MaxIter 150
| 30> end
| 31>
| 32>
| 33>                          ****END OF INPUT****

CARTESIAN COORDINATES (ANGSTROEM)
---------------------------------
  C      3.488280    1.600920   -1.522040
  C      4.342970    1.313420   -2.756830
  C      2.810290    0.428780   -1.014200
  H      5.132030    0.604990   -2.484470
  C      3.535900    0.749250   -3.924600
  H      4.841250    2.242140   -3.054080
  H      2.714550    2.331450   -1.760300
  H      4.090990    2.063150   -0.733380
  C      3.290980   -0.418020   -0.129080
  N      2.517540   -1.432020    0.239360
  N      4.535490   -0.284410    0.395800
  H      5.043630    0.571890    0.222900
  H      4.723350   -0.733270    1.281800
  H      1.934790    0.102300   -1.403790
  H      1.674640   -1.505620   -0.316100
  H      2.928500   -2.218500    0.725490
  H      4.187040    0.569900   -4.754510
  H      2.780960    1.452170   -4.208980
  H      3.074360   -0.169490   -3.628320

 Total Charge           Charge          ....    0
 Multiplicity           Mult            ....    1
 Number of Electrons    NEL             ....   56
 Basis Dimension        Dim             ....  236

ORBITAL ENERGIES
----------------

  NO   OCC          E(Eh)            E(eV)
   0   2.0000     -14.026463      -381.6795
   1   2.0000     -14.022345      -381.5674
   2   2.0000      -9.958712      -270.9903
   3   2.0000      -9.899578      -269.3812
   4   2.0000      -9.898425      -269.3498
   5   2.0000      -9.890996      -269.1477
   6   2.0000      -9.848858      -268.0011
   7   2.0000      -0.862968       -23.4826
   8   2.0000      -0.781399       -21.2629
   9   2.0000      -0.701098       -19.0779
  10   2.0000      -0.641086       -17.4448
  11   2.0000      -0.583662       -15.8822
  12   2.0000      -0.529537       -14.4094
  13   2.0000      -0.506949       -13.7948
  14   2.0000      -0.482709       -13.1352
  15   2.0000      -0.449464       -12.2305
  16   2.0000      -0.417902       -11.3717
  17   2.0000      -0.390126       -10.6159
  18   2.0000      -0.387050       -10.5322
  19   2.0000      -0.357824        -9.7369
  20   2.0000      -0.339911        -9.2494
  21   2.0000      -0.326554        -8.8860
  22   2.0000      -0.314028        -8.5451
  23   2.0000      -0.285953        -7.7812
  24   2.0000      -0.272702        -7.4206
  25   2.0000      -0.270334        -7.3562
  26   2.0000      -0.220579        -6.0023
  27   2.0000      -0.130888        -3.5616
  28   0.0000      -0.007426        -0.2021
  29   0.0000       0.018966         0.5161
  30   0.0000       0.021220         0.5774
  31   0.0000       0.037984         1.0336
  32   0.0000       0.047108         1.2819

MULLIKEN ATOMIC CHARGES
-----------------------
   0 C :    0.600612
   1 C :   -0.052061
   2 C :   -0.142100
   3 H :   -0.207543
   4 C :    1.127922
   5 H :   -0.219957
   6 H :   -0.173613
   7 H :   -0.225657
   8 C :    0.410235
   9 N :    0.258257
  10 N :    0.248630
  11 H :   -0.093792
  12 H :   -0.331158
  13 H :   -0.394356
  14 H :    0.015069
  15 H :   -0.280164
  16 H :   -0.208320
  17 H :   -0.104405
  18 H :   -0.227600
Sum of atomic charges:   -0.0000000

LOEWDIN ATOMIC CHARGES
----------------------
   0 C :   -0.053027
   1 C :   -0.068354
   2 C :   -0.028729
   3 H :    0.010944
   4 C :    0.131903
   5 H :    0.007838
   6 H :    0.011542
   7 H :   -0.000055
   8 C :   -0.231362
   9 N :    0.196932
  10 N :    0.226709
  11 H :   -0.027721
  12 H :   -0.022478
  13 H :   -0.051486
  14 H :   -0.004726
  15 H :   -0.014221
  16 H :   -0.028129
  17 H :   -0.023290
  18 H :   -0.032290

  Mayer bond orders larger than 0.100000
B(  0-C ,  1-C ) :   1.1088 B(  0-C ,  2-C ) :   1.1227 B(  0-C ,  3-H ) :   0.1665
B(  0-C ,  5-H ) :   0.1414 B(  0-C ,  6-H ) :   0.6683 B(  0-C ,  7-H ) :   0.7167
B(  0-C , 13-H ) :   0.3247 B(  1-C ,  2-C ) :   0.1303 B(  1-C ,  3-H ) :   0.8613
B(  1-C ,  4-C ) :   1.3018 B(  1-C ,  5-H ) :   0.8375 B(  1-C ,  6-H ) :   0.1206
B(  1-C ,  7-H ) :   0.1098 B(  1-C , 16-H ) :   0.3069 B(  1-C , 17-H ) :   0.2800
B(  1-C , 18-H ) :   0.2824 B(  2-C ,  6-H ) :   0.2799 B(  2-C ,  7-H ) :   0.3682
B(  2-C ,  8-C ) :   1.5307 B(  2-C ,  9-N ) :   0.3699 B(  2-C , 10-N ) :   0.2186
B(  2-C , 11-H ) :  -0.1273 B(  2-C , 13-H ) :   0.7259 B(  3-H ,  4-C ) :   0.1068
B(  4-C ,  5-H ) :   0.1001 B(  4-C , 16-H ) :   0.6318 B(  4-C , 17-H ) :   0.6851
B(  4-C , 18-H ) :   0.7031 B(  7-H ,  8-C ) :  -0.1289 B(  8-C ,  9-N ) :   0.9469
B(  8-C , 10-N ) :   1.0406 B(  8-C , 13-H ) :   0.2811 B(  9-N , 10-N ) :   0.1233
B(  9-N , 14-H ) :   1.0287 B(  9-N , 15-H ) :   1.1798 B( 10-N , 11-H ) :   1.0208
B( 10-N , 12-H ) :   1.2222 B( 11-H , 12-H ) :  -0.1459 B( 14-H , 15-H ) :  -0.1502

Dispersion correction           -0.033027503
FINAL SINGLE POINT ENERGY      -306.892185616228

DIPOLE MOMENT
-------------
                                X             Y             Z
Electronic contribution:     -0.70166      -2.66890       5.56591
Nuclear contribution   :      0.88816       2.11069      -4.95634
                        -----------------------------------------
Total Dipole Moment    :      0.18650      -0.55821       0.60957
                        -----------------------------------------
Magnitude (a.u.)       :      0.84732
Magnitude (Debye)      :      2.15372

Rotational constants in cm-1:     0.162296     0.048922     0.043870
Rotational constants in MHz :  4865.524396  1466.649652  1315.198467

                             ****ORCA TERMINATED NORMALLY****
TOTAL RUN TIME: 0 days 0 hours 0 minutes 11 seconds 115 msec
