                         Program Version 5.0.0 -  RELEASE  -
|  1> !BLYP D3BJ RIJCOSX def2-SVPD def2/J TightSCF
|  2> *xyz 0 1
|  3> C          3.48828        1.60092       -1.52204
|  4> C          4.34297        1.31342       -2.75683
|  5> N          2.81029        0.42878       -1.01420
|  6> H          5.13203        0.60499       -2.48447
|  7> C          3.53590        0.74925       -3.92460
|  8> H          4.84125        2.24214       -3.05408
|  9> H          2.71455        2.33145       -1.76030
| 10> H          4.09099        2.06315       -0.73338
| 11> C          3.29098       -0.41802       -0.12908
| 12> C          2.51754       -1.43202        0.23936
| 13> N          4.53549       -0.28441        0.39580
| 14> H          5.04363        0.57189        0.22290
| 15> H          4.72335       -0.73327        1.28180
| 16> H          1.93479        0.10230       -1.40379
| 17> H          1.67464       -1.50562       -0.31610
| 18> H          2.92850       -2.21850        0.72549
| 19> H          4.18704        0.56990       -4.75451
| 20> H          2.78096        1.45217       -4.20898
| 21> H          3.07436       -0.16949       -3.62832
| 22> *
| 23> %MaxCore 64000
| 24>
| 25> %pal nprocs 4
| 26> end
| 27>
| 28> %scf
| 29>   MaxIter 150
| 30> end
| 31>
| 32>
| 33>                          ****END OF INPUT****

CARTESIAN COORDINATES (ANGSTROEM)
---------------------------------
  C      3.488280    1.600920   -1.522040
  C      4.342970    1.313420   -2.756830
  N      2.810290    0.428780   -1.014200
  H      5.132030    0.604990   -2.484470
  C      3.535900    0.749250   -3.924600
  H      4.841250    2.242140   -3.054080
  H      2.714550    2.331450   -1.760300
  H      4.090990    2.063150   -0.733380
  C      3.290980   -0.418020   -0.129080
  C      2.517540   -1.432020    0.239360
  N      4.535490   -0.284410    0.395800
  H      5.043630    0.571890    0.222900
  H      4.723350   -0.733270    1.281800
  H      1.934790    0.102300   -1.403790
  H      1.674640   -1.505620   -0.316100
  H      2.928500   -2.218500    0.725490
  H      4.187040    0.569900   -4.754510
  H      2.780960    1.452170   -4.208980
  H      3.074360   -0.169490   -3.628320

 Total Charge           Charge          ....    0
 Multiplicity           Mult            ....    1
 Number of Electrons    NEL             ....   56
 Basis Dimension        Dim             ....  236

ORBITAL ENERGIES
----------------

  NO   OCC          E(Eh)            E(eV)
   0   2.0000     -14.024667      -381.6306
   1   2.0000     -14.024479      -381.6255
   2   2.0000      -9.961701      -271.0717
   3   2.0000      -9.960445      -271.0375
   4   2.0000      -9.923261      -270.0257
   5   2.0000      -9.911796      -269.7137
   6   2.0000      -9.834157      -267.6010
   7   2.0000      -0.872334       -23.7374
   8   2.0000      -0.792713       -21.5708
   9   2.0000      -0.707739       -19.2586
  10   2.0000      -0.647406       -17.6168
  11   2.0000      -0.593906       -16.1610
  12   2.0000      -0.542100       -14.7513
  13   2.0000      -0.525996       -14.3131
  14   2.0000      -0.476742       -12.9728
  15   2.0000      -0.446208       -12.1420
  16   2.0000      -0.428990       -11.6734
  17   2.0000      -0.403118       -10.9694
  18   2.0000      -0.393135       -10.6977
  19   2.0000      -0.363538        -9.8924
  20   2.0000      -0.339141        -9.2285
  21   2.0000      -0.336648        -9.1607
  22   2.0000      -0.329302        -8.9608
  23   2.0000      -0.307722        -8.3735
  24   2.0000      -0.304243        -8.2789
  25   2.0000      -0.298591        -8.1251
  26   2.0000      -0.213794        -5.8176
  27   2.0000      -0.127360        -3.4656
  28   0.0000      -0.007990        -0.2174
  29   0.0000       0.009382         0.2553
  30   0.0000       0.020028         0.5450
  31   0.0000       0.030543         0.8311
  32   0.0000       0.044098         1.2000

MULLIKEN ATOMIC CHARGES
-----------------------
   0 C :    1.064701
   1 C :   -0.068871
   2 N :   -0.120588
   3 H :   -0.146385
   4 C :    1.132298
   5 H :   -0.283455
   6 H :   -0.492296
   7 H :   -0.277836
   8 C :    0.407503
   9 C :    0.715633
  10 N :    0.362685
  11 H :   -0.258238
  12 H :   -0.216232
  13 H :   -0.304681
  14 H :   -0.349962
  15 H :   -0.597366
  16 H :   -0.238140
  17 H :   -0.094930
  18 H :   -0.233841
Sum of atomic charges:    0.0000000

LOEWDIN ATOMIC CHARGES
----------------------
   0 C :    0.048827
   1 C :   -0.058683
   2 N :    0.005339
   3 H :    0.012427
   4 C :    0.134793
   5 H :    0.012970
   6 H :    0.015451
   7 H :    0.005602
   8 C :   -0.241596
   9 C :    0.151119
  10 N :    0.224479
  11 H :   -0.042198
  12 H :   -0.003239
  13 H :    0.026651
  14 H :   -0.111224
  15 H :   -0.104609
  16 H :   -0.023662
  17 H :   -0.023102
  18 H :   -0.029345

  Mayer bond orders larger than 0.100000
B(  0-C ,  1-C ) :   1.0741 B(  0-C ,  2-N ) :   0.9724 B(  0-C ,  3-H ) :   0.1446
B(  0-C ,  5-H ) :   0.1242 B(  0-C ,  6-H ) :   0.5964 B(  0-C ,  7-H ) :   0.7913
B(  0-C , 13-H ) :  -0.2817 B(  1-C ,  3-H ) :   0.8462 B(  1-C ,  4-C ) :   1.2826
B(  1-C ,  5-H ) :   0.9051 B(  1-C ,  6-H ) :   0.1651 B(  1-C ,  7-H ) :   0.1058
B(  1-C , 16-H ) :   0.2907 B(  1-C , 17-H ) :   0.2681 B(  1-C , 18-H ) :   0.2658
B(  2-N ,  6-H ) :   0.2860 B(  2-N ,  7-H ) :   0.1544 B(  2-N ,  8-C ) :   1.1285
B(  2-N ,  9-C ) :   0.2789 B(  2-N , 10-N ) :   0.1357 B(  2-N , 13-H ) :   1.1990
B(  4-C , 16-H ) :   0.6761 B(  4-C , 17-H ) :   0.6826 B(  4-C , 18-H ) :   0.7189
B(  6-H ,  7-H ) :  -0.1659 B(  8-C ,  9-C ) :   1.4876 B(  8-C , 10-N ) :   0.9617
B(  8-C , 13-H ) :  -0.2019 B(  8-C , 14-H ) :   0.3119 B(  8-C , 15-H ) :   0.2700
B(  9-C , 10-N ) :   0.2400 B(  9-C , 14-H ) :   0.7012 B(  9-C , 15-H ) :   0.5338
B( 10-N , 11-H ) :   1.0133 B( 10-N , 12-H ) :   1.1933 B( 11-H , 12-H ) :  -0.1587

Dispersion correction           -0.032598150
FINAL SINGLE POINT ENERGY      -306.880595684390

DIPOLE MOMENT
-------------
                                X             Y             Z
Electronic contribution:     -0.30041      -0.81720       4.29187
Nuclear contribution   :      0.82404       1.70307      -4.68174
                        -----------------------------------------
Total Dipole Moment    :      0.52363       0.88587      -0.38987
                        -----------------------------------------
Magnitude (a.u.)       :      1.10043
Magnitude (Debye)      :      2.79708

Rotational constants in cm-1:     0.164049     0.050262     0.045260
Rotational constants in MHz :  4918.051182  1506.829450  1356.872102

                             ****ORCA TERMINATED NORMALLY****
TOTAL RUN TIME: 0 days 0 hours 0 minutes 10 seconds 194 msec
