                         Program Version 5.0.0 -  RELEASE  -
|  1> !BLYP D3BJ RIJCOSX def2-SVPD def2/J TightSCF
|  2> *xyz 0 1
|  3> C          3.48828        1.60092       -1.52204
|  4> C          4.34297        1.31342       -2.75683
|  5> N          2.81029        0.42878       -1.01420
|  6> H          5.13203        0.60499       -2.48447
|  7> C          3.53590        0.74925       -3.92460
|  8> H          4.84125        2.24214       -3.05408
|  9> H          2.71455        2.33145       -1.76030
| 10> H          4.09099        2.06315       -0.73338
| 11> C          3.29098       -0.41802       -0.12908
| 12> N          2.51754       -1.43202        0.23936
| 13> C          4.53549       -0.28441        0.39580
| 14> H          5.04363        0.57189        0.22290
| 15> H          4.72335       -0.73327        1.28180
| 16> H          1.93479        0.10230       -1.40379
| 17> H          1.67464       -1.50562       -0.31610
| 18> H          2.92850       -2.21850        0.72549
| 19> H          4.18704        0.56990       -4.75451
| 20> H          2.78096        1.45217       -4.20898
| 21> H          3.07436       -0.16949       -3.62832
| 22> *
| 23> %MaxCore 64000
| 24>
| 25> %pal nprocs 4
| 26> end
| 27>
| 28> %scf
| 29>   MaxIter 150
| 30> end
| 31>
| 32>
| 33>                          ****END OF INPUT****

CARTESIAN COORDINATES (ANGSTROEM)
---------------------------------
  C      3.488280    1.600920   -1.522040
  C      4.342970    1.313420   -2.756830
  N      2.810290    0.428780   -1.014200
  H      5.132030    0.604990   -2.484470
  C      3.535900    0.749250   -3.924600
  H      4.841250    2.242140   -3.054080
  H      2.714550    2.331450   -1.760300
  H      4.090990    2.063150   -0.733380
  C      3.290980   -0.418020   -0.129080
  N      2.517540   -1.432020    0.239360
  C      4.535490   -0.284410    0.395800
  H      5.043630    0.571890    0.222900
  H      4.723350   -0.733270    1.281800
  H      1.934790    0.102300   -1.403790
  H      1.674640   -1.505620   -0.316100
  H      2.928500   -2.218500    0.725490
  H      4.187040    0.569900   -4.754510
  H      2.780960    1.452170   -4.208980
  H      3.074360   -0.169490   -3.628320

 Total Charge           Charge          ....    0
 Multiplicity           Mult            ....    1
 Number of Electrons    NEL             ....   56
 Basis Dimension        Dim             ....  236

ORBITAL ENERGIES
----------------

  NO   OCC          E(Eh)            E(eV)
   0   2.0000     -14.030558      -381.7909
   1   2.0000     -14.027145      -381.6980
   2   2.0000      -9.963111      -271.1100
   3   2.0000      -9.954626      -270.8791
   4   2.0000      -9.916344      -269.8374
   5   2.0000      -9.908487      -269.6236
   6   2.0000      -9.835985      -267.6508
   7   2.0000      -0.881219       -23.9792
   8   2.0000      -0.798158       -21.7190
   9   2.0000      -0.696162       -18.9435
  10   2.0000      -0.628988       -17.1156
  11   2.0000      -0.618362       -16.8265
  12   2.0000      -0.541136       -14.7251
  13   2.0000      -0.494024       -13.4431
  14   2.0000      -0.487560       -13.2672
  15   2.0000      -0.472177       -12.8486
  16   2.0000      -0.422238       -11.4897
  17   2.0000      -0.399373       -10.8675
  18   2.0000      -0.389464       -10.5979
  19   2.0000      -0.355607        -9.6766
  20   2.0000      -0.349842        -9.5197
  21   2.0000      -0.331421        -9.0184
  22   2.0000      -0.321186        -8.7399
  23   2.0000      -0.303138        -8.2488
  24   2.0000      -0.299855        -8.1595
  25   2.0000      -0.292588        -7.9617
  26   2.0000      -0.209019        -5.6877
  27   2.0000      -0.131346        -3.5741
  28   0.0000      -0.015067        -0.4100
  29   0.0000       0.014512         0.3949
  30   0.0000       0.023265         0.6331
  31   0.0000       0.030995         0.8434
  32   0.0000       0.045120         1.2278

MULLIKEN ATOMIC CHARGES
-----------------------
   0 C :    1.028472
   1 C :   -0.031492
   2 N :   -0.327816
   3 H :   -0.167472
   4 C :    1.110625
   5 H :   -0.273853
   6 H :   -0.484384
   7 H :   -0.132246
   8 C :    0.462156
   9 N :    0.367871
  10 C :    0.753859
  11 H :   -0.277678
  12 H :   -0.744765
  13 H :   -0.357002
  14 H :   -0.201836
  15 H :   -0.152166
  16 H :   -0.237495
  17 H :   -0.101985
  18 H :   -0.232795
Sum of atomic charges:    0.0000000

LOEWDIN ATOMIC CHARGES
----------------------
   0 C :    0.057413
   1 C :   -0.050486
   2 N :    0.003271
   3 H :    0.015084
   4 C :    0.130812
   5 H :    0.015559
   6 H :    0.015391
   7 H :    0.013934
   8 C :   -0.249241
   9 N :    0.207833
  10 C :    0.173727
  11 H :   -0.133243
  12 H :   -0.115033
  13 H :    0.013597
  14 H :   -0.021464
  15 H :    0.007062
  16 H :   -0.024416
  17 H :   -0.025221
  18 H :   -0.034580

  Mayer bond orders larger than 0.100000
B(  0-C ,  1-C ) :   1.0650 B(  0-C ,  2-N ) :   0.9702 B(  0-C ,  3-H ) :   0.1663
B(  0-C ,  5-H ) :   0.1057 B(  0-C ,  6-H ) :   0.6591 B(  0-C ,  7-H ) :   0.7885
B(  0-C , 13-H ) :  -0.2468 B(  1-C ,  2-N ) :   0.1018 B(  1-C ,  3-H ) :   0.8474
B(  1-C ,  4-C ) :   1.2840 B(  1-C ,  5-H ) :   0.9104 B(  1-C ,  6-H ) :   0.1502
B(  1-C ,  7-H ) :   0.1012 B(  1-C , 16-H ) :   0.2892 B(  1-C , 17-H ) :   0.2630
B(  1-C , 18-H ) :   0.2547 B(  2-N ,  6-H ) :   0.2367 B(  2-N ,  7-H ) :   0.1312
B(  2-N ,  8-C ) :   0.9230 B(  2-N ,  9-N ) :   0.1761 B(  2-N , 10-C ) :   0.4591
B(  2-N , 13-H ) :   1.3026 B(  4-C , 16-H ) :   0.6784 B(  4-C , 17-H ) :   0.6866
B(  4-C , 18-H ) :   0.7329 B(  6-H ,  7-H ) :  -0.2009 B(  8-C ,  9-N ) :   0.9588
B(  8-C , 10-C ) :   1.6001 B(  8-C , 11-H ) :   0.3716 B(  8-C , 12-H ) :   0.2657
B(  8-C , 13-H ) :  -0.2844 B(  9-N , 10-C ) :   0.2965 B(  9-N , 14-H ) :   1.0288
B(  9-N , 15-H ) :   1.1817 B( 10-C , 11-H ) :   0.5764 B( 10-C , 12-H ) :   0.4946
B( 14-H , 15-H ) :  -0.1399

Dispersion correction           -0.032785429
FINAL SINGLE POINT ENERGY      -306.880914025381

DIPOLE MOMENT
-------------
                                X             Y             Z
Electronic contribution:     -2.19192      -2.02954       4.08955
Nuclear contribution   :      1.26608       1.95446      -4.64747
                        -----------------------------------------
Total Dipole Moment    :     -0.92585      -0.07508      -0.55792
                        -----------------------------------------
Magnitude (a.u.)       :      1.08356
Magnitude (Debye)      :      2.75420

Rotational constants in cm-1:     0.166109     0.049557     0.044716
Rotational constants in MHz :  4979.835529  1485.675017  1340.540851

                             ****ORCA TERMINATED NORMALLY****
TOTAL RUN TIME: 0 days 0 hours 0 minutes 10 seconds 750 msec
