                         Program Version 5.0.0 -  RELEASE  -
|  1> !BLYP D3BJ RIJCOSX def2-SVPD def2/J TightSCF xyzfile
|  2>
|  3> *xyzfile 0 1 D1.xyz
|  4>
|  5> %MaxCore 64000
|  6>
|  7> %pal nprocs 4
|  8> end
|  9>
| 10> %scf
| 11>   MaxIter 150
| 12> end
| 13>
| 14>
| 15>                          ****END OF INPUT****

CARTESIAN COORDINATES (ANGSTROEM)
---------------------------------
  C      3.488276    1.600919   -1.522040
  C      4.342970    1.313419   -2.756826
  C      2.810285    0.428783   -1.014196
  H      5.132033    0.604994   -2.484466
  C      3.535896    0.749253   -3.924604
  H      4.841247    2.242136   -3.054083
  H      2.991617   -0.132199   -3.574137
  H      4.225505    0.392784   -4.695962
  C      2.564776    1.750890   -4.544523
  H      1.918749    2.171679   -3.769419
  C      1.686235    1.161657   -5.650111
  H      3.132494    2.594775   -4.951604
  C      0.839616   -0.037582   -5.220473
  H      2.323886    0.866395   -6.490796
  H      1.029518    1.951850   -6.029329
  C     -0.151019    0.254955   -4.094256
  H      1.499442   -0.857141   -4.922958
  H      0.290097   -0.410143   -6.091131
  H      0.328265    0.833022   -3.299125
  C     -0.721843   -0.999513   -3.439309
  H     -0.957367    0.884951   -4.485450
  H     -1.083403   -1.697555   -4.205656
  H     -1.581056   -0.723848   -2.820490
  C      0.287250   -1.711771   -2.527405
  H      1.131780   -2.067380   -3.159396
  H     -0.204137   -2.637326   -2.170480
  F      0.710505   -0.927506   -1.481767
  H      2.714548    2.331455   -1.760302
  H      4.090991    2.063151   -0.733382
  C      3.290978   -0.418021   -0.129083
  N      2.517536   -1.432017    0.239360
  N      4.535490   -0.284410    0.395800
  H      5.043627    0.571888    0.222899
  H      4.723346   -0.733273    1.281800
  H      1.934787    0.102305   -1.403788
  H      1.674638   -1.505616   -0.316095
  H      2.928503   -2.218502    0.725494

 Total Charge           Charge          ....    0
 Multiplicity           Mult            ....    1
 Number of Electrons    NEL             ....  112
 Basis Dimension        Dim             ....  467

ORBITAL ENERGIES
----------------

  NO   OCC          E(Eh)            E(eV)
   0   2.0000     -24.323254      -661.8694
   1   2.0000     -14.011607      -381.2752
   2   2.0000     -13.995415      -380.8346
   3   2.0000     -10.011398      -272.4240
   4   2.0000      -9.940206      -270.4868
   5   2.0000      -9.933874      -270.3144
   6   2.0000      -9.918894      -269.9068
   7   2.0000      -9.914652      -269.7914
   8   2.0000      -9.909874      -269.6614
   9   2.0000      -9.902321      -269.4559
  10   2.0000      -9.896919      -269.3089
  11   2.0000      -9.891603      -269.1642
  12   2.0000      -9.885766      -269.0054
  13   2.0000      -9.821322      -267.2518
  14   2.0000      -1.114251       -30.3203
  15   2.0000      -0.844523       -22.9806
  16   2.0000      -0.763962       -20.7885
  17   2.0000      -0.731861       -19.9149
  18   2.0000      -0.708179       -19.2705
  19   2.0000      -0.680799       -18.5255
  20   2.0000      -0.649988       -17.6871
  21   2.0000      -0.614303       -16.7160
  22   2.0000      -0.591515       -16.0960
  23   2.0000      -0.560621       -15.2553
  24   2.0000      -0.535792       -14.5796
  25   2.0000      -0.523802       -14.2534
  26   2.0000      -0.500054       -13.6071
  27   2.0000      -0.484508       -13.1841
  28   2.0000      -0.474715       -12.9177
  29   2.0000      -0.463127       -12.6023
  30   2.0000      -0.457839       -12.4584
  31   2.0000      -0.438051       -11.9200
  32   2.0000      -0.430417       -11.7122
  33   2.0000      -0.409435       -11.1413
  34   2.0000      -0.402800       -10.9607
  35   2.0000      -0.392206       -10.6725
  36   2.0000      -0.385555       -10.4915
  37   2.0000      -0.372305       -10.1309
  38   2.0000      -0.363004        -9.8778
  39   2.0000      -0.353201        -9.6111
  40   2.0000      -0.346028        -9.4159
  41   2.0000      -0.327476        -8.9111
  42   2.0000      -0.325538        -8.8583
  43   2.0000      -0.316333        -8.6079
  44   2.0000      -0.313580        -8.5330
  45   2.0000      -0.312552        -8.5050
  46   2.0000      -0.293645        -7.9905
  47   2.0000      -0.286100        -7.7852
  48   2.0000      -0.277768        -7.5584
  49   2.0000      -0.276001        -7.5104
  50   2.0000      -0.273416        -7.4400
  51   2.0000      -0.259809        -7.0698
  52   2.0000      -0.253298        -6.8926
  53   2.0000      -0.247075        -6.7233
  54   2.0000      -0.203278        -5.5315
  55   2.0000      -0.113437        -3.0868
  56   0.0000      -0.002715        -0.0739
  57   0.0000       0.007099         0.1932
  58   0.0000       0.011664         0.3174
  59   0.0000       0.017958         0.4887
  60   0.0000       0.029146         0.7931

MULLIKEN ATOMIC CHARGES
-----------------------
   0 C :    0.824956
   1 C :    0.807754
   2 C :    0.517216
   3 H :   -0.246286
   4 C :    0.630667
   5 H :   -0.236013
   6 H :   -0.590427
   7 H :   -0.241120
   8 C :    0.274705
   9 H :   -0.120647
  10 C :    0.988845
  11 H :   -0.411559
  12 C :    0.303578
  13 H :   -0.183060
  14 H :   -0.308224
  15 C :    0.566539
  16 H :   -0.205313
  17 H :   -0.403789
  18 H :   -0.501391
  19 C :    0.635277
  20 H :   -0.267818
  21 H :   -0.221269
  22 H :   -0.214963
  23 C :    1.187368
  24 H :   -0.265369
  25 H :   -0.433624
  26 F :   -0.475282
  27 H :   -0.147340
  28 H :   -0.388044
  29 C :    0.143257
  30 N :    0.618669
  31 N :    0.293646
  32 H :   -0.122901
  33 H :   -0.338586
  34 H :   -0.886351
  35 H :   -0.248935
  36 H :   -0.334166
Sum of atomic charges:    0.0000000

LOEWDIN ATOMIC CHARGES
----------------------
   0 C :   -0.038406
   1 C :   -0.018720
   2 C :   -0.005669
   3 H :    0.013251
   4 C :   -0.020646
   5 H :    0.010128
   6 H :   -0.007702
   7 H :    0.020063
   8 C :   -0.023243
   9 H :   -0.004556
  10 C :   -0.020609
  11 H :    0.020567
  12 C :   -0.025128
  13 H :    0.017175
  14 H :    0.016355
  15 C :   -0.013648
  16 H :   -0.007002
  17 H :    0.018498
  18 H :    0.003738
  19 C :   -0.000383
  20 H :    0.025212
  21 H :    0.030541
  22 H :    0.022997
  23 C :    0.155131
  24 H :    0.028935
  25 H :    0.031068
  26 F :   -0.190570
  27 H :   -0.000630
  28 H :   -0.001451
  29 C :   -0.208795
  30 N :    0.216315
  31 N :    0.223135
  32 H :   -0.031471
  33 H :   -0.026410
  34 H :   -0.111761
  35 H :   -0.078508
  36 H :   -0.017802

  Mayer bond orders larger than 0.100000
B(  0-C ,  1-C ) :   1.0350 B(  0-C ,  2-C ) :   0.8543 B(  0-C ,  3-H ) :   0.1699
B(  0-C ,  4-C ) :   0.1442 B(  0-C ,  5-H ) :   0.2622 B(  0-C , 27-H ) :   0.6867
B(  0-C , 28-H ) :   0.3929 B(  0-C , 29-C ) :   0.1560 B(  0-C , 34-H ) :   0.7606
B(  1-C ,  2-C ) :   0.1390 B(  1-C ,  3-H ) :   0.5582 B(  1-C ,  4-C ) :   1.1922
B(  1-C ,  5-H ) :   0.6304 B(  1-C ,  6-H ) :   0.1935 B(  1-C ,  7-H ) :   0.1474
B(  1-C , 28-H ) :   0.1140 B(  2-C , 27-H ) :   0.3746 B(  2-C , 28-H ) :   0.4566
B(  2-C , 29-C ) :   1.6793 B(  2-C , 30-N ) :   0.3498 B(  2-C , 31-N ) :   0.2506
B(  2-C , 32-H ) :  -0.2065 B(  2-C , 34-H ) :  -0.8504 B(  3-H ,  4-C ) :   0.3117
B(  3-H ,  5-H ) :  -0.1556 B(  4-C ,  5-H ) :   0.1567 B(  4-C ,  6-H ) :   0.5460
B(  4-C ,  7-H ) :   0.5773 B(  4-C ,  8-C ) :   1.1570 B(  4-C ,  9-H ) :   0.1229
B(  4-C , 11-H ) :   0.1852 B(  6-H ,  8-C ) :   0.2362 B(  6-H , 34-H ) :   0.1053
B(  7-H ,  8-C ) :   0.1925 B(  8-C ,  9-H ) :   0.7441 B(  8-C , 10-C ) :   1.0943
B(  8-C , 11-H ) :   0.7462 B(  8-C , 12-C ) :   0.1999 B(  8-C , 13-H ) :   0.1443
B(  8-C , 14-H ) :   0.4125 B(  9-H , 10-C ) :   0.1263 B(  9-H , 18-H ) :   0.1047
B( 10-C , 11-H ) :   0.1116 B( 10-C , 12-C ) :   1.1533 B( 10-C , 13-H ) :   0.5222
B( 10-C , 14-H ) :   0.4608 B( 10-C , 16-H ) :   0.1064 B( 10-C , 17-H ) :   0.1215
B( 12-C , 13-H ) :   0.3358 B( 12-C , 14-H ) :   0.1379 B( 12-C , 15-C ) :   1.1506
B( 12-C , 16-H ) :   0.7774 B( 12-C , 17-H ) :   0.6887 B( 12-C , 18-H ) :   0.2339
B( 12-C , 20-H ) :   0.2345 B( 13-H , 14-H ) :  -0.2019 B( 15-C , 16-H ) :   0.1546
B( 15-C , 17-H ) :   0.2867 B( 15-C , 18-H ) :   0.6473 B( 15-C , 19-C ) :   1.1628
B( 15-C , 20-H ) :   0.6447 B( 15-C , 21-H ) :   0.1302 B( 15-C , 22-H ) :   0.3088
B( 15-C , 23-C ) :   0.1263 B( 18-H , 19-C ) :   0.2068 B( 18-H , 26-F ) :   0.1041
B( 18-H , 34-H ) :   0.1254 B( 19-C , 21-H ) :   0.6336 B( 19-C , 22-H ) :   0.5629
B( 19-C , 23-C ) :   1.1766 B( 19-C , 24-H ) :   0.1503 B( 19-C , 25-H ) :   0.1950
B( 19-C , 26-F ) :   0.1084 B( 21-H , 22-H ) :  -0.1085 B( 21-H , 23-C ) :   0.2176
B( 22-H , 23-C ) :   0.1863 B( 23-C , 24-H ) :   0.7067 B( 23-C , 25-H ) :   0.7215
B( 23-C , 26-F ) :   0.6587 B( 24-H , 26-F ) :   0.1583 B( 26-F , 35-H ) :   0.1078
B( 27-H , 34-H ) :  -0.2189 B( 28-H , 34-H ) :   0.1642 B( 29-C , 30-N ) :   0.8230
B( 29-C , 31-N ) :   0.9797 B( 29-C , 34-H ) :   0.6167 B( 30-N , 31-N ) :   0.1204
B( 30-N , 35-H ) :   1.0763 B( 30-N , 36-H ) :   1.1260 B( 31-N , 32-H ) :   1.0411
B( 31-N , 33-H ) :   1.1976 B( 31-N , 34-H ) :  -0.1249 B( 32-H , 33-H ) :  -0.1479
B( 35-H , 36-H ) :  -0.1440

Dispersion correction           -0.079902114
FINAL SINGLE POINT ENERGY      -641.632097696479

DIPOLE MOMENT
-------------
                                X             Y             Z
Electronic contribution:     -1.60360      -4.84166      10.71013
Nuclear contribution   :      1.15699       3.94991     -10.89335
                        -----------------------------------------
Total Dipole Moment    :     -0.44661      -0.89175      -0.18323
                        -----------------------------------------
Magnitude (a.u.)       :      1.01403
Magnitude (Debye)      :      2.57745

Rotational constants in cm-1:     0.026548     0.016177     0.010851
Rotational constants in MHz :   795.884848   484.988695   325.313537

                             ****ORCA TERMINATED NORMALLY****
TOTAL RUN TIME: 0 days 0 hours 0 minutes 47 seconds 709 msec
