                         Program Version 5.0.0 -  RELEASE  -
|  1> !PBE0 D3BJ RIJCOSX def2-SVPD def2/J TightSCF
|  2> *xyz -1 1
|  3> C          3.90595        2.81985       -3.75292
|  4> C          3.80351        1.37472       -3.26081
|  5> C          3.93993        0.32036       -4.36773
|  6> H          4.10504       -0.65508       -3.90773
|  7> H          3.02280        0.28052       -4.95712
|  8> C          5.10585        0.66802       -5.30546
|  9> H          4.57483        1.21516       -2.50044
| 10> H          2.84351        1.26085       -2.75146
| 11> O          4.80913        1.15019       -6.41436
| 12> O          6.26737        0.56500       -4.81948
| 13> H          3.15892        2.99660       -4.49832
| 14> H          4.87575        2.98549       -4.17357
| 15> H          3.75481        3.48808       -2.93101
| 16> *
| 17>
| 18> %MaxCore 64000
| 19>
| 20> %pal nprocs 4
| 21> end
| 22>
| 23> %scf
| 24>   MaxIter 150
| 25> end
| 26>
| 27>
| 28>                          ****END OF INPUT****

CARTESIAN COORDINATES (ANGSTROEM)
---------------------------------
  C      3.905950    2.819850   -3.752920
  C      3.803510    1.374720   -3.260810
  C      3.939930    0.320360   -4.367730
  H      4.105040   -0.655080   -3.907730
  H      3.022800    0.280520   -4.957120
  C      5.105850    0.668020   -5.305460
  H      4.574830    1.215160   -2.500440
  H      2.843510    1.260850   -2.751460
  O      4.809130    1.150190   -6.414360
  O      6.267370    0.565000   -4.819480
  H      3.158920    2.996600   -4.498320
  H      4.875750    2.985490   -4.173570
  H      3.754810    3.488080   -2.931010

 Total Charge           Charge          ....   -1
 Multiplicity           Mult            ....    1
 Number of Electrons    NEL             ....   48
 Basis Dimension        Dim             ....  182

ORBITAL ENERGIES
----------------

  NO   OCC          E(Eh)            E(eV)
   0   2.0000     -18.959442      -515.9127
   1   2.0000     -18.955896      -515.8162
   2   2.0000     -10.118898      -275.3492
   3   2.0000     -10.085865      -274.4503
   4   2.0000     -10.071866      -274.0694
   5   2.0000     -10.058517      -273.7062
   6   2.0000      -0.844344       -22.9758
   7   2.0000      -0.750150       -20.4126
   8   2.0000      -0.652444       -17.7539
   9   2.0000      -0.553711       -15.0672
  10   2.0000      -0.456461       -12.4209
  11   2.0000      -0.339715        -9.2441
  12   2.0000      -0.316582        -8.6146
  13   2.0000      -0.304131        -8.2758
  14   2.0000      -0.264265        -7.1910
  15   2.0000      -0.249853        -6.7989
  16   2.0000      -0.224023        -6.0960
  17   2.0000      -0.219799        -5.9810
  18   2.0000      -0.209498        -5.7007
  19   2.0000      -0.186261        -5.0684
  20   2.0000      -0.179994        -4.8979
  21   2.0000      -0.067327        -1.8321
  22   2.0000      -0.056177        -1.5286
  23   2.0000      -0.046642        -1.2692
  24   0.0000       0.154736         4.2106
  25   0.0000       0.179502         4.8845
  26   0.0000       0.194180         5.2839
  27   0.0000       0.207418         5.6441
  28   0.0000       0.229097         6.2340

MULLIKEN ATOMIC CHARGES
-----------------------
   0 C :    0.479524
   1 C :   -0.550893
   2 C :    0.067561
   3 H :    0.014651
   4 H :    0.062293
   5 C :    0.537844
   6 H :    0.036531
   7 H :   -0.109042
   8 O :   -0.724359
   9 O :   -0.793680
  10 H :    0.000182
  11 H :    0.056082
  12 H :   -0.076694
Sum of atomic charges:   -1.0000000

LOEWDIN ATOMIC CHARGES
----------------------
   0 C :    0.107103
   1 C :   -0.091231
   2 C :   -0.004207
   3 H :    0.004695
   4 H :    0.003383
   5 C :   -0.304425
   6 H :    0.014883
   7 H :   -0.002946
   8 O :   -0.321222
   9 O :   -0.335332
  10 H :   -0.017846
  11 H :   -0.015787
  12 H :   -0.037067

  Mayer bond orders larger than 0.100000
B(  0-C ,  1-C ) :   1.3464 B(  0-C ,  7-H ) :   0.1043 B(  0-C , 10-H ) :   0.8155
B(  0-C , 11-H ) :   0.8407 B(  0-C , 12-H ) :   0.8098 B(  1-C ,  2-C ) :   1.1965
B(  1-C ,  3-H ) :   0.1245 B(  1-C ,  4-H ) :   0.1314 B(  1-C ,  6-H ) :   0.9382
B(  1-C ,  7-H ) :   1.0003 B(  1-C , 10-H ) :   0.1876 B(  1-C , 11-H ) :   0.1870
B(  1-C , 12-H ) :   0.1961 B(  2-C ,  3-H ) :   0.8691 B(  2-C ,  4-H ) :   0.8837
B(  2-C ,  5-C ) :   1.0196 B(  3-H ,  5-C ) :   0.1177 B(  4-H ,  5-C ) :   0.1557
B(  5-C ,  8-O ) :   1.3959 B(  5-C ,  9-O ) :   1.3637

Dispersion correction           -0.008482194
FINAL SINGLE POINT ENERGY      -306.604302663042

DIPOLE MOMENT
-------------
                                X             Y             Z
Electronic contribution:      4.16006      -2.84322      -4.82521
Nuclear contribution   :     -5.80393       3.20473       6.46101
                        -----------------------------------------
Total Dipole Moment    :     -1.64387       0.36150       1.63580
                        -----------------------------------------
Magnitude (a.u.)       :      2.34709
Magnitude (Debye)      :      5.96583

Rotational constants in cm-1:     0.184459     0.088019     0.082330
Rotational constants in MHz :  5529.929668  2638.753248  2468.201746

                             ****ORCA TERMINATED NORMALLY****
TOTAL RUN TIME: 0 days 0 hours 0 minutes 17 seconds 775 msec
