                         Program Version 5.0.0 -  RELEASE  -
|  1> !PBE0 D3BJ RIJCOSX def2-SVPD def2/J TightSCF
|  2> *xyz 1 1
|  3> C          3.90595        2.81985       -3.75292
|  4> N          5.29562        3.13151       -4.10533
|  5> C          3.80351        1.37472       -3.26081
|  6> C          3.93993        0.32036       -4.36773
|  7> C          5.70862        3.46889       -5.32419
|  8> N          6.90470        3.03895       -5.71708
|  9> N          4.98188        4.29357       -6.09746
| 10> H          5.00055        4.10131       -7.08776
| 11> H          4.08469        4.59690       -5.73965
| 12> H          5.96336        2.52611       -3.64239
| 13> H          7.04716        2.06686       -5.47360
| 14> H          7.19815        3.30799       -6.64523
| 15> H          3.28202        2.94919       -4.64026
| 16> H          3.56525        3.51457       -2.98252
| 17> H          4.57483        1.21516       -2.50044
| 18> H          2.84351        1.26085       -2.75146
| 19> H          3.18417        0.48061       -5.10803
| 20> H          3.82485       -0.65632       -3.94614
| 21> H          4.90589        0.40174       -4.82073
| 22> *
| 23>
| 24> %MaxCore 64000
| 25>
| 26> %pal nprocs 4
| 27> end
| 28>
| 29> %scf
| 30>   MaxIter 150
| 31> end
| 32>
| 33>
| 34>                          ****END OF INPUT****

CARTESIAN COORDINATES (ANGSTROEM)
---------------------------------
  C      3.905950    2.819850   -3.752920
  N      5.295620    3.131510   -4.105330
  C      3.803510    1.374720   -3.260810
  C      3.939930    0.320360   -4.367730
  C      5.708620    3.468890   -5.324190
  N      6.904700    3.038950   -5.717080
  N      4.981880    4.293570   -6.097460
  H      5.000550    4.101310   -7.087760
  H      4.084690    4.596900   -5.739650
  H      5.963360    2.526110   -3.642390
  H      7.047160    2.066860   -5.473600
  H      7.198150    3.307990   -6.645230
  H      3.282020    2.949190   -4.640260
  H      3.565250    3.514570   -2.982520
  H      4.574830    1.215160   -2.500440
  H      2.843510    1.260850   -2.751460
  H      3.184170    0.480610   -5.108030
  H      3.824850   -0.656320   -3.946140
  H      4.905890    0.401740   -4.820730

 Total Charge           Charge          ....    1
 Multiplicity           Mult            ....    1
 Number of Electrons    NEL             ....   56
 Basis Dimension        Dim             ....  236

ORBITAL ENERGIES
----------------

  NO   OCC          E(Eh)            E(eV)
   0   2.0000     -14.622583      -397.9007
   1   2.0000     -14.622453      -397.8972
   2   2.0000     -14.621109      -397.8606
   3   2.0000     -10.567501      -287.5563
   4   2.0000     -10.439510      -284.0735
   5   2.0000     -10.385481      -282.6033
   6   2.0000     -10.359340      -281.8920
   7   2.0000      -1.240346       -33.7515
   8   2.0000      -1.125698       -30.6318
   9   2.0000      -1.117043       -30.3963
  10   2.0000      -0.962858       -26.2007
  11   2.0000      -0.882149       -24.0045
  12   2.0000      -0.837465       -22.7886
  13   2.0000      -0.798536       -21.7293
  14   2.0000      -0.781152       -21.2562
  15   2.0000      -0.752167       -20.4675
  16   2.0000      -0.715100       -19.4589
  17   2.0000      -0.702472       -19.1152
  18   2.0000      -0.661763       -18.0075
  19   2.0000      -0.647147       -17.6098
  20   2.0000      -0.604609       -16.4522
  21   2.0000      -0.598034       -16.2733
  22   2.0000      -0.571846       -15.5607
  23   2.0000      -0.527357       -14.3501
  24   2.0000      -0.508159       -13.8277
  25   2.0000      -0.507569       -13.8117
  26   2.0000      -0.499235       -13.5849
  27   2.0000      -0.468396       -12.7457
  28   0.0000      -0.187477        -5.1015
  29   0.0000      -0.145650        -3.9634
  30   0.0000      -0.115919        -3.1543
  31   0.0000      -0.099176        -2.6987
  32   0.0000      -0.085070        -2.3149

MULLIKEN ATOMIC CHARGES
-----------------------
   0 C :    0.689822
   1 N :   -0.504885
   2 C :   -0.447727
   3 C :    0.668529
   4 C :    1.136321
   5 N :   -0.086765
   6 N :   -0.112435
   7 H :   -0.004521
   8 H :    0.047574
   9 H :   -0.089129
  10 H :    0.005091
  11 H :    0.032892
  12 H :    0.025501
  13 H :   -0.244864
  14 H :    0.023683
  15 H :   -0.028489
  16 H :    0.080789
  17 H :    0.019602
  18 H :   -0.210992
Sum of atomic charges:    1.0000000

LOEWDIN ATOMIC CHARGES
----------------------
   0 C :    0.072756
   1 N :    0.054167
   2 C :   -0.049898
   3 C :    0.141382
   4 C :   -0.046494
   5 N :    0.269558
   6 N :    0.279606
   7 H :    0.038668
   8 H :    0.025579
   9 H :    0.044371
  10 H :    0.032632
  11 H :    0.038267
  12 H :    0.026758
  13 H :    0.039108
  14 H :    0.030834
  15 H :    0.040372
  16 H :   -0.006512
  17 H :    0.001107
  18 H :   -0.032261

  Mayer bond orders larger than 0.100000
B(  0-C ,  1-N ) :   0.8222 B(  0-C ,  2-C ) :   1.1405 B(  0-C , 12-H ) :   0.7813
B(  0-C , 13-H ) :   0.9776 B(  0-C , 15-H ) :   0.1282 B(  1-N ,  2-C ) :   0.1042
B(  1-N ,  4-C ) :   1.1003 B(  1-N ,  5-N ) :   0.2016 B(  1-N ,  6-N ) :   0.1016
B(  1-N ,  9-H ) :   1.1394 B(  1-N , 12-H ) :   0.1135 B(  1-N , 13-H ) :   0.1210
B(  2-C ,  3-C ) :   1.2564 B(  2-C , 14-H ) :   0.9426 B(  2-C , 15-H ) :   0.9884
B(  2-C , 16-H ) :   0.1784 B(  2-C , 17-H ) :   0.1809 B(  2-C , 18-H ) :   0.2056
B(  3-C , 16-H ) :   0.7689 B(  3-C , 17-H ) :   0.7925 B(  3-C , 18-H ) :   0.8652
B(  4-C ,  5-N ) :   0.9074 B(  4-C ,  6-N ) :   0.9206 B(  4-C ,  9-H ) :  -0.1730
B(  5-N ,  6-N ) :   0.1224 B(  5-N , 10-H ) :   1.0256 B(  5-N , 11-H ) :   0.9864
B(  6-N ,  7-H ) :   1.1448 B(  6-N ,  8-H ) :   0.9430 B(  7-H ,  8-H ) :  -0.1119
B( 16-H , 18-H ) :   0.1070

Dispersion correction           -0.013509674
FINAL SINGLE POINT ENERGY      -323.125327662213

DIPOLE MOMENT
-------------
                                X             Y             Z
Electronic contribution:      4.02289       5.69719      -2.05007
Nuclear contribution   :     -3.60155      -5.39511       0.90505
                        -----------------------------------------
Total Dipole Moment    :      0.42134       0.30209      -1.14502
                        -----------------------------------------
Magnitude (a.u.)       :      1.25692
Magnitude (Debye)      :      3.19485

Rotational constants in cm-1:     0.145371     0.050507     0.045444
Rotational constants in MHz :  4358.114605  1514.164418  1362.368391

                             ****ORCA TERMINATED NORMALLY****
TOTAL RUN TIME: 0 days 0 hours 0 minutes 30 seconds 264 msec
