                         Program Version 5.0.0 -  RELEASE  -
|  1> !PBE0 D3BJ RIJCOSX def2-SVPD def2/J TightSCF
|  2> *xyz 0 1
|  3> C          3.90595        2.81985       -3.75292
|  4> C          3.80351        1.37472       -3.26081
|  5> C          3.93993        0.32036       -4.36773
|  6> H          4.10504       -0.65508       -3.90773
|  7> H          3.02280        0.28052       -4.95712
|  8> C          5.10585        0.66802       -5.30546
|  9> H          4.57483        1.21516       -2.50044
| 10> H          2.84351        1.26085       -2.75146
| 11> F          4.80913        1.15019       -6.41436
| 12> O          6.26737        0.56500       -4.81948
| 13> H          3.15892        2.99660       -4.49832
| 14> H          4.87575        2.98549       -4.17357
| 15> H          3.75481        3.48808       -2.93101
| 16> *
| 17>
| 18> %MaxCore 64000
| 19>
| 20> %pal nprocs 4
| 21> end
| 22>
| 23> %scf
| 24>   MaxIter 150
| 25> end
| 26>
| 27>
| 28>                          ****END OF INPUT****

CARTESIAN COORDINATES (ANGSTROEM)
---------------------------------
  C      3.905950    2.819850   -3.752920
  C      3.803510    1.374720   -3.260810
  C      3.939930    0.320360   -4.367730
  H      4.105040   -0.655080   -3.907730
  H      3.022800    0.280520   -4.957120
  C      5.105850    0.668020   -5.305460
  H      4.574830    1.215160   -2.500440
  H      2.843510    1.260850   -2.751460
  F      4.809130    1.150190   -6.414360
  O      6.267370    0.565000   -4.819480
  H      3.158920    2.996600   -4.498320
  H      4.875750    2.985490   -4.173570
  H      3.754810    3.488080   -2.931010

 Total Charge           Charge          ....    0
 Multiplicity           Mult            ....    1
 Number of Electrons    NEL             ....   48
 Basis Dimension        Dim             ....  182

ORBITAL ENERGIES
----------------

  NO   OCC          E(Eh)            E(eV)
   0   2.0000     -24.861509      -676.5161
   1   2.0000     -19.226052      -523.1675
   2   2.0000     -10.416631      -283.4509
   3   2.0000     -10.263874      -279.2942
   4   2.0000     -10.251315      -278.9525
   5   2.0000     -10.227722      -278.3105
   6   2.0000      -1.348800       -36.7027
   7   2.0000      -1.050385       -28.5824
   8   2.0000      -0.833516       -22.6811
   9   2.0000      -0.746353       -20.3093
  10   2.0000      -0.688209       -18.7271
  11   2.0000      -0.630262       -17.1503
  12   2.0000      -0.575385       -15.6570
  13   2.0000      -0.555911       -15.1271
  14   2.0000      -0.526333       -14.3223
  15   2.0000      -0.482166       -13.1204
  16   2.0000      -0.472989       -12.8707
  17   2.0000      -0.433479       -11.7956
  18   2.0000      -0.420242       -11.4354
  19   2.0000      -0.389469       -10.5980
  20   2.0000      -0.371757       -10.1160
  21   2.0000      -0.360885        -9.8202
  22   2.0000      -0.359626        -9.7859
  23   2.0000      -0.306704        -8.3459
  24   0.0000      -0.031203        -0.8491
  25   0.0000       0.021916         0.5964
  26   0.0000       0.051013         1.3881
  27   0.0000       0.054709         1.4887
  28   0.0000       0.067119         1.8264

MULLIKEN ATOMIC CHARGES
-----------------------
   0 C :    0.488010
   1 C :   -0.478186
   2 C :   -0.002009
   3 H :    0.052351
   4 H :    0.091804
   5 C :    0.896671
   6 H :    0.046481
   7 H :   -0.073501
   8 F :   -0.396891
   9 O :   -0.599975
  10 H :   -0.005752
  11 H :    0.025276
  12 H :   -0.044279
Sum of atomic charges:   -0.0000000

LOEWDIN ATOMIC CHARGES
----------------------
   0 C :    0.123677
   1 C :   -0.063428
   2 C :    0.041623
   3 H :    0.037610
   4 H :    0.025374
   5 C :   -0.009340
   6 H :    0.032377
   7 H :    0.024011
   8 F :   -0.028690
   9 O :   -0.144371
  10 H :   -0.010489
  11 H :   -0.015982
  12 H :   -0.012372

  Mayer bond orders larger than 0.100000
B(  0-C ,  1-C ) :   1.3605 B(  0-C , 10-H ) :   0.8240 B(  0-C , 11-H ) :   0.8525
B(  0-C , 12-H ) :   0.8171 B(  1-C ,  2-C ) :   1.2113 B(  1-C ,  3-H ) :   0.1193
B(  1-C ,  4-H ) :   0.1234 B(  1-C ,  6-H ) :   0.9365 B(  1-C ,  7-H ) :   0.9926
B(  1-C , 10-H ) :   0.1727 B(  1-C , 11-H ) :   0.1714 B(  1-C , 12-H ) :   0.1806
B(  2-C ,  3-H ) :   0.8704 B(  2-C ,  4-H ) :   0.8830 B(  2-C ,  5-C ) :   1.0726
B(  5-C ,  8-F ) :   0.6473 B(  5-C ,  9-O ) :   1.6935 B(  8-F ,  9-O ) :   0.1014

Dispersion correction           -0.008116814
FINAL SINGLE POINT ENERGY      -331.119550416161

DIPOLE MOMENT
-------------
                                X             Y             Z
Electronic contribution:      4.80169      -3.19317      -8.23534
Nuclear contribution   :     -5.98367       3.22001       8.44002
                        -----------------------------------------
Total Dipole Moment    :     -1.18198       0.02684       0.20468
                        -----------------------------------------
Magnitude (a.u.)       :      1.19987
Magnitude (Debye)      :      3.04982

Rotational constants in cm-1:     0.177409     0.085514     0.078973
Rotational constants in MHz :  5318.577687  2563.657993  2367.557452

                             ****ORCA TERMINATED NORMALLY****
TOTAL RUN TIME: 0 days 0 hours 0 minutes 17 seconds 428 msec
