                         Program Version 5.0.0 -  RELEASE  -
|  1> !PBE0 D3BJ RIJCOSX def2-SVPD def2/J TightSCF
|  2> *xyz 0 1
|  3> C          3.90595        2.81985       -3.75292
|  4> C          5.29562        3.13151       -4.10533
|  5> C          3.80351        1.37472       -3.26081
|  6> C          3.93993        0.32036       -4.36773
|  7> C          5.70862        3.46889       -5.32419
|  8> N          6.90470        3.03895       -5.71708
|  9> N          4.98188        4.29357       -6.09746
| 10> H          5.00055        4.10131       -7.08776
| 11> H          4.08469        4.59690       -5.73965
| 12> H          5.96336        2.52611       -3.64239
| 13> H          7.04716        2.06686       -5.47360
| 14> H          7.19815        3.30799       -6.64523
| 15> H          3.28202        2.94919       -4.64026
| 16> H          3.56525        3.51457       -2.98252
| 17> H          4.57483        1.21516       -2.50044
| 18> H          2.84351        1.26085       -2.75146
| 19> H          3.18417        0.48061       -5.10803
| 20> H          3.82485       -0.65632       -3.94614
| 21> H          4.90589        0.40174       -4.82073
| 22> *
| 23>
| 24> %MaxCore 64000
| 25>
| 26> %pal nprocs 4
| 27> end
| 28>
| 29> %scf
| 30>   MaxIter 150
| 31> end
| 32>
| 33>
| 34>                          ****END OF INPUT****

CARTESIAN COORDINATES (ANGSTROEM)
---------------------------------
  C      3.905950    2.819850   -3.752920
  C      5.295620    3.131510   -4.105330
  C      3.803510    1.374720   -3.260810
  C      3.939930    0.320360   -4.367730
  C      5.708620    3.468890   -5.324190
  N      6.904700    3.038950   -5.717080
  N      4.981880    4.293570   -6.097460
  H      5.000550    4.101310   -7.087760
  H      4.084690    4.596900   -5.739650
  H      5.963360    2.526110   -3.642390
  H      7.047160    2.066860   -5.473600
  H      7.198150    3.307990   -6.645230
  H      3.282020    2.949190   -4.640260
  H      3.565250    3.514570   -2.982520
  H      4.574830    1.215160   -2.500440
  H      2.843510    1.260850   -2.751460
  H      3.184170    0.480610   -5.108030
  H      3.824850   -0.656320   -3.946140
  H      4.905890    0.401740   -4.820730

 Total Charge           Charge          ....    0
 Multiplicity           Mult            ....    1
 Number of Electrons    NEL             ....   56
 Basis Dimension        Dim             ....  236

ORBITAL ENERGIES
----------------

  NO   OCC          E(Eh)            E(eV)
   0   2.0000     -14.401529      -391.8855
   1   2.0000     -14.398254      -391.7964
   2   2.0000     -10.275427      -279.6086
   3   2.0000     -10.217084      -278.0210
   4   2.0000     -10.210715      -277.8477
   5   2.0000     -10.209355      -277.8107
   6   2.0000     -10.160781      -276.4889
   7   2.0000      -0.986003       -26.8305
   8   2.0000      -0.895125       -24.3576
   9   2.0000      -0.808345       -21.9962
  10   2.0000      -0.740491       -20.1498
  11   2.0000      -0.676749       -18.4153
  12   2.0000      -0.609311       -16.5802
  13   2.0000      -0.584793       -15.9130
  14   2.0000      -0.551812       -15.0156
  15   2.0000      -0.527984       -14.3672
  16   2.0000      -0.494365       -13.4523
  17   2.0000      -0.461177       -12.5493
  18   2.0000      -0.451905       -12.2970
  19   2.0000      -0.429103       -11.6765
  20   2.0000      -0.398978       -10.8567
  21   2.0000      -0.386036       -10.5046
  22   2.0000      -0.364332        -9.9140
  23   2.0000      -0.345889        -9.4121
  24   2.0000      -0.331731        -9.0269
  25   2.0000      -0.326789        -8.8924
  26   2.0000      -0.288564        -7.8522
  27   2.0000      -0.181896        -4.9497
  28   0.0000       0.016550         0.4503
  29   0.0000       0.043994         1.1971
  30   0.0000       0.047753         1.2994
  31   0.0000       0.057555         1.5661
  32   0.0000       0.069082         1.8798

MULLIKEN ATOMIC CHARGES
-----------------------
   0 C :    0.213216
   1 C :   -0.064726
   2 C :   -0.360527
   3 C :    0.685924
   4 C :    0.400440
   5 N :   -0.020701
   6 N :   -0.120273
   7 H :   -0.078898
   8 H :    0.040002
   9 H :   -0.159854
  10 H :   -0.002301
  11 H :   -0.085066
  12 H :   -0.095535
  13 H :   -0.142451
  14 H :   -0.002972
  15 H :   -0.071953
  16 H :    0.056288
  17 H :    0.012148
  18 H :   -0.202760
Sum of atomic charges:    0.0000000

LOEWDIN ATOMIC CHARGES
----------------------
   0 C :   -0.071712
   1 C :   -0.017320
   2 C :   -0.081686
   3 C :    0.124321
   4 C :   -0.237980
   5 N :    0.185868
   6 N :    0.194580
   7 H :   -0.010437
   8 H :   -0.004756
   9 H :   -0.052892
  10 H :   -0.000458
  11 H :   -0.009596
  12 H :    0.005445
  13 H :    0.010166
  14 H :    0.020404
  15 H :    0.014655
  16 H :   -0.017800
  17 H :   -0.020412
  18 H :   -0.030390

  Mayer bond orders larger than 0.100000
B(  0-C ,  1-C ) :   0.9381 B(  0-C ,  2-C ) :   1.1851 B(  0-C ,  9-H ) :   0.1980
B(  0-C , 12-H ) :   0.8324 B(  0-C , 13-H ) :   0.9116 B(  0-C , 14-H ) :   0.1323
B(  0-C , 15-H ) :   0.1643 B(  1-C ,  4-C ) :   1.9162 B(  1-C ,  5-N ) :   0.3044
B(  1-C ,  6-N ) :   0.1589 B(  1-C ,  9-H ) :   0.5885 B(  1-C , 13-H ) :   0.1315
B(  2-C ,  3-C ) :   1.2353 B(  2-C , 14-H ) :   0.9394 B(  2-C , 15-H ) :   0.9516
B(  2-C , 16-H ) :   0.1863 B(  2-C , 17-H ) :   0.1754 B(  2-C , 18-H ) :   0.2250
B(  3-C , 16-H ) :   0.7731 B(  3-C , 17-H ) :   0.7689 B(  3-C , 18-H ) :   0.8793
B(  4-C ,  5-N ) :   0.8808 B(  4-C ,  6-N ) :   0.9040 B(  4-C ,  9-H ) :   0.3076
B(  5-N , 10-H ) :   1.0104 B(  5-N , 11-H ) :   0.9567 B(  6-N ,  7-H ) :   1.1237
B(  6-N ,  8-H ) :   0.9562 B( 16-H , 18-H ) :   0.1011

Dispersion correction           -0.013991688
FINAL SINGLE POINT ENERGY      -306.667973795258

DIPOLE MOMENT
-------------
                                X             Y             Z
Electronic contribution:      3.42062       4.94047      -2.12061
Nuclear contribution   :     -3.52450      -5.28471       1.03374
                        -----------------------------------------
Total Dipole Moment    :     -0.10388      -0.34424      -1.08686
                        -----------------------------------------
Magnitude (a.u.)       :      1.14480
Magnitude (Debye)      :      2.90985

Rotational constants in cm-1:     0.147126     0.050704     0.045476
Rotational constants in MHz :  4410.719889  1520.080198  1363.327077

                             ****ORCA TERMINATED NORMALLY****
TOTAL RUN TIME: 0 days 0 hours 0 minutes 30 seconds 651 msec
