                         Program Version 5.0.0 -  RELEASE  -
|  1> !PBE0 D3BJ RIJCOSX def2-SVPD def2/J TightSCF
|  2> *xyz 0 1
|  3> C          3.90595        2.81985       -3.75292
|  4> C          3.80351        1.37472       -3.26081
|  5> C          3.93993        0.32036       -4.36773
|  6> H          4.10504       -0.65508       -3.90773
|  7> H          3.02280        0.28052       -4.95712
|  8> C          5.10585        0.66802       -5.30546
|  9> H          4.57483        1.21516       -2.50044
| 10> H          2.84351        1.26085       -2.75146
| 11> O          4.80913        1.15019       -6.41436
| 12> F          6.26737        0.56500       -4.81948
| 13> H          3.15892        2.99660       -4.49832
| 14> H          4.87575        2.98549       -4.17357
| 15> H          3.75481        3.48808       -2.93101
| 16> *
| 17>
| 18> %MaxCore 64000
| 19>
| 20> %pal nprocs 4
| 21> end
| 22>
| 23> %scf
| 24>   MaxIter 150
| 25> end
| 26>
| 27>
| 28>                          ****END OF INPUT****

CARTESIAN COORDINATES (ANGSTROEM)
---------------------------------
  C      3.905950    2.819850   -3.752920
  C      3.803510    1.374720   -3.260810
  C      3.939930    0.320360   -4.367730
  H      4.105040   -0.655080   -3.907730
  H      3.022800    0.280520   -4.957120
  C      5.105850    0.668020   -5.305460
  H      4.574830    1.215160   -2.500440
  H      2.843510    1.260850   -2.751460
  O      4.809130    1.150190   -6.414360
  F      6.267370    0.565000   -4.819480
  H      3.158920    2.996600   -4.498320
  H      4.875750    2.985490   -4.173570
  H      3.754810    3.488080   -2.931010

 Total Charge           Charge          ....    0
 Multiplicity           Mult            ....    1
 Number of Electrons    NEL             ....   48
 Basis Dimension        Dim             ....  182

ORBITAL ENERGIES
----------------

  NO   OCC          E(Eh)            E(eV)
   0   2.0000     -24.854900      -676.3362
   1   2.0000     -19.228790      -523.2420
   2   2.0000     -10.414512      -283.3933
   3   2.0000     -10.263253      -279.2773
   4   2.0000     -10.253396      -279.0091
   5   2.0000     -10.226193      -278.2689
   6   2.0000      -1.335077       -36.3293
   7   2.0000      -1.061609       -28.8879
   8   2.0000      -0.834627       -22.7114
   9   2.0000      -0.744423       -20.2568
  10   2.0000      -0.680359       -18.5135
  11   2.0000      -0.629509       -17.1298
  12   2.0000      -0.569214       -15.4891
  13   2.0000      -0.555520       -15.1165
  14   2.0000      -0.515694       -14.0327
  15   2.0000      -0.488589       -13.2952
  16   2.0000      -0.472867       -12.8674
  17   2.0000      -0.434672       -11.8280
  18   2.0000      -0.416203       -11.3254
  19   2.0000      -0.389023       -10.5859
  20   2.0000      -0.379427       -10.3247
  21   2.0000      -0.367550       -10.0016
  22   2.0000      -0.360105        -9.7990
  23   2.0000      -0.307096        -8.3565
  24   0.0000      -0.026956        -0.7335
  25   0.0000       0.019803         0.5389
  26   0.0000       0.051776         1.4089
  27   0.0000       0.057452         1.5633
  28   0.0000       0.063542         1.7291

MULLIKEN ATOMIC CHARGES
-----------------------
   0 C :    0.508182
   1 C :   -0.513021
   2 C :    0.022109
   3 H :    0.050299
   4 H :    0.077776
   5 C :    0.902839
   6 H :    0.025219
   7 H :   -0.073188
   8 O :   -0.548674
   9 F :   -0.446985
  10 H :    0.016313
  11 H :    0.035064
  12 H :   -0.055933
Sum of atomic charges:    0.0000000

LOEWDIN ATOMIC CHARGES
----------------------
   0 C :    0.125202
   1 C :   -0.069030
   2 C :    0.044207
   3 H :    0.029619
   4 H :    0.037059
   5 C :   -0.009896
   6 H :    0.026138
   7 H :    0.024650
   8 O :   -0.133447
   9 F :   -0.039707
  10 H :   -0.004712
  11 H :   -0.016564
  12 H :   -0.013519

  Mayer bond orders larger than 0.100000
B(  0-C ,  1-C ) :   1.3627 B(  0-C , 10-H ) :   0.8197 B(  0-C , 11-H ) :   0.8470
B(  0-C , 12-H ) :   0.8096 B(  1-C ,  2-C ) :   1.1884 B(  1-C ,  3-H ) :   0.1219
B(  1-C ,  4-H ) :   0.1213 B(  1-C ,  6-H ) :   0.9429 B(  1-C ,  7-H ) :   0.9892
B(  1-C , 10-H ) :   0.1787 B(  1-C , 11-H ) :   0.1692 B(  1-C , 12-H ) :   0.1879
B(  2-C ,  3-H ) :   0.8694 B(  2-C ,  4-H ) :   0.9067 B(  2-C ,  5-C ) :   1.0422
B(  4-H ,  5-C ) :   0.1036 B(  5-C ,  8-O ) :   1.7256 B(  5-C ,  9-F ) :   0.6073
B(  8-O ,  9-F ) :   0.1064

Dispersion correction           -0.008113806
FINAL SINGLE POINT ENERGY      -331.124820738388

DIPOLE MOMENT
-------------
                                X             Y             Z
Electronic contribution:      7.25890      -4.18330      -5.53980
Nuclear contribution   :     -7.63086       3.88103       6.63849
                        -----------------------------------------
Total Dipole Moment    :     -0.37196      -0.30227       1.09869
                        -----------------------------------------
Magnitude (a.u.)       :      1.19868
Magnitude (Debye)      :      3.04680

Rotational constants in cm-1:     0.177064     0.085023     0.079676
Rotational constants in MHz :  5308.232158  2548.918275  2388.614336

                             ****ORCA TERMINATED NORMALLY****
TOTAL RUN TIME: 0 days 0 hours 0 minutes 17 seconds 185 msec
