                         Program Version 5.0.0 -  RELEASE  -
|  1> !PBE0 D3BJ RIJCOSX def2-SVPD def2/J TightSCF
|  2> *xyz 0 1
|  3> C          3.90595        2.81985       -3.75292
|  4> N          5.29562        3.13151       -4.10533
|  5> C          3.80351        1.37472       -3.26081
|  6> C          3.93993        0.32036       -4.36773
|  7> C          5.70862        3.46889       -5.32419
|  8> C          6.90470        3.03895       -5.71708
|  9> N          4.98188        4.29357       -6.09746
| 10> H          5.00055        4.10131       -7.08776
| 11> H          4.08469        4.59690       -5.73965
| 12> H          5.96336        2.52611       -3.64239
| 13> H          7.04716        2.06686       -5.47360
| 14> H          7.19815        3.30799       -6.64523
| 15> H          3.28202        2.94919       -4.64026
| 16> H          3.56525        3.51457       -2.98252
| 17> H          4.57483        1.21516       -2.50044
| 18> H          2.84351        1.26085       -2.75146
| 19> H          3.18417        0.48061       -5.10803
| 20> H          3.82485       -0.65632       -3.94614
| 21> H          4.90589        0.40174       -4.82073
| 22> *
| 23>
| 24> %MaxCore 64000
| 25>
| 26> %pal nprocs 4
| 27> end
| 28>
| 29> %scf
| 30>   MaxIter 150
| 31> end
| 32>
| 33>
| 34>                          ****END OF INPUT****

CARTESIAN COORDINATES (ANGSTROEM)
---------------------------------
  C      3.905950    2.819850   -3.752920
  N      5.295620    3.131510   -4.105330
  C      3.803510    1.374720   -3.260810
  C      3.939930    0.320360   -4.367730
  C      5.708620    3.468890   -5.324190
  C      6.904700    3.038950   -5.717080
  N      4.981880    4.293570   -6.097460
  H      5.000550    4.101310   -7.087760
  H      4.084690    4.596900   -5.739650
  H      5.963360    2.526110   -3.642390
  H      7.047160    2.066860   -5.473600
  H      7.198150    3.307990   -6.645230
  H      3.282020    2.949190   -4.640260
  H      3.565250    3.514570   -2.982520
  H      4.574830    1.215160   -2.500440
  H      2.843510    1.260850   -2.751460
  H      3.184170    0.480610   -5.108030
  H      3.824850   -0.656320   -3.946140
  H      4.905890    0.401740   -4.820730

 Total Charge           Charge          ....    0
 Multiplicity           Mult            ....    1
 Number of Electrons    NEL             ....   56
 Basis Dimension        Dim             ....  236

ORBITAL ENERGIES
----------------

  NO   OCC          E(Eh)            E(eV)
   0   2.0000     -14.400597      -391.8602
   1   2.0000     -14.399762      -391.8374
   2   2.0000     -10.279937      -279.7313
   3   2.0000     -10.271313      -279.4966
   4   2.0000     -10.243845      -278.7492
   5   2.0000     -10.225249      -278.2432
   6   2.0000     -10.145718      -276.0790
   7   2.0000      -0.990731       -26.9592
   8   2.0000      -0.907054       -24.6822
   9   2.0000      -0.809646       -22.0316
  10   2.0000      -0.745427       -20.2841
  11   2.0000      -0.690291       -18.7838
  12   2.0000      -0.619714       -16.8633
  13   2.0000      -0.611273       -16.6336
  14   2.0000      -0.551671       -15.0117
  15   2.0000      -0.513763       -13.9802
  16   2.0000      -0.491862       -13.3842
  17   2.0000      -0.479994       -13.0613
  18   2.0000      -0.460104       -12.5201
  19   2.0000      -0.421896       -11.4804
  20   2.0000      -0.412231       -11.2174
  21   2.0000      -0.402208       -10.9446
  22   2.0000      -0.379761       -10.3338
  23   2.0000      -0.367049        -9.9879
  24   2.0000      -0.364284        -9.9127
  25   2.0000      -0.348653        -9.4873
  26   2.0000      -0.273988        -7.4556
  27   2.0000      -0.185380        -5.0444
  28   0.0000       0.018846         0.5128
  29   0.0000       0.037599         1.0231
  30   0.0000       0.046552         1.2667
  31   0.0000       0.053201         1.4477
  32   0.0000       0.061050         1.6613

MULLIKEN ATOMIC CHARGES
-----------------------
   0 C :    0.663837
   1 N :   -0.512182
   2 C :   -0.463369
   3 C :    0.669484
   4 C :    0.368234
   5 C :    0.413642
   6 N :   -0.065701
   7 H :   -0.021426
   8 H :   -0.040354
   9 H :   -0.050100
  10 H :   -0.244129
  11 H :   -0.254769
  12 H :   -0.001853
  13 H :   -0.282115
  14 H :    0.006829
  15 H :   -0.066254
  16 H :    0.071766
  17 H :    0.001588
  18 H :   -0.193127
Sum of atomic charges:   -0.0000000

LOEWDIN ATOMIC CHARGES
----------------------
   0 C :    0.041136
   1 N :   -0.008371
   2 C :   -0.071076
   3 C :    0.130374
   4 C :   -0.244863
   5 C :    0.141677
   6 N :    0.198162
   7 H :    0.005981
   8 H :   -0.017887
   9 H :    0.018735
  10 H :   -0.105714
  11 H :   -0.101578
  12 H :    0.013749
  13 H :    0.014510
  14 H :    0.020770
  15 H :    0.019539
  16 H :   -0.015203
  17 H :   -0.016461
  18 H :   -0.023481

  Mayer bond orders larger than 0.100000
B(  0-C ,  1-N ) :   0.8369 B(  0-C ,  2-C ) :   1.1366 B(  0-C , 12-H ) :   0.7819
B(  0-C , 13-H ) :   0.9644 B(  0-C , 15-H ) :   0.1326 B(  1-N ,  4-C ) :   1.0727
B(  1-N ,  5-C ) :   0.2187 B(  1-N ,  9-H ) :   1.0710 B(  1-N , 12-H ) :   0.1267
B(  1-N , 13-H ) :   0.1209 B(  2-C ,  3-C ) :   1.2576 B(  2-C , 14-H ) :   0.9352
B(  2-C , 15-H ) :   0.9962 B(  2-C , 16-H ) :   0.1835 B(  2-C , 17-H ) :   0.1901
B(  2-C , 18-H ) :   0.2209 B(  3-C , 16-H ) :   0.7527 B(  3-C , 17-H ) :   0.7739
B(  3-C , 18-H ) :   0.8793 B(  4-C ,  5-C ) :   1.7866 B(  4-C ,  6-N ) :   0.8581
B(  4-C ,  9-H ) :  -0.1361 B(  4-C , 10-H ) :   0.1798 B(  4-C , 11-H ) :   0.3276
B(  5-C ,  6-N ) :   0.2447 B(  5-C , 10-H ) :   0.9123 B(  5-C , 11-H ) :   0.5601
B(  6-N ,  7-H ) :   1.1049 B(  6-N ,  8-H ) :   0.9096 B(  6-N , 11-H ) :   0.1076
B(  7-H ,  8-H ) :  -0.1090 B( 10-H , 11-H ) :   0.1439 B( 16-H , 18-H ) :   0.1358

Dispersion correction           -0.013881174
FINAL SINGLE POINT ENERGY      -306.655471596893

DIPOLE MOMENT
-------------
                                X             Y             Z
Electronic contribution:      1.77650       4.87993      -0.59381
Nuclear contribution   :     -3.17203      -5.30499       0.68068
                        -----------------------------------------
Total Dipole Moment    :     -1.39553      -0.42506       0.08688
                        -----------------------------------------
Magnitude (a.u.)       :      1.46142
Magnitude (Debye)      :      3.71462

Rotational constants in cm-1:     0.149640     0.051631     0.046708
Rotational constants in MHz :  4486.107270  1547.846261  1400.277765

                             ****ORCA TERMINATED NORMALLY****
TOTAL RUN TIME: 0 days 0 hours 0 minutes 29 seconds 995 msec
