                         Program Version 5.0.0 -  RELEASE  -
|  1> !PBE0 D3BJ RIJCOSX def2-SVPD def2/J TightSCF
|  2> *xyz 0 1
|  3> C          3.90595        2.81985       -3.75292
|  4> N          5.29562        3.13151       -4.10533
|  5> C          3.80351        1.37472       -3.26081
|  6> C          3.93993        0.32036       -4.36773
|  7> C          5.70862        3.46889       -5.32419
|  8> N          6.90470        3.03895       -5.71708
|  9> C          4.98188        4.29357       -6.09746
| 10> H          5.00055        4.10131       -7.08776
| 11> H          4.08469        4.59690       -5.73965
| 12> H          5.96336        2.52611       -3.64239
| 13> H          7.04716        2.06686       -5.47360
| 14> H          7.19815        3.30799       -6.64523
| 15> H          3.28202        2.94919       -4.64026
| 16> H          3.56525        3.51457       -2.98252
| 17> H          4.57483        1.21516       -2.50044
| 18> H          2.84351        1.26085       -2.75146
| 19> H          3.18417        0.48061       -5.10803
| 20> H          3.82485       -0.65632       -3.94614
| 21> H          4.90589        0.40174       -4.82073
| 22> *
| 23>
| 24> %MaxCore 64000
| 25>
| 26> %pal nprocs 4
| 27> end
| 28>
| 29> %scf
| 30>   MaxIter 150
| 31> end
| 32>
| 33>
| 34>                          ****END OF INPUT****

CARTESIAN COORDINATES (ANGSTROEM)
---------------------------------
  C      3.905950    2.819850   -3.752920
  N      5.295620    3.131510   -4.105330
  C      3.803510    1.374720   -3.260810
  C      3.939930    0.320360   -4.367730
  C      5.708620    3.468890   -5.324190
  N      6.904700    3.038950   -5.717080
  C      4.981880    4.293570   -6.097460
  H      5.000550    4.101310   -7.087760
  H      4.084690    4.596900   -5.739650
  H      5.963360    2.526110   -3.642390
  H      7.047160    2.066860   -5.473600
  H      7.198150    3.307990   -6.645230
  H      3.282020    2.949190   -4.640260
  H      3.565250    3.514570   -2.982520
  H      4.574830    1.215160   -2.500440
  H      2.843510    1.260850   -2.751460
  H      3.184170    0.480610   -5.108030
  H      3.824850   -0.656320   -3.946140
  H      4.905890    0.401740   -4.820730

 Total Charge           Charge          ....    0
 Multiplicity           Mult            ....    1
 Number of Electrons    NEL             ....   56
 Basis Dimension        Dim             ....  236

ORBITAL ENERGIES
----------------

  NO   OCC          E(Eh)            E(eV)
   0   2.0000     -14.402034      -391.8993
   1   2.0000     -14.399505      -391.8305
   2   2.0000     -10.278999      -279.7058
   3   2.0000     -10.265866      -279.3484
   4   2.0000     -10.242246      -278.7057
   5   2.0000     -10.226975      -278.2901
   6   2.0000     -10.151104      -276.2256
   7   2.0000      -0.995794       -27.0969
   8   2.0000      -0.909137       -24.7389
   9   2.0000      -0.804608       -21.8945
  10   2.0000      -0.731614       -19.9082
  11   2.0000      -0.708717       -19.2852
  12   2.0000      -0.625310       -17.0156
  13   2.0000      -0.583673       -15.8826
  14   2.0000      -0.552484       -15.0338
  15   2.0000      -0.533249       -14.5105
  16   2.0000      -0.487740       -13.2721
  17   2.0000      -0.482162       -13.1203
  18   2.0000      -0.448478       -12.2037
  19   2.0000      -0.429517       -11.6877
  20   2.0000      -0.411207       -11.1895
  21   2.0000      -0.397709       -10.8222
  22   2.0000      -0.381749       -10.3879
  23   2.0000      -0.367890       -10.0108
  24   2.0000      -0.362058        -9.8521
  25   2.0000      -0.349290        -9.5047
  26   2.0000      -0.271909        -7.3990
  27   2.0000      -0.188513        -5.1297
  28   0.0000       0.014860         0.4044
  29   0.0000       0.040559         1.1037
  30   0.0000       0.049068         1.3352
  31   0.0000       0.053863         1.4657
  32   0.0000       0.061792         1.6815

MULLIKEN ATOMIC CHARGES
-----------------------
   0 C :    0.672639
   1 N :   -0.423960
   2 C :   -0.411366
   3 C :    0.663394
   4 C :    0.282422
   5 N :   -0.113234
   6 C :    0.361499
   7 H :   -0.338476
   8 H :   -0.024616
   9 H :   -0.181629
  10 H :   -0.056052
  11 H :    0.035867
  12 H :    0.058907
  13 H :   -0.329066
  14 H :   -0.014767
  15 H :   -0.052365
  16 H :    0.064784
  17 H :    0.006466
  18 H :   -0.200448
Sum of atomic charges:    0.0000000

LOEWDIN ATOMIC CHARGES
----------------------
   0 C :    0.053035
   1 N :   -0.007112
   2 C :   -0.071779
   3 C :    0.127560
   4 C :   -0.256926
   5 N :    0.186835
   6 C :    0.159119
   7 H :   -0.101530
   8 H :   -0.106683
   9 H :    0.008609
  10 H :   -0.013868
  11 H :    0.005326
  12 H :    0.019403
  13 H :    0.019345
  14 H :    0.017399
  15 H :    0.020892
  16 H :   -0.013024
  17 H :   -0.016959
  18 H :   -0.029642

  Mayer bond orders larger than 0.100000
B(  0-C ,  1-N ) :   0.8775 B(  0-C ,  2-C ) :   1.1289 B(  0-C , 12-H ) :   0.7987
B(  0-C , 13-H ) :   0.9832 B(  0-C , 15-H ) :   0.1408 B(  1-N ,  4-C ) :   1.0673
B(  1-N ,  5-N ) :   0.1697 B(  1-N ,  6-C ) :   0.1961 B(  1-N ,  9-H ) :   1.0475
B(  1-N , 12-H ) :   0.1213 B(  1-N , 13-H ) :   0.1114 B(  2-C ,  3-C ) :   1.2513
B(  2-C , 14-H ) :   0.9435 B(  2-C , 15-H ) :   0.9773 B(  2-C , 16-H ) :   0.1850
B(  2-C , 17-H ) :   0.1861 B(  2-C , 18-H ) :   0.2155 B(  3-C , 16-H ) :   0.7716
B(  3-C , 17-H ) :   0.7773 B(  3-C , 18-H ) :   0.8745 B(  4-C ,  5-N ) :   0.9214
B(  4-C ,  6-C ) :   1.8841 B(  4-C ,  7-H ) :   0.1742 B(  4-C ,  8-H ) :   0.2801
B(  4-C ,  9-H ) :  -0.1024 B(  5-N ,  6-C ) :   0.1330 B(  5-N , 10-H ) :   0.9642
B(  5-N , 11-H ) :   0.9777 B(  6-C ,  7-H ) :   0.9192 B(  6-C ,  8-H ) :   0.5270
B(  7-H ,  8-H ) :   0.2588 B( 16-H , 18-H ) :   0.1104

Dispersion correction           -0.013896552
FINAL SINGLE POINT ENERGY      -306.659759298094

DIPOLE MOMENT
-------------
                                X             Y             Z
Electronic contribution:      3.61904       3.71227      -0.29259
Nuclear contribution   :     -3.59323      -5.03016       0.59736
                        -----------------------------------------
Total Dipole Moment    :      0.02581      -1.31789       0.30477
                        -----------------------------------------
Magnitude (a.u.)       :      1.35291
Magnitude (Debye)      :      3.43883

Rotational constants in cm-1:     0.148888     0.051791     0.046487
Rotational constants in MHz :  4463.542717  1552.665696  1393.643356

                             ****ORCA TERMINATED NORMALLY****
TOTAL RUN TIME: 0 days 0 hours 0 minutes 30 seconds 581 msec
