                         Program Version 5.0.0 -  RELEASE  -
|  1> !PBE0 D3BJ RIJCOSX def2-SVPD def2/J TightSCF xyzfile
|  2>
|  3> *xyzfile 0 1 D3.xyz
|  4>
|  5> %MaxCore 64000
|  6>
|  7> %pal nprocs 4
|  8> end
|  9>
| 10> %scf
| 11>   MaxIter 150
| 12> end
| 13>
| 14>
| 15>                          ****END OF INPUT****

CARTESIAN COORDINATES (ANGSTROEM)
---------------------------------
  C      3.905947    2.819855   -3.752920
  N      5.295615    3.131515   -4.105334
  C      3.803511    1.374716   -3.260807
  C      3.939934    0.320362   -4.367729
  H      4.105043   -0.655085   -3.907733
  H      3.022801    0.280517   -4.957117
  C      5.105846    0.668022   -5.305463
  C      5.708619    3.468885   -5.324190
  N      6.904696    3.038954   -5.717084
  C      4.981884    4.293570   -6.097457
  H      5.000546    4.101311   -7.087761
  H      4.084693    4.596899   -5.739652
  H      5.963358    2.526112   -3.642391
  H      7.047164    2.066861   -5.473604
  H      7.198145    3.307994   -6.645225
  H      3.282025    2.949187   -4.640259
  H      3.565254    3.514574   -2.982523
  H      4.574833    1.215157   -2.500443
  H      2.843514    1.260845   -2.751465
  F      4.809132    1.150187   -6.414361
  O      6.267366    0.564999   -4.819481

 Total Charge           Charge          ....    0
 Multiplicity           Mult            ....    1
 Number of Electrons    NEL             ....   78
 Basis Dimension        Dim             ....  294

ORBITAL ENERGIES
----------------

  NO   OCC          E(Eh)            E(eV)
   0   2.0000     -24.876625      -676.9274
   1   2.0000     -19.247254      -523.7444
   2   2.0000     -14.403098      -391.9282
   3   2.0000     -14.377860      -391.2415
   4   2.0000     -10.439933      -284.0850
   5   2.0000     -10.280264      -279.7402
   6   2.0000     -10.279069      -279.7077
   7   2.0000     -10.274258      -279.5768
   8   2.0000     -10.267454      -279.3916
   9   2.0000     -10.146282      -276.0944
  10   2.0000      -1.363849       -37.1122
  11   2.0000      -1.078861       -29.3573
  12   2.0000      -0.991758       -26.9871
  13   2.0000      -0.905938       -24.6518
  14   2.0000      -0.838169       -22.8077
  15   2.0000      -0.757433       -20.6108
  16   2.0000      -0.721691       -19.6382
  17   2.0000      -0.699515       -19.0348
  18   2.0000      -0.652745       -17.7621
  19   2.0000      -0.594526       -16.1779
  20   2.0000      -0.585538       -15.9333
  21   2.0000      -0.577700       -15.7200
  22   2.0000      -0.559922       -15.2363
  23   2.0000      -0.533169       -14.5083
  24   2.0000      -0.521107       -14.1800
  25   2.0000      -0.500403       -13.6167
  26   2.0000      -0.491190       -13.3660
  27   2.0000      -0.453590       -12.3428
  28   2.0000      -0.445325       -12.1179
  29   2.0000      -0.425752       -11.5853
  30   2.0000      -0.408721       -11.1219
  31   2.0000      -0.406794       -11.0694
  32   2.0000      -0.392526       -10.6812
  33   2.0000      -0.385713       -10.4958
  34   2.0000      -0.373765       -10.1707
  35   2.0000      -0.347625        -9.4594
  36   2.0000      -0.330372        -8.9899
  37   2.0000      -0.266600        -7.2546
  38   2.0000      -0.183539        -4.9943
  39   0.0000      -0.053239        -1.4487
  40   0.0000       0.014989         0.4079
  41   0.0000       0.039755         1.0818
  42   0.0000       0.044482         1.2104
  43   0.0000       0.051308         1.3962

MULLIKEN ATOMIC CHARGES
-----------------------
   0 C :    0.722518
   1 N :   -0.417056
   2 C :    0.014890
   3 C :    0.110111
   4 H :   -0.004636
   5 H :    0.072057
   6 C :    0.908559
   7 C :    0.217254
   8 N :    0.016585
   9 C :    0.337470
  10 H :   -0.342107
  11 H :   -0.092551
  12 H :   -0.179796
  13 H :   -0.083469
  14 H :    0.056815
  15 H :    0.059437
  16 H :   -0.348500
  17 H :    0.099432
  18 H :   -0.076449
  19 F :   -0.422693
  20 O :   -0.647871
Sum of atomic charges:   -0.0000000

LOEWDIN ATOMIC CHARGES
----------------------
   0 C :    0.069776
   1 N :    0.006475
   2 C :   -0.007532
   3 C :    0.064123
   4 H :    0.041496
   5 H :    0.030917
   6 C :    0.024288
   7 C :   -0.268143
   8 N :    0.214714
   9 C :    0.154321
  10 H :   -0.100310
  11 H :   -0.109743
  12 H :    0.006825
  13 H :   -0.082447
  14 H :    0.011899
  15 H :    0.022830
  16 H :    0.022896
  17 H :    0.032744
  18 H :    0.029185
  19 F :   -0.009089
  20 O :   -0.155225

  Mayer bond orders larger than 0.100000
B(  0-C ,  1-N ) :   0.8060 B(  0-C ,  2-C ) :   1.1600 B(  0-C , 15-H ) :   0.7723
B(  0-C , 16-H ) :   0.9528 B(  0-C , 18-H ) :   0.1725 B(  1-N ,  2-C ) :   0.1486
B(  1-N ,  7-C ) :   1.0966 B(  1-N ,  9-C ) :   0.2298 B(  1-N , 12-H ) :   1.0308
B(  1-N , 15-H ) :   0.1432 B(  2-C ,  3-C ) :   1.2206 B(  2-C ,  4-H ) :   0.1623
B(  2-C ,  5-H ) :   0.1042 B(  2-C , 17-H ) :   0.8457 B(  2-C , 18-H ) :   0.9386
B(  3-C ,  4-H ) :   0.8342 B(  3-C ,  5-H ) :   0.8694 B(  3-C ,  6-C ) :   1.1263
B(  4-H ,  6-C ) :   0.1215 B(  5-H ,  6-C ) :   0.1238 B(  6-C , 19-F ) :   0.6104
B(  6-C , 20-O ) :   1.5387 B(  7-C ,  8-N ) :   0.9252 B(  7-C ,  9-C ) :   1.9063
B(  7-C , 10-H ) :   0.1917 B(  7-C , 11-H ) :   0.3032 B(  7-C , 12-H ) :  -0.1749
B(  7-C , 13-H ) :   0.1107 B(  8-N ,  9-C ) :   0.1407 B(  8-N , 13-H ) :   0.8445
B(  8-N , 14-H ) :   0.9063 B(  9-C , 10-H ) :   0.8917 B(  9-C , 11-H ) :   0.5882
B( 10-H , 11-H ) :   0.1836

Dispersion correction           -0.019553858
FINAL SINGLE POINT ENERGY      -518.868077897721

DIPOLE MOMENT
-------------
                                X             Y             Z
Electronic contribution:      3.57066      -4.84517      -4.86495
Nuclear contribution   :     -4.64021       3.37029       5.31478
                        -----------------------------------------
Total Dipole Moment    :     -1.06955      -1.47489       0.44983
                        -----------------------------------------
Magnitude (a.u.)       :      1.87658
Magnitude (Debye)      :      4.76990

Rotational constants in cm-1:     0.061077     0.043622     0.034103
Rotational constants in MHz :  1831.041375  1307.759852  1022.388536

                             ****ORCA TERMINATED NORMALLY****
TOTAL RUN TIME: 0 days 0 hours 1 minutes 4 seconds 785 msec
