                         Program Version 5.0.0 -  RELEASE  -
|  1> !PBE0 D3BJ RIJCOSX def2-SVPD def2/J TightSCF xyzfile
|  2>
|  3> *xyzfile 0 1 D4.xyz
|  4>
|  5> %MaxCore 64000
|  6>
|  7> %pal nprocs 4
|  8> end
|  9>
| 10> %scf
| 11>   MaxIter 150
| 12> end
| 13>
| 14>
| 15>                          ****END OF INPUT****

CARTESIAN COORDINATES (ANGSTROEM)
---------------------------------
  C      3.905947    2.819855   -3.752920
  C      5.295615    3.131515   -4.105334
  C      3.803511    1.374716   -3.260807
  C      3.939934    0.320362   -4.367729
  H      4.105043   -0.655085   -3.907733
  H      3.022801    0.280517   -4.957117
  C      5.105846    0.668022   -5.305463
  C      5.708619    3.468885   -5.324190
  N      6.904696    3.038954   -5.717084
  N      4.981884    4.293570   -6.097457
  H      5.000546    4.101311   -7.087761
  H      4.084693    4.596899   -5.739652
  H      5.963358    2.526112   -3.642391
  H      7.047164    2.066861   -5.473604
  H      7.198145    3.307994   -6.645225
  H      3.282025    2.949187   -4.640259
  H      3.565254    3.514574   -2.982523
  H      4.574833    1.215157   -2.500443
  H      2.843514    1.260845   -2.751465
  O      4.809132    1.150187   -6.414361
  F      6.267366    0.564999   -4.819481

 Total Charge           Charge          ....    0
 Multiplicity           Mult            ....    1
 Number of Electrons    NEL             ....   78
 Basis Dimension        Dim             ....  294

ORBITAL ENERGIES
----------------

  NO   OCC          E(Eh)            E(eV)
   0   2.0000     -24.862797      -676.5511
   1   2.0000     -19.225528      -523.1532
   2   2.0000     -14.399349      -391.8262
   3   2.0000     -14.388426      -391.5290
   4   2.0000     -10.415501      -283.4202
   5   2.0000     -10.278523      -279.6928
   6   2.0000     -10.259522      -279.1758
   7   2.0000     -10.242391      -278.7096
   8   2.0000     -10.221720      -278.1471
   9   2.0000     -10.163517      -276.5634
  10   2.0000      -1.345273       -36.6067
  11   2.0000      -1.061959       -28.8974
  12   2.0000      -0.982144       -26.7255
  13   2.0000      -0.890967       -24.2445
  14   2.0000      -0.836479       -22.7617
  15   2.0000      -0.769029       -20.9264
  16   2.0000      -0.712642       -19.3920
  17   2.0000      -0.678740       -18.4694
  18   2.0000      -0.625759       -17.0278
  19   2.0000      -0.607708       -16.5366
  20   2.0000      -0.575591       -15.6626
  21   2.0000      -0.562417       -15.3041
  22   2.0000      -0.546609       -14.8740
  23   2.0000      -0.526450       -14.3254
  24   2.0000      -0.516927       -14.0663
  25   2.0000      -0.485510       -13.2114
  26   2.0000      -0.479925       -13.0594
  27   2.0000      -0.458745       -12.4831
  28   2.0000      -0.445219       -12.1150
  29   2.0000      -0.415744       -11.3130
  30   2.0000      -0.400106       -10.8874
  31   2.0000      -0.387546       -10.5457
  32   2.0000      -0.378329       -10.2948
  33   2.0000      -0.360689        -9.8148
  34   2.0000      -0.351009        -9.5514
  35   2.0000      -0.340964        -9.2781
  36   2.0000      -0.306449        -8.3389
  37   2.0000      -0.280170        -7.6238
  38   2.0000      -0.185656        -5.0520
  39   0.0000      -0.026757        -0.7281
  40   0.0000       0.021936         0.5969
  41   0.0000       0.037597         1.0231
  42   0.0000       0.047356         1.2886
  43   0.0000       0.054135         1.4731

MULLIKEN ATOMIC CHARGES
-----------------------
   0 C :    0.270791
   1 C :   -0.113175
   2 C :    0.035766
   3 C :    0.152279
   4 H :   -0.008538
   5 H :    0.069610
   6 C :    0.830732
   7 C :    0.425182
   8 N :    0.059523
   9 N :   -0.151172
  10 H :   -0.047272
  11 H :    0.028797
  12 H :   -0.140464
  13 H :   -0.066410
  14 H :   -0.007659
  15 H :   -0.063816
  16 H :   -0.175009
  17 H :    0.064385
  18 H :   -0.104378
  19 O :   -0.564124
  20 F :   -0.495048
Sum of atomic charges:    0.0000000

LOEWDIN ATOMIC CHARGES
----------------------
   0 C :   -0.049614
   1 C :   -0.021525
   2 C :   -0.023454
   3 C :    0.062466
   4 H :    0.030413
   5 H :    0.037252
   6 C :   -0.001067
   7 C :   -0.241522
   8 N :    0.215925
   9 N :    0.215359
  10 H :   -0.002721
  11 H :   -0.001688
  12 H :   -0.055270
  13 H :   -0.048126
  14 H :    0.004021
  15 H :    0.014191
  16 H :    0.012726
  17 H :    0.029411
  18 H :    0.022859
  19 O :   -0.144629
  20 F :   -0.055007

  Mayer bond orders larger than 0.100000
B(  0-C ,  1-C ) :   1.0025 B(  0-C ,  2-C ) :   1.2091 B(  0-C , 12-H ) :   0.1812
B(  0-C , 15-H ) :   0.8142 B(  0-C , 16-H ) :   0.8743 B(  0-C , 18-H ) :   0.1803
B(  1-C ,  2-C ) :   0.1271 B(  1-C ,  7-C ) :   1.7651 B(  1-C ,  8-N ) :   0.3470
B(  1-C ,  9-N ) :   0.1356 B(  1-C , 12-H ) :   0.5260 B(  1-C , 16-H ) :   0.1491
B(  2-C ,  3-C ) :   1.1850 B(  2-C ,  4-H ) :   0.1658 B(  2-C , 17-H ) :   0.8505
B(  2-C , 18-H ) :   0.9203 B(  3-C ,  4-H ) :   0.8410 B(  3-C ,  5-H ) :   0.8723
B(  3-C ,  6-C ) :   1.1130 B(  5-H ,  6-C ) :   0.1680 B(  6-C , 19-O ) :   1.6527
B(  6-C , 20-F ) :   0.4922 B(  7-C ,  8-N ) :   0.7985 B(  7-C ,  9-N ) :   0.8756
B(  7-C , 12-H ) :   0.2302 B(  7-C , 14-H ) :   0.1578 B(  8-N ,  9-N ) :   0.1369
B(  8-N , 13-H ) :   0.9154 B(  8-N , 14-H ) :   0.8452 B(  9-N , 10-H ) :   1.0954
B(  9-N , 11-H ) :   0.9607 B( 10-H , 11-H ) :  -0.1000

Dispersion correction           -0.019692227
FINAL SINGLE POINT ENERGY      -518.881202560924

DIPOLE MOMENT
-------------
                                X             Y             Z
Electronic contribution:      5.83580      -4.47872      -3.90184
Nuclear contribution   :     -6.25608       3.89116       3.75052
                        -----------------------------------------
Total Dipole Moment    :     -0.42028      -0.58756      -0.15131
                        -----------------------------------------
Magnitude (a.u.)       :      0.73808
Magnitude (Debye)      :      1.87605

Rotational constants in cm-1:     0.061229     0.042568     0.033282
Rotational constants in MHz :  1835.590871  1276.154029   997.769927

                             ****ORCA TERMINATED NORMALLY****
TOTAL RUN TIME: 0 days 0 hours 1 minutes 4 seconds 860 msec
