                         Program Version 5.0.0 -  RELEASE  -
|  1> !PBE0 D3BJ RIJCOSX def2-SVPD def2/J TightSCF xyzfile
|  2>
|  3> *xyzfile 0 1 D6.xyz
|  4>
|  5> %MaxCore 64000
|  6>
|  7> %pal nprocs 4
|  8> end
|  9>
| 10> %scf
| 11>   MaxIter 150
| 12> end
| 13>
| 14>
| 15>                          ****END OF INPUT****

CARTESIAN COORDINATES (ANGSTROEM)
---------------------------------
  C      3.905947    2.819855   -3.752920
  N      5.295615    3.131515   -4.105334
  C      3.803511    1.374716   -3.260807
  C      3.939934    0.320362   -4.367729
  H      4.105043   -0.655085   -3.907733
  H      3.022801    0.280517   -4.957117
  C      5.105846    0.668022   -5.305463
  C      5.708619    3.468885   -5.324190
  N      6.904696    3.038954   -5.717084
  C      4.981884    4.293570   -6.097457
  H      5.000546    4.101311   -7.087761
  H      4.084693    4.596899   -5.739652
  H      5.963358    2.526112   -3.642391
  H      7.047164    2.066861   -5.473604
  H      7.198145    3.307994   -6.645225
  H      3.282025    2.949187   -4.640259
  H      3.565254    3.514574   -2.982523
  H      4.574833    1.215157   -2.500443
  H      2.843514    1.260845   -2.751465
  O      4.809132    1.150187   -6.414361
  F      6.267366    0.564999   -4.819481

 Total Charge           Charge          ....    0
 Multiplicity           Mult            ....    1
 Number of Electrons    NEL             ....   78
 Basis Dimension        Dim             ....  294

ORBITAL ENERGIES
----------------

  NO   OCC          E(Eh)            E(eV)
   0   2.0000     -24.876895      -676.9347
   1   2.0000     -19.238802      -523.5144
   2   2.0000     -14.408884      -392.0857
   3   2.0000     -14.385851      -391.4589
   4   2.0000     -10.424689      -283.6702
   5   2.0000     -10.277900      -279.6759
   6   2.0000     -10.275498      -279.6105
   7   2.0000     -10.275137      -279.6007
   8   2.0000     -10.266997      -279.3792
   9   2.0000     -10.146104      -276.0895
  10   2.0000      -1.359819       -37.0026
  11   2.0000      -1.072954       -29.1966
  12   2.0000      -0.996134       -27.1062
  13   2.0000      -0.909718       -24.7547
  14   2.0000      -0.836764       -22.7695
  15   2.0000      -0.756756       -20.5924
  16   2.0000      -0.721092       -19.6219
  17   2.0000      -0.701242       -19.0818
  18   2.0000      -0.652708       -17.7611
  19   2.0000      -0.598613       -16.2891
  20   2.0000      -0.592532       -16.1236
  21   2.0000      -0.582004       -15.8371
  22   2.0000      -0.543007       -14.7760
  23   2.0000      -0.528471       -14.3804
  24   2.0000      -0.519102       -14.1255
  25   2.0000      -0.500430       -13.6174
  26   2.0000      -0.497079       -13.5262
  27   2.0000      -0.447106       -12.1664
  28   2.0000      -0.445287       -12.1169
  29   2.0000      -0.420910       -11.4535
  30   2.0000      -0.409570       -11.1450
  31   2.0000      -0.404948       -11.0192
  32   2.0000      -0.397268       -10.8102
  33   2.0000      -0.381720       -10.3871
  34   2.0000      -0.375491       -10.2176
  35   2.0000      -0.346923        -9.4403
  36   2.0000      -0.316207        -8.6044
  37   2.0000      -0.271312        -7.3828
  38   2.0000      -0.184336        -5.0160
  39   0.0000      -0.037706        -1.0260
  40   0.0000       0.012236         0.3330
  41   0.0000       0.041174         1.1204
  42   0.0000       0.042457         1.1553
  43   0.0000       0.052788         1.4364

MULLIKEN ATOMIC CHARGES
-----------------------
   0 C :    0.751497
   1 N :   -0.399455
   2 C :   -0.006682
   3 C :    0.144086
   4 H :   -0.006387
   5 H :    0.077193
   6 C :    0.788181
   7 C :    0.283364
   8 N :   -0.006745
   9 C :    0.337992
  10 H :   -0.352913
  11 H :   -0.089013
  12 H :   -0.194873
  13 H :   -0.104696
  14 H :    0.070783
  15 H :    0.072264
  16 H :   -0.352888
  17 H :    0.060839
  18 H :   -0.079000
  19 O :   -0.506383
  20 F :   -0.487161
Sum of atomic charges:   -0.0000000

LOEWDIN ATOMIC CHARGES
----------------------
   0 C :    0.072247
   1 N :    0.005280
   2 C :   -0.014072
   3 C :    0.063167
   4 H :    0.032433
   5 H :    0.040539
   6 C :   -0.003865
   7 C :   -0.268557
   8 N :    0.212867
   9 C :    0.166535
  10 H :   -0.091521
  11 H :   -0.104763
  12 H :    0.005083
  13 H :   -0.060517
  14 H :    0.016154
  15 H :    0.028418
  16 H :    0.022840
  17 H :    0.026413
  18 H :    0.028437
  19 O :   -0.118222
  20 F :   -0.058894

  Mayer bond orders larger than 0.100000
B(  0-C ,  1-N ) :   0.8052 B(  0-C ,  2-C ) :   1.1477 B(  0-C , 15-H ) :   0.7688
B(  0-C , 16-H ) :   0.9491 B(  0-C , 18-H ) :   0.1695 B(  1-N ,  2-C ) :   0.1674
B(  1-N ,  7-C ) :   1.0964 B(  1-N ,  8-N ) :   0.1017 B(  1-N ,  9-C ) :   0.2202
B(  1-N , 12-H ) :   1.0308 B(  1-N , 15-H ) :   0.1339 B(  2-C ,  3-C ) :   1.2011
B(  2-C ,  4-H ) :   0.1634 B(  2-C , 17-H ) :   0.8540 B(  2-C , 18-H ) :   0.9411
B(  3-C ,  4-H ) :   0.8378 B(  3-C ,  5-H ) :   0.8570 B(  3-C ,  6-C ) :   1.1137
B(  4-H ,  6-C ) :   0.1002 B(  5-H ,  6-C ) :   0.1898 B(  6-C , 19-O ) :   1.7052
B(  6-C , 20-F ) :   0.4990 B(  7-C ,  8-N ) :   0.9059 B(  7-C ,  9-C ) :   1.9072
B(  7-C , 10-H ) :   0.1905 B(  7-C , 11-H ) :   0.2980 B(  7-C , 12-H ) :  -0.1708
B(  7-C , 13-H ) :   0.1135 B(  8-N ,  9-C ) :   0.1405 B(  8-N , 13-H ) :   0.8571
B(  8-N , 14-H ) :   0.9035 B(  9-C , 10-H ) :   0.9118 B(  9-C , 11-H ) :   0.5761
B( 10-H , 11-H ) :   0.1553

Dispersion correction           -0.019596262
FINAL SINGLE POINT ENERGY      -518.864987729236

DIPOLE MOMENT
-------------
                                X             Y             Z
Electronic contribution:      5.96797      -5.64273      -2.32178
Nuclear contribution   :     -6.29470       4.03423       3.50525
                        -----------------------------------------
Total Dipole Moment    :     -0.32673      -1.60850       1.18348
                        -----------------------------------------
Magnitude (a.u.)       :      2.02352
Magnitude (Debye)      :      5.14338

Rotational constants in cm-1:     0.061094     0.043661     0.033867
Rotational constants in MHz :  1831.559881  1308.929520  1015.295167

                             ****ORCA TERMINATED NORMALLY****
TOTAL RUN TIME: 0 days 0 hours 1 minutes 5 seconds 166 msec
