                         Program Version 5.0.0 -  RELEASE  -
|  1> !BLYP D3BJ RIJCOSX def2-TZVP def2/J TightSCF
|  2> *xyz -1 1
|  3> C          0.84888        2.66797       -4.30235
|  4> C          2.09343        1.86104       -4.65684
|  5> H          2.44481        2.04157       -5.67499
|  6> H          2.90175        2.13786       -3.98034
|  7> S          1.87964        0.07859       -4.46297
|  8> O          3.20757       -0.46611       -4.42026
|  9> O          1.07506       -0.05616       -3.26876
| 10> O          1.13166       -0.31996       -5.67903
| 11> H          0.05064        2.40112       -4.96303
| 12> H          1.06043        3.71210       -4.40203
| 13> H          0.56237        2.45684       -3.29327
| 14> *
| 15>
| 16> %MaxCore 64000
| 17>
| 18> %pal nprocs 4
| 19> end
| 20>
| 21> %scf
| 22>   MaxIter 150
| 23> end
| 24>
| 25>
| 26>                          ****END OF INPUT****

CARTESIAN COORDINATES (ANGSTROEM)
---------------------------------
  C      0.848880    2.667970   -4.302350
  C      2.093430    1.861040   -4.656840
  H      2.444810    2.041570   -5.674990
  H      2.901750    2.137860   -3.980340
  S      1.879640    0.078590   -4.462970
  O      3.207570   -0.466110   -4.420260
  O      1.075060   -0.056160   -3.268760
  O      1.131660   -0.319960   -5.679030
  H      0.050640    2.401120   -4.963030
  H      1.060430    3.712100   -4.402030
  H      0.562370    2.456840   -3.293270

 Total Charge           Charge          ....   -1
 Multiplicity           Mult            ....    1
 Number of Electrons    NEL             ....   58
 Basis Dimension        Dim             ....  222

ORBITAL ENERGIES
----------------

  NO   OCC          E(Eh)            E(eV)
   0   2.0000     -88.068995     -2396.4792
   1   2.0000     -18.544099      -504.6106
   2   2.0000     -18.541114      -504.5294
   3   2.0000     -18.528192      -504.1777
   4   2.0000      -9.753573      -265.4082
   5   2.0000      -9.750244      -265.3176
   6   2.0000      -7.599781      -206.8006
   7   2.0000      -5.628432      -153.1574
   8   2.0000      -5.627468      -153.1312
   9   2.0000      -5.627177      -153.1233
  10   2.0000      -0.819231       -22.2924
  11   2.0000      -0.696477       -18.9521
  12   2.0000      -0.671435       -18.2707
  13   2.0000      -0.544152       -14.8071
  14   2.0000      -0.425922       -11.5899
  15   2.0000      -0.309193        -8.4136
  16   2.0000      -0.256253        -6.9730
  17   2.0000      -0.249419        -6.7870
  18   2.0000      -0.211454        -5.7540
  19   2.0000      -0.196008        -5.3337
  20   2.0000      -0.191955        -5.2234
  21   2.0000      -0.172862        -4.7038
  22   2.0000      -0.159296        -4.3347
  23   2.0000      -0.092393        -2.5141
  24   2.0000      -0.090728        -2.4688
  25   2.0000      -0.060692        -1.6515
  26   2.0000      -0.055905        -1.5213
  27   2.0000      -0.042651        -1.1606
  28   2.0000      -0.008149        -0.2217
  29   0.0000       0.157233         4.2785
  30   0.0000       0.198479         5.4009
  31   0.0000       0.212716         5.7883
  32   0.0000       0.218472         5.9449
  33   0.0000       0.245350         6.6763

MULLIKEN ATOMIC CHARGES
-----------------------
   0 C :   -0.274135
   1 C :   -0.184627
   2 H :    0.049717
   3 H :    0.043129
   4 S :    0.737205
   5 O :   -0.506751
   6 O :   -0.519072
   7 O :   -0.562713
   8 H :    0.081243
   9 H :    0.040419
  10 H :    0.095585
Sum of atomic charges:   -1.0000000

LOEWDIN ATOMIC CHARGES
----------------------
   0 C :   -0.342239
   1 C :   -0.431728
   2 H :    0.110032
   3 H :    0.108978
   4 S :    0.376476
   5 O :   -0.355623
   6 O :   -0.362412
   7 O :   -0.415685
   8 H :    0.108600
   9 H :    0.093280
  10 H :    0.110320

  Mayer bond orders larger than 0.100000
B(  0-C ,  1-C ) :   0.9417 B(  0-C ,  8-H ) :   0.9745 B(  0-C ,  9-H ) :   0.9533
B(  0-C , 10-H ) :   0.9727 B(  1-C ,  2-H ) :   0.9568 B(  1-C ,  3-H ) :   0.9469
B(  1-C ,  4-S ) :   0.8571 B(  4-S ,  5-O ) :   1.8511 B(  4-S ,  6-O ) :   1.7770
B(  4-S ,  7-O ) :   1.7728

Dispersion correction           -0.020613157
FINAL SINGLE POINT ENERGY      -703.240841629003

DIPOLE MOMENT
-------------
                                X             Y             Z
Electronic contribution:      1.61529      -7.87546       0.05856
Nuclear contribution   :     -1.55288       9.51857       0.00420
                        -----------------------------------------
Total Dipole Moment    :      0.06241       1.64311       0.06276
                        -----------------------------------------
Magnitude (a.u.)       :      1.64549
Magnitude (Debye)      :      4.18251

Rotational constants in cm-1:     0.163401     0.083833     0.082462
Rotational constants in MHz :  4898.624208  2513.264548  2472.149188

                             ****ORCA TERMINATED NORMALLY****
TOTAL RUN TIME: 0 days 0 hours 0 minutes 10 seconds 800 msec
