                         Program Version 5.0.0 -  RELEASE  -
|  1> !BLYP D3BJ RIJCOSX def2-TZVP def2/J TightSCF
|  2> *xyz 1 1
|  3> C         -0.46129        2.23469       -4.98962
|  4> C          0.84888        2.66797       -4.30235
|  5> C         -0.42384        2.39877       -6.47432
|  6> N         -0.95947        3.49265       -7.00740
|  7> N          0.14558        1.48689       -7.20399
|  8> H          0.56537        0.69681       -6.72386
|  9> H          0.22068        1.58177       -8.20752
| 10> H         -1.40624        4.18151       -6.40326
| 11> H         -0.93421        3.68160       -7.99947
| 12> H         -1.28888        2.82674       -4.59500
| 13> H         -0.65170        1.18634       -4.75655
| 14> H          1.66208        2.08894       -4.68750
| 15> H          0.76716        2.51042       -3.24717
| 16> H          1.02677        3.70527       -4.49537
| 17> *
| 18>
| 19> %MaxCore 64000
| 20>
| 21> %pal nprocs 4
| 22> end
| 23>
| 24> %scf
| 25>   MaxIter 150
| 26> end
| 27>
| 28>
| 29>                          ****END OF INPUT****

CARTESIAN COORDINATES (ANGSTROEM)
---------------------------------
  C     -0.461290    2.234690   -4.989620
  C      0.848880    2.667970   -4.302350
  C     -0.423840    2.398770   -6.474320
  N     -0.959470    3.492650   -7.007400
  N      0.145580    1.486890   -7.203990
  H      0.565370    0.696810   -6.723860
  H      0.220680    1.581770   -8.207520
  H     -1.406240    4.181510   -6.403260
  H     -0.934210    3.681600   -7.999470
  H     -1.288880    2.826740   -4.595000
  H     -0.651700    1.186340   -4.756550
  H      1.662080    2.088940   -4.687500
  H      0.767160    2.510420   -3.247170
  H      1.026770    3.705270   -4.495370

 Total Charge           Charge          ....    1
 Multiplicity           Mult            ....    1
 Number of Electrons    NEL             ....   40
 Basis Dimension        Dim             ....  209

ORBITAL ENERGIES
----------------

  NO   OCC          E(Eh)            E(eV)
   0   2.0000     -14.251400      -387.8003
   1   2.0000     -14.247904      -387.7052
   2   2.0000     -10.217430      -278.0304
   3   2.0000     -10.101820      -274.8845
   4   2.0000     -10.058735      -273.7121
   5   2.0000      -1.112917       -30.2840
   6   2.0000      -1.025491       -27.9050
   7   2.0000      -0.889838       -24.2137
   8   2.0000      -0.793182       -21.5836
   9   2.0000      -0.751798       -20.4575
  10   2.0000      -0.720147       -19.5962
  11   2.0000      -0.692446       -18.8424
  12   2.0000      -0.649533       -17.6747
  13   2.0000      -0.595884       -16.2148
  14   2.0000      -0.571917       -15.5627
  15   2.0000      -0.563605       -15.3365
  16   2.0000      -0.498932       -13.5766
  17   2.0000      -0.489864       -13.3299
  18   2.0000      -0.483572       -13.1587
  19   2.0000      -0.449688       -12.2366
  20   0.0000      -0.237166        -6.4536
  21   0.0000      -0.185502        -5.0478
  22   0.0000      -0.140493        -3.8230
  23   0.0000      -0.137986        -3.7548
  24   0.0000      -0.111903        -3.0450

MULLIKEN ATOMIC CHARGES
-----------------------
   0 C :   -0.237007
   1 C :   -0.289904
   2 C :    0.313824
   3 N :   -0.297265
   4 N :   -0.255269
   5 H :    0.278746
   6 H :    0.260960
   7 H :    0.278813
   8 H :    0.259266
   9 H :    0.131544
  10 H :    0.149517
  11 H :    0.120489
  12 H :    0.158735
  13 H :    0.127551
Sum of atomic charges:    1.0000000

LOEWDIN ATOMIC CHARGES
----------------------
   0 C :   -0.215146
   1 C :   -0.251151
   2 C :   -0.302158
   3 N :    0.116276
   4 N :    0.138924
   5 H :    0.211333
   6 H :    0.197743
   7 H :    0.207181
   8 H :    0.191585
   9 H :    0.158178
  10 H :    0.161730
  11 H :    0.122655
  12 H :    0.136983
  13 H :    0.125869

  Mayer bond orders larger than 0.100000
B(  0-C ,  1-C ) :   0.9401 B(  0-C ,  2-C ) :   0.9728 B(  0-C ,  9-H ) :   0.9587
B(  0-C , 10-H ) :   0.9503 B(  1-C , 11-H ) :   0.9670 B(  1-C , 12-H ) :   0.9636
B(  1-C , 13-H ) :   0.9628 B(  2-C ,  3-N ) :   1.4292 B(  2-C ,  4-N ) :   1.4658
B(  3-N ,  7-H ) :   0.8929 B(  3-N ,  8-H ) :   0.8993 B(  4-N ,  5-H ) :   0.8920
B(  4-N ,  6-H ) :   0.8972

Dispersion correction           -0.020511596
FINAL SINGLE POINT ENERGY      -229.033711194297

DIPOLE MOMENT
-------------
                                X             Y             Z
Electronic contribution:     -1.55455      -0.26218      -3.89196
Nuclear contribution   :      1.33202       0.27544       2.83701
                        -----------------------------------------
Total Dipole Moment    :     -0.22253       0.01326      -1.05495
                        -----------------------------------------
Magnitude (a.u.)       :      1.07825
Magnitude (Debye)      :      2.74069

Rotational constants in cm-1:     0.258570     0.126296     0.098869
Rotational constants in MHz :  7751.748523  3786.267300  2964.011691

                             ****ORCA TERMINATED NORMALLY****
TOTAL RUN TIME: 0 days 0 hours 0 minutes 10 seconds 872 msec
