                         Program Version 5.0.0 -  RELEASE  -
|  1> !BLYP D3BJ RIJCOSX def2-TZVP def2/J TightSCF
|  2> *xyz 0 1
|  3> C          0.84888        2.66797       -4.30235
|  4> C          2.09343        1.86104       -4.65684
|  5> H          2.44481        2.04157       -5.67499
|  6> H          2.90175        2.13786       -3.98034
|  7> S          1.87964        0.07859       -4.46297
|  8> F          3.20757       -0.46611       -4.42026
|  9> O          1.07506       -0.05616       -3.26876
| 10> O          1.13166       -0.31996       -5.67903
| 11> H          0.05064        2.40112       -4.96303
| 12> H          1.06043        3.71210       -4.40203
| 13> H          0.56237        2.45684       -3.29327
| 14> *
| 15>
| 16> %MaxCore 64000
| 17>
| 18> %pal nprocs 4
| 19> end
| 20>
| 21> %scf
| 22>   MaxIter 150
| 23> end
| 24>
| 25>
| 26>                          ****END OF INPUT****

CARTESIAN COORDINATES (ANGSTROEM)
---------------------------------
  C      0.848880    2.667970   -4.302350
  C      2.093430    1.861040   -4.656840
  H      2.444810    2.041570   -5.674990
  H      2.901750    2.137860   -3.980340
  S      1.879640    0.078590   -4.462970
  F      3.207570   -0.466110   -4.420260
  O      1.075060   -0.056160   -3.268760
  O      1.131660   -0.319960   -5.679030
  H      0.050640    2.401120   -4.963030
  H      1.060430    3.712100   -4.402030
  H      0.562370    2.456840   -3.293270

 Total Charge           Charge          ....    0
 Multiplicity           Mult            ....    1
 Number of Electrons    NEL             ....   58
 Basis Dimension        Dim             ....  222

ORBITAL ENERGIES
----------------

  NO   OCC          E(Eh)            E(eV)
   0   2.0000     -88.333595     -2403.6793
   1   2.0000     -24.402076      -664.0142
   2   2.0000     -18.779913      -511.0274
   3   2.0000     -18.767874      -510.6998
   4   2.0000      -9.958309      -270.9794
   5   2.0000      -9.917119      -269.8585
   6   2.0000      -7.865034      -214.0184
   7   2.0000      -5.897137      -160.4693
   8   2.0000      -5.890543      -160.2898
   9   2.0000      -5.890383      -160.2855
  10   2.0000      -1.274774       -34.6884
  11   2.0000      -1.004505       -27.3340
  12   2.0000      -0.909114       -24.7382
  13   2.0000      -0.736695       -20.0465
  14   2.0000      -0.662668       -18.0321
  15   2.0000      -0.603044       -16.4097
  16   2.0000      -0.521084       -14.1794
  17   2.0000      -0.518902       -14.1201
  18   2.0000      -0.490225       -13.3397
  19   2.0000      -0.436352       -11.8738
  20   2.0000      -0.423650       -11.5281
  21   2.0000      -0.386046       -10.5048
  22   2.0000      -0.376251       -10.2383
  23   2.0000      -0.356900        -9.7117
  24   2.0000      -0.339265        -9.2319
  25   2.0000      -0.329265        -8.9598
  26   2.0000      -0.283522        -7.7150
  27   2.0000      -0.270306        -7.3554
  28   2.0000      -0.253415        -6.8958
  29   0.0000      -0.010804        -0.2940
  30   0.0000       0.010027         0.2728
  31   0.0000       0.033342         0.9073
  32   0.0000       0.040506         1.1022
  33   0.0000       0.049807         1.3553

MULLIKEN ATOMIC CHARGES
-----------------------
   0 C :   -0.302811
   1 C :   -0.200955
   2 H :    0.122911
   3 H :    0.104723
   4 S :    0.785845
   5 F :   -0.076173
   6 O :   -0.379837
   7 O :   -0.418343
   8 H :    0.125514
   9 H :    0.109848
  10 H :    0.129278
Sum of atomic charges:   -0.0000000

LOEWDIN ATOMIC CHARGES
----------------------
   0 C :   -0.299583
   1 C :   -0.396492
   2 H :    0.133326
   3 H :    0.128449
   4 S :    0.491812
   5 F :    0.114413
   6 O :   -0.246825
   7 O :   -0.293844
   8 H :    0.123851
   9 H :    0.121463
  10 H :    0.123430

  Mayer bond orders larger than 0.100000
B(  0-C ,  1-C ) :   0.9602 B(  0-C ,  8-H ) :   0.9709 B(  0-C ,  9-H ) :   0.9541
B(  0-C , 10-H ) :   0.9676 B(  1-C ,  2-H ) :   0.9371 B(  1-C ,  3-H ) :   0.9316
B(  1-C ,  4-S ) :   0.9010 B(  4-S ,  5-F ) :   1.1546 B(  4-S ,  6-O ) :   1.9212
B(  4-S ,  7-O ) :   1.9049

Dispersion correction           -0.019708302
FINAL SINGLE POINT ENERGY      -727.767006916332

DIPOLE MOMENT
-------------
                                X             Y             Z
Electronic contribution:      4.12929      -9.41237       0.10296
Nuclear contribution   :     -3.08754      10.54185      -0.04092
                        -----------------------------------------
Total Dipole Moment    :      1.04175       1.12949       0.06204
                        -----------------------------------------
Magnitude (a.u.)       :      1.53780
Magnitude (Debye)      :      3.90879

Rotational constants in cm-1:     0.158925     0.081210     0.079022
Rotational constants in MHz :  4764.450166  2434.603461  2369.014434

                             ****ORCA TERMINATED NORMALLY****
TOTAL RUN TIME: 0 days 0 hours 0 minutes 11 seconds 51 msec
