                         Program Version 5.0.0 -  RELEASE  -
|  1> !BLYP D3BJ RIJCOSX def2-TZVP def2/J TightSCF
|  2> *xyz 0 1
|  3> C         -0.46129        2.23469       -4.98962
|  4> C          0.84888        2.66797       -4.30235
|  5> C         -0.42384        2.39877       -6.47432
|  6> C         -0.95947        3.49265       -7.00740
|  7> N          0.14558        1.48689       -7.20399
|  8> H          0.56537        0.69681       -6.72386
|  9> H          0.22068        1.58177       -8.20752
| 10> H         -1.40624        4.18151       -6.40326
| 11> H         -0.93421        3.68160       -7.99947
| 12> H         -1.28888        2.82674       -4.59500
| 13> H         -0.65170        1.18634       -4.75655
| 14> H          1.66208        2.08894       -4.68750
| 15> H          0.76716        2.51042       -3.24717
| 16> H          1.02677        3.70527       -4.49537
| 17> *
| 18>
| 19> %MaxCore 64000
| 20>
| 21> %pal nprocs 4
| 22> end
| 23>
| 24> %scf
| 25>   MaxIter 150
| 26> end
| 27>
| 28>
| 29>                          ****END OF INPUT****

CARTESIAN COORDINATES (ANGSTROEM)
---------------------------------
  C     -0.461290    2.234690   -4.989620
  C      0.848880    2.667970   -4.302350
  C     -0.423840    2.398770   -6.474320
  C     -0.959470    3.492650   -7.007400
  N      0.145580    1.486890   -7.203990
  H      0.565370    0.696810   -6.723860
  H      0.220680    1.581770   -8.207520
  H     -1.406240    4.181510   -6.403260
  H     -0.934210    3.681600   -7.999470
  H     -1.288880    2.826740   -4.595000
  H     -0.651700    1.186340   -4.756550
  H      1.662080    2.088940   -4.687500
  H      0.767160    2.510420   -3.247170
  H      1.026770    3.705270   -4.495370

 Total Charge           Charge          ....    0
 Multiplicity           Mult            ....    1
 Number of Electrons    NEL             ....   40
 Basis Dimension        Dim             ....  209

ORBITAL ENERGIES
----------------

  NO   OCC          E(Eh)            E(eV)
   0   2.0000     -14.006956      -381.1487
   1   2.0000      -9.917597      -269.8715
   2   2.0000      -9.901781      -269.4412
   3   2.0000      -9.887937      -269.0644
   4   2.0000      -9.833244      -267.5762
   5   2.0000      -0.847161       -23.0524
   6   2.0000      -0.698071       -18.9955
   7   2.0000      -0.636308       -17.3148
   8   2.0000      -0.566505       -15.4154
   9   2.0000      -0.508953       -13.8493
  10   2.0000      -0.474086       -12.9005
  11   2.0000      -0.423906       -11.5351
  12   2.0000      -0.386129       -10.5071
  13   2.0000      -0.367940       -10.0121
  14   2.0000      -0.341628        -9.2962
  15   2.0000      -0.332281        -9.0418
  16   2.0000      -0.307001        -8.3539
  17   2.0000      -0.289600        -7.8804
  18   2.0000      -0.283856        -7.7241
  19   2.0000      -0.150221        -4.0877
  20   0.0000       0.001322         0.0360
  21   0.0000       0.022933         0.6240
  22   0.0000       0.045475         1.2374
  23   0.0000       0.055769         1.5176
  24   0.0000       0.066897         1.8204

MULLIKEN ATOMIC CHARGES
-----------------------
   0 C :   -0.189665
   1 C :   -0.280141
   2 C :    0.250270
   3 C :   -0.405053
   4 N :   -0.369372
   5 H :    0.202575
   6 H :    0.205085
   7 H :    0.071833
   8 H :    0.067168
   9 H :    0.092021
  10 H :    0.068033
  11 H :    0.084436
  12 H :    0.096399
  13 H :    0.106411
Sum of atomic charges:   -0.0000000

LOEWDIN ATOMIC CHARGES
----------------------
   0 C :   -0.233360
   1 C :   -0.286202
   2 C :   -0.374714
   3 C :   -0.278162
   4 N :    0.026249
   5 H :    0.169526
   6 H :    0.170583
   7 H :    0.103215
   8 H :    0.091370
   9 H :    0.144496
  10 H :    0.129885
  11 H :    0.109589
  12 H :    0.111386
  13 H :    0.116137

  Mayer bond orders larger than 0.100000
B(  0-C ,  1-C ) :   0.9433 B(  0-C ,  2-C ) :   0.9580 B(  0-C ,  9-H ) :   0.9777
B(  0-C , 10-H ) :   0.9618 B(  1-C , 11-H ) :   0.9739 B(  1-C , 12-H ) :   0.9712
B(  1-C , 13-H ) :   0.9776 B(  2-C ,  3-C ) :   1.7001 B(  2-C ,  4-N ) :   1.2006
B(  3-C ,  7-H ) :   0.9933 B(  3-C ,  8-H ) :   0.9871 B(  4-N ,  5-H ) :   0.9281
B(  4-N ,  6-H ) :   0.9215

Dispersion correction           -0.021406550
FINAL SINGLE POINT ENERGY      -212.551250940727

DIPOLE MOMENT
-------------
                                X             Y             Z
Electronic contribution:     -0.70812      -1.20014      -2.62068
Nuclear contribution   :      1.14741       0.51394       2.60761
                        -----------------------------------------
Total Dipole Moment    :      0.43929      -0.68620      -0.01307
                        -----------------------------------------
Magnitude (a.u.)       :      0.81487
Magnitude (Debye)      :      2.07125

Rotational constants in cm-1:     0.269157     0.129188     0.102123
Rotational constants in MHz :  8069.118715  3872.945231  3061.580645

                             ****ORCA TERMINATED NORMALLY****
TOTAL RUN TIME: 0 days 0 hours 0 minutes 11 seconds 185 msec
