                         Program Version 5.0.0 -  RELEASE  -
|  1> !BLYP D3BJ RIJCOSX def2-TZVP def2/J TightSCF
|  2> *xyz 0 1
|  3> C          0.84888        2.66797       -4.30235
|  4> C          2.09343        1.86104       -4.65684
|  5> H          2.44481        2.04157       -5.67499
|  6> H          2.90175        2.13786       -3.98034
|  7> S          1.87964        0.07859       -4.46297
|  8> O          3.20757       -0.46611       -4.42026
|  9> F          1.07506       -0.05616       -3.26876
| 10> O          1.13166       -0.31996       -5.67903
| 11> H          0.05064        2.40112       -4.96303
| 12> H          1.06043        3.71210       -4.40203
| 13> H          0.56237        2.45684       -3.29327
| 14> *
| 15>
| 16> %MaxCore 64000
| 17>
| 18> %pal nprocs 4
| 19> end
| 20>
| 21> %scf
| 22>   MaxIter 150
| 23> end
| 24>
| 25>
| 26>                          ****END OF INPUT****

CARTESIAN COORDINATES (ANGSTROEM)
---------------------------------
  C      0.848880    2.667970   -4.302350
  C      2.093430    1.861040   -4.656840
  H      2.444810    2.041570   -5.674990
  H      2.901750    2.137860   -3.980340
  S      1.879640    0.078590   -4.462970
  O      3.207570   -0.466110   -4.420260
  F      1.075060   -0.056160   -3.268760
  O      1.131660   -0.319960   -5.679030
  H      0.050640    2.401120   -4.963030
  H      1.060430    3.712100   -4.402030
  H      0.562370    2.456840   -3.293270

 Total Charge           Charge          ....    0
 Multiplicity           Mult            ....    1
 Number of Electrons    NEL             ....   58
 Basis Dimension        Dim             ....  222

ORBITAL ENERGIES
----------------

  NO   OCC          E(Eh)            E(eV)
   0   2.0000     -88.333076     -2403.6652
   1   2.0000     -24.396789      -663.8704
   2   2.0000     -18.783449      -511.1236
   3   2.0000     -18.768101      -510.7060
   4   2.0000      -9.958280      -270.9786
   5   2.0000      -9.923476      -270.0315
   6   2.0000      -7.864526      -214.0046
   7   2.0000      -5.896829      -160.4609
   8   2.0000      -5.889964      -160.2741
   9   2.0000      -5.889800      -160.2696
  10   2.0000      -1.266596       -34.4658
  11   2.0000      -1.008484       -27.4422
  12   2.0000      -0.912139       -24.8206
  13   2.0000      -0.741697       -20.1826
  14   2.0000      -0.656723       -17.8703
  15   2.0000      -0.605889       -16.4871
  16   2.0000      -0.528392       -14.3783
  17   2.0000      -0.512641       -13.9497
  18   2.0000      -0.481870       -13.1124
  19   2.0000      -0.438591       -11.9347
  20   2.0000      -0.417905       -11.3718
  21   2.0000      -0.394728       -10.7411
  22   2.0000      -0.383904       -10.4466
  23   2.0000      -0.362293        -9.8585
  24   2.0000      -0.347194        -9.4476
  25   2.0000      -0.330597        -8.9960
  26   2.0000      -0.285479        -7.7683
  27   2.0000      -0.270752        -7.3675
  28   2.0000      -0.256417        -6.9775
  29   0.0000      -0.017642        -0.4801
  30   0.0000       0.017836         0.4854
  31   0.0000       0.028181         0.7668
  32   0.0000       0.045114         1.2276
  33   0.0000       0.049299         1.3415

MULLIKEN ATOMIC CHARGES
-----------------------
   0 C :   -0.314440
   1 C :   -0.203103
   2 H :    0.137849
   3 H :    0.118728
   4 S :    0.787501
   5 O :   -0.365201
   6 F :   -0.088707
   7 O :   -0.421067
   8 H :    0.127821
   9 H :    0.113332
  10 H :    0.107288
Sum of atomic charges:   -0.0000000

LOEWDIN ATOMIC CHARGES
----------------------
   0 C :   -0.314336
   1 C :   -0.388720
   2 H :    0.143540
   3 H :    0.133095
   4 S :    0.494769
   5 O :   -0.237947
   6 F :    0.105399
   7 O :   -0.294643
   8 H :    0.121854
   9 H :    0.122077
  10 H :    0.114910

  Mayer bond orders larger than 0.100000
B(  0-C ,  1-C ) :   0.9437 B(  0-C ,  8-H ) :   0.9691 B(  0-C ,  9-H ) :   0.9589
B(  0-C , 10-H ) :   0.9697 B(  1-C ,  2-H ) :   0.9439 B(  1-C ,  3-H ) :   0.9380
B(  1-C ,  4-S ) :   0.8956 B(  4-S ,  5-O ) :   1.9711 B(  4-S ,  6-F ) :   1.1285
B(  4-S ,  7-O ) :   1.8991

Dispersion correction           -0.019569843
FINAL SINGLE POINT ENERGY      -727.771180568579

DIPOLE MOMENT
-------------
                                X             Y             Z
Electronic contribution:      0.57624      -8.70177       2.00520
Nuclear contribution   :     -0.86540      10.11467      -1.24082
                        -----------------------------------------
Total Dipole Moment    :     -0.28916       1.41291       0.76438
                        -----------------------------------------
Magnitude (a.u.)       :      1.63224
Magnitude (Debye)      :      4.14882

Rotational constants in cm-1:     0.154065     0.083345     0.080357
Rotational constants in MHz :  4618.752213  2498.631937  2409.037217

                             ****ORCA TERMINATED NORMALLY****
TOTAL RUN TIME: 0 days 0 hours 0 minutes 10 seconds 771 msec
