                         Program Version 5.0.0 -  RELEASE  -
|  1> !BLYP D3BJ RIJCOSX def2-TZVP def2/J TightSCF
|  2> *xyz 0 1
|  3> C         -0.46129        2.23469       -4.98962
|  4> C          0.84888        2.66797       -4.30235
|  5> C         -0.42384        2.39877       -6.47432
|  6> N         -0.95947        3.49265       -7.00740
|  7> C          0.14558        1.48689       -7.20399
|  8> H          0.56537        0.69681       -6.72386
|  9> H          0.22068        1.58177       -8.20752
| 10> H         -1.40624        4.18151       -6.40326
| 11> H         -0.93421        3.68160       -7.99947
| 12> H         -1.28888        2.82674       -4.59500
| 13> H         -0.65170        1.18634       -4.75655
| 14> H          1.66208        2.08894       -4.68750
| 15> H          0.76716        2.51042       -3.24717
| 16> H          1.02677        3.70527       -4.49537
| 17> *
| 18>
| 19> %MaxCore 64000
| 20>
| 21> %pal nprocs 4
| 22> end
| 23>
| 24> %scf
| 25>   MaxIter 150
| 26> end
| 27>
| 28>
| 29>                          ****END OF INPUT****

CARTESIAN COORDINATES (ANGSTROEM)
---------------------------------
  C     -0.461290    2.234690   -4.989620
  C      0.848880    2.667970   -4.302350
  C     -0.423840    2.398770   -6.474320
  N     -0.959470    3.492650   -7.007400
  C      0.145580    1.486890   -7.203990
  H      0.565370    0.696810   -6.723860
  H      0.220680    1.581770   -8.207520
  H     -1.406240    4.181510   -6.403260
  H     -0.934210    3.681600   -7.999470
  H     -1.288880    2.826740   -4.595000
  H     -0.651700    1.186340   -4.756550
  H      1.662080    2.088940   -4.687500
  H      0.767160    2.510420   -3.247170
  H      1.026770    3.705270   -4.495370

 Total Charge           Charge          ....    0
 Multiplicity           Mult            ....    1
 Number of Electrons    NEL             ....   40
 Basis Dimension        Dim             ....  209

ORBITAL ENERGIES
----------------

  NO   OCC          E(Eh)            E(eV)
   0   2.0000     -14.003577      -381.0567
   1   2.0000      -9.915565      -269.8162
   2   2.0000      -9.901636      -269.4372
   3   2.0000      -9.886552      -269.0268
   4   2.0000      -9.831695      -267.5340
   5   2.0000      -0.835098       -22.7242
   6   2.0000      -0.699565       -19.0361
   7   2.0000      -0.639804       -17.4100
   8   2.0000      -0.567237       -15.4353
   9   2.0000      -0.503643       -13.7048
  10   2.0000      -0.464667       -12.6442
  11   2.0000      -0.425976       -11.5914
  12   2.0000      -0.387272       -10.5382
  13   2.0000      -0.363522        -9.8919
  14   2.0000      -0.342575        -9.3219
  15   2.0000      -0.333127        -9.0648
  16   2.0000      -0.304721        -8.2919
  17   2.0000      -0.292325        -7.9546
  18   2.0000      -0.279620        -7.6088
  19   2.0000      -0.153310        -4.1718
  20   0.0000       0.003460         0.0941
  21   0.0000       0.023212         0.6316
  22   0.0000       0.046455         1.2641
  23   0.0000       0.053551         1.4572
  24   0.0000       0.069911         1.9024

MULLIKEN ATOMIC CHARGES
-----------------------
   0 C :   -0.186614
   1 C :   -0.279886
   2 C :    0.285411
   3 N :   -0.410828
   4 C :   -0.396874
   5 H :    0.074188
   6 H :    0.066274
   7 H :    0.201809
   8 H :    0.202384
   9 H :    0.059470
  10 H :    0.096057
  11 H :    0.104533
  12 H :    0.093797
  13 H :    0.090277
Sum of atomic charges:   -0.0000000

LOEWDIN ATOMIC CHARGES
----------------------
   0 C :   -0.231691
   1 C :   -0.284097
   2 C :   -0.365906
   3 N :    0.003892
   4 C :   -0.266341
   5 H :    0.108115
   6 H :    0.096230
   7 H :    0.164535
   8 H :    0.164114
   9 H :    0.129061
  10 H :    0.143846
  11 H :    0.115563
  12 H :    0.110432
  13 H :    0.112247

  Mayer bond orders larger than 0.100000
B(  0-C ,  1-C ) :   0.9491 B(  0-C ,  2-C ) :   0.9411 B(  0-C ,  9-H ) :   0.9667
B(  0-C , 10-H ) :   0.9788 B(  1-C , 11-H ) :   0.9765 B(  1-C , 12-H ) :   0.9706
B(  1-C , 13-H ) :   0.9757 B(  2-C ,  3-N ) :   1.1546 B(  2-C ,  4-C ) :   1.7322
B(  3-N ,  7-H ) :   0.9288 B(  3-N ,  8-H ) :   0.9238 B(  4-C ,  5-H ) :   0.9951
B(  4-C ,  6-H ) :   0.9871

Dispersion correction           -0.021425091
FINAL SINGLE POINT ENERGY      -212.551250887452

DIPOLE MOMENT
-------------
                                X             Y             Z
Electronic contribution:     -1.72407       0.61676      -2.43625
Nuclear contribution   :      1.40335       0.04939       2.56207
                        -----------------------------------------
Total Dipole Moment    :     -0.32072       0.66615       0.12582
                        -----------------------------------------
Magnitude (a.u.)       :      0.74996
Magnitude (Debye)      :      1.90626

Rotational constants in cm-1:     0.271383     0.128194     0.101873
Rotational constants in MHz :  8135.853259  3843.152748  3054.074278

                             ****ORCA TERMINATED NORMALLY****
TOTAL RUN TIME: 0 days 0 hours 0 minutes 11 seconds 438 msec
