                         Program Version 5.0.0 -  RELEASE  -
|  1> !BLYP D3BJ RIJCOSX def2-TZVP def2/J TightSCF
|  2> *xyz 0 1
|  3> C          0.84888        2.66797       -4.30235
|  4> C          2.09343        1.86104       -4.65684
|  5> H          2.44481        2.04157       -5.67499
|  6> H          2.90175        2.13786       -3.98034
|  7> S          1.87964        0.07859       -4.46297
|  8> O          3.20757       -0.46611       -4.42026
|  9> O          1.07506       -0.05616       -3.26876
| 10> F          1.13166       -0.31996       -5.67903
| 11> H          0.05064        2.40112       -4.96303
| 12> H          1.06043        3.71210       -4.40203
| 13> H          0.56237        2.45684       -3.29327
| 14> *
| 15>
| 16> %MaxCore 64000
| 17>
| 18> %pal nprocs 4
| 19> end
| 20>
| 21> %scf
| 22>   MaxIter 150
| 23> end
| 24>
| 25>
| 26>                          ****END OF INPUT****

CARTESIAN COORDINATES (ANGSTROEM)
---------------------------------
  C      0.848880    2.667970   -4.302350
  C      2.093430    1.861040   -4.656840
  H      2.444810    2.041570   -5.674990
  H      2.901750    2.137860   -3.980340
  S      1.879640    0.078590   -4.462970
  O      3.207570   -0.466110   -4.420260
  O      1.075060   -0.056160   -3.268760
  F      1.131660   -0.319960   -5.679030
  H      0.050640    2.401120   -4.963030
  H      1.060430    3.712100   -4.402030
  H      0.562370    2.456840   -3.293270

 Total Charge           Charge          ....    0
 Multiplicity           Mult            ....    1
 Number of Electrons    NEL             ....   58
 Basis Dimension        Dim             ....  222

ORBITAL ENERGIES
----------------

  NO   OCC          E(Eh)            E(eV)
   0   2.0000     -88.331236     -2403.6151
   1   2.0000     -24.378842      -663.3820
   2   2.0000     -18.783283      -511.1191
   3   2.0000     -18.780190      -511.0350
   4   2.0000      -9.957552      -270.9588
   5   2.0000      -9.918081      -269.8847
   6   2.0000      -7.862804      -213.9578
   7   2.0000      -5.895079      -160.4133
   8   2.0000      -5.888394      -160.2314
   9   2.0000      -5.888033      -160.2215
  10   2.0000      -1.237295       -33.6685
  11   2.0000      -1.016815       -27.6689
  12   2.0000      -0.930644       -25.3241
  13   2.0000      -0.737950       -20.0806
  14   2.0000      -0.646258       -17.5856
  15   2.0000      -0.598205       -16.2780
  16   2.0000      -0.510697       -13.8968
  17   2.0000      -0.491982       -13.3875
  18   2.0000      -0.482372       -13.1260
  19   2.0000      -0.437023       -11.8920
  20   2.0000      -0.420327       -11.4377
  21   2.0000      -0.398175       -10.8349
  22   2.0000      -0.378883       -10.3099
  23   2.0000      -0.354375        -9.6430
  24   2.0000      -0.350780        -9.5452
  25   2.0000      -0.331597        -9.0232
  26   2.0000      -0.289225        -7.8702
  27   2.0000      -0.284236        -7.7344
  28   2.0000      -0.270108        -7.3500
  29   0.0000      -0.012921        -0.3516
  30   0.0000       0.016549         0.4503
  31   0.0000       0.028793         0.7835
  32   0.0000       0.045630         1.2417
  33   0.0000       0.055199         1.5020

MULLIKEN ATOMIC CHARGES
-----------------------
   0 C :   -0.296422
   1 C :   -0.219288
   2 H :    0.116946
   3 H :    0.132907
   4 S :    0.793380
   5 O :   -0.373376
   6 O :   -0.388702
   7 F :   -0.114940
   8 H :    0.104640
   9 H :    0.108978
  10 H :    0.135877
Sum of atomic charges:    0.0000000

LOEWDIN ATOMIC CHARGES
----------------------
   0 C :   -0.310973
   1 C :   -0.392598
   2 H :    0.130358
   3 H :    0.143475
   4 S :    0.501658
   5 O :   -0.241450
   6 O :   -0.249378
   7 F :    0.058138
   8 H :    0.116825
   9 H :    0.120283
  10 H :    0.123660

  Mayer bond orders larger than 0.100000
B(  0-C ,  1-C ) :   0.9467 B(  0-C ,  8-H ) :   0.9711 B(  0-C ,  9-H ) :   0.9562
B(  0-C , 10-H ) :   0.9668 B(  1-C ,  2-H ) :   0.9434 B(  1-C ,  3-H ) :   0.9425
B(  1-C ,  4-S ) :   0.8955 B(  4-S ,  5-O ) :   1.9672 B(  4-S ,  6-O ) :   1.9160
B(  4-S ,  7-F ) :   1.1040

Dispersion correction           -0.019632730
FINAL SINGLE POINT ENERGY      -727.786299462076

DIPOLE MOMENT
-------------
                                X             Y             Z
Electronic contribution:      0.65802      -9.17102      -2.01819
Nuclear contribution   :     -0.92438      10.38956       1.27076
                        -----------------------------------------
Total Dipole Moment    :     -0.26635       1.21855      -0.74743
                        -----------------------------------------
Magnitude (a.u.)       :      1.45411
Magnitude (Debye)      :      3.69606

Rotational constants in cm-1:     0.154243     0.082247     0.080562
Rotational constants in MHz :  4624.087322  2465.703680  2415.175852

                             ****ORCA TERMINATED NORMALLY****
TOTAL RUN TIME: 0 days 0 hours 0 minutes 10 seconds 728 msec
