                         Program Version 5.0.0 -  RELEASE  -
|  1> !BLYP D3BJ RIJCOSX def2-TZVP def2/J TightSCF xyzfile
|  2>
|  3> *xyzfile 0 1 D3.xyz
|  4>
|  5> %MaxCore 64000
|  6>
|  7> %pal nprocs 18
|  8> end
|  9>
| 10> %scf
| 11>   MaxIter 150
| 12> end
| 13>
| 14>
| 15>                          ****END OF INPUT****

CARTESIAN COORDINATES (ANGSTROEM)
---------------------------------
  C     -0.461293    2.234686   -4.989619
  C      0.848883    2.667967   -4.302351
  C      2.093434    1.861037   -4.656845
  H      2.444814    2.041567   -5.674990
  H      2.901748    2.137864   -3.980338
  S      1.879644    0.078594   -4.462965
  C     -0.423841    2.398772   -6.474317
  C     -0.959467    3.492647   -7.007401
  N      0.145585    1.486891   -7.203987
  H      0.565371    0.696807   -6.723858
  H      0.220682    1.581768   -8.207520
  H     -1.406243    4.181507   -6.403261
  H     -0.934215    3.681601   -7.999468
  O      3.207574   -0.466111   -4.420259
  F      1.075064   -0.056160   -3.268758
  O      1.131661   -0.319960   -5.679031
  H      0.668432    2.559427   -3.232850
  H      1.034074    3.729426   -4.497081
  H     -1.288884    2.826737   -4.594997
  H     -0.651696    1.186343   -4.756552

 Total Charge           Charge          ....    0
 Multiplicity           Mult            ....    1
 Number of Electrons    NEL             ....   88
 Basis Dimension        Dim             ....  376

ORBITAL ENERGIES
----------------

  NO   OCC          E(Eh)            E(eV)
   0   2.0000     -88.352521     -2404.1943
   1   2.0000     -24.412079      -664.2864
   2   2.0000     -18.799974      -511.5733
   3   2.0000     -18.793143      -511.3874
   4   2.0000     -13.981306      -380.4507
   5   2.0000      -9.964350      -271.1437
   6   2.0000      -9.934215      -270.3237
   7   2.0000      -9.915646      -269.8185
   8   2.0000      -9.913024      -269.7471
   9   2.0000      -9.830839      -267.5107
  10   2.0000      -7.884108      -214.5375
  11   2.0000      -5.916346      -160.9920
  12   2.0000      -5.909949      -160.8179
  13   2.0000      -5.909007      -160.7923
  14   2.0000      -1.282026       -34.8857
  15   2.0000      -1.029179       -28.0054
  16   2.0000      -0.939556       -25.5666
  17   2.0000      -0.834751       -22.7147
  18   2.0000      -0.757099       -20.6017
  19   2.0000      -0.690438       -18.7878
  20   2.0000      -0.661582       -18.0026
  21   2.0000      -0.623664       -16.9708
  22   2.0000      -0.577151       -15.7051
  23   2.0000      -0.538491       -14.6531
  24   2.0000      -0.533026       -14.5044
  25   2.0000      -0.509697       -13.8696
  26   2.0000      -0.501203       -13.6384
  27   2.0000      -0.461631       -12.5616
  28   2.0000      -0.444265       -12.0891
  29   2.0000      -0.436045       -11.8654
  30   2.0000      -0.417446       -11.3593
  31   2.0000      -0.405288       -11.0284
  32   2.0000      -0.399469       -10.8701
  33   2.0000      -0.368496       -10.0273
  34   2.0000      -0.352825        -9.6009
  35   2.0000      -0.348245        -9.4762
  36   2.0000      -0.333856        -9.0847
  37   2.0000      -0.331188        -9.0121
  38   2.0000      -0.299057        -8.1378
  39   2.0000      -0.297220        -8.0878
  40   2.0000      -0.292191        -7.9509
  41   2.0000      -0.279994        -7.6190
  42   2.0000      -0.273977        -7.4553
  43   2.0000      -0.144674        -3.9368
  44   0.0000      -0.029477        -0.8021
  45   0.0000       0.006813         0.1854
  46   0.0000       0.013226         0.3599
  47   0.0000       0.019580         0.5328
  48   0.0000       0.030656         0.8342

MULLIKEN ATOMIC CHARGES
-----------------------
   0 C :   -0.235345
   1 C :   -0.148155
   2 C :   -0.253917
   3 H :    0.149684
   4 H :    0.132345
   5 S :    0.817267
   6 C :    0.223164
   7 C :   -0.410724
   8 N :   -0.389730
   9 H :    0.254351
  10 H :    0.189608
  11 H :    0.065406
  12 H :    0.069155
  13 O :   -0.361910
  14 F :   -0.078194
  15 O :   -0.426241
  16 H :    0.092117
  17 H :    0.102914
  18 H :    0.099971
  19 H :    0.108235
Sum of atomic charges:    0.0000000

LOEWDIN ATOMIC CHARGES
----------------------
   0 C :   -0.216612
   1 C :   -0.271811
   2 C :   -0.359553
   3 H :    0.148071
   4 H :    0.139011
   5 S :    0.519920
   6 C :   -0.377407
   7 C :   -0.287187
   8 N :    0.028622
   9 H :    0.134138
  10 H :    0.164526
  11 H :    0.100184
  12 H :    0.091835
  13 O :   -0.226036
  14 F :    0.115962
  15 O :   -0.266618
  16 H :    0.134586
  17 H :    0.145772
  18 H :    0.149751
  19 H :    0.132845

  Mayer bond orders larger than 0.100000
B(  0-C ,  1-C ) :   0.9239 B(  0-C ,  6-C ) :   0.9226 B(  0-C , 18-H ) :   0.9706
B(  0-C , 19-H ) :   0.9900 B(  1-C ,  2-C ) :   0.9651 B(  1-C , 16-H ) :   0.9610
B(  1-C , 17-H ) :   0.9381 B(  2-C ,  3-H ) :   0.9279 B(  2-C ,  4-H ) :   0.9425
B(  2-C ,  5-S ) :   0.9185 B(  5-S , 13-O ) :   1.9957 B(  5-S , 14-F ) :   1.1407
B(  5-S , 15-O ) :   1.7450 B(  6-C ,  7-C ) :   1.6818 B(  6-C ,  8-N ) :   1.2496
B(  7-C ,  8-N ) :   0.1053 B(  7-C , 11-H ) :   0.9883 B(  7-C , 12-H ) :   0.9916
B(  8-N ,  9-H ) :   0.8424 B(  8-N , 10-H ) :   0.9262 B(  9-H , 15-O ) :   0.1189

Dispersion correction           -0.046844075
FINAL SINGLE POINT ENERGY      -899.822820397691

DIPOLE MOMENT
-------------
                                X             Y             Z
Electronic contribution:      6.49774     -13.26786       7.32579
Nuclear contribution   :     -6.19944      13.70770      -6.43483
                        -----------------------------------------
Total Dipole Moment    :      0.29830       0.43983       0.89096
                        -----------------------------------------
Magnitude (a.u.)       :      1.03742
Magnitude (Debye)      :      2.63692

Rotational constants in cm-1:     0.079903     0.025241     0.022805
Rotational constants in MHz :  2395.439281   756.708181   683.680583

                             ****ORCA TERMINATED NORMALLY****
TOTAL RUN TIME: 0 days 0 hours 0 minutes 10 seconds 551 msec
