                         Program Version 5.0.0 -  RELEASE  -
|  1> !BLYP D3BJ RIJCOSX def2-TZVP def2/J TightSCF xyzfile
|  2>
|  3> *xyzfile 0 1 D4.xyz
|  4>
|  5> %MaxCore 64000
|  6>
|  7> %pal nprocs 18
|  8> end
|  9>
| 10> %scf
| 11>   MaxIter 150
| 12> end
| 13>
| 14>
| 15>                          ****END OF INPUT****

CARTESIAN COORDINATES (ANGSTROEM)
---------------------------------
  C     -0.461293    2.234686   -4.989619
  C      0.848883    2.667967   -4.302351
  C      2.093434    1.861037   -4.656845
  H      2.444814    2.041567   -5.674990
  H      2.901748    2.137864   -3.980338
  S      1.879644    0.078594   -4.462965
  C     -0.423841    2.398772   -6.474317
  N     -0.959467    3.492647   -7.007401
  C      0.145585    1.486891   -7.203987
  H      0.565371    0.696807   -6.723858
  H      0.220682    1.581768   -8.207520
  H     -1.406243    4.181507   -6.403261
  H     -0.934215    3.681601   -7.999468
  O      3.207574   -0.466111   -4.420259
  F      1.075064   -0.056160   -3.268758
  O      1.131661   -0.319960   -5.679031
  H      0.668432    2.559427   -3.232850
  H      1.034074    3.729426   -4.497081
  H     -1.288884    2.826737   -4.594997
  H     -0.651696    1.186343   -4.756552

 Total Charge           Charge          ....    0
 Multiplicity           Mult            ....    1
 Number of Electrons    NEL             ....   88
 Basis Dimension        Dim             ....  376

ORBITAL ENERGIES
----------------

  NO   OCC          E(Eh)            E(eV)
   0   2.0000     -88.333540     -2403.6778
   1   2.0000     -24.396962      -663.8751
   2   2.0000     -18.782842      -511.1071
   3   2.0000     -18.769974      -510.7570
   4   2.0000     -14.001569      -381.0021
   5   2.0000      -9.952972      -270.8341
   6   2.0000      -9.931727      -270.2560
   7   2.0000      -9.913302      -269.7547
   8   2.0000      -9.912486      -269.7325
   9   2.0000      -9.813829      -267.0479
  10   2.0000      -7.865250      -214.0243
  11   2.0000      -5.897644      -160.4831
  12   2.0000      -5.890846      -160.2981
  13   2.0000      -5.890214      -160.2809
  14   2.0000      -1.267109       -34.4798
  15   2.0000      -1.010527       -27.4978
  16   2.0000      -0.918578       -24.9958
  17   2.0000      -0.834357       -22.7040
  18   2.0000      -0.750177       -20.4133
  19   2.0000      -0.688128       -18.7249
  20   2.0000      -0.647697       -17.6247
  21   2.0000      -0.628853       -17.1120
  22   2.0000      -0.570217       -15.5164
  23   2.0000      -0.528986       -14.3944
  24   2.0000      -0.516579       -14.0568
  25   2.0000      -0.504364       -13.7244
  26   2.0000      -0.489043       -13.3075
  27   2.0000      -0.459445       -12.5021
  28   2.0000      -0.438914       -11.9435
  29   2.0000      -0.423657       -11.5283
  30   2.0000      -0.418925       -11.3995
  31   2.0000      -0.404213       -10.9992
  32   2.0000      -0.388550       -10.5730
  33   2.0000      -0.360714        -9.8155
  34   2.0000      -0.351209        -9.5569
  35   2.0000      -0.339952        -9.2506
  36   2.0000      -0.327701        -8.9172
  37   2.0000      -0.323095        -8.7919
  38   2.0000      -0.296679        -8.0730
  39   2.0000      -0.284255        -7.7350
  40   2.0000      -0.278802        -7.5866
  41   2.0000      -0.268495        -7.3061
  42   2.0000      -0.242838        -6.6079
  43   2.0000      -0.149594        -4.0707
  44   0.0000      -0.014681        -0.3995
  45   0.0000       0.002811         0.0765
  46   0.0000       0.018239         0.4963
  47   0.0000       0.024411         0.6643
  48   0.0000       0.029938         0.8147

MULLIKEN ATOMIC CHARGES
-----------------------
   0 C :   -0.231084
   1 C :   -0.151773
   2 C :   -0.239824
   3 H :    0.152209
   4 H :    0.125100
   5 S :    0.787628
   6 C :    0.258830
   7 N :   -0.416557
   8 C :   -0.459197
   9 H :    0.176200
  10 H :    0.059215
  11 H :    0.194216
  12 H :    0.203495
  13 O :   -0.371628
  14 F :   -0.085116
  15 O :   -0.388684
  16 H :    0.093202
  17 H :    0.093675
  18 H :    0.073342
  19 H :    0.126752
Sum of atomic charges:   -0.0000000

LOEWDIN ATOMIC CHARGES
----------------------
   0 C :   -0.217378
   1 C :   -0.273204
   2 C :   -0.358537
   3 H :    0.149080
   4 H :    0.136553
   5 S :    0.507287
   6 C :   -0.376646
   7 N :   -0.002930
   8 C :   -0.253280
   9 H :    0.090434
  10 H :    0.093831
  11 H :    0.160336
  12 H :    0.163748
  13 O :   -0.235671
  14 F :    0.108325
  15 O :   -0.246541
  16 H :    0.134235
  17 H :    0.141471
  18 H :    0.134706
  19 H :    0.144181

  Mayer bond orders larger than 0.100000
B(  0-C ,  1-C ) :   0.9212 B(  0-C ,  6-C ) :   0.9216 B(  0-C , 18-H ) :   0.9665
B(  0-C , 19-H ) :   0.9977 B(  1-C ,  2-C ) :   0.9683 B(  1-C , 16-H ) :   0.9653
B(  1-C , 17-H ) :   0.9387 B(  2-C ,  3-H ) :   0.9299 B(  2-C ,  4-H ) :   0.9446
B(  2-C ,  5-S ) :   0.9156 B(  5-S , 13-O ) :   1.9844 B(  5-S , 14-F ) :   1.1233
B(  5-S , 15-O ) :   1.8013 B(  6-C ,  7-N ) :   1.1274 B(  6-C ,  8-C ) :   1.7186
B(  7-N , 11-H ) :   0.9293 B(  7-N , 12-H ) :   0.9255 B(  8-C ,  9-H ) :   0.9593
B(  8-C , 10-H ) :   0.9877

Dispersion correction           -0.047202217
FINAL SINGLE POINT ENERGY      -899.802368532998

DIPOLE MOMENT
-------------
                                X             Y             Z
Electronic contribution:      5.53904     -11.74143       7.26284
Nuclear contribution   :     -6.09390      13.51614      -6.45360
                        -----------------------------------------
Total Dipole Moment    :     -0.55486       1.77471       0.80923
                        -----------------------------------------
Magnitude (a.u.)       :      2.02788
Magnitude (Debye)      :      5.15447

Rotational constants in cm-1:     0.081469     0.024519     0.022336
Rotational constants in MHz :  2442.393231   735.066768   669.628729

                             ****ORCA TERMINATED NORMALLY****
TOTAL RUN TIME: 0 days 0 hours 0 minutes 11 seconds 165 msec
