                         Program Version 5.0.0 -  RELEASE  -
|  1> !BLYP D3BJ RIJCOSX def2-TZVP def2/J TightSCF xyzfile
|  2>
|  3> *xyzfile 0 1 D6.xyz
|  4>
|  5> %MaxCore 64000
|  6>
|  7> %pal nprocs 18
|  8> end
|  9>
| 10> %scf
| 11>   MaxIter 150
| 12> end
| 13>
| 14>
| 15>                          ****END OF INPUT****

CARTESIAN COORDINATES (ANGSTROEM)
---------------------------------
  C     -0.461293    2.234686   -4.989619
  C      0.848883    2.667967   -4.302351
  C      2.093434    1.861037   -4.656845
  H      2.444814    2.041567   -5.674990
  H      2.901748    2.137864   -3.980338
  S      1.879644    0.078594   -4.462965
  C     -0.423841    2.398772   -6.474317
  N     -0.959467    3.492647   -7.007401
  C      0.145585    1.486891   -7.203987
  H      0.565371    0.696807   -6.723858
  H      0.220682    1.581768   -8.207520
  H     -1.406243    4.181507   -6.403261
  H     -0.934215    3.681601   -7.999468
  O      3.207574   -0.466111   -4.420259
  O      1.075064   -0.056160   -3.268758
  F      1.131661   -0.319960   -5.679031
  H      0.668432    2.559427   -3.232850
  H      1.034074    3.729426   -4.497081
  H     -1.288884    2.826737   -4.594997
  H     -0.651696    1.186343   -4.756552

 Total Charge           Charge          ....    0
 Multiplicity           Mult            ....    1
 Number of Electrons    NEL             ....   88
 Basis Dimension        Dim             ....  376

ORBITAL ENERGIES
----------------

  NO   OCC          E(Eh)            E(eV)
   0   2.0000     -88.329672     -2403.5726
   1   2.0000     -24.378348      -663.3686
   2   2.0000     -18.781513      -511.0709
   3   2.0000     -18.778982      -511.0021
   4   2.0000     -14.013506      -381.3269
   5   2.0000      -9.950878      -270.7772
   6   2.0000      -9.927941      -270.1530
   7   2.0000      -9.926796      -270.1219
   8   2.0000      -9.916774      -269.8491
   9   2.0000      -9.835072      -267.6259
  10   2.0000      -7.861476      -213.9216
  11   2.0000      -5.893833      -160.3794
  12   2.0000      -5.887025      -160.1941
  13   2.0000      -5.886577      -160.1819
  14   2.0000      -1.242263       -33.8037
  15   2.0000      -1.016204       -27.6523
  16   2.0000      -0.929480       -25.2924
  17   2.0000      -0.845947       -23.0194
  18   2.0000      -0.748321       -20.3629
  19   2.0000      -0.692419       -18.8417
  20   2.0000      -0.647123       -17.6091
  21   2.0000      -0.637699       -17.3527
  22   2.0000      -0.569185       -15.4883
  23   2.0000      -0.534574       -14.5465
  24   2.0000      -0.497322       -13.5328
  25   2.0000      -0.493736       -13.4352
  26   2.0000      -0.485192       -13.2027
  27   2.0000      -0.473669       -12.8892
  28   2.0000      -0.441793       -12.0218
  29   2.0000      -0.430453       -11.7132
  30   2.0000      -0.414345       -11.2749
  31   2.0000      -0.399532       -10.8718
  32   2.0000      -0.392255       -10.6738
  33   2.0000      -0.360264        -9.8033
  34   2.0000      -0.351128        -9.5547
  35   2.0000      -0.344027        -9.3614
  36   2.0000      -0.332330        -9.0432
  37   2.0000      -0.322488        -8.7754
  38   2.0000      -0.298811        -8.1311
  39   2.0000      -0.293342        -7.9822
  40   2.0000      -0.286052        -7.7839
  41   2.0000      -0.279338        -7.6012
  42   2.0000      -0.268814        -7.3148
  43   2.0000      -0.164765        -4.4835
  44   0.0000      -0.010787        -0.2935
  45   0.0000      -0.000660        -0.0179
  46   0.0000       0.011346         0.3087
  47   0.0000       0.024596         0.6693
  48   0.0000       0.030912         0.8412

MULLIKEN ATOMIC CHARGES
-----------------------
   0 C :   -0.263105
   1 C :   -0.091057
   2 C :   -0.275043
   3 H :    0.141557
   4 H :    0.135947
   5 S :    0.797165
   6 C :    0.280420
   7 N :   -0.408602
   8 C :   -0.453432
   9 H :    0.114496
  10 H :    0.068721
  11 H :    0.201935
  12 H :    0.205682
  13 O :   -0.381980
  14 O :   -0.386929
  15 F :   -0.094165
  16 H :    0.104532
  17 H :    0.087483
  18 H :    0.078649
  19 H :    0.137726
Sum of atomic charges:    0.0000000

LOEWDIN ATOMIC CHARGES
----------------------
   0 C :   -0.213718
   1 C :   -0.266309
   2 C :   -0.362565
   3 H :    0.137532
   4 H :    0.145239
   5 S :    0.513148
   6 C :   -0.369329
   7 N :    0.006608
   8 C :   -0.273283
   9 H :    0.087943
  10 H :    0.096273
  11 H :    0.164510
  12 H :    0.165242
  13 O :   -0.239303
  14 O :   -0.246123
  15 F :    0.087539
  16 H :    0.143300
  17 H :    0.139429
  18 H :    0.137420
  19 H :    0.146443

  Mayer bond orders larger than 0.100000
B(  0-C ,  1-C ) :   0.9343 B(  0-C ,  6-C ) :   0.9173 B(  0-C , 18-H ) :   0.9683
B(  0-C , 19-H ) :   0.9964 B(  1-C ,  2-C ) :   0.9645 B(  1-C , 16-H ) :   0.9532
B(  1-C , 17-H ) :   0.9359 B(  2-C ,  3-H ) :   0.9339 B(  2-C ,  4-H ) :   0.9441
B(  2-C ,  5-S ) :   0.9066 B(  5-S , 13-O ) :   1.9773 B(  5-S , 14-O ) :   1.8988
B(  5-S , 15-F ) :   1.0726 B(  6-C ,  7-N ) :   1.1486 B(  6-C ,  8-C ) :   1.6937
B(  7-N , 11-H ) :   0.9274 B(  7-N , 12-H ) :   0.9248 B(  8-C ,  9-H ) :   0.9988
B(  8-C , 10-H ) :   0.9849

Dispersion correction           -0.046944170
FINAL SINGLE POINT ENERGY      -899.817925372996

DIPOLE MOMENT
-------------
                                X             Y             Z
Electronic contribution:      5.53882     -12.02157       3.18410
Nuclear contribution   :     -6.15577      13.80449      -3.81895
                        -----------------------------------------
Total Dipole Moment    :     -0.61694       1.78293      -0.63485
                        -----------------------------------------
Magnitude (a.u.)       :      1.99060
Magnitude (Debye)      :      5.05970

Rotational constants in cm-1:     0.081431     0.024887     0.022470
Rotational constants in MHz :  2441.231544   746.086417   673.646914

                             ****ORCA TERMINATED NORMALLY****
TOTAL RUN TIME: 0 days 0 hours 0 minutes 11 seconds 546 msec
