                         Program Version 5.0.0 -  RELEASE  -
|  1> !PBE0 D3BJ RIJCOSX def2-TZVP def2/J TightSCF
|  2> *xyz -1 1
|  3> C         -5.57236       -5.80780       -0.81644
|  4> S         -6.90318       -4.61903       -0.52846
|  5> O         -8.11485       -5.25093       -0.95701
|  6> O         -6.53271       -3.42684       -1.31485
|  7> O         -6.86563       -4.29496        0.91412
|  8> C         -4.45780       -5.94187        0.22919
|  9> H         -5.17735       -5.54257       -1.79771
| 10> H         -6.07420       -6.76889       -0.92127
| 11> H         -3.75515       -6.68239       -0.09144
| 12> H         -4.88182       -6.23486        1.16689
| 13> H         -3.95908       -5.00189        0.34143
| 14> *
| 15> %MaxCore 64000
| 16>
| 17> %pal nprocs 4
| 18> end
| 19>
| 20> %scf
| 21>   MaxIter 150
| 22> end
| 23>
| 24>                          ****END OF INPUT****

CARTESIAN COORDINATES (ANGSTROEM)
---------------------------------
  C     -5.572360   -5.807800   -0.816440
  S     -6.903180   -4.619030   -0.528460
  O     -8.114850   -5.250930   -0.957010
  O     -6.532710   -3.426840   -1.314850
  O     -6.865630   -4.294960    0.914120
  C     -4.457800   -5.941870    0.229190
  H     -5.177350   -5.542570   -1.797710
  H     -6.074200   -6.768890   -0.921270
  H     -3.755150   -6.682390   -0.091440
  H     -4.881820   -6.234860    1.166890
  H     -3.959080   -5.001890    0.341430

 Total Charge           Charge          ....   -1
 Multiplicity           Mult            ....    1
 Number of Electrons    NEL             ....   58
 Basis Dimension        Dim             ....  222

ORBITAL ENERGIES
----------------

  NO   OCC          E(Eh)            E(eV)
   0   2.0000     -88.993955     -2421.6486
   1   2.0000     -18.981053      -516.5007
   2   2.0000     -18.967031      -516.1191
   3   2.0000     -18.965747      -516.0842
   4   2.0000     -10.079923      -274.2886
   5   2.0000     -10.075780      -274.1759
   6   2.0000      -7.939285      -216.0389
   7   2.0000      -5.876684      -159.9127
   8   2.0000      -5.875319      -159.8755
   9   2.0000      -5.875128      -159.8704
  10   2.0000      -0.941521       -25.6201
  11   2.0000      -0.810691       -22.0600
  12   2.0000      -0.787109       -21.4183
  13   2.0000      -0.651187       -17.7197
  14   2.0000      -0.525414       -14.2972
  15   2.0000      -0.393209       -10.6998
  16   2.0000      -0.329036        -8.9535
  17   2.0000      -0.321901        -8.7594
  18   2.0000      -0.284828        -7.7506
  19   2.0000      -0.267501        -7.2791
  20   2.0000      -0.266269        -7.2456
  21   2.0000      -0.234422        -6.3789
  22   2.0000      -0.227740        -6.1971
  23   2.0000      -0.156634        -4.2622
  24   2.0000      -0.154491        -4.2039
  25   2.0000      -0.122245        -3.3264
  26   2.0000      -0.110400        -3.0041
  27   2.0000      -0.105144        -2.8611
  28   2.0000      -0.067825        -1.8456
  29   0.0000       0.179947         4.8966
  30   0.0000       0.227451         6.1892
  31   0.0000       0.240326         6.5396
  32   0.0000       0.244776         6.6607
  33   0.0000       0.266385         7.2487

MULLIKEN ATOMIC CHARGES
-----------------------
   0 C :   -0.267622
   1 S :    0.807517
   2 O :   -0.534197
   3 O :   -0.580287
   4 O :   -0.581362
   5 C :   -0.327105
   6 H :    0.096341
   7 H :    0.091371
   8 H :    0.074099
   9 H :    0.113189
  10 H :    0.108055
Sum of atomic charges:   -1.0000000

LOEWDIN ATOMIC CHARGES
----------------------
   0 C :   -0.431423
   1 S :    0.406336
   2 O :   -0.362040
   3 O :   -0.420794
   4 O :   -0.416616
   5 C :   -0.344074
   6 H :    0.120353
   7 H :    0.118496
   8 H :    0.100422
   9 H :    0.114686
  10 H :    0.114654

  Mayer bond orders larger than 0.100000
B(  0-C ,  1-S ) :   0.8720 B(  0-C ,  5-C ) :   0.9856 B(  0-C ,  6-H ) :   0.9584
B(  0-C ,  7-H ) :   0.9535 B(  1-S ,  2-O ) :   1.8300 B(  1-S ,  3-O ) :   1.7744
B(  1-S ,  4-O ) :   1.7591 B(  5-C ,  8-H ) :   0.9596 B(  5-C ,  9-H ) :   0.9715
B(  5-C , 10-H ) :   0.9740

Dispersion correction           -0.008153665
FINAL SINGLE POINT ENERGY      -702.836840196591

DIPOLE MOMENT
-------------
                                X             Y             Z
Electronic contribution:     -6.73572       4.35859      -0.91987
Nuclear contribution   :      8.13140      -5.68016       0.80206
                        -----------------------------------------
Total Dipole Moment    :      1.39568      -1.32157      -0.11781
                        -----------------------------------------
Magnitude (a.u.)       :      1.92571
Magnitude (Debye)      :      4.89477

Rotational constants in cm-1:     0.162101     0.080498     0.079099
Rotational constants in MHz :  4859.669771  2413.267251  2371.338602

                             ****ORCA TERMINATED NORMALLY****
TOTAL RUN TIME: 0 days 0 hours 0 minutes 25 seconds 132 msec
