                         Program Version 5.0.0 -  RELEASE  -
|  1> !PBE0 D3BJ RIJCOSX def2-TZVP def2/J TightSCF
|  2> *xyz 1 1
|  3> C         -4.38262       -1.67089        1.21620
|  4> N         -5.76354       -1.91517        0.70501
|  5> C         -3.28173       -2.19127        0.29436
|  6> H         -5.84081       -2.11520       -0.30065
|  7> H         -6.40882       -1.14866        0.93612
|  8> H         -6.17478       -2.79061        1.05143
|  9> H         -4.32862       -2.13922        2.19810
| 10> H         -4.26158       -0.59740        1.35725
| 11> H         -3.36057       -1.71407       -0.66008
| 12> H         -3.38775       -3.24919        0.17403
| 13> H         -2.32559       -1.97514        0.72329
| 14> *
| 15> %MaxCore 64000
| 16>
| 17> %pal nprocs 4
| 18> end
| 19>
| 20> %scf
| 21>   MaxIter 150
| 22> end
| 23>
| 24>                          ****END OF INPUT****

CARTESIAN COORDINATES (ANGSTROEM)
---------------------------------
  C     -4.382620   -1.670890    1.216200
  N     -5.763540   -1.915170    0.705010
  C     -3.281730   -2.191270    0.294360
  H     -5.840810   -2.115200   -0.300650
  H     -6.408820   -1.148660    0.936120
  H     -6.174780   -2.790610    1.051430
  H     -4.328620   -2.139220    2.198100
  H     -4.261580   -0.597400    1.357250
  H     -3.360570   -1.714070   -0.660080
  H     -3.387750   -3.249190    0.174030
  H     -2.325590   -1.975140    0.723290

 Total Charge           Charge          ....    1
 Multiplicity           Mult            ....    1
 Number of Electrons    NEL             ....   26
 Basis Dimension        Dim             ....  141

ORBITAL ENERGIES
----------------

  NO   OCC          E(Eh)            E(eV)
   0   2.0000     -14.719310      -400.5328
   1   2.0000     -10.475531      -285.0537
   2   2.0000     -10.393360      -282.8177
   3   2.0000      -1.242519       -33.8107
   4   2.0000      -0.989750       -26.9325
   5   2.0000      -0.868791       -23.6410
   6   2.0000      -0.812827       -22.1181
   7   2.0000      -0.791449       -21.5364
   8   2.0000      -0.717555       -19.5257
   9   2.0000      -0.653795       -17.7907
  10   2.0000      -0.596146       -16.2220
  11   2.0000      -0.578668       -15.7464
  12   2.0000      -0.560025       -15.2391
  13   0.0000      -0.185941        -5.0597
  14   0.0000      -0.129336        -3.5194
  15   0.0000      -0.124532        -3.3887
  16   0.0000      -0.102960        -2.8017
  17   0.0000      -0.066901        -1.8205

MULLIKEN ATOMIC CHARGES
-----------------------
   0 C :   -0.196284
   1 N :   -0.301073
   2 C :   -0.384940
   3 H :    0.324978
   4 H :    0.340624
   5 H :    0.329197
   6 H :    0.193559
   7 H :    0.192475
   8 H :    0.160243
   9 H :    0.156064
  10 H :    0.185159
Sum of atomic charges:    1.0000000

LOEWDIN ATOMIC CHARGES
----------------------
   0 C :   -0.275647
   1 N :    0.166593
   2 C :   -0.280149
   3 H :    0.220899
   4 H :    0.225084
   5 H :    0.222827
   6 H :    0.153704
   7 H :    0.154521
   8 H :    0.131910
   9 H :    0.131201
  10 H :    0.149056

  Mayer bond orders larger than 0.100000
B(  0-C ,  1-N ) :   0.8611 B(  0-C ,  2-C ) :   1.0157 B(  0-C ,  6-H ) :   0.9522
B(  0-C ,  7-H ) :   0.9520 B(  1-N ,  3-H ) :   0.8743 B(  1-N ,  4-H ) :   0.8726
B(  1-N ,  5-H ) :   0.8793 B(  2-C ,  8-H ) :   0.9560 B(  2-C ,  9-H ) :   0.9596
B(  2-C , 10-H ) :   0.9505

Dispersion correction           -0.004977265
FINAL SINGLE POINT ENERGY      -135.419052582559

DIPOLE MOMENT
-------------
                                X             Y             Z
Electronic contribution:     -1.81361       0.23939       0.30484
Nuclear contribution   :      0.19437      -0.25358      -0.32106
                        -----------------------------------------
Total Dipole Moment    :     -1.61925      -0.01419      -0.01622
                        -----------------------------------------
Magnitude (a.u.)       :      1.61939
Magnitude (Debye)      :      4.11616

Rotational constants in cm-1:     1.030014     0.272489     0.242697
Rotational constants in MHz : 30879.030706  8169.007780  7275.865152

                             ****ORCA TERMINATED NORMALLY****
TOTAL RUN TIME: 0 days 0 hours 0 minutes 14 seconds 167 msec
