                         Program Version 5.0.0 -  RELEASE  -
|  1> !PBE0 D3BJ RIJCOSX def2-TZVP def2/J TightSCF xyzfile
|  2>
|  3> *xyzfile 0 1 B.xyz
|  4>
|  5> %MaxCore 64000
|  6>
|  7> %pal nprocs 18
|  8> end
|  9>
| 10> %scf
| 11>   MaxIter 150
| 12> end
| 13>
| 14>
| 15>                          ****END OF INPUT****

CARTESIAN COORDINATES (ANGSTROEM)
---------------------------------
  C     -4.382623   -1.670889    1.216201
  N     -5.763539   -1.915170    0.705012
  C     -3.281728   -2.191272    0.294361
  C     -5.572364   -5.807798   -0.816445
  S     -6.903179   -4.619033   -0.528458
  H     -5.840812   -2.115205   -0.300646
  H     -6.408823   -1.148656    0.936124
  H     -6.174781   -2.790606    1.051433
  O     -8.114853   -5.250932   -0.957007
  O     -6.532715   -3.426838   -1.314848
  H     -4.328618   -2.139223    2.198103
  H     -4.261583   -0.597399    1.357248
  O     -6.865632   -4.294957    0.914118
  C     -3.474641   -3.605898   -0.259608
  H     -2.354548   -2.127602    0.871433
  H     -3.166611   -1.499693   -0.545037
  C     -3.827078   -4.661097    0.786174
  H     -2.560559   -3.889391   -0.788050
  H     -4.255932   -3.570040   -1.019300
  C     -4.457800   -5.941875    0.229195
  H     -5.177347   -5.542575   -1.797714
  H     -6.074202   -6.768894   -0.921272
  H     -4.530506   -4.253640    1.511979
  H     -2.933400   -4.932302    1.356825
  H     -3.681064   -6.562236   -0.229885
  H     -4.843942   -6.512728    1.075805

 Total Charge           Charge          ....    0
 Multiplicity           Mult            ....    1
 Number of Electrons    NEL             ....   98
 Basis Dimension        Dim             ....  437

ORBITAL ENERGIES
----------------

  NO   OCC          E(Eh)            E(eV)
   0   2.0000     -89.168926     -2426.4098
   1   2.0000     -19.159666      -521.3610
   2   2.0000     -19.155462      -521.2466
   3   2.0000     -19.142486      -520.8935
   4   2.0000     -14.489693      -394.2846
   5   2.0000     -10.308917      -280.5199
   6   2.0000     -10.256088      -279.0823
   7   2.0000     -10.230103      -278.3752
   8   2.0000     -10.226089      -278.2660
   9   2.0000     -10.225079      -278.2385
  10   2.0000     -10.224026      -278.2099
  11   2.0000      -8.115080      -220.8226
  12   2.0000      -6.052187      -164.6884
  13   2.0000      -6.051713      -164.6755
  14   2.0000      -6.050352      -164.6385
  15   2.0000      -1.122746       -30.5515
  16   2.0000      -1.033502       -28.1230
  17   2.0000      -0.985057       -26.8048
  18   2.0000      -0.982092       -26.7241
  19   2.0000      -0.855656       -23.2836
  20   2.0000      -0.814413       -22.1613
  21   2.0000      -0.763359       -20.7721
  22   2.0000      -0.711100       -19.3500
  23   2.0000      -0.656281       -17.8583
  24   2.0000      -0.616571       -16.7777
  25   2.0000      -0.604610       -16.4523
  26   2.0000      -0.590534       -16.0693
  27   2.0000      -0.555217       -15.1082
  28   2.0000      -0.527380       -14.3507
  29   2.0000      -0.503539       -13.7020
  30   2.0000      -0.497807       -13.5460
  31   2.0000      -0.482548       -13.1308
  32   2.0000      -0.461977       -12.5710
  33   2.0000      -0.454271       -12.3613
  34   2.0000      -0.445251       -12.1159
  35   2.0000      -0.433623       -11.7995
  36   2.0000      -0.430691       -11.7197
  37   2.0000      -0.400209       -10.8902
  38   2.0000      -0.388454       -10.5704
  39   2.0000      -0.384288       -10.4570
  40   2.0000      -0.357636        -9.7318
  41   2.0000      -0.350165        -9.5285
  42   2.0000      -0.344018        -9.3612
  43   2.0000      -0.334576        -9.1043
  44   2.0000      -0.329235        -8.9589
  45   2.0000      -0.293137        -7.9767
  46   2.0000      -0.287039        -7.8107
  47   2.0000      -0.278804        -7.5867
  48   2.0000      -0.255929        -6.9642
  49   0.0000      -0.003956        -0.1077
  50   0.0000       0.035873         0.9762
  51   0.0000       0.046457         1.2642
  52   0.0000       0.049098         1.3360
  53   0.0000       0.064454         1.7539

MULLIKEN ATOMIC CHARGES
-----------------------
   0 C :   -0.237263
   1 N :   -0.259345
   2 C :   -0.179248
   3 C :   -0.329413
   4 S :    0.862365
   5 H :    0.299926
   6 H :    0.276573
   7 H :    0.292204
   8 O :   -0.472250
   9 O :   -0.589497
  10 H :    0.170203
  11 H :    0.151346
  12 O :   -0.575730
  13 C :   -0.288824
  14 H :    0.117812
  15 H :    0.130303
  16 C :   -0.252484
  17 H :    0.111180
  18 H :    0.167530
  19 C :   -0.142374
  20 H :    0.143433
  21 H :    0.153174
  22 H :    0.125326
  23 H :    0.103619
  24 H :    0.104110
  25 H :    0.117323
Sum of atomic charges:   -0.0000000

LOEWDIN ATOMIC CHARGES
----------------------
   0 C :   -0.279682
   1 N :    0.139323
   2 C :   -0.272482
   3 C :   -0.386286
   4 S :    0.447835
   5 H :    0.185535
   6 H :    0.197603
   7 H :    0.164801
   8 O :   -0.297872
   9 O :   -0.386391
  10 H :    0.141566
  11 H :    0.137642
  12 O :   -0.367768
  13 C :   -0.274996
  14 H :    0.149221
  15 H :    0.144235
  16 C :   -0.279600
  17 H :    0.141842
  18 H :    0.145896
  19 C :   -0.285275
  20 H :    0.135380
  21 H :    0.140967
  22 H :    0.135477
  23 H :    0.136736
  24 H :    0.141104
  25 H :    0.145190

  Mayer bond orders larger than 0.100000
B(  0-C ,  1-N ) :   0.9134 B(  0-C ,  2-C ) :   0.9982 B(  0-C , 10-H ) :   0.9689
B(  0-C , 11-H ) :   0.9606 B(  1-N ,  5-H ) :   0.8203 B(  1-N ,  6-H ) :   0.8982
B(  1-N ,  7-H ) :   0.7861 B(  2-C , 13-C ) :   0.9989 B(  2-C , 14-H ) :   0.9556
B(  2-C , 15-H ) :   0.9592 B(  3-C ,  4-S ) :   0.8991 B(  3-C , 19-C ) :   0.9884
B(  3-C , 20-H ) :   0.9525 B(  3-C , 21-H ) :   0.9441 B(  4-S ,  8-O ) :   1.9508
B(  4-S ,  9-O ) :   1.5961 B(  4-S , 12-O ) :   1.5607 B(  5-H ,  9-O ) :   0.1095
B(  7-H , 12-O ) :   0.1815 B( 13-C , 16-C ) :   0.9729 B( 13-C , 17-H ) :   0.9567
B( 13-C , 18-H ) :   0.9623 B( 16-C , 19-C ) :   1.0013 B( 16-C , 22-H ) :   0.9599
B( 16-C , 23-H ) :   0.9474 B( 19-C , 24-H ) :   0.9486 B( 19-C , 25-H ) :   0.9578

Dispersion correction           -0.027146421
FINAL SINGLE POINT ENERGY      -915.813675030288

DIPOLE MOMENT
-------------
                                X             Y             Z
Electronic contribution:    -13.58390      -2.91284      -3.67844
Nuclear contribution   :     16.18863       5.15617       4.97370
                        -----------------------------------------
Total Dipole Moment    :      2.60473       2.24333       1.29527
                        -----------------------------------------
Magnitude (a.u.)       :      3.67353
Magnitude (Debye)      :      9.33738

Rotational constants in cm-1:     0.048546     0.025588     0.020102
Rotational constants in MHz :  1455.374030   767.095631   602.645620

                             ****ORCA TERMINATED NORMALLY****
TOTAL RUN TIME: 0 days 0 hours 0 minutes 30 seconds 557 msec
