                         Program Version 5.0.0 -  RELEASE  -
|  1> !PBE0 D3BJ RIJCOSX def2-TZVP def2/J TightSCF
|  2> *xyz 0 1
|  3> C         -5.57236       -5.80780       -0.81644
|  4> S         -6.90318       -4.61903       -0.52846
|  5> F         -8.11485       -5.25093       -0.95701
|  6> O         -6.53271       -3.42684       -1.31485
|  7> O         -6.86563       -4.29496        0.91412
|  8> C         -4.45780       -5.94187        0.22919
|  9> H         -5.17735       -5.54257       -1.79771
| 10> H         -6.07420       -6.76889       -0.92127
| 11> H         -3.75515       -6.68239       -0.09144
| 12> H         -4.88182       -6.23486        1.16689
| 13> H         -3.95908       -5.00189        0.34143
| 14> *
| 15> %MaxCore 64000
| 16>
| 17> %pal nprocs 4
| 18> end
| 19>
| 20> %scf
| 21>   MaxIter 150
| 22> end
| 23>
| 24>                          ****END OF INPUT****

CARTESIAN COORDINATES (ANGSTROEM)
---------------------------------
  C     -5.572360   -5.807800   -0.816440
  S     -6.903180   -4.619030   -0.528460
  F     -8.114850   -5.250930   -0.957010
  O     -6.532710   -3.426840   -1.314850
  O     -6.865630   -4.294960    0.914120
  C     -4.457800   -5.941870    0.229190
  H     -5.177350   -5.542570   -1.797710
  H     -6.074200   -6.768890   -0.921270
  H     -3.755150   -6.682390   -0.091440
  H     -4.881820   -6.234860    1.166890
  H     -3.959080   -5.001890    0.341430

 Total Charge           Charge          ....    0
 Multiplicity           Mult            ....    1
 Number of Electrons    NEL             ....   58
 Basis Dimension        Dim             ....  222

ORBITAL ENERGIES
----------------

  NO   OCC          E(Eh)            E(eV)
   0   2.0000     -89.262494     -2428.9559
   1   2.0000     -24.897818      -677.5041
   2   2.0000     -19.207760      -522.6697
   3   2.0000     -19.207489      -522.6623
   4   2.0000     -10.285329      -279.8780
   5   2.0000     -10.239920      -278.6424
   6   2.0000      -8.208387      -223.3616
   7   2.0000      -6.148655      -167.3134
   8   2.0000      -6.142601      -167.1487
   9   2.0000      -6.142044      -167.1335
  10   2.0000      -1.425379       -38.7865
  11   2.0000      -1.119671       -30.4678
  12   2.0000      -1.022372       -27.8202
  13   2.0000      -0.844077       -22.9685
  14   2.0000      -0.762161       -20.7395
  15   2.0000      -0.698937       -19.0190
  16   2.0000      -0.611814       -16.6483
  17   2.0000      -0.609427       -16.5834
  18   2.0000      -0.571827       -15.5602
  19   2.0000      -0.507251       -13.8030
  20   2.0000      -0.493440       -13.4272
  21   2.0000      -0.458209       -12.4685
  22   2.0000      -0.442187       -12.0325
  23   2.0000      -0.418465       -11.3870
  24   2.0000      -0.403142       -10.9700
  25   2.0000      -0.392215       -10.6727
  26   2.0000      -0.336595        -9.1592
  27   2.0000      -0.334827        -9.1111
  28   2.0000      -0.312454        -8.5023
  29   0.0000       0.028026         0.7626
  30   0.0000       0.029386         0.7996
  31   0.0000       0.060018         1.6332
  32   0.0000       0.077844         2.1182
  33   0.0000       0.082601         2.2477

MULLIKEN ATOMIC CHARGES
-----------------------
   0 C :   -0.270401
   1 S :    0.838495
   2 F :   -0.083188
   3 O :   -0.429547
   4 O :   -0.433216
   5 C :   -0.340539
   6 H :    0.162824
   7 H :    0.132857
   8 H :    0.135709
   9 H :    0.141664
  10 H :    0.145342
Sum of atomic charges:   -0.0000000

LOEWDIN ATOMIC CHARGES
----------------------
   0 C :   -0.397591
   1 S :    0.529566
   2 F :    0.110856
   3 O :   -0.300183
   4 O :   -0.299123
   5 C :   -0.303179
   6 H :    0.144402
   7 H :    0.133904
   8 H :    0.126280
   9 H :    0.126673
  10 H :    0.128395

  Mayer bond orders larger than 0.100000
B(  0-C ,  1-S ) :   0.9071 B(  0-C ,  5-C ) :   1.0054 B(  0-C ,  6-H ) :   0.9348
B(  0-C ,  7-H ) :   0.9362 B(  1-S ,  2-F ) :   1.1614 B(  1-S ,  3-O ) :   1.9121
B(  1-S ,  4-O ) :   1.9009 B(  5-C ,  8-H ) :   0.9521 B(  5-C ,  9-H ) :   0.9641
B(  5-C , 10-H ) :   0.9668

Dispersion correction           -0.007790481
FINAL SINGLE POINT ENERGY      -727.341037768873

DIPOLE MOMENT
-------------
                                X             Y             Z
Electronic contribution:     -9.42111       3.59105      -1.85983
Nuclear contribution   :      9.80704      -5.24335       1.35017
                        -----------------------------------------
Total Dipole Moment    :      0.38593      -1.65230      -0.50965
                        -----------------------------------------
Magnitude (a.u.)       :      1.77166
Magnitude (Debye)      :      4.50320

Rotational constants in cm-1:     0.156316     0.078308     0.076228
Rotational constants in MHz :  4686.224999  2347.601204  2285.245115

                             ****ORCA TERMINATED NORMALLY****
TOTAL RUN TIME: 0 days 0 hours 0 minutes 29 seconds 567 msec
