                         Program Version 5.0.0 -  RELEASE  -
|  1> !PBE0 D3BJ RIJCOSX def2-TZVP def2/J TightSCF
|  2> *xyz 0 1
|  3> C         -4.38262       -1.67089        1.21620
|  4> C         -5.76354       -1.91517        0.70501
|  5> C         -3.28173       -2.19127        0.29436
|  6> H         -5.84081       -2.11520       -0.30065
|  7> H         -6.40882       -1.14866        0.93612
|  8> H         -6.17478       -2.79061        1.05143
|  9> H         -4.32862       -2.13922        2.19810
| 10> H         -4.26158       -0.59740        1.35725
| 11> H         -3.36057       -1.71407       -0.66008
| 12> H         -3.38775       -3.24919        0.17403
| 13> H         -2.32559       -1.97514        0.72329
| 14> *
| 15> %MaxCore 64000
| 16>
| 17> %pal nprocs 4
| 18> end
| 19>
| 20> %scf
| 21>   MaxIter 150
| 22> end
| 23>
| 24>                          ****END OF INPUT****

CARTESIAN COORDINATES (ANGSTROEM)
---------------------------------
  C     -4.382620   -1.670890    1.216200
  C     -5.763540   -1.915170    0.705010
  C     -3.281730   -2.191270    0.294360
  H     -5.840810   -2.115200   -0.300650
  H     -6.408820   -1.148660    0.936120
  H     -6.174780   -2.790610    1.051430
  H     -4.328620   -2.139220    2.198100
  H     -4.261580   -0.597400    1.357250
  H     -3.360570   -1.714070   -0.660080
  H     -3.387750   -3.249190    0.174030
  H     -2.325590   -1.975140    0.723290

 Total Charge           Charge          ....    0
 Multiplicity           Mult            ....    1
 Number of Electrons    NEL             ....   26
 Basis Dimension        Dim             ....  141

ORBITAL ENERGIES
----------------

  NO   OCC          E(Eh)            E(eV)
   0   2.0000     -10.207817      -277.7688
   1   2.0000     -10.196909      -277.4720
   2   2.0000     -10.177349      -276.9397
   3   2.0000      -0.811334       -22.0775
   4   2.0000      -0.712903       -19.3991
   5   2.0000      -0.608009       -16.5448
   6   2.0000      -0.476025       -12.9533
   7   2.0000      -0.454858       -12.3773
   8   2.0000      -0.422551       -11.4982
   9   2.0000      -0.397299       -10.8111
  10   2.0000      -0.351822        -9.5736
  11   2.0000      -0.344702        -9.3798
  12   2.0000      -0.331716        -9.0265
  13   0.0000       0.050737         1.3806
  14   0.0000       0.092786         2.5248
  15   0.0000       0.096155         2.6165
  16   0.0000       0.103817         2.8250
  17   0.0000       0.129204         3.5158

MULLIKEN ATOMIC CHARGES
-----------------------
   0 C :   -0.149236
   1 C :   -0.376885
   2 C :   -0.362070
   3 H :    0.116639
   4 H :    0.119888
   5 H :    0.117824
   6 H :    0.095144
   7 H :    0.093983
   8 H :    0.115538
   9 H :    0.111561
  10 H :    0.117614
Sum of atomic charges:    0.0000000

LOEWDIN ATOMIC CHARGES
----------------------
   0 C :   -0.321284
   1 C :   -0.313843
   2 C :   -0.310357
   3 H :    0.110608
   4 H :    0.110076
   5 H :    0.110714
   6 H :    0.133663
   7 H :    0.132932
   8 H :    0.116163
   9 H :    0.115916
  10 H :    0.115410

  Mayer bond orders larger than 0.100000
B(  0-C ,  1-C ) :   0.9870 B(  0-C ,  2-C ) :   1.0039 B(  0-C ,  6-H ) :   0.9680
B(  0-C ,  7-H ) :   0.9691 B(  1-C ,  3-H ) :   0.9779 B(  1-C ,  4-H ) :   0.9767
B(  1-C ,  5-H ) :   0.9774 B(  2-C ,  8-H ) :   0.9744 B(  2-C ,  9-H ) :   0.9751
B(  2-C , 10-H ) :   0.9750

Dispersion correction           -0.004997554
FINAL SINGLE POINT ENERGY      -119.016307794461

DIPOLE MOMENT
-------------
                                X             Y             Z
Electronic contribution:      0.18450       0.23862       0.33897
Nuclear contribution   :     -0.21528      -0.24783      -0.32864
                        -----------------------------------------
Total Dipole Moment    :     -0.03078      -0.00921       0.01033
                        -----------------------------------------
Magnitude (a.u.)       :      0.03375
Magnitude (Debye)      :      0.08577

Rotational constants in cm-1:     1.037566     0.286459     0.254172
Rotational constants in MHz : 31105.431429  8587.814531  7619.871198

                             ****ORCA TERMINATED NORMALLY****
TOTAL RUN TIME: 0 days 0 hours 0 minutes 13 seconds 116 msec
