                         Program Version 5.0.0 -  RELEASE  -
|  1> !PBE0 D3BJ RIJCOSX def2-TZVP def2/J TightSCF
|  2> *xyz 0 1
|  3> C         -5.57236       -5.80780       -0.81644
|  4> S         -6.90318       -4.61903       -0.52846
|  5> O         -8.11485       -5.25093       -0.95701
|  6> F         -6.53271       -3.42684       -1.31485
|  7> O         -6.86563       -4.29496        0.91412
|  8> C         -4.45780       -5.94187        0.22919
|  9> H         -5.17735       -5.54257       -1.79771
| 10> H         -6.07420       -6.76889       -0.92127
| 11> H         -3.75515       -6.68239       -0.09144
| 12> H         -4.88182       -6.23486        1.16689
| 13> H         -3.95908       -5.00189        0.34143
| 14> *
| 15> %MaxCore 64000
| 16>
| 17> %pal nprocs 4
| 18> end
| 19>
| 20> %scf
| 21>   MaxIter 150
| 22> end
| 23>
| 24>                          ****END OF INPUT****

CARTESIAN COORDINATES (ANGSTROEM)
---------------------------------
  C     -5.572360   -5.807800   -0.816440
  S     -6.903180   -4.619030   -0.528460
  O     -8.114850   -5.250930   -0.957010
  F     -6.532710   -3.426840   -1.314850
  O     -6.865630   -4.294960    0.914120
  C     -4.457800   -5.941870    0.229190
  H     -5.177350   -5.542570   -1.797710
  H     -6.074200   -6.768890   -0.921270
  H     -3.755150   -6.682390   -0.091440
  H     -4.881820   -6.234860    1.166890
  H     -3.959080   -5.001890    0.341430

 Total Charge           Charge          ....    0
 Multiplicity           Mult            ....    1
 Number of Electrons    NEL             ....   58
 Basis Dimension        Dim             ....  222

ORBITAL ENERGIES
----------------

  NO   OCC          E(Eh)            E(eV)
   0   2.0000     -89.260285     -2428.8958
   1   2.0000     -24.875328      -676.8921
   2   2.0000     -19.222163      -523.0616
   3   2.0000     -19.207593      -522.6652
   4   2.0000     -10.284752      -279.8623
   5   2.0000     -10.239491      -278.6307
   6   2.0000      -8.206241      -223.3032
   7   2.0000      -6.146594      -167.2573
   8   2.0000      -6.140584      -167.0938
   9   2.0000      -6.139825      -167.0731
  10   2.0000      -1.388443       -37.7814
  11   2.0000      -1.137413       -30.9506
  12   2.0000      -1.038091       -28.2479
  13   2.0000      -0.843807       -22.9611
  14   2.0000      -0.747835       -20.3496
  15   2.0000      -0.691167       -18.8076
  16   2.0000      -0.594395       -16.1743
  17   2.0000      -0.584149       -15.8955
  18   2.0000      -0.567901       -15.4534
  19   2.0000      -0.506018       -13.7694
  20   2.0000      -0.494714       -13.4618
  21   2.0000      -0.469431       -12.7739
  22   2.0000      -0.445425       -12.1206
  23   2.0000      -0.416051       -11.3213
  24   2.0000      -0.412707       -11.2303
  25   2.0000      -0.395754       -10.7690
  26   2.0000      -0.350690        -9.5428
  27   2.0000      -0.338431        -9.2092
  28   2.0000      -0.325467        -8.8564
  29   0.0000       0.026020         0.7080
  30   0.0000       0.034250         0.9320
  31   0.0000       0.060614         1.6494
  32   0.0000       0.080060         2.1785
  33   0.0000       0.086317         2.3488

MULLIKEN ATOMIC CHARGES
-----------------------
   0 C :   -0.278198
   1 S :    0.842594
   2 O :   -0.393456
   3 F :   -0.114433
   4 O :   -0.440512
   5 C :   -0.337160
   6 H :    0.140277
   7 H :    0.166166
   8 H :    0.134869
   9 H :    0.150674
  10 H :    0.129179
Sum of atomic charges:    0.0000000

LOEWDIN ATOMIC CHARGES
----------------------
   0 C :   -0.395602
   1 S :    0.537148
   2 O :   -0.249062
   3 F :    0.056912
   4 O :   -0.302157
   5 C :   -0.309283
   6 H :    0.135921
   7 H :    0.148985
   8 H :    0.125412
   9 H :    0.128326
  10 H :    0.123399

  Mayer bond orders larger than 0.100000
B(  0-C ,  1-S ) :   0.9042 B(  0-C ,  5-C ) :   1.0000 B(  0-C ,  6-H ) :   0.9404
B(  0-C ,  7-H ) :   0.9369 B(  1-S ,  2-O ) :   1.9636 B(  1-S ,  3-F ) :   1.1178
B(  1-S ,  4-O ) :   1.8995 B(  5-C ,  8-H ) :   0.9527 B(  5-C ,  9-H ) :   0.9645
B(  5-C , 10-H ) :   0.9677

Dispersion correction           -0.007776780
FINAL SINGLE POINT ENERGY      -727.359642836036

DIPOLE MOMENT
-------------
                                X             Y             Z
Electronic contribution:     -6.74016       6.69479      -2.48552
Nuclear contribution   :      8.15840      -7.14411       1.72305
                        -----------------------------------------
Total Dipole Moment    :      1.41824      -0.44932      -0.76247
                        -----------------------------------------
Magnitude (a.u.)       :      1.67172
Magnitude (Debye)      :      4.24918

Rotational constants in cm-1:     0.153926     0.078297     0.077402
Rotational constants in MHz :  4614.585804  2347.272644  2320.438903

                             ****ORCA TERMINATED NORMALLY****
TOTAL RUN TIME: 0 days 0 hours 0 minutes 25 seconds 676 msec
