                         Program Version 5.0.0 -  RELEASE  -
|  1> !PBE0 D3BJ RIJCOSX def2-TZVP def2/J TightSCF
|  2> *xyz 0 1
|  3> C         -5.57236       -5.80780       -0.81644
|  4> S         -6.90318       -4.61903       -0.52846
|  5> O         -8.11485       -5.25093       -0.95701
|  6> O         -6.53271       -3.42684       -1.31485
|  7> F         -6.86563       -4.29496        0.91412
|  8> C         -4.45780       -5.94187        0.22919
|  9> H         -5.17735       -5.54257       -1.79771
| 10> H         -6.07420       -6.76889       -0.92127
| 11> H         -3.75515       -6.68239       -0.09144
| 12> H         -4.88182       -6.23486        1.16689
| 13> H         -3.95908       -5.00189        0.34143
| 14> *
| 15> %MaxCore 64000
| 16>
| 17> %pal nprocs 4
| 18> end
| 19>
| 20> %scf
| 21>   MaxIter 150
| 22> end
| 23>
| 24>                          ****END OF INPUT****

CARTESIAN COORDINATES (ANGSTROEM)
---------------------------------
  C     -5.572360   -5.807800   -0.816440
  S     -6.903180   -4.619030   -0.528460
  O     -8.114850   -5.250930   -0.957010
  O     -6.532710   -3.426840   -1.314850
  F     -6.865630   -4.294960    0.914120
  C     -4.457800   -5.941870    0.229190
  H     -5.177350   -5.542570   -1.797710
  H     -6.074200   -6.768890   -0.921270
  H     -3.755150   -6.682390   -0.091440
  H     -4.881820   -6.234860    1.166890
  H     -3.959080   -5.001890    0.341430

 Total Charge           Charge          ....    0
 Multiplicity           Mult            ....    1
 Number of Electrons    NEL             ....   58
 Basis Dimension        Dim             ....  222

ORBITAL ENERGIES
----------------

  NO   OCC          E(Eh)            E(eV)
   0   2.0000     -89.259723     -2428.8805
   1   2.0000     -24.874086      -676.8583
   2   2.0000     -19.221827      -523.0525
   3   2.0000     -19.206667      -522.6400
   4   2.0000     -10.284043      -279.8430
   5   2.0000     -10.246637      -278.8252
   6   2.0000      -8.205717      -223.2889
   7   2.0000      -6.146164      -167.2456
   8   2.0000      -6.139881      -167.0747
   9   2.0000      -6.139395      -167.0614
  10   2.0000      -1.385581       -37.7036
  11   2.0000      -1.137926       -30.9645
  12   2.0000      -1.038703       -28.2645
  13   2.0000      -0.846721       -23.0404
  14   2.0000      -0.744935       -20.2707
  15   2.0000      -0.695549       -18.9269
  16   2.0000      -0.599371       -16.3097
  17   2.0000      -0.583138       -15.8680
  18   2.0000      -0.560562       -15.2537
  19   2.0000      -0.510751       -13.8982
  20   2.0000      -0.488610       -13.2958
  21   2.0000      -0.465086       -12.6556
  22   2.0000      -0.459267       -12.4973
  23   2.0000      -0.425408       -11.5759
  24   2.0000      -0.410196       -11.1620
  25   2.0000      -0.399400       -10.8682
  26   2.0000      -0.351116        -9.5543
  27   2.0000      -0.336968        -9.1694
  28   2.0000      -0.324953        -8.8424
  29   0.0000       0.013055         0.3552
  30   0.0000       0.053114         1.4453
  31   0.0000       0.069583         1.8934
  32   0.0000       0.073069         1.9883
  33   0.0000       0.083535         2.2731

MULLIKEN ATOMIC CHARGES
-----------------------
   0 C :   -0.266770
   1 S :    0.843209
   2 O :   -0.393463
   3 O :   -0.439196
   4 F :   -0.117921
   5 C :   -0.366348
   6 H :    0.167495
   7 H :    0.156703
   8 H :    0.140192
   9 H :    0.134042
  10 H :    0.142057
Sum of atomic charges:   -0.0000000

LOEWDIN ATOMIC CHARGES
----------------------
   0 C :   -0.389572
   1 S :    0.537634
   2 O :   -0.249150
   3 O :   -0.305033
   4 F :    0.056629
   5 C :   -0.316648
   6 H :    0.149643
   7 H :    0.142766
   8 H :    0.127702
   9 H :    0.121487
  10 H :    0.124543

  Mayer bond orders larger than 0.100000
B(  0-C ,  1-S ) :   0.9090 B(  0-C ,  5-C ) :   0.9978 B(  0-C ,  6-H ) :   0.9358
B(  0-C ,  7-H ) :   0.9373 B(  1-S ,  2-O ) :   1.9625 B(  1-S ,  3-O ) :   1.9092
B(  1-S ,  4-F ) :   1.1122 B(  5-C ,  8-H ) :   0.9568 B(  5-C ,  9-H ) :   0.9663
B(  5-C , 10-H ) :   0.9658

Dispersion correction           -0.007744215
FINAL SINGLE POINT ENERGY      -727.359864949144

DIPOLE MOMENT
-------------
                                X             Y             Z
Electronic contribution:     -7.28298       5.18862       1.30129
Nuclear contribution   :      8.50531      -6.23950      -0.59960
                        -----------------------------------------
Total Dipole Moment    :      1.22233      -1.05088       0.70169
                        -----------------------------------------
Magnitude (a.u.)       :      1.75807
Magnitude (Debye)      :      4.46866

Rotational constants in cm-1:     0.152799     0.080212     0.076962
Rotational constants in MHz :  4580.804531  2404.707790  2307.252710

                             ****ORCA TERMINATED NORMALLY****
TOTAL RUN TIME: 0 days 0 hours 0 minutes 25 seconds 960 msec
