                         Program Version 5.0.0 -  RELEASE  -
|  1> !PBE0 D3BJ RIJCOSX def2-TZVP def2/J TightSCF xyzfile
|  2>
|  3> *xyzfile 0 1 D2.xyz
|  4>
|  5> %MaxCore 64000
|  6>
|  7> %pal nprocs 18
|  8> end
|  9>
| 10> %scf
| 11>   MaxIter 150
| 12> end
| 13>
| 14>
| 15>                          ****END OF INPUT****

CARTESIAN COORDINATES (ANGSTROEM)
---------------------------------
  C     -4.382623   -1.670889    1.216201
  C     -5.763539   -1.915170    0.705012
  C     -3.281728   -2.191272    0.294361
  C     -5.572364   -5.807798   -0.816445
  S     -6.903179   -4.619033   -0.528458
  H     -5.840812   -2.115205   -0.300646
  H     -6.408823   -1.148656    0.936124
  H     -6.174781   -2.790606    1.051433
  O     -8.114853   -5.250932   -0.957007
  F     -6.532715   -3.426838   -1.314848
  H     -4.328618   -2.139223    2.198103
  H     -4.261583   -0.597399    1.357248
  O     -6.865632   -4.294957    0.914118
  C     -3.474641   -3.605898   -0.259608
  H     -2.354548   -2.127602    0.871433
  H     -3.166611   -1.499693   -0.545037
  C     -3.827078   -4.661097    0.786174
  H     -2.560559   -3.889391   -0.788050
  H     -4.255932   -3.570040   -1.019300
  C     -4.457800   -5.941875    0.229195
  H     -5.177347   -5.542575   -1.797714
  H     -6.074202   -6.768894   -0.921272
  H     -4.530506   -4.253640    1.511979
  H     -2.933400   -4.932302    1.356825
  H     -3.681064   -6.562236   -0.229885
  H     -4.843942   -6.512728    1.075805

 Total Charge           Charge          ....    0
 Multiplicity           Mult            ....    1
 Number of Electrons    NEL             ....   98
 Basis Dimension        Dim             ....  437

ORBITAL ENERGIES
----------------

  NO   OCC          E(Eh)            E(eV)
   0   2.0000     -89.265724     -2429.0438
   1   2.0000     -24.880246      -677.0259
   2   2.0000     -19.226736      -523.1861
   3   2.0000     -19.213757      -522.8329
   4   2.0000     -10.285125      -279.8725
   5   2.0000     -10.249453      -278.9018
   6   2.0000     -10.224024      -278.2098
   7   2.0000     -10.222469      -278.1675
   8   2.0000     -10.211830      -277.8780
   9   2.0000     -10.198714      -277.5211
  10   2.0000     -10.146789      -276.1082
  11   2.0000      -8.211989      -223.4596
  12   2.0000      -6.152297      -167.4125
  13   2.0000      -6.146285      -167.2489
  14   2.0000      -6.145559      -167.2292
  15   2.0000      -1.397188       -38.0194
  16   2.0000      -1.144391       -31.1405
  17   2.0000      -1.049311       -28.5532
  18   2.0000      -0.861714       -23.4484
  19   2.0000      -0.827508       -22.5176
  20   2.0000      -0.778845       -21.1934
  21   2.0000      -0.752055       -20.4645
  22   2.0000      -0.714808       -19.4509
  23   2.0000      -0.676179       -18.3998
  24   2.0000      -0.635367       -17.2892
  25   2.0000      -0.600791       -16.3483
  26   2.0000      -0.589428       -16.0392
  27   2.0000      -0.573254       -15.5990
  28   2.0000      -0.571541       -15.5524
  29   2.0000      -0.512897       -13.9566
  30   2.0000      -0.504107       -13.7175
  31   2.0000      -0.485885       -13.2216
  32   2.0000      -0.479358       -13.0440
  33   2.0000      -0.470027       -12.7901
  34   2.0000      -0.451896       -12.2967
  35   2.0000      -0.437867       -11.9150
  36   2.0000      -0.418829       -11.3969
  37   2.0000      -0.409524       -11.1437
  38   2.0000      -0.403966       -10.9925
  39   2.0000      -0.400025       -10.8852
  40   2.0000      -0.371962       -10.1216
  41   2.0000      -0.366353        -9.9690
  42   2.0000      -0.364977        -9.9315
  43   2.0000      -0.349273        -9.5042
  44   2.0000      -0.339838        -9.2475
  45   2.0000      -0.333085        -9.0637
  46   2.0000      -0.322407        -8.7731
  47   2.0000      -0.321421        -8.7463
  48   2.0000      -0.288065        -7.8386
  49   0.0000       0.024715         0.6725
  50   0.0000       0.026155         0.7117
  51   0.0000       0.046511         1.2656
  52   0.0000       0.054430         1.4811
  53   0.0000       0.063666         1.7324

MULLIKEN ATOMIC CHARGES
-----------------------
   0 C :   -0.181294
   1 C :   -0.440413
   2 C :   -0.195046
   3 C :   -0.349497
   4 S :    0.877196
   5 H :    0.095874
   6 H :    0.115877
   7 H :    0.175274
   8 O :   -0.398975
   9 F :   -0.108777
  10 H :    0.104747
  11 H :    0.098895
  12 O :   -0.432952
  13 C :   -0.194778
  14 H :    0.095216
  15 H :    0.103487
  16 C :   -0.285712
  17 H :    0.106486
  18 H :    0.091622
  19 C :   -0.137128
  20 H :    0.164590
  21 H :    0.182044
  22 H :    0.159558
  23 H :    0.109430
  24 H :    0.115119
  25 H :    0.129158
Sum of atomic charges:   -0.0000000

LOEWDIN ATOMIC CHARGES
----------------------
   0 C :   -0.306227
   1 C :   -0.338304
   2 C :   -0.271681
   3 C :   -0.371116
   4 S :    0.556838
   5 H :    0.097652
   6 H :    0.106537
   7 H :    0.098158
   8 O :   -0.243899
   9 F :    0.072530
  10 H :    0.134675
  11 H :    0.135736
  12 O :   -0.265496
  13 C :   -0.274512
  14 H :    0.136821
  15 H :    0.138040
  16 C :   -0.271397
  17 H :    0.137532
  18 H :    0.129396
  19 C :   -0.278704
  20 H :    0.140170
  21 H :    0.152686
  22 H :    0.148518
  23 H :    0.140518
  24 H :    0.147393
  25 H :    0.148137

  Mayer bond orders larger than 0.100000
B(  0-C ,  1-C ) :   0.9572 B(  0-C ,  2-C ) :   1.0106 B(  0-C , 10-H ) :   0.9741
B(  0-C , 11-H ) :   0.9574 B(  1-C ,  5-H ) :   0.9906 B(  1-C ,  6-H ) :   0.9596
B(  1-C ,  7-H ) :   0.9696 B(  2-C , 13-C ) :   1.0087 B(  2-C , 14-H ) :   0.9643
B(  2-C , 15-H ) :   0.9592 B(  3-C ,  4-S ) :   0.9166 B(  3-C , 19-C ) :   0.9747
B(  3-C , 20-H ) :   0.9414 B(  3-C , 21-H ) :   0.9354 B(  4-S ,  8-O ) :   1.9940
B(  4-S ,  9-F ) :   1.1007 B(  4-S , 12-O ) :   1.8115 B( 13-C , 16-C ) :   0.9859
B( 13-C , 17-H ) :   0.9572 B( 13-C , 18-H ) :   0.9673 B( 16-C , 19-C ) :   0.9932
B( 16-C , 22-H ) :   0.9681 B( 16-C , 23-H ) :   0.9491 B( 19-C , 24-H ) :   0.9402
B( 19-C , 25-H ) :   0.9582

Dispersion correction           -0.026527128
FINAL SINGLE POINT ENERGY      -923.708784605381

DIPOLE MOMENT
-------------
                                X             Y             Z
Electronic contribution:    -16.00866      -5.36798      -7.21940
Nuclear contribution   :     17.25367       4.78608       6.55647
                        -----------------------------------------
Total Dipole Moment    :      1.24501      -0.58190      -0.66293
                        -----------------------------------------
Magnitude (a.u.)       :      1.52582
Magnitude (Debye)      :      3.87833

Rotational constants in cm-1:     0.048508     0.025517     0.020225
Rotational constants in MHz :  1454.219007   764.979652   606.316599

                             ****ORCA TERMINATED NORMALLY****
TOTAL RUN TIME: 0 days 0 hours 0 minutes 44 seconds 211 msec
