                         Program Version 5.0.0 -  RELEASE  -
|  1> !wB97X-D3 RIJCOSX def2-TZVPD def2/J TightSCF
|  2> *xyz -1 1
|  3> C          0.70466        1.44313       -4.50363
|  4> C          1.72854        1.42432       -5.63944
|  5> H          2.64672        1.95379       -5.38105
|  6> H          1.29992        1.93061       -6.50361
|  7> S          2.25263       -0.18811       -6.27184
|  8> O          3.56261       -0.44446       -5.63155
|  9> O          2.34494       -0.03374       -7.69650
| 10> C          1.05255        0.69566       -3.21491
| 11> H         -0.23248        1.03293       -4.88445
| 12> H          0.51170        2.49579       -4.26797
| 13> O          1.26606       -1.15918       -5.80536
| 14> H          1.24200       -0.33323       -3.43942
| 15> H          0.23391        0.76629       -2.52954
| 16> H          1.92506        1.13113       -2.77446
| 17> *
| 18>
| 19> %MaxCore 64000
| 20>
| 21> %pal nprocs 8
| 22> end
| 23>
| 24> %scf
| 25>   MaxIter 150
| 26> end
| 27>
| 28>
| 29>                          ****END OF INPUT****

CARTESIAN COORDINATES (ANGSTROEM)
---------------------------------
  C      0.704660    1.443130   -4.503630
  C      1.728540    1.424320   -5.639440
  H      2.646720    1.953790   -5.381050
  H      1.299920    1.930610   -6.503610
  S      2.252630   -0.188110   -6.271840
  O      3.562610   -0.444460   -5.631550
  O      2.344940   -0.033740   -7.696500
  C      1.052550    0.695660   -3.214910
  H     -0.232480    1.032930   -4.884450
  H      0.511700    2.495790   -4.267970
  O      1.266060   -1.159180   -5.805360
  H      1.242000   -0.333230   -3.439420
  H      0.233910    0.766290   -2.529540
  H      1.925060    1.131130   -2.774460

 Total Charge           Charge          ....   -1
 Multiplicity           Mult            ....    1
 Number of Electrons    NEL             ....   66
 Basis Dimension        Dim             ....  340

ORBITAL ENERGIES
----------------

  NO   OCC          E(Eh)            E(eV)
   0   2.0000     -88.936714     -2420.0910
   1   2.0000     -19.014610      -517.4138
   2   2.0000     -19.008651      -517.2517
   3   2.0000     -18.999340      -516.9983
   4   2.0000     -10.146785      -276.1081
   5   2.0000     -10.137786      -275.8632
   6   2.0000     -10.125867      -275.5388
   7   2.0000      -7.999670      -217.6821
   8   2.0000      -5.953980      -162.0160
   9   2.0000      -5.952677      -161.9806
  10   2.0000      -5.952316      -161.9708
  11   2.0000      -1.041419       -28.3384
  12   2.0000      -0.909293       -24.7431
  13   2.0000      -0.886258       -24.1163
  14   2.0000      -0.773355       -21.0441
  15   2.0000      -0.682157       -18.5624
  16   2.0000      -0.582214       -15.8428
  17   2.0000      -0.487425       -13.2635
  18   2.0000      -0.435111       -11.8400
  19   2.0000      -0.419120       -11.4048
  20   2.0000      -0.392827       -10.6894
  21   2.0000      -0.379809       -10.3351
  22   2.0000      -0.362412        -9.8617
  23   2.0000      -0.350797        -9.5457
  24   2.0000      -0.318569        -8.6687
  25   2.0000      -0.311659        -8.4807
  26   2.0000      -0.297765        -8.1026
  27   2.0000      -0.250471        -6.8157
  28   2.0000      -0.248325        -6.7573
  29   2.0000      -0.212200        -5.7742
  30   2.0000      -0.202888        -5.5209
  31   2.0000      -0.194463        -5.2916
  32   2.0000      -0.159697        -4.3456
  33   0.0000       0.172654         4.6981
  34   0.0000       0.182366         4.9624
  35   0.0000       0.184072         5.0089
  36   0.0000       0.188787         5.1372
  37   0.0000       0.210128         5.7179

MULLIKEN ATOMIC CHARGES
-----------------------
   0 C :   -0.154222
   1 C :   -0.714074
   2 H :    0.306334
   3 H :    0.244876
   4 S :    1.212805
   5 O :   -0.740332
   6 O :   -0.696463
   7 C :   -1.229096
   8 H :    0.261477
   9 H :    0.266759
  10 O :   -0.722485
  11 H :    0.353489
  12 H :    0.316230
  13 H :    0.294703
Sum of atomic charges:   -1.0000000

LOEWDIN ATOMIC CHARGES
----------------------
   0 C :   -0.297868
   1 C :   -0.274196
   2 H :    0.087129
   3 H :    0.079498
   4 S :    0.364920
   5 O :   -0.421410
   6 O :   -0.386895
   7 C :   -0.119308
   8 H :    0.098533
   9 H :    0.092700
  10 O :   -0.394811
  11 H :    0.055975
  12 H :    0.053146
  13 H :    0.062586

  Mayer bond orders larger than 0.100000
B(  0-C ,  1-C ) :   0.7876 B(  0-C ,  7-C ) :   0.6222 B(  0-C ,  8-H ) :   0.9364
B(  0-C ,  9-H ) :   0.9616 B(  1-C ,  2-H ) :   0.9372 B(  1-C ,  3-H ) :   1.0258
B(  1-C ,  4-S ) :   0.8636 B(  1-C ,  5-O ) :   0.1555 B(  1-C ,  6-O ) :   0.1383
B(  1-C ,  7-C ) :   0.1769 B(  4-S ,  5-O ) :   1.4880 B(  4-S ,  6-O ) :   1.4877
B(  4-S , 10-O ) :   1.5067 B(  7-C , 11-H ) :   0.9562 B(  7-C , 12-H ) :   0.9240
B(  7-C , 13-H ) :   0.9780

Dispersion correction           -0.004507072
FINAL SINGLE POINT ENERGY      -742.538103652863

DIPOLE MOMENT
-------------
                                X             Y             Z
Electronic contribution:      4.40779      -5.66300      -8.04569
Nuclear contribution   :     -5.44810       7.35485       9.25157
                        -----------------------------------------
Total Dipole Moment    :     -1.04031       1.69185       1.20588
                        -----------------------------------------
Magnitude (a.u.)       :      2.32352
Magnitude (Debye)      :      5.90591

Rotational constants in cm-1:     0.135801     0.054229     0.051056
Rotational constants in MHz :  4071.225075  1625.746654  1530.611411

                             ****ORCA TERMINATED NORMALLY****
TOTAL RUN TIME: 0 days 0 hours 0 minutes 49 seconds 367 msec
