                         Program Version 5.0.0 -  RELEASE  -
|  1> !wB97X-D3 RIJCOSX def2-TZVPD def2/J TightSCF
|  2> *xyz 1 1
|  3> C          2.91632       -1.24259       -1.54313
|  4> C          3.46659       -1.59097       -2.88908
|  5> N          4.65227       -1.14316       -3.25969
|  6> N          2.75226       -2.29204       -3.72803
|  7> H          1.77836       -2.48960       -3.51274
|  8> H          2.94861       -2.20854       -4.71681
|  9> H          5.14672       -0.51251       -2.63385
| 10> H          4.78303       -1.00720       -4.25350
| 11> C          2.80408        0.29070       -1.35924
| 12> C          2.38838        1.09367       -2.59711
| 13> H          3.76342        0.67472       -0.99989
| 14> H          2.09479        0.46122       -0.54576
| 15> H          1.94047       -1.71653       -1.44116
| 16> H          3.55857       -1.66343       -0.76637
| 17> H          3.08894        0.91965       -3.38694
| 18> H          2.37301        2.13633       -2.35728
| 19> H          1.41303        0.78551       -2.91115
| 20> *
| 21>
| 22> %MaxCore 64000
| 23>
| 24> %pal nprocs 8
| 25> end
| 26>
| 27> %scf
| 28>   MaxIter 150
| 29> end
| 30>
| 31>
| 32>                          ****END OF INPUT****

CARTESIAN COORDINATES (ANGSTROEM)
---------------------------------
  C      2.916320   -1.242590   -1.543130
  C      3.466590   -1.590970   -2.889080
  N      4.652270   -1.143160   -3.259690
  N      2.752260   -2.292040   -3.728030
  H      1.778360   -2.489600   -3.512740
  H      2.948610   -2.208540   -4.716810
  H      5.146720   -0.512510   -2.633850
  H      4.783030   -1.007200   -4.253500
  C      2.804080    0.290700   -1.359240
  C      2.388380    1.093670   -2.597110
  H      3.763420    0.674720   -0.999890
  H      2.094790    0.461220   -0.545760
  H      1.940470   -1.716530   -1.441160
  H      3.558570   -1.663430   -0.766370
  H      3.088940    0.919650   -3.386940
  H      2.373010    2.136330   -2.357280
  H      1.413030    0.785510   -2.911150

 Total Charge           Charge          ....    1
 Multiplicity           Mult            ....    1
 Number of Electrons    NEL             ....   48
 Basis Dimension        Dim             ....  321

ORBITAL ENERGIES
----------------

  NO   OCC          E(Eh)            E(eV)
   0   2.0000     -14.667037      -399.1104
   1   2.0000     -14.661053      -398.9475
   2   2.0000     -10.599164      -288.4179
   3   2.0000     -10.472202      -284.9631
   4   2.0000     -10.442018      -284.1418
   5   2.0000     -10.408462      -283.2286
   6   2.0000      -1.326323       -36.0911
   7   2.0000      -1.224408       -33.3178
   8   2.0000      -1.092459       -29.7273
   9   2.0000      -1.006417       -27.3860
  10   2.0000      -0.943924       -25.6855
  11   2.0000      -0.892229       -24.2788
  12   2.0000      -0.868536       -23.6341
  13   2.0000      -0.839391       -22.8410
  14   2.0000      -0.793706       -21.5978
  15   2.0000      -0.767007       -20.8713
  16   2.0000      -0.731417       -19.9029
  17   2.0000      -0.690388       -18.7864
  18   2.0000      -0.674617       -18.3573
  19   2.0000      -0.663019       -18.0417
  20   2.0000      -0.605825       -16.4853
  21   2.0000      -0.601910       -16.3788
  22   2.0000      -0.592619       -16.1260
  23   2.0000      -0.583983       -15.8910
  24   0.0000      -0.137252        -3.7348
  25   0.0000      -0.090299        -2.4572
  26   0.0000      -0.055464        -1.5093
  27   0.0000      -0.051633        -1.4050
  28   0.0000      -0.031468        -0.8563

MULLIKEN ATOMIC CHARGES
-----------------------
   0 C :   -0.469952
   1 C :    0.504383
   2 N :   -0.374046
   3 N :   -0.394239
   4 H :    0.277104
   5 H :    0.232048
   6 H :    0.290065
   7 H :    0.255294
   8 C :   -0.404299
   9 C :   -1.235405
  10 H :    0.360342
  11 H :    0.294946
  12 H :    0.334248
  13 H :    0.298517
  14 H :    0.318371
  15 H :    0.361584
  16 H :    0.351039
Sum of atomic charges:    1.0000000

LOEWDIN ATOMIC CHARGES
----------------------
   0 C :   -0.101183
   1 C :   -0.372246
   2 N :    0.220442
   3 N :    0.232861
   4 H :    0.153923
   5 H :    0.149912
   6 H :    0.152449
   7 H :    0.148380
   8 C :   -0.218251
   9 C :   -0.085782
  10 H :    0.112196
  11 H :    0.121970
  12 H :    0.126834
  13 H :    0.140729
  14 H :    0.055334
  15 H :    0.083441
  16 H :    0.078991

  Mayer bond orders larger than 0.100000
B(  0-C ,  1-C ) :   0.7618 B(  0-C ,  8-C ) :   0.8766 B(  0-C , 12-H ) :   0.9131
B(  0-C , 13-H ) :   0.9515 B(  1-C ,  2-N ) :   1.2376 B(  1-C ,  3-N ) :   1.2995
B(  1-C ,  8-C ) :   0.1335 B(  1-C ,  9-C ) :   0.1760 B(  1-C , 12-H ) :  -0.1012
B(  2-N ,  6-H ) :   0.8956 B(  2-N ,  7-H ) :   0.9363 B(  3-N ,  4-H ) :   0.9106
B(  3-N ,  5-H ) :   0.9503 B(  8-C ,  9-C ) :   0.6440 B(  8-C , 10-H ) :   0.8557
B(  8-C , 11-H ) :   0.9568 B(  9-C , 14-H ) :   0.9845 B(  9-C , 15-H ) :   0.9272
B(  9-C , 16-H ) :   0.9475

Dispersion correction           -0.004872023
FINAL SINGLE POINT ENERGY      -268.368458969749

DIPOLE MOMENT
-------------
                                X             Y             Z
Electronic contribution:      2.02906      -4.55278      -1.88043
Nuclear contribution   :     -1.81078       3.96608       0.97433
                        -----------------------------------------
Total Dipole Moment    :      0.21828      -0.58671      -0.90609
                        -----------------------------------------
Magnitude (a.u.)       :      1.10131
Magnitude (Debye)      :      2.79930

Rotational constants in cm-1:     0.170042     0.080945     0.078209
Rotational constants in MHz :  5097.737821  2426.678005  2344.636232

                             ****ORCA TERMINATED NORMALLY****
TOTAL RUN TIME: 0 days 0 hours 0 minutes 49 seconds 203 msec
