                         Program Version 5.0.0 -  RELEASE  -
|  1> !wB97X-D3 RIJCOSX def2-TZVPD def2/J TightSCF xyzfile
|  2>
|  3> *xyzfile 0 1 B.xyz
|  4>
|  5> %MaxCore 64000
|  6>
|  7> %pal nprocs 18
|  8> end
|  9>
| 10> %scf
| 11>   MaxIter 150
| 12> end
| 13>
| 14>
| 15>                          ****END OF INPUT****

CARTESIAN COORDINATES (ANGSTROEM)
---------------------------------
  C      2.916324   -1.242589   -1.543125
  C      0.704661    1.443129   -4.503630
  C      1.728539    1.424320   -5.639443
  H      2.646718    1.953794   -5.381054
  H      1.299916    1.930613   -6.503614
  S      2.252625   -0.188115   -6.271840
  C      3.466585   -1.590971   -2.889082
  N      4.652275   -1.143164   -3.259692
  N      2.752264   -2.292043   -3.728029
  H      1.778364   -2.489604   -3.512738
  H      2.948612   -2.208544   -4.716813
  H      5.146723   -0.512508   -2.633852
  H      4.783030   -1.007203   -4.253498
  O      3.562607   -0.444464   -5.631552
  O      2.344944   -0.033742   -7.696501
  C      2.804084    0.290698   -1.359243
  C      1.052550    0.695659   -3.214915
  H     -0.232483    1.032925   -4.884449
  H      0.511700    2.495794   -4.267966
  C      2.388380    1.093669   -2.597108
  H      3.763425    0.674718   -0.999889
  H      2.094788    0.461222   -0.545756
  O      1.266058   -1.159177   -5.805365
  H      3.167316    1.013242   -3.359430
  H      2.357690    2.149375   -2.310997
  H      1.039284   -0.368429   -3.449329
  H      0.250787    0.865605   -2.488283
  H      1.940472   -1.716529   -1.441161
  H      3.558569   -1.663433   -0.766371

 Total Charge           Charge          ....    0
 Multiplicity           Mult            ....    1
 Number of Electrons    NEL             ....  112
 Basis Dimension        Dim             ....  643

ORBITAL ENERGIES
----------------

  NO   OCC          E(Eh)            E(eV)
   0   2.0000     -89.089270     -2424.2423
   1   2.0000     -19.170347      -521.6517
   2   2.0000     -19.163206      -521.4574
   3   2.0000     -19.154314      -521.2154
   4   2.0000     -14.494747      -394.4221
   5   2.0000     -14.494203      -394.4073
   6   2.0000     -10.438998      -284.0596
   7   2.0000     -10.341368      -281.4029
   8   2.0000     -10.320015      -280.8219
   9   2.0000     -10.291065      -280.0341
  10   2.0000     -10.278140      -279.6824
  11   2.0000     -10.274073      -279.5717
  12   2.0000     -10.272139      -279.5191
  13   2.0000      -8.152592      -221.8433
  14   2.0000      -6.106629      -166.1698
  15   2.0000      -6.106257      -166.1597
  16   2.0000      -6.104731      -166.1182
  17   2.0000      -1.197121       -32.5753
  18   2.0000      -1.160531       -31.5796
  19   2.0000      -1.060577       -28.8598
  20   2.0000      -1.056783       -28.7565
  21   2.0000      -1.053028       -28.6543
  22   2.0000      -0.965976       -26.2856
  23   2.0000      -0.918623       -24.9970
  24   2.0000      -0.870063       -23.6756
  25   2.0000      -0.815106       -22.1802
  26   2.0000      -0.782660       -21.2973
  27   2.0000      -0.748094       -20.3567
  28   2.0000      -0.708134       -19.2693
  29   2.0000      -0.699278       -19.0283
  30   2.0000      -0.688616       -18.7382
  31   2.0000      -0.641504       -17.4562
  32   2.0000      -0.626733       -17.0543
  33   2.0000      -0.620882       -16.8950
  34   2.0000      -0.599546       -16.3145
  35   2.0000      -0.573251       -15.5989
  36   2.0000      -0.567338       -15.4381
  37   2.0000      -0.547346       -14.8940
  38   2.0000      -0.534348       -14.5403
  39   2.0000      -0.531676       -14.4676
  40   2.0000      -0.526400       -14.3241
  41   2.0000      -0.514055       -13.9882
  42   2.0000      -0.504544       -13.7293
  43   2.0000      -0.481887       -13.1128
  44   2.0000      -0.474035       -12.8992
  45   2.0000      -0.469123       -12.7655
  46   2.0000      -0.441751       -12.0207
  47   2.0000      -0.433236       -11.7890
  48   2.0000      -0.420019       -11.4293
  49   2.0000      -0.418856       -11.3976
  50   2.0000      -0.403229       -10.9724
  51   2.0000      -0.400787       -10.9060
  52   2.0000      -0.363561        -9.8930
  53   2.0000      -0.357134        -9.7181
  54   2.0000      -0.346959        -9.4412
  55   2.0000      -0.319908        -8.7052
  56   0.0000       0.018476         0.5028
  57   0.0000       0.040502         1.1021
  58   0.0000       0.055482         1.5097
  59   0.0000       0.066795         1.8176
  60   0.0000       0.073634         2.0037

MULLIKEN ATOMIC CHARGES
-----------------------
   0 C :   -0.519882
   1 C :   -0.649410
   2 C :   -0.879388
   3 H :    0.379271
   4 H :    0.331633
   5 S :    1.195545
   6 C :    0.370206
   7 N :   -0.341926
   8 N :   -0.309870
   9 H :    0.301810
  10 H :    0.260905
  11 H :    0.274440
  12 H :    0.335535
  13 O :   -0.831800
  14 O :   -0.660943
  15 C :   -0.682535
  16 C :   -0.271594
  17 H :    0.331973
  18 H :    0.315344
  19 C :   -0.425758
  20 H :    0.403941
  21 H :    0.293646
  22 O :   -0.775723
  23 H :    0.286311
  24 H :    0.309353
  25 H :    0.087107
  26 H :    0.289588
  27 H :    0.320350
  28 H :    0.261870
Sum of atomic charges:   -0.0000000

LOEWDIN ATOMIC CHARGES
----------------------
   0 C :   -0.102969
   1 C :   -0.223355
   2 C :   -0.239349
   3 H :    0.092501
   4 H :    0.095645
   5 S :    0.437183
   6 C :   -0.378276
   7 N :    0.205561
   8 N :    0.219487
   9 H :    0.139018
  10 H :    0.097981
  11 H :    0.139897
  12 H :    0.099707
  13 O :   -0.411811
  14 O :   -0.328397
  15 C :   -0.180849
  16 C :   -0.208139
  17 H :    0.113598
  18 H :    0.113313
  19 C :   -0.205530
  20 H :    0.108137
  21 H :    0.116147
  22 O :   -0.367108
  23 H :    0.094540
  24 H :    0.122978
  25 H :    0.081521
  26 H :    0.119314
  27 H :    0.121126
  28 H :    0.128128

  Mayer bond orders larger than 0.100000
B(  0-C ,  6-C ) :   0.8823 B(  0-C , 15-C ) :   0.8822 B(  0-C , 19-C ) :  -0.1279
B(  0-C , 27-H ) :   0.9228 B(  0-C , 28-H ) :   0.9617 B(  1-C ,  2-C ) :   0.8887
B(  1-C , 16-C ) :   0.9485 B(  1-C , 17-H ) :   0.8752 B(  1-C , 18-H ) :   0.8961
B(  1-C , 19-C ) :   0.3086 B(  1-C , 25-H ) :   0.1577 B(  2-C ,  3-H ) :   0.8424
B(  2-C ,  4-H ) :   0.9493 B(  2-C ,  5-S ) :   0.8565 B(  2-C , 13-O ) :   0.1807
B(  2-C , 14-O ) :   0.1984 B(  2-C , 19-C ) :   0.1384 B(  5-S , 13-O ) :   1.5243
B(  5-S , 14-O ) :   1.3703 B(  5-S , 22-O ) :   1.4151 B(  6-C ,  7-N ) :   1.2919
B(  6-C ,  8-N ) :   1.3974 B(  6-C , 15-C ) :   0.1319 B(  6-C , 19-C ) :   0.1622
B(  7-N , 11-H ) :   0.8599 B(  7-N , 12-H ) :   0.8487 B(  8-N ,  9-H ) :   0.8394
B(  8-N , 10-H ) :   0.8566 B( 13-O , 22-O ) :   0.1097 B( 15-C , 16-C ) :   0.3817
B( 15-C , 19-C ) :   0.9046 B( 15-C , 20-H ) :   0.8174 B( 15-C , 21-H ) :   0.9178
B( 16-C , 19-C ) :   0.4783 B( 16-C , 25-H ) :   1.0855 B( 16-C , 26-H ) :   0.8673
B( 19-C , 23-H ) :   1.0129 B( 19-C , 24-H ) :   0.9085

Dispersion correction           -0.016427544
FINAL SINGLE POINT ENERGY     -1009.872821574755

DIPOLE MOMENT
-------------
                                X             Y             Z
Electronic contribution:      2.76092      -6.28457     -13.29156
Nuclear contribution   :     -1.90023       6.18953      17.82209
                        -----------------------------------------
Total Dipole Moment    :      0.86069      -0.09505       4.53053
                        -----------------------------------------
Magnitude (a.u.)       :      4.61254
Magnitude (Debye)      :     11.72415

Rotational constants in cm-1:     0.036337     0.018755     0.015005
Rotational constants in MHz :  1089.341704   562.266628   449.834770

                             ****ORCA TERMINATED NORMALLY****
TOTAL RUN TIME: 0 days 0 hours 2 minutes 5 seconds 911 msec
