                         Program Version 5.0.0 -  RELEASE  -
|  1> !wB97X-D3 RIJCOSX def2-TZVPD def2/J TightSCF
|  2> *xyz 0 1
|  3> C          0.70466        1.44313       -4.50363
|  4> C          1.72854        1.42432       -5.63944
|  5> H          2.64672        1.95379       -5.38105
|  6> H          1.29992        1.93061       -6.50361
|  7> S          2.25263       -0.18811       -6.27184
|  8> F          3.56261       -0.44446       -5.63155
|  9> O          2.34494       -0.03374       -7.69650
| 10> C          1.05255        0.69566       -3.21491
| 11> H         -0.23248        1.03293       -4.88445
| 12> H          0.51170        2.49579       -4.26797
| 13> O          1.26606       -1.15918       -5.80536
| 14> H          1.24200       -0.33323       -3.43942
| 15> H          0.23391        0.76629       -2.52954
| 16> H          1.92506        1.13113       -2.77446
| 17> *
| 18>
| 19> %MaxCore 64000
| 20>
| 21> %pal nprocs 8
| 22> end
| 23>
| 24> %scf
| 25>   MaxIter 150
| 26> end
| 27>
| 28>
| 29>                          ****END OF INPUT****

CARTESIAN COORDINATES (ANGSTROEM)
---------------------------------
  C      0.704660    1.443130   -4.503630
  C      1.728540    1.424320   -5.639440
  H      2.646720    1.953790   -5.381050
  H      1.299920    1.930610   -6.503610
  S      2.252630   -0.188110   -6.271840
  F      3.562610   -0.444460   -5.631550
  O      2.344940   -0.033740   -7.696500
  C      1.052550    0.695660   -3.214910
  H     -0.232480    1.032930   -4.884450
  H      0.511700    2.495790   -4.267970
  O      1.266060   -1.159180   -5.805360
  H      1.242000   -0.333230   -3.439420
  H      0.233910    0.766290   -2.529540
  H      1.925060    1.131130   -2.774460

 Total Charge           Charge          ....    0
 Multiplicity           Mult            ....    1
 Number of Electrons    NEL             ....   66
 Basis Dimension        Dim             ....  340

ORBITAL ENERGIES
----------------

  NO   OCC          E(Eh)            E(eV)
   0   2.0000     -89.194560     -2427.1074
   1   2.0000     -24.887543      -677.2245
   2   2.0000     -19.246877      -523.7341
   3   2.0000     -19.239620      -523.5367
   4   2.0000     -10.335877      -281.2535
   5   2.0000     -10.302936      -280.3571
   6   2.0000     -10.270367      -279.4709
   7   2.0000      -8.258035      -224.7126
   8   2.0000      -6.215508      -169.1326
   9   2.0000      -6.209265      -168.9627
  10   2.0000      -6.208435      -168.9401
  11   2.0000      -1.469127       -39.9770
  12   2.0000      -1.228849       -33.4387
  13   2.0000      -1.134755       -30.8783
  14   2.0000      -0.946699       -25.7610
  15   2.0000      -0.865456       -23.5503
  16   2.0000      -0.809331       -22.0230
  17   2.0000      -0.742527       -20.2052
  18   2.0000      -0.674478       -18.3535
  19   2.0000      -0.668681       -18.1957
  20   2.0000      -0.656064       -17.8524
  21   2.0000      -0.598917       -16.2974
  22   2.0000      -0.581390       -15.8204
  23   2.0000      -0.553361       -15.0577
  24   2.0000      -0.546650       -14.8751
  25   2.0000      -0.535334       -14.5672
  26   2.0000      -0.493403       -13.4262
  27   2.0000      -0.477679       -12.9983
  28   2.0000      -0.468309       -12.7433
  29   2.0000      -0.454125       -12.3574
  30   2.0000      -0.431599       -11.7444
  31   2.0000      -0.421614       -11.4727
  32   2.0000      -0.412675       -11.2295
  33   0.0000       0.053619         1.4590
  34   0.0000       0.062692         1.7059
  35   0.0000       0.070519         1.9189
  36   0.0000       0.071598         1.9483
  37   0.0000       0.098093         2.6693

MULLIKEN ATOMIC CHARGES
-----------------------
   0 C :   -0.172303
   1 C :   -0.715458
   2 H :    0.409737
   3 H :    0.301855
   4 S :    1.220382
   5 F :   -0.166992
   6 O :   -0.589831
   7 C :   -1.300258
   8 H :    0.297790
   9 H :    0.299502
  10 O :   -0.602872
  11 H :    0.363240
  12 H :    0.319604
  13 H :    0.335604
Sum of atomic charges:    0.0000000

LOEWDIN ATOMIC CHARGES
----------------------
   0 C :   -0.273086
   1 C :   -0.228222
   2 H :    0.103229
   3 H :    0.104553
   4 S :    0.613579
   5 F :   -0.082360
   6 O :   -0.273769
   7 C :   -0.101544
   8 H :    0.111254
   9 H :    0.113504
  10 O :   -0.285653
  11 H :    0.056975
  12 H :    0.071051
  13 H :    0.070489

  Mayer bond orders larger than 0.100000
B(  0-C ,  1-C ) :   0.8255 B(  0-C ,  7-C ) :   0.5645 B(  0-C ,  8-H ) :   0.9302
B(  0-C ,  9-H ) :   0.9388 B(  1-C ,  2-H ) :   0.8210 B(  1-C ,  3-H ) :   0.9731
B(  1-C ,  4-S ) :   0.8514 B(  1-C ,  6-O ) :   0.1185 B(  1-C ,  7-C ) :   0.2184
B(  4-S ,  5-F ) :   0.9625 B(  4-S ,  6-O ) :   1.6462 B(  4-S , 10-O ) :   1.6660
B(  7-C , 11-H ) :   0.9328 B(  7-C , 12-H ) :   0.9475 B(  7-C , 13-H ) :   0.9612

Dispersion correction           -0.004443396
FINAL SINGLE POINT ENERGY      -767.071487622252

DIPOLE MOMENT
-------------
                                X             Y             Z
Electronic contribution:      7.39152      -6.72710      -8.22571
Nuclear contribution   :     -7.21372       8.00417       9.21533
                        -----------------------------------------
Total Dipole Moment    :      0.17780       1.27707       0.98963
                        -----------------------------------------
Magnitude (a.u.)       :      1.62538
Magnitude (Debye)      :      4.13140

Rotational constants in cm-1:     0.129205     0.053290     0.050128
Rotational constants in MHz :  3873.458819  1597.595736  1502.810344

                             ****ORCA TERMINATED NORMALLY****
TOTAL RUN TIME: 0 days 0 hours 0 minutes 51 seconds 601 msec
