                         Program Version 5.0.0 -  RELEASE  -
|  1> !wB97X-D3 RIJCOSX def2-TZVPD def2/J TightSCF
|  2> *xyz 0 1
|  3> C          2.91632       -1.24259       -1.54313
|  4> C          3.46659       -1.59097       -2.88908
|  5> C          4.65227       -1.14316       -3.25969
|  6> N          2.75226       -2.29204       -3.72803
|  7> H          1.77836       -2.48960       -3.51274
|  8> H          2.94861       -2.20854       -4.71681
|  9> H          5.14672       -0.51251       -2.63385
| 10> H          4.78303       -1.00720       -4.25350
| 11> C          2.80408        0.29070       -1.35924
| 12> C          2.38838        1.09367       -2.59711
| 13> H          3.76342        0.67472       -0.99989
| 14> H          2.09479        0.46122       -0.54576
| 15> H          1.94047       -1.71653       -1.44116
| 16> H          3.55857       -1.66343       -0.76637
| 17> H          3.08894        0.91965       -3.38694
| 18> H          2.37301        2.13633       -2.35728
| 19> H          1.41303        0.78551       -2.91115
| 20> *
| 21>
| 22> %MaxCore 64000
| 23>
| 24> %pal nprocs 8
| 25> end
| 26>
| 27> %scf
| 28>   MaxIter 150
| 29> end
| 30>
| 31>
| 32>                          ****END OF INPUT****

CARTESIAN COORDINATES (ANGSTROEM)
---------------------------------
  C      2.916320   -1.242590   -1.543130
  C      3.466590   -1.590970   -2.889080
  C      4.652270   -1.143160   -3.259690
  N      2.752260   -2.292040   -3.728030
  H      1.778360   -2.489600   -3.512740
  H      2.948610   -2.208540   -4.716810
  H      5.146720   -0.512510   -2.633850
  H      4.783030   -1.007200   -4.253500
  C      2.804080    0.290700   -1.359240
  C      2.388380    1.093670   -2.597110
  H      3.763420    0.674720   -0.999890
  H      2.094790    0.461220   -0.545760
  H      1.940470   -1.716530   -1.441160
  H      3.558570   -1.663430   -0.766370
  H      3.088940    0.919650   -3.386940
  H      2.373010    2.136330   -2.357280
  H      1.413030    0.785510   -2.911150

 Total Charge           Charge          ....    0
 Multiplicity           Mult            ....    1
 Number of Electrons    NEL             ....   48
 Basis Dimension        Dim             ....  321

ORBITAL ENERGIES
----------------

  NO   OCC          E(Eh)            E(eV)
   0   2.0000     -14.425015      -392.5246
   1   2.0000     -10.296785      -280.1898
   2   2.0000     -10.276754      -279.6447
   3   2.0000     -10.273126      -279.5460
   4   2.0000     -10.251046      -278.9451
   5   2.0000     -10.199523      -277.5431
   6   2.0000      -1.055686       -28.7267
   7   2.0000      -0.912238       -24.8233
   8   2.0000      -0.843679       -22.9577
   9   2.0000      -0.802657       -21.8414
  10   2.0000      -0.717896       -19.5349
  11   2.0000      -0.665559       -18.1108
  12   2.0000      -0.621722       -16.9179
  13   2.0000      -0.585726       -15.9384
  14   2.0000      -0.557270       -15.1641
  15   2.0000      -0.535772       -14.5791
  16   2.0000      -0.499138       -13.5822
  17   2.0000      -0.485800       -13.2193
  18   2.0000      -0.463225       -12.6050
  19   2.0000      -0.459380       -12.5004
  20   2.0000      -0.430520       -11.7151
  21   2.0000      -0.419697       -11.4205
  22   2.0000      -0.416857       -11.3433
  23   2.0000      -0.277688        -7.5563
  24   0.0000       0.067571         1.8387
  25   0.0000       0.082860         2.2547
  26   0.0000       0.089992         2.4488
  27   0.0000       0.097239         2.6460
  28   0.0000       0.114072         3.1041

MULLIKEN ATOMIC CHARGES
-----------------------
   0 C :   -0.450431
   1 C :    0.552009
   2 C :   -1.335392
   3 N :   -0.437338
   4 H :    0.221383
   5 H :    0.188680
   6 H :    0.376611
   7 H :    0.363432
   8 C :   -0.357016
   9 C :   -1.229223
  10 H :    0.313830
  11 H :    0.282083
  12 H :    0.310820
  13 H :    0.219904
  14 H :    0.317432
  15 H :    0.343021
  16 H :    0.320194
Sum of atomic charges:   -0.0000000

LOEWDIN ATOMIC CHARGES
----------------------
   0 C :   -0.148002
   1 C :   -0.513525
   2 C :   -0.003980
   3 N :    0.106665
   4 H :    0.109825
   5 H :    0.114871
   6 H :    0.031914
   7 H :    0.029112
   8 C :   -0.241097
   9 C :   -0.103282
  10 H :    0.102984
  11 H :    0.100531
  12 H :    0.105045
  13 H :    0.119154
  14 H :    0.056669
  15 H :    0.064999
  16 H :    0.068120

  Mayer bond orders larger than 0.100000
B(  0-C ,  1-C ) :   0.6409 B(  0-C ,  2-C ) :  -0.1432 B(  0-C ,  8-C ) :   0.9123
B(  0-C ,  9-C ) :   0.1024 B(  0-C , 12-H ) :   0.9754 B(  0-C , 13-H ) :   0.9646
B(  1-C ,  2-C ) :   1.4220 B(  1-C ,  3-N ) :   1.0090 B(  1-C ,  7-H ) :  -0.1104
B(  1-C ,  8-C ) :   0.1402 B(  1-C , 12-H ) :  -0.1279 B(  2-C ,  6-H ) :   0.9254
B(  2-C ,  7-H ) :   0.9626 B(  2-C ,  8-C ) :   0.1410 B(  3-N ,  4-H ) :   0.9516
B(  3-N ,  5-H ) :   0.9527 B(  8-C ,  9-C ) :   0.6634 B(  8-C , 10-H ) :   0.8736
B(  8-C , 11-H ) :   0.9656 B(  9-C , 14-H ) :   1.0246 B(  9-C , 15-H ) :   0.9179
B(  9-C , 16-H ) :   0.9560

Dispersion correction           -0.004829793
FINAL SINGLE POINT ENERGY      -251.890503090237

DIPOLE MOMENT
-------------
                                X             Y             Z
Electronic contribution:      0.57651      -3.80649      -0.93546
Nuclear contribution   :     -1.45921       3.88617       0.81775
                        -----------------------------------------
Total Dipole Moment    :     -0.88270       0.07968      -0.11771
                        -----------------------------------------
Magnitude (a.u.)       :      0.89407
Magnitude (Debye)      :      2.27255

Rotational constants in cm-1:     0.176264     0.082132     0.079980
Rotational constants in MHz :  5284.261828  2462.256672  2397.741351

                             ****ORCA TERMINATED NORMALLY****
TOTAL RUN TIME: 0 days 0 hours 0 minutes 50 seconds 289 msec
