                         Program Version 5.0.0 -  RELEASE  -
|  1> !wB97X-D3 RIJCOSX def2-TZVPD def2/J TightSCF
|  2> *xyz 0 1
|  3> C          0.70466        1.44313       -4.50363
|  4> C          1.72854        1.42432       -5.63944
|  5> H          2.64672        1.95379       -5.38105
|  6> H          1.29992        1.93061       -6.50361
|  7> S          2.25263       -0.18811       -6.27184
|  8> O          3.56261       -0.44446       -5.63155
|  9> F          2.34494       -0.03374       -7.69650
| 10> C          1.05255        0.69566       -3.21491
| 11> H         -0.23248        1.03293       -4.88445
| 12> H          0.51170        2.49579       -4.26797
| 13> O          1.26606       -1.15918       -5.80536
| 14> H          1.24200       -0.33323       -3.43942
| 15> H          0.23391        0.76629       -2.52954
| 16> H          1.92506        1.13113       -2.77446
| 17> *
| 18>
| 19> %MaxCore 64000
| 20>
| 21> %pal nprocs 8
| 22> end
| 23>
| 24> %scf
| 25>   MaxIter 150
| 26> end
| 27>
| 28>
| 29>                          ****END OF INPUT****

CARTESIAN COORDINATES (ANGSTROEM)
---------------------------------
  C      0.704660    1.443130   -4.503630
  C      1.728540    1.424320   -5.639440
  H      2.646720    1.953790   -5.381050
  H      1.299920    1.930610   -6.503610
  S      2.252630   -0.188110   -6.271840
  O      3.562610   -0.444460   -5.631550
  F      2.344940   -0.033740   -7.696500
  C      1.052550    0.695660   -3.214910
  H     -0.232480    1.032930   -4.884450
  H      0.511700    2.495790   -4.267970
  O      1.266060   -1.159180   -5.805360
  H      1.242000   -0.333230   -3.439420
  H      0.233910    0.766290   -2.529540
  H      1.925060    1.131130   -2.774460

 Total Charge           Charge          ....    0
 Multiplicity           Mult            ....    1
 Number of Electrons    NEL             ....   66
 Basis Dimension        Dim             ....  340

ORBITAL ENERGIES
----------------

  NO   OCC          E(Eh)            E(eV)
   0   2.0000     -89.196952     -2427.1724
   1   2.0000     -24.911372      -677.8729
   2   2.0000     -19.240439      -523.5590
   3   2.0000     -19.231861      -523.3255
   4   2.0000     -10.336721      -281.2765
   5   2.0000     -10.303295      -280.3669
   6   2.0000     -10.263738      -279.2905
   7   2.0000      -8.260457      -224.7785
   8   2.0000      -6.217728      -169.1930
   9   2.0000      -6.211524      -169.0242
  10   2.0000      -6.211060      -169.0115
  11   2.0000      -1.507225       -41.0137
  12   2.0000      -1.214983       -33.0614
  13   2.0000      -1.115088       -30.3431
  14   2.0000      -0.945891       -25.7390
  15   2.0000      -0.871048       -23.7024
  16   2.0000      -0.820557       -22.3285
  17   2.0000      -0.746254       -20.3066
  18   2.0000      -0.697474       -18.9792
  19   2.0000      -0.689536       -18.7632
  20   2.0000      -0.657048       -17.8792
  21   2.0000      -0.593596       -16.1526
  22   2.0000      -0.583476       -15.8772
  23   2.0000      -0.556364       -15.1394
  24   2.0000      -0.543087       -14.7782
  25   2.0000      -0.520469       -14.1627
  26   2.0000      -0.485907       -13.2222
  27   2.0000      -0.470001       -12.7894
  28   2.0000      -0.466096       -12.6831
  29   2.0000      -0.449955       -12.2439
  30   2.0000      -0.423743       -11.5306
  31   2.0000      -0.413063       -11.2400
  32   2.0000      -0.398406       -10.8412
  33   0.0000       0.047200         1.2844
  34   0.0000       0.062887         1.7113
  35   0.0000       0.066156         1.8002
  36   0.0000       0.075199         2.0463
  37   0.0000       0.094379         2.5682

MULLIKEN ATOMIC CHARGES
-----------------------
   0 C :   -0.220891
   1 C :   -0.699245
   2 H :    0.360495
   3 H :    0.346694
   4 S :    1.214184
   5 O :   -0.613975
   6 F :   -0.103749
   7 C :   -1.282855
   8 H :    0.287461
   9 H :    0.288685
  10 O :   -0.602746
  11 H :    0.369145
  12 H :    0.329318
  13 H :    0.327478
Sum of atomic charges:   -0.0000000

LOEWDIN ATOMIC CHARGES
----------------------
   0 C :   -0.270207
   1 C :   -0.233588
   2 H :    0.106566
   3 H :    0.094980
   4 S :    0.612469
   5 O :   -0.305543
   6 F :   -0.048709
   7 C :   -0.096572
   8 H :    0.109233
   9 H :    0.114137
  10 O :   -0.287523
  11 H :    0.061038
  12 H :    0.070388
  13 H :    0.073331

  Mayer bond orders larger than 0.100000
B(  0-C ,  1-C ) :   0.8731 B(  0-C ,  7-C ) :   0.6355 B(  0-C ,  8-H ) :   0.9188
B(  0-C ,  9-H ) :   0.9348 B(  1-C ,  2-H ) :   0.9049 B(  1-C ,  3-H ) :   0.8813
B(  1-C ,  4-S ) :   0.8445 B(  1-C ,  5-O ) :   0.1254 B(  1-C ,  7-C ) :   0.1708
B(  4-S ,  5-O ) :   1.6442 B(  4-S ,  6-F ) :   1.0049 B(  4-S , 10-O ) :   1.6668
B(  7-C , 11-H ) :   0.9349 B(  7-C , 12-H ) :   0.9331 B(  7-C , 13-H ) :   0.9622

Dispersion correction           -0.004500499
FINAL SINGLE POINT ENERGY      -767.051999999802

DIPOLE MOMENT
-------------
                                X             Y             Z
Electronic contribution:      5.27550      -6.02606     -11.81880
Nuclear contribution   :     -5.90419       7.56246      11.43606
                        -----------------------------------------
Total Dipole Moment    :     -0.62868       1.53640      -0.38273
                        -----------------------------------------
Magnitude (a.u.)       :      1.70360
Magnitude (Debye)      :      4.33020

Rotational constants in cm-1:     0.133686     0.052402     0.049175
Rotational constants in MHz :  4007.807944  1570.986792  1474.216272

                             ****ORCA TERMINATED NORMALLY****
TOTAL RUN TIME: 0 days 0 hours 0 minutes 49 seconds 537 msec
