                         Program Version 5.0.0 -  RELEASE  -
|  1> !wB97X-D3 RIJCOSX def2-TZVPD def2/J TightSCF
|  2> *xyz 0 1
|  3> C          2.91632       -1.24259       -1.54313
|  4> C          3.46659       -1.59097       -2.88908
|  5> N          4.65227       -1.14316       -3.25969
|  6> C          2.75226       -2.29204       -3.72803
|  7> H          1.77836       -2.48960       -3.51274
|  8> H          2.94861       -2.20854       -4.71681
|  9> H          5.14672       -0.51251       -2.63385
| 10> H          4.78303       -1.00720       -4.25350
| 11> C          2.80408        0.29070       -1.35924
| 12> C          2.38838        1.09367       -2.59711
| 13> H          3.76342        0.67472       -0.99989
| 14> H          2.09479        0.46122       -0.54576
| 15> H          1.94047       -1.71653       -1.44116
| 16> H          3.55857       -1.66343       -0.76637
| 17> H          3.08894        0.91965       -3.38694
| 18> H          2.37301        2.13633       -2.35728
| 19> H          1.41303        0.78551       -2.91115
| 20> *
| 21>
| 22> %MaxCore 64000
| 23>
| 24> %pal nprocs 8
| 25> end
| 26>
| 27> %scf
| 28>   MaxIter 150
| 29> end
| 30>
| 31>
| 32>                          ****END OF INPUT****

CARTESIAN COORDINATES (ANGSTROEM)
---------------------------------
  C      2.916320   -1.242590   -1.543130
  C      3.466590   -1.590970   -2.889080
  N      4.652270   -1.143160   -3.259690
  C      2.752260   -2.292040   -3.728030
  H      1.778360   -2.489600   -3.512740
  H      2.948610   -2.208540   -4.716810
  H      5.146720   -0.512510   -2.633850
  H      4.783030   -1.007200   -4.253500
  C      2.804080    0.290700   -1.359240
  C      2.388380    1.093670   -2.597110
  H      3.763420    0.674720   -0.999890
  H      2.094790    0.461220   -0.545760
  H      1.940470   -1.716530   -1.441160
  H      3.558570   -1.663430   -0.766370
  H      3.088940    0.919650   -3.386940
  H      2.373010    2.136330   -2.357280
  H      1.413030    0.785510   -2.911150

 Total Charge           Charge          ....    0
 Multiplicity           Mult            ....    1
 Number of Electrons    NEL             ....   48
 Basis Dimension        Dim             ....  321

ORBITAL ENERGIES
----------------

  NO   OCC          E(Eh)            E(eV)
   0   2.0000     -14.420988      -392.4150
   1   2.0000     -10.295087      -280.1436
   2   2.0000     -10.277071      -279.6533
   3   2.0000     -10.274703      -279.5889
   4   2.0000     -10.255620      -279.0696
   5   2.0000     -10.204170      -277.6696
   6   2.0000      -1.050893       -28.5963
   7   2.0000      -0.910076       -24.7644
   8   2.0000      -0.853934       -23.2367
   9   2.0000      -0.800926       -21.7943
  10   2.0000      -0.712405       -19.3855
  11   2.0000      -0.667809       -18.1720
  12   2.0000      -0.628177       -17.0936
  13   2.0000      -0.570565       -15.5259
  14   2.0000      -0.560281       -15.2460
  15   2.0000      -0.552577       -15.0364
  16   2.0000      -0.492020       -13.3886
  17   2.0000      -0.488501       -13.2928
  18   2.0000      -0.472302       -12.8520
  19   2.0000      -0.459905       -12.5146
  20   2.0000      -0.428430       -11.6582
  21   2.0000      -0.424359       -11.5474
  22   2.0000      -0.410719       -11.1762
  23   2.0000      -0.285686        -7.7739
  24   0.0000       0.065386         1.7793
  25   0.0000       0.082572         2.2469
  26   0.0000       0.093053         2.5321
  27   0.0000       0.095689         2.6038
  28   0.0000       0.112622         3.0646

MULLIKEN ATOMIC CHARGES
-----------------------
   0 C :   -0.543745
   1 C :    0.589690
   2 N :   -0.404620
   3 C :   -1.354876
   4 H :    0.357885
   5 H :    0.317363
   6 H :    0.258030
   7 H :    0.206315
   8 C :   -0.369452
   9 C :   -1.177557
  10 H :    0.324209
  11 H :    0.262053
  12 H :    0.299453
  13 H :    0.257588
  14 H :    0.300495
  15 H :    0.353920
  16 H :    0.323248
Sum of atomic charges:   -0.0000000

LOEWDIN ATOMIC CHARGES
----------------------
   0 C :   -0.151669
   1 C :   -0.516110
   2 N :    0.098534
   3 C :    0.015133
   4 H :    0.028665
   5 H :    0.028264
   6 H :    0.112336
   7 H :    0.114719
   8 C :   -0.243715
   9 C :   -0.103814
  10 H :    0.097231
  11 H :    0.102044
  12 H :    0.111793
  13 H :    0.114570
  14 H :    0.055084
  15 H :    0.064574
  16 H :    0.072359

  Mayer bond orders larger than 0.100000
B(  0-C ,  1-C ) :   0.8461 B(  0-C ,  8-C ) :   0.9256 B(  0-C , 12-H ) :   0.9223
B(  0-C , 13-H ) :   0.9362 B(  1-C ,  2-N ) :   0.9973 B(  1-C ,  3-C ) :   1.3545
B(  1-C ,  9-C ) :   0.1374 B(  2-N ,  3-C ) :   0.1092 B(  2-N ,  6-H ) :   0.8870
B(  2-N ,  7-H ) :   0.9270 B(  3-C ,  4-H ) :   0.9186 B(  3-C ,  5-H ) :   1.0055
B(  8-C ,  9-C ) :   0.7007 B(  8-C , 10-H ) :   0.8722 B(  8-C , 11-H ) :   0.9643
B(  9-C , 14-H ) :   1.0155 B(  9-C , 15-H ) :   0.9166 B(  9-C , 16-H ) :   0.9603

Dispersion correction           -0.004878269
FINAL SINGLE POINT ENERGY      -251.894943768174

DIPOLE MOMENT
-------------
                                X             Y             Z
Electronic contribution:      2.18743      -2.82013      -0.53783
Nuclear contribution   :     -1.90863       3.61442       0.70697
                        -----------------------------------------
Total Dipole Moment    :      0.27881       0.79429       0.16913
                        -----------------------------------------
Magnitude (a.u.)       :      0.85862
Magnitude (Debye)      :      2.18245

Rotational constants in cm-1:     0.173428     0.083686     0.080523
Rotational constants in MHz :  5199.232598  2508.829970  2414.016775

                             ****ORCA TERMINATED NORMALLY****
TOTAL RUN TIME: 0 days 0 hours 0 minutes 49 seconds 701 msec
