                         Program Version 5.0.0 -  RELEASE  -
|  1> !wB97X-D3 RIJCOSX def2-TZVPD def2/J TightSCF
|  2> *xyz 0 1
|  3> C          0.70466        1.44313       -4.50363
|  4> C          1.72854        1.42432       -5.63944
|  5> H          2.64672        1.95379       -5.38105
|  6> H          1.29992        1.93061       -6.50361
|  7> S          2.25263       -0.18811       -6.27184
|  8> O          3.56261       -0.44446       -5.63155
|  9> O          2.34494       -0.03374       -7.69650
| 10> C          1.05255        0.69566       -3.21491
| 11> H         -0.23248        1.03293       -4.88445
| 12> H          0.51170        2.49579       -4.26797
| 13> F          1.26606       -1.15918       -5.80536
| 14> H          1.24200       -0.33323       -3.43942
| 15> H          0.23391        0.76629       -2.52954
| 16> H          1.92506        1.13113       -2.77446
| 17> *
| 18>
| 19> %MaxCore 64000
| 20>
| 21> %pal nprocs 8
| 22> end
| 23>
| 24> %scf
| 25>   MaxIter 150
| 26> end
| 27>
| 28>
| 29>                          ****END OF INPUT****

CARTESIAN COORDINATES (ANGSTROEM)
---------------------------------
  C      0.704660    1.443130   -4.503630
  C      1.728540    1.424320   -5.639440
  H      2.646720    1.953790   -5.381050
  H      1.299920    1.930610   -6.503610
  S      2.252630   -0.188110   -6.271840
  O      3.562610   -0.444460   -5.631550
  O      2.344940   -0.033740   -7.696500
  C      1.052550    0.695660   -3.214910
  H     -0.232480    1.032930   -4.884450
  H      0.511700    2.495790   -4.267970
  F      1.266060   -1.159180   -5.805360
  H      1.242000   -0.333230   -3.439420
  H      0.233910    0.766290   -2.529540
  H      1.925060    1.131130   -2.774460

 Total Charge           Charge          ....    0
 Multiplicity           Mult            ....    1
 Number of Electrons    NEL             ....   66
 Basis Dimension        Dim             ....  340

ORBITAL ENERGIES
----------------

  NO   OCC          E(Eh)            E(eV)
   0   2.0000     -89.194681     -2427.1107
   1   2.0000     -24.898631      -677.5262
   2   2.0000     -19.246492      -523.7237
   3   2.0000     -19.230516      -523.2889
   4   2.0000     -10.335436      -281.2415
   5   2.0000     -10.310066      -280.5512
   6   2.0000     -10.278409      -279.6897
   7   2.0000      -8.258215      -224.7175
   8   2.0000      -6.215732      -169.1387
   9   2.0000      -6.209169      -168.9601
  10   2.0000      -6.208767      -168.9491
  11   2.0000      -1.486003       -40.4362
  12   2.0000      -1.223980       -33.3062
  13   2.0000      -1.122092       -30.5337
  14   2.0000      -0.951751       -25.8985
  15   2.0000      -0.868224       -23.6256
  16   2.0000      -0.817666       -22.2498
  17   2.0000      -0.750094       -20.4111
  18   2.0000      -0.692740       -18.8504
  19   2.0000      -0.682272       -18.5656
  20   2.0000      -0.646410       -17.5897
  21   2.0000      -0.596375       -16.2282
  22   2.0000      -0.579697       -15.7744
  23   2.0000      -0.565423       -15.3860
  24   2.0000      -0.547199       -14.8900
  25   2.0000      -0.532394       -14.4872
  26   2.0000      -0.493299       -13.4233
  27   2.0000      -0.483555       -13.1582
  28   2.0000      -0.474149       -12.9023
  29   2.0000      -0.460368       -12.5273
  30   2.0000      -0.427055       -11.6208
  31   2.0000      -0.413939       -11.2639
  32   2.0000      -0.403710       -10.9855
  33   0.0000       0.051237         1.3942
  34   0.0000       0.061621         1.6768
  35   0.0000       0.070191         1.9100
  36   0.0000       0.072422         1.9707
  37   0.0000       0.094513         2.5718

MULLIKEN ATOMIC CHARGES
-----------------------
   0 C :   -0.316909
   1 C :   -0.576595
   2 H :    0.354506
   3 H :    0.299460
   4 S :    1.218595
   5 O :   -0.614338
   6 O :   -0.583789
   7 C :   -1.216593
   8 H :    0.302298
   9 H :    0.288974
  10 F :   -0.156490
  11 H :    0.351895
  12 H :    0.327972
  13 H :    0.321014
Sum of atomic charges:   -0.0000000

LOEWDIN ATOMIC CHARGES
----------------------
   0 C :   -0.277552
   1 C :   -0.225504
   2 H :    0.112707
   3 H :    0.100587
   4 S :    0.608293
   5 O :   -0.307366
   6 O :   -0.273662
   7 C :   -0.098663
   8 H :    0.107119
   9 H :    0.114164
  10 F :   -0.065760
  11 H :    0.058481
  12 H :    0.071066
  13 H :    0.076091

  Mayer bond orders larger than 0.100000
B(  0-C ,  1-C ) :   0.8439 B(  0-C ,  7-C ) :   0.6339 B(  0-C ,  8-H ) :   0.9299
B(  0-C ,  9-H ) :   0.9425 B(  1-C ,  2-H ) :   0.8949 B(  1-C ,  3-H ) :   0.9789
B(  1-C ,  4-S ) :   0.8212 B(  1-C ,  5-O ) :   0.1187 B(  1-C ,  6-O ) :   0.1091
B(  1-C ,  7-C ) :   0.1068 B(  4-S ,  5-O ) :   1.6462 B(  4-S ,  6-O ) :   1.6501
B(  4-S , 10-F ) :   0.9983 B(  7-C , 11-H ) :   0.9192 B(  7-C , 12-H ) :   0.9506
B(  7-C , 13-H ) :   0.9882

Dispersion correction           -0.004474632
FINAL SINGLE POINT ENERGY      -767.061243604585

DIPOLE MOMENT
-------------
                                X             Y             Z
Electronic contribution:      3.40131      -7.90284      -8.49306
Nuclear contribution   :     -4.74391       8.77281       9.40225
                        -----------------------------------------
Total Dipole Moment    :     -1.34261       0.86997       0.90920
                        -----------------------------------------
Magnitude (a.u.)       :      1.84013
Magnitude (Debye)      :      4.67723

Rotational constants in cm-1:     0.129476     0.053470     0.050698
Rotational constants in MHz :  3881.594668  1602.990831  1519.898630

                             ****ORCA TERMINATED NORMALLY****
TOTAL RUN TIME: 0 days 0 hours 0 minutes 56 seconds 540 msec
