                         Program Version 5.0.0 -  RELEASE  -
|  1> !wB97X-D3 RIJCOSX def2-TZVPD def2/J TightSCF xyzfile
|  2>
|  3> *xyzfile 0 1 D5.xyz
|  4>
|  5> %MaxCore 64000
|  6>
|  7> %pal nprocs 18
|  8> end
|  9>
| 10> %scf
| 11>   MaxIter 150
| 12> end
| 13>
| 14>
| 15>                          ****END OF INPUT****

CARTESIAN COORDINATES (ANGSTROEM)
---------------------------------
  C      2.916324   -1.242589   -1.543125
  C      0.704661    1.443129   -4.503630
  C      1.728539    1.424320   -5.639443
  H      2.646718    1.953794   -5.381054
  H      1.299916    1.930613   -6.503614
  S      2.252625   -0.188115   -6.271840
  C      3.466585   -1.590971   -2.889082
  C      4.652275   -1.143164   -3.259692
  N      2.752264   -2.292043   -3.728029
  H      1.778364   -2.489604   -3.512738
  H      2.948612   -2.208544   -4.716813
  H      5.146723   -0.512508   -2.633852
  H      4.783030   -1.007203   -4.253498
  O      3.562607   -0.444464   -5.631552
  O      2.344944   -0.033742   -7.696501
  C      2.804084    0.290698   -1.359243
  C      1.052550    0.695659   -3.214915
  H     -0.232483    1.032925   -4.884449
  H      0.511700    2.495794   -4.267966
  C      2.388380    1.093669   -2.597108
  H      3.763425    0.674718   -0.999889
  H      2.094788    0.461222   -0.545756
  F      1.266058   -1.159177   -5.805365
  H      3.167316    1.013242   -3.359430
  H      2.357690    2.149375   -2.310997
  H      1.039284   -0.368429   -3.449329
  H      0.250787    0.865605   -2.488283
  H      1.940472   -1.716529   -1.441161
  H      3.558569   -1.663433   -0.766371

 Total Charge           Charge          ....    0
 Multiplicity           Mult            ....    1
 Number of Electrons    NEL             ....  112
 Basis Dimension        Dim             ....  643

ORBITAL ENERGIES
----------------

  NO   OCC          E(Eh)            E(eV)
   0   2.0000     -89.205246     -2427.3981
   1   2.0000     -24.911462      -677.8753
   2   2.0000     -19.256190      -523.9876
   3   2.0000     -19.242351      -523.6110
   4   2.0000     -14.410348      -392.1255
   5   2.0000     -10.341532      -281.4074
   6   2.0000     -10.311792      -280.5981
   7   2.0000     -10.289067      -279.9797
   8   2.0000     -10.282557      -279.8026
   9   2.0000     -10.276288      -279.6320
  10   2.0000     -10.274591      -279.5858
  11   2.0000     -10.273116      -279.5457
  12   2.0000     -10.181597      -277.0553
  13   2.0000      -8.269180      -225.0158
  14   2.0000      -6.226730      -169.4379
  15   2.0000      -6.219982      -169.2543
  16   2.0000      -6.219711      -169.2469
  17   2.0000      -1.499915       -40.8148
  18   2.0000      -1.235781       -33.6273
  19   2.0000      -1.137213       -30.9451
  20   2.0000      -1.044385       -28.4192
  21   2.0000      -0.963685       -26.2232
  22   2.0000      -0.919226       -25.0134
  23   2.0000      -0.879391       -23.9295
  24   2.0000      -0.841177       -22.8896
  25   2.0000      -0.819128       -22.2896
  26   2.0000      -0.793778       -21.5998
  27   2.0000      -0.750932       -20.4339
  28   2.0000      -0.712232       -19.3808
  29   2.0000      -0.701062       -19.0769
  30   2.0000      -0.687069       -18.6961
  31   2.0000      -0.664019       -18.0689
  32   2.0000      -0.650439       -17.6993
  33   2.0000      -0.614964       -16.7340
  34   2.0000      -0.602170       -16.3859
  35   2.0000      -0.598457       -16.2848
  36   2.0000      -0.579336       -15.7645
  37   2.0000      -0.573755       -15.6127
  38   2.0000      -0.557957       -15.1828
  39   2.0000      -0.550062       -14.9679
  40   2.0000      -0.532480       -14.4895
  41   2.0000      -0.516889       -14.0653
  42   2.0000      -0.503408       -13.6984
  43   2.0000      -0.486430       -13.2364
  44   2.0000      -0.485164       -13.2020
  45   2.0000      -0.473784       -12.8923
  46   2.0000      -0.467005       -12.7078
  47   2.0000      -0.450165       -12.2496
  48   2.0000      -0.445636       -12.1264
  49   2.0000      -0.435444       -11.8490
  50   2.0000      -0.427721       -11.6389
  51   2.0000      -0.421676       -11.4744
  52   2.0000      -0.415176       -11.2975
  53   2.0000      -0.404581       -11.0092
  54   2.0000      -0.400375       -10.8948
  55   2.0000      -0.263317        -7.1652
  56   0.0000       0.043202         1.1756
  57   0.0000       0.055571         1.5122
  58   0.0000       0.063774         1.7354
  59   0.0000       0.068342         1.8597
  60   0.0000       0.078997         2.1496

MULLIKEN ATOMIC CHARGES
-----------------------
   0 C :   -0.762783
   1 C :   -0.735405
   2 C :   -0.753608
   3 H :    0.441065
   4 H :    0.343984
   5 S :    1.156165
   6 C :    0.619601
   7 C :   -1.586519
   8 N :   -0.392454
   9 H :    0.307490
  10 H :    0.200282
  11 H :    0.431553
  12 H :    0.582920
  13 O :   -0.620412
  14 O :   -0.592340
  15 C :   -0.596299
  16 C :   -0.205755
  17 H :    0.325423
  18 H :    0.335872
  19 C :   -0.537463
  20 H :    0.381749
  21 H :    0.305051
  22 F :   -0.190827
  23 H :    0.293621
  24 H :    0.308840
  25 H :    0.074865
  26 H :    0.294841
  27 H :    0.326314
  28 H :    0.244228
Sum of atomic charges:   -0.0000000

LOEWDIN ATOMIC CHARGES
----------------------
   0 C :   -0.136239
   1 C :   -0.220896
   2 C :   -0.205098
   3 H :    0.112700
   4 H :    0.103223
   5 S :    0.643381
   6 C :   -0.498004
   7 C :    0.010181
   8 N :    0.097593
   9 H :    0.106590
  10 H :    0.076668
  11 H :    0.036639
  12 H :    0.005728
  13 O :   -0.309681
  14 O :   -0.258000
  15 C :   -0.185461
  16 C :   -0.205977
  17 H :    0.112017
  18 H :    0.121596
  19 C :   -0.204310
  20 H :    0.109651
  21 H :    0.106902
  22 F :   -0.065794
  23 H :    0.095327
  24 H :    0.118772
  25 H :    0.084045
  26 H :    0.122566
  27 H :    0.106130
  28 H :    0.119749

  Mayer bond orders larger than 0.100000
B(  0-C ,  6-C ) :   0.8655 B(  0-C , 15-C ) :   0.9665 B(  0-C , 16-C ) :   0.1299
B(  0-C , 27-H ) :   0.9089 B(  0-C , 28-H ) :   0.9771 B(  1-C ,  2-C ) :   0.9050
B(  1-C ,  5-S ) :   0.1006 B(  1-C , 16-C ) :   0.8253 B(  1-C , 17-H ) :   0.9307
B(  1-C , 18-H ) :   0.8724 B(  1-C , 19-C ) :   0.3230 B(  2-C ,  3-H ) :   0.7988
B(  2-C ,  4-H ) :   0.9540 B(  2-C ,  5-S ) :   0.8316 B(  2-C , 13-O ) :   0.1530
B(  2-C , 14-O ) :   0.1579 B(  2-C , 19-C ) :   0.1493 B(  5-S , 13-O ) :   1.7455
B(  5-S , 14-O ) :   1.4914 B(  5-S , 22-F ) :   1.0027 B(  6-C ,  7-C ) :   1.2846
B(  6-C ,  8-N ) :   0.9525 B(  6-C , 12-H ) :  -0.1033 B(  6-C , 19-C ) :   0.1416
B(  7-C ,  8-N ) :   0.1191 B(  7-C , 11-H ) :   0.9068 B(  7-C , 12-H ) :   0.6806
B(  7-C , 15-C ) :   0.1627 B(  8-N ,  9-H ) :   0.7792 B(  8-N , 10-H ) :   0.8298
B( 15-C , 16-C ) :   0.3610 B( 15-C , 19-C ) :   1.0598 B( 15-C , 20-H ) :   0.8227
B( 15-C , 21-H ) :   0.8987 B( 16-C , 19-C ) :   0.4921 B( 16-C , 25-H ) :   1.1351
B( 16-C , 26-H ) :   0.8755 B( 19-C , 23-H ) :   1.0042 B( 19-C , 24-H ) :   0.8682

Dispersion correction           -0.016347162
FINAL SINGLE POINT ENERGY     -1017.742168088837

DIPOLE MOMENT
-------------
                                X             Y             Z
Electronic contribution:     -1.75006      -6.04863     -19.01476
Nuclear contribution   :     -0.26930       7.11259      19.56706
                        -----------------------------------------
Total Dipole Moment    :     -2.01936       1.06396       0.55230
                        -----------------------------------------
Magnitude (a.u.)       :      2.34838
Magnitude (Debye)      :      5.96910

Rotational constants in cm-1:     0.036519     0.018683     0.015073
Rotational constants in MHz :  1094.801738   560.111127   451.890222

                             ****ORCA TERMINATED NORMALLY****
TOTAL RUN TIME: 0 days 0 hours 2 minutes 20 seconds 340 msec
