                         Program Version 5.0.0 -  RELEASE  -
|  1> !LC-PBE RIJCOSX def2-SVPD def2/J TightSCF
|  2> *xyz -1 1
|  3> C         -0.95121        1.33498       -0.97250
|  4> C         -0.77455        2.78833       -0.54394
|  5> H         -1.35261        3.45937       -1.19259
|  6> H         -1.17101        2.90233        0.46997
|  7> C          0.69721        3.22791       -0.52513
|  8> O          1.48929        2.37470        0.19919
|  9> H          0.71600        4.26403       -0.13077
| 10> H          1.03615        3.33092       -1.58367
| 11> H         -0.56808        1.20618       -1.96322
| 12> H         -1.99081        1.08225       -0.95647
| 13> H         -0.41866        0.69710       -0.29841
| 14> *
| 15>
| 16> %MaxCore 64000
| 17> %pal nprocs 4
| 18> end
| 19>
| 20> %scf
| 21>   MaxIter 150
| 22> end
| 23>
| 24>
| 25>                          ****END OF INPUT****

CARTESIAN COORDINATES (ANGSTROEM)
---------------------------------
  C     -0.951210    1.334980   -0.972500
  C     -0.774550    2.788330   -0.543940
  H     -1.352610    3.459370   -1.192590
  H     -1.171010    2.902330    0.469970
  C      0.697210    3.227910   -0.525130
  O      1.489290    2.374700    0.199190
  H      0.716000    4.264030   -0.130770
  H      1.036150    3.330920   -1.583670
  H     -0.568080    1.206180   -1.963220
  H     -1.990810    1.082250   -0.956470
  H     -0.418660    0.697100   -0.298410

 Total Charge           Charge          ....   -1
 Multiplicity           Mult            ....    1
 Number of Electrons    NEL             ....   34
 Basis Dimension        Dim             ....  139

ORBITAL ENERGIES
----------------

  NO   OCC          E(Eh)            E(eV)
   0   2.0000     -18.652021      -507.5473
   1   2.0000      -9.941626      -270.5254
   2   2.0000      -9.940189      -270.4863
   3   2.0000      -9.935229      -270.3513
   4   2.0000      -0.840833       -22.8802
   5   2.0000      -0.748022       -20.3547
   6   2.0000      -0.626048       -17.0356
   7   2.0000      -0.513742       -13.9796
   8   2.0000      -0.419213       -11.4074
   9   2.0000      -0.409751       -11.1499
  10   2.0000      -0.354877        -9.6567
  11   2.0000      -0.320594        -8.7238
  12   2.0000      -0.293444        -7.9850
  13   2.0000      -0.279104        -7.5948
  14   2.0000      -0.241795        -6.5796
  15   2.0000      -0.097347        -2.6489
  16   2.0000      -0.093525        -2.5450
  17   0.0000       0.232232         6.3194
  18   0.0000       0.256305         6.9744
  19   0.0000       0.274518         7.4700
  20   0.0000       0.306676         8.3451
  21   0.0000       0.326365         8.8809

MULLIKEN ATOMIC CHARGES
-----------------------
   0 C :    0.406185
   1 C :   -0.585470
   2 H :   -0.030542
   3 H :    0.002307
   4 C :    0.215984
   5 O :   -0.855217
   6 H :   -0.083969
   7 H :   -0.052655
   8 H :   -0.020816
   9 H :   -0.029349
  10 H :    0.033541
Sum of atomic charges:   -1.0000000

LOEWDIN ATOMIC CHARGES
----------------------
   0 C :    0.054782
   1 C :   -0.143859
   2 H :    0.003708
   3 H :    0.013979
   4 C :   -0.251047
   5 O :   -0.571666
   6 H :   -0.016808
   7 H :   -0.010684
   8 H :   -0.019307
   9 H :   -0.036499
  10 H :   -0.022599

  Mayer bond orders larger than 0.100000
B(  0-C ,  1-C ) :   1.2729 B(  0-C ,  8-H ) :   0.8555 B(  0-C ,  9-H ) :   0.8345
B(  0-C , 10-H ) :   0.8585 B(  1-C ,  2-H ) :   1.0133 B(  1-C ,  3-H ) :   0.9784
B(  1-C ,  4-C ) :   1.0762 B(  1-C ,  6-H ) :   0.1069 B(  1-C ,  8-H ) :   0.1597
B(  1-C ,  9-H ) :   0.1592 B(  1-C , 10-H ) :   0.1718 B(  4-C ,  5-O ) :   1.3110
B(  4-C ,  6-H ) :   0.9707 B(  4-C ,  7-H ) :   0.9677

FINAL SINGLE POINT ENERGY      -192.999183083168

DIPOLE MOMENT
-------------
                                X             Y             Z
Electronic contribution:      2.39349       0.09747       1.36856
Nuclear contribution   :     -4.35230      -0.04018      -2.29108
                        -----------------------------------------
Total Dipole Moment    :     -1.95881       0.05728      -0.92252
                        -----------------------------------------
Magnitude (a.u.)       :      2.16593
Magnitude (Debye)      :      5.50537

Rotational constants in cm-1:     0.489965     0.184028     0.151025
Rotational constants in MHz : 14688.769521  5517.006179  4527.605157

                             ****ORCA TERMINATED NORMALLY****
TOTAL RUN TIME: 0 days 0 hours 0 minutes 10 seconds 808 msec
