                         Program Version 5.0.0 -  RELEASE  -
|  1> !LC-PBE RIJCOSX def2-SVPD def2/J TightSCF
|  2> *xyz 1 1
|  3> C          3.95643        0.50147       -0.37910
|  4> H          3.16840        0.02920        0.20738
|  5> N          3.80389        1.96157       -0.15675
|  6> C          3.84232        0.14849       -1.85406
|  7> H          4.92323        0.17798        0.00937
|  8> H          4.62002        0.69450       -2.40215
|  9> H          4.09601       -0.91093       -1.95510
| 10> C          2.47562        0.41271       -2.48538
| 11> H          4.20643        2.24441        0.74536
| 12> H          2.80827        2.21132       -0.09610
| 13> H          4.28076        2.50155       -0.89104
| 14> H          2.49958        0.13290       -3.51787
| 15> H          2.23992        1.45318       -2.40319
| 16> H          1.73061       -0.16300       -1.97702
| 17> *
| 18>
| 19> %MaxCore 64000
| 20> %pal nprocs 4
| 21> end
| 22>
| 23> %scf
| 24>   MaxIter 150
| 25> end
| 26>
| 27>
| 28>                          ****END OF INPUT****

CARTESIAN COORDINATES (ANGSTROEM)
---------------------------------
  C      3.956430    0.501470   -0.379100
  H      3.168400    0.029200    0.207380
  N      3.803890    1.961570   -0.156750
  C      3.842320    0.148490   -1.854060
  H      4.923230    0.177980    0.009370
  H      4.620020    0.694500   -2.402150
  H      4.096010   -0.910930   -1.955100
  C      2.475620    0.412710   -2.485380
  H      4.206430    2.244410    0.745360
  H      2.808270    2.211320   -0.096100
  H      4.280760    2.501550   -0.891040
  H      2.499580    0.132900   -3.517870
  H      2.239920    1.453180   -2.403190
  H      1.730610   -0.163000   -1.977020

 Total Charge           Charge          ....    1
 Multiplicity           Mult            ....    1
 Number of Electrons    NEL             ....   34
 Basis Dimension        Dim             ....  160

ORBITAL ENERGIES
----------------

  NO   OCC          E(Eh)            E(eV)
   0   2.0000     -14.560926      -396.2229
   1   2.0000     -10.375165      -282.3226
   2   2.0000     -10.306575      -280.4562
   3   2.0000     -10.270397      -279.4717
   4   2.0000      -1.379271       -37.5319
   5   2.0000      -1.145052       -31.1584
   6   2.0000      -1.046893       -28.4874
   7   2.0000      -0.961249       -26.1569
   8   2.0000      -0.938334       -25.5334
   9   2.0000      -0.921445       -25.0738
  10   2.0000      -0.833398       -22.6779
  11   2.0000      -0.773334       -21.0435
  12   2.0000      -0.749744       -20.4016
  13   2.0000      -0.723318       -19.6825
  14   2.0000      -0.656819       -17.8730
  15   2.0000      -0.650050       -17.6888
  16   2.0000      -0.640749       -17.4357
  17   0.0000      -0.105697        -2.8762
  18   0.0000      -0.049977        -1.3599
  19   0.0000      -0.048861        -1.3296
  20   0.0000      -0.039124        -1.0646
  21   0.0000      -0.013844        -0.3767

MULLIKEN ATOMIC CHARGES
-----------------------
   0 C :    0.362664
   1 H :    0.031836
   2 N :   -0.807103
   3 C :   -0.511242
   4 H :    0.046484
   5 H :    0.030364
   6 H :    0.040125
   7 C :    0.482974
   8 H :    0.369037
   9 H :    0.418891
  10 H :    0.441450
  11 H :    0.052466
  12 H :   -0.030010
  13 H :    0.072066
Sum of atomic charges:    1.0000000

LOEWDIN ATOMIC CHARGES
----------------------
   0 C :    0.060155
   1 H :    0.064925
   2 N :    0.316690
   3 C :   -0.077213
   4 H :    0.064774
   5 H :    0.045377
   6 H :    0.056978
   7 C :    0.115367
   8 H :    0.114843
   9 H :    0.112151
  10 H :    0.114794
  11 H :    0.015671
  12 H :   -0.013427
  13 H :    0.008914

  Mayer bond orders larger than 0.100000
B(  0-C ,  1-H ) :   0.9075 B(  0-C ,  2-N ) :   0.8208 B(  0-C ,  3-C ) :   1.1562
B(  0-C ,  4-H ) :   0.9539 B(  1-H ,  2-N ) :   0.1035 B(  2-N ,  8-H ) :   0.7848
B(  2-N ,  9-H ) :   0.7573 B(  2-N , 10-H ) :   0.6920 B(  3-C ,  5-H ) :   0.9630
B(  3-C ,  6-H ) :   1.0049 B(  3-C ,  7-C ) :   1.2844 B(  3-C , 11-H ) :   0.1604
B(  3-C , 12-H ) :   0.1519 B(  3-C , 13-H ) :   0.1490 B(  7-C , 11-H ) :   0.8415
B(  7-C , 12-H ) :   0.8611 B(  7-C , 13-H ) :   0.8377

FINAL SINGLE POINT ENERGY      -174.143155197138

DIPOLE MOMENT
-------------
                                X             Y             Z
Electronic contribution:      1.02245       1.19117       1.85095
Nuclear contribution   :     -0.57302       0.26376      -0.39709
                        -----------------------------------------
Total Dipole Moment    :      0.44943       1.45493       1.45385
                        -----------------------------------------
Magnitude (a.u.)       :      2.10535
Magnitude (Debye)      :      5.35138

Rotational constants in cm-1:     0.449370     0.157244     0.134525
Rotational constants in MHz : 13471.775278  4714.062641  4032.958796

                             ****ORCA TERMINATED NORMALLY****
TOTAL RUN TIME: 0 days 0 hours 0 minutes 14 seconds 35 msec
