                         Program Version 5.0.0 -  RELEASE  -
|  1> !LC-PBE RIJCOSX def2-SVPD def2/J TightSCF xyzfile
|  2>
|  3> *xyzfile 0 1 B.xyz
|  4>
|  5> %MaxCore 64000
|  6>
|  7> %pal nprocs 4
|  8> end
|  9>
| 10> %scf
| 11>   MaxIter 150
| 12> end
| 13>
| 14>
| 15>                          ****END OF INPUT****

CARTESIAN COORDINATES (ANGSTROEM)
---------------------------------
  C      3.956426    0.501466   -0.379100
  H      3.168398    0.029201    0.207383
  N      3.803893    1.961572   -0.156747
  C      3.842322    0.148490   -1.854058
  H      4.923231    0.177982    0.009371
  H      4.620021    0.694502   -2.402150
  H      4.096015   -0.910930   -1.955103
  C      2.475619    0.412708   -2.485377
  H      2.174689    1.445076   -2.287971
  C      1.383931   -0.532740   -1.995203
  H      2.575613    0.318574   -3.571460
  H      1.264698   -0.412309   -0.915491
  H      1.705223   -1.566885   -2.164984
  C      0.031398   -0.317260   -2.677791
  C     -0.587292    1.060853   -2.436460
  H     -0.662815   -1.089530   -2.329985
  H      0.149465   -0.478040   -3.755648
  H      0.104376    1.828590   -2.793130
  C     -0.951213    1.334978   -0.972500
  H     -1.478832    1.161355   -3.062484
  H     -0.317007    0.741648   -0.311389
  H     -1.980916    1.012842   -0.788958
  C     -0.774550    2.788332   -0.543943
  H     -1.352609    3.459372   -1.192585
  H     -1.171014    2.902331    0.469968
  C      0.697208    3.227911   -0.525126
  O      1.489294    2.374703    0.199189
  H      0.715998    4.264030   -0.130774
  H      1.036148    3.330920   -1.583669
  H      4.206425    2.244406    0.745359
  H      2.808269    2.211323   -0.096097
  H      4.280757    2.501552   -0.891037

 Total Charge           Charge          ....    0
 Multiplicity           Mult            ....    1
 Number of Electrons    NEL             ....   90
 Basis Dimension        Dim             ....  391

ORBITAL ENERGIES
----------------

  NO   OCC          E(Eh)            E(eV)
   0   2.0000     -18.859150      -513.1836
   1   2.0000     -14.308467      -389.3532
   2   2.0000     -10.195386      -277.4306
   3   2.0000     -10.151433      -276.2345
   4   2.0000     -10.125268      -275.5225
   5   2.0000     -10.112570      -275.1770
   6   2.0000     -10.110460      -275.1196
   7   2.0000     -10.107030      -275.0263
   8   2.0000     -10.094814      -274.6938
   9   2.0000     -10.081298      -274.3261
  10   2.0000     -10.074413      -274.1387
  11   2.0000      -1.156155       -31.4606
  12   2.0000      -1.046521       -28.4773
  13   2.0000      -0.992758       -27.0143
  14   2.0000      -0.951124       -25.8814
  15   2.0000      -0.910091       -24.7648
  16   2.0000      -0.862076       -23.4583
  17   2.0000      -0.822445       -22.3799
  18   2.0000      -0.780504       -21.2386
  19   2.0000      -0.751595       -20.4520
  20   2.0000      -0.722099       -19.6493
  21   2.0000      -0.717939       -19.5361
  22   2.0000      -0.699677       -19.0392
  23   2.0000      -0.659005       -17.9324
  24   2.0000      -0.635493       -17.2926
  25   2.0000      -0.615294       -16.7430
  26   2.0000      -0.612964       -16.6796
  27   2.0000      -0.582150       -15.8411
  28   2.0000      -0.565546       -15.3893
  29   2.0000      -0.561407       -15.2767
  30   2.0000      -0.537707       -14.6317
  31   2.0000      -0.528322       -14.3764
  32   2.0000      -0.517733       -14.0882
  33   2.0000      -0.497834       -13.5468
  34   2.0000      -0.488752       -13.2996
  35   2.0000      -0.476851       -12.9758
  36   2.0000      -0.468430       -12.7466
  37   2.0000      -0.452663       -12.3176
  38   2.0000      -0.444047       -12.0831
  39   2.0000      -0.437817       -11.9136
  40   2.0000      -0.414513       -11.2795
  41   2.0000      -0.410793       -11.1783
  42   2.0000      -0.404286       -11.0012
  43   2.0000      -0.308963        -8.4073
  44   2.0000      -0.302681        -8.2364
  45   0.0000       0.062910         1.7119
  46   0.0000       0.091913         2.5011
  47   0.0000       0.097144         2.6434
  48   0.0000       0.110796         3.0149
  49   0.0000       0.125971         3.4278

MULLIKEN ATOMIC CHARGES
-----------------------
   0 C :    0.632942
   1 H :    0.091277
   2 N :   -0.103356
   3 C :    0.044879
   4 H :   -0.152766
   5 H :    0.000862
   6 H :    0.023681
   7 C :    0.318003
   8 H :   -0.485234
   9 C :   -0.187910
  10 H :    0.003667
  11 H :   -0.015864
  12 H :   -0.053800
  13 C :    0.371379
  14 C :    0.001904
  15 H :   -0.109041
  16 H :    0.110466
  17 H :   -0.056179
  18 C :   -0.028908
  19 H :   -0.122133
  20 H :   -0.018261
  21 H :   -0.048000
  22 C :    0.071279
  23 H :   -0.065282
  24 H :    0.131648
  25 C :    0.280126
  26 O :   -0.622317
  27 H :   -0.243604
  28 H :    0.101604
  29 H :    0.380809
  30 H :   -0.637046
  31 H :    0.385174
Sum of atomic charges:    0.0000000

LOEWDIN ATOMIC CHARGES
----------------------
   0 C :    0.064183
   1 H :    0.049253
   2 N :    0.301570
   3 C :   -0.042921
   4 H :    0.040010
   5 H :    0.033598
   6 H :    0.040659
   7 C :   -0.041726
   8 H :    0.006216
   9 C :   -0.050734
  10 H :    0.041203
  11 H :    0.013488
  12 H :    0.034844
  13 C :   -0.055444
  14 C :   -0.044927
  15 H :    0.035018
  16 H :    0.030879
  17 H :    0.004816
  18 C :   -0.050012
  19 H :    0.030289
  20 H :    0.003996
  21 H :    0.028622
  22 C :   -0.058285
  23 H :    0.031465
  24 H :    0.032938
  25 C :   -0.104542
  26 O :   -0.388201
  27 H :    0.018887
  28 H :    0.005324
  29 H :    0.098507
  30 H :   -0.203513
  31 H :    0.094539

  Mayer bond orders larger than 0.100000
B(  0-C ,  1-H ) :   0.8076 B(  0-C ,  2-N ) :   0.8534 B(  0-C ,  3-C ) :   1.1508
B(  0-C ,  4-H ) :   0.9363 B(  0-C ,  6-H ) :   0.1063 B(  1-H ,  2-N ) :   0.1011
B(  1-H ,  4-H ) :  -0.1044 B(  2-N , 29-H ) :   0.7852 B(  2-N , 30-H ) :   1.3989
B(  2-N , 31-H ) :   0.7610 B(  3-C ,  5-H ) :   0.8095 B(  3-C ,  6-H ) :   0.9189
B(  3-C ,  7-C ) :   1.1874 B(  5-H ,  7-C ) :   0.2006 B(  7-C ,  8-H ) :   0.8474
B(  7-C ,  9-C ) :   1.2028 B(  7-C , 10-H ) :   0.7427 B(  7-C , 11-H ) :   0.1050
B(  7-C , 12-H ) :   0.1406 B(  8-H ,  9-C ) :   0.2245 B(  8-H , 10-H ) :   0.1296
B(  9-C , 10-H ) :   0.1355 B(  9-C , 11-H ) :   0.8912 B(  9-C , 12-H ) :   0.9091
B(  9-C , 13-C ) :   1.1930 B(  9-C , 15-H ) :   0.2380 B(  9-C , 16-H ) :   0.1089
B( 11-H , 20-H ) :   0.1372 B( 13-C , 14-C ) :   1.1954 B( 13-C , 15-H ) :   0.8122
B( 13-C , 16-H ) :   0.7334 B( 14-C , 16-H ) :   0.1853 B( 14-C , 17-H ) :   0.8984
B( 14-C , 18-C ) :   1.2151 B( 14-C , 19-H ) :   0.8922 B( 14-C , 21-H ) :   0.1964
B( 15-H , 16-H ) :  -0.1012 B( 17-H , 18-C ) :   0.1028 B( 18-C , 19-H ) :   0.1797
B( 18-C , 20-H ) :   0.8596 B( 18-C , 21-H ) :   0.8457 B( 18-C , 22-C ) :   1.2644
B( 18-C , 24-H ) :   0.1821 B( 20-H , 22-C ) :   0.1193 B( 22-C , 23-H ) :   0.8985
B( 22-C , 24-H ) :   0.7291 B( 22-C , 25-C ) :   1.1828 B( 23-H , 25-C ) :   0.1473
B( 24-H , 25-C ) :   0.1003 B( 25-C , 26-O ) :   1.0429 B( 25-C , 27-H ) :   1.0675
B( 25-C , 28-H ) :   0.8009 B( 26-O , 30-H ) :   0.5290

FINAL SINGLE POINT ENERGY      -483.631551297470

DIPOLE MOMENT
-------------
                                X             Y             Z
Electronic contribution:      2.12835       0.94345       2.51143
Nuclear contribution   :      0.61785      -1.47632      -2.91844
                        -----------------------------------------
Total Dipole Moment    :      2.74620      -0.53288      -0.40701
                        -----------------------------------------
Magnitude (a.u.)       :      2.82687
Magnitude (Debye)      :      7.18534

Rotational constants in cm-1:     0.040993     0.027400     0.018162
Rotational constants in MHz :  1228.944366   821.418004   544.476857

                             ****ORCA TERMINATED NORMALLY****
TOTAL RUN TIME: 0 days 0 hours 2 minutes 38 seconds 992 msec
