                         Program Version 5.0.0 -  RELEASE  -
|  1> !LC-PBE RIJCOSX def2-SVPD def2/J TightSCF
|  2> *xyz 0 1
|  3> C         -0.95121        1.33498       -0.97250
|  4> C         -0.77455        2.78833       -0.54394
|  5> H         -1.35261        3.45937       -1.19259
|  6> H         -1.17101        2.90233        0.46997
|  7> C          0.69721        3.22791       -0.52513
|  8> F          1.48929        2.37470        0.19919
|  9> H          0.71600        4.26403       -0.13077
| 10> H          1.03615        3.33092       -1.58367
| 11> H         -0.56808        1.20618       -1.96322
| 12> H         -1.99081        1.08225       -0.95647
| 13> H         -0.41866        0.69710       -0.29841
| 14> *
| 15>
| 16> %MaxCore 64000
| 17> %pal nprocs 4
| 18> end
| 19>
| 20> %scf
| 21>   MaxIter 150
| 22> end
| 23>
| 24>
| 25>                          ****END OF INPUT****

CARTESIAN COORDINATES (ANGSTROEM)
---------------------------------
  C     -0.951210    1.334980   -0.972500
  C     -0.774550    2.788330   -0.543940
  H     -1.352610    3.459370   -1.192590
  H     -1.171010    2.902330    0.469970
  C      0.697210    3.227910   -0.525130
  F      1.489290    2.374700    0.199190
  H      0.716000    4.264030   -0.130770
  H      1.036150    3.330920   -1.583670
  H     -0.568080    1.206180   -1.963220
  H     -1.990810    1.082250   -0.956470
  H     -0.418660    0.697100   -0.298410

 Total Charge           Charge          ....    0
 Multiplicity           Mult            ....    1
 Number of Electrons    NEL             ....   34
 Basis Dimension        Dim             ....  139

ORBITAL ENERGIES
----------------

  NO   OCC          E(Eh)            E(eV)
   0   2.0000     -24.495826      -666.5653
   1   2.0000     -10.207569      -277.7621
   2   2.0000     -10.134798      -275.7819
   3   2.0000     -10.112110      -275.1645
   4   2.0000      -1.341042       -36.4916
   5   2.0000      -0.962914       -26.2022
   6   2.0000      -0.853965       -23.2376
   7   2.0000      -0.751702       -20.4548
   8   2.0000      -0.661829       -18.0093
   9   2.0000      -0.647301       -17.6140
  10   2.0000      -0.621323       -16.9071
  11   2.0000      -0.580305       -15.7909
  12   2.0000      -0.539530       -14.6814
  13   2.0000      -0.512936       -13.9577
  14   2.0000      -0.485575       -13.2132
  15   2.0000      -0.459155       -12.4942
  16   2.0000      -0.454533       -12.3685
  17   0.0000       0.090942         2.4746
  18   0.0000       0.115418         3.1407
  19   0.0000       0.125475         3.4143
  20   0.0000       0.146960         3.9990
  21   0.0000       0.170827         4.6484

MULLIKEN ATOMIC CHARGES
-----------------------
   0 C :    0.387854
   1 C :   -0.626165
   2 H :    0.013593
   3 H :    0.024716
   4 C :    0.494229
   5 F :   -0.419336
   6 H :    0.020880
   7 H :    0.050471
   8 H :    0.005462
   9 H :    0.009370
  10 H :    0.038927
Sum of atomic charges:   -0.0000000

LOEWDIN ATOMIC CHARGES
----------------------
   0 C :    0.087776
   1 C :   -0.095937
   2 H :    0.039439
   3 H :    0.033944
   4 C :    0.064967
   5 F :   -0.203943
   6 H :    0.042137
   7 H :    0.049000
   8 H :   -0.004225
   9 H :   -0.007286
  10 H :   -0.005874

  Mayer bond orders larger than 0.100000
B(  0-C ,  1-C ) :   1.2898 B(  0-C ,  8-H ) :   0.8602 B(  0-C ,  9-H ) :   0.8604
B(  0-C , 10-H ) :   0.8603 B(  1-C ,  2-H ) :   0.9982 B(  1-C ,  3-H ) :   0.9811
B(  1-C ,  4-C ) :   1.1865 B(  1-C ,  8-H ) :   0.1456 B(  1-C ,  9-H ) :   0.1470
B(  1-C , 10-H ) :   0.1449 B(  4-C ,  5-F ) :   0.8000 B(  4-C ,  6-H ) :   0.9437
B(  4-C ,  7-H ) :   0.9296

FINAL SINGLE POINT ENERGY      -217.587012564486

DIPOLE MOMENT
-------------
                                X             Y             Z
Electronic contribution:      5.47896       0.38450       2.71490
Nuclear contribution   :     -6.00193       0.02246      -3.08821
                        -----------------------------------------
Total Dipole Moment    :     -0.52297       0.40697      -0.37330
                        -----------------------------------------
Magnitude (a.u.)       :      0.76057
Magnitude (Debye)      :      1.93322

Rotational constants in cm-1:     0.475356     0.173608     0.142756
Rotational constants in MHz : 14250.818869  5204.623090  4279.716550

                             ****ORCA TERMINATED NORMALLY****
TOTAL RUN TIME: 0 days 0 hours 0 minutes 9 seconds 985 msec
