                         Program Version 5.0.0 -  RELEASE  -
|  1> !LC-PBE RIJCOSX def2-SVPD def2/J TightSCF
|  2> *xyz 0 1
|  3> C          3.95643        0.50147       -0.37910
|  4> H          3.16840        0.02920        0.20738
|  5> C          3.80389        1.96157       -0.15675
|  6> C          3.84232        0.14849       -1.85406
|  7> H          4.92323        0.17798        0.00937
|  8> H          4.62002        0.69450       -2.40215
|  9> H          4.09601       -0.91093       -1.95510
| 10> C          2.47562        0.41271       -2.48538
| 11> H          4.20643        2.24441        0.74536
| 12> H          2.80827        2.21132       -0.09610
| 13> H          4.28076        2.50155       -0.89104
| 14> H          2.49958        0.13290       -3.51787
| 15> H          2.23992        1.45318       -2.40319
| 16> H          1.73061       -0.16300       -1.97702
| 17> *
| 18>
| 19> %MaxCore 64000
| 20> %pal nprocs 4
| 21> end
| 22>
| 23> %scf
| 24>   MaxIter 150
| 25> end
| 26>
| 27>
| 28>                          ****END OF INPUT****

CARTESIAN COORDINATES (ANGSTROEM)
---------------------------------
  C      3.956430    0.501470   -0.379100
  H      3.168400    0.029200    0.207380
  C      3.803890    1.961570   -0.156750
  C      3.842320    0.148490   -1.854060
  H      4.923230    0.177980    0.009370
  H      4.620020    0.694500   -2.402150
  H      4.096010   -0.910930   -1.955100
  C      2.475620    0.412710   -2.485380
  H      4.206430    2.244410    0.745360
  H      2.808270    2.211320   -0.096100
  H      4.280760    2.501550   -0.891040
  H      2.499580    0.132900   -3.517870
  H      2.239920    1.453180   -2.403190
  H      1.730610   -0.163000   -1.977020

 Total Charge           Charge          ....    0
 Multiplicity           Mult            ....    1
 Number of Electrons    NEL             ....   34
 Basis Dimension        Dim             ....  160

ORBITAL ENERGIES
----------------

  NO   OCC          E(Eh)            E(eV)
   0   2.0000     -10.116613      -275.2870
   1   2.0000     -10.111944      -275.1600
   2   2.0000     -10.105249      -274.9778
   3   2.0000     -10.086205      -274.4596
   4   2.0000      -0.978240       -26.6193
   5   2.0000      -0.896394       -24.3921
   6   2.0000      -0.804592       -21.8941
   7   2.0000      -0.719724       -19.5847
   8   2.0000      -0.612913       -16.6782
   9   2.0000      -0.609903       -16.5963
  10   2.0000      -0.567592       -15.4450
  11   2.0000      -0.525418       -14.2974
  12   2.0000      -0.519720       -14.1423
  13   2.0000      -0.495496       -13.4831
  14   2.0000      -0.450452       -12.2574
  15   2.0000      -0.447321       -12.1722
  16   2.0000      -0.445419       -12.1205
  17   0.0000       0.095318         2.5937
  18   0.0000       0.118786         3.2323
  19   0.0000       0.120459         3.2779
  20   0.0000       0.131042         3.5658
  21   0.0000       0.171619         4.6700

MULLIKEN ATOMIC CHARGES
-----------------------
   0 C :   -0.362197
   1 H :    0.004844
   2 C :    0.711882
   3 C :   -0.486694
   4 H :   -0.021485
   5 H :    0.065980
   6 H :   -0.030451
   7 C :    0.453741
   8 H :   -0.192713
   9 H :   -0.058020
  10 H :   -0.127907
  11 H :    0.024555
  12 H :   -0.016349
  13 H :    0.034814
Sum of atomic charges:   -0.0000000

LOEWDIN ATOMIC CHARGES
----------------------
   0 C :   -0.105448
   1 H :    0.035170
   2 C :    0.083961
   3 C :   -0.112927
   4 H :    0.033993
   5 H :    0.033476
   6 H :    0.026486
   7 C :    0.093433
   8 H :   -0.023836
   9 H :   -0.020356
  10 H :   -0.017111
  11 H :   -0.008364
  12 H :   -0.013467
  13 H :   -0.005009

  Mayer bond orders larger than 0.100000
B(  0-C ,  1-H ) :   0.9203 B(  0-C ,  2-C ) :   1.2762 B(  0-C ,  3-C ) :   1.1656
B(  0-C ,  4-H ) :   0.9697 B(  0-C ,  6-H ) :   0.1132 B(  0-C ,  8-H ) :   0.1858
B(  0-C ,  9-H ) :   0.2163 B(  0-C , 10-H ) :   0.1976 B(  1-H ,  2-C ) :   0.1174
B(  1-H ,  3-C ) :   0.1049 B(  2-C ,  8-H ) :   0.7964 B(  2-C ,  9-H ) :   0.7387
B(  2-C , 10-H ) :   0.7850 B(  3-C ,  5-H ) :   0.9288 B(  3-C ,  6-H ) :   1.0012
B(  3-C ,  7-C ) :   1.2889 B(  3-C , 11-H ) :   0.1686 B(  3-C , 12-H ) :   0.1652
B(  3-C , 13-H ) :   0.1556 B(  7-C , 11-H ) :   0.8091 B(  7-C , 12-H ) :   0.8806
B(  7-C , 13-H ) :   0.8373

FINAL SINGLE POINT ENERGY      -157.762133368892

DIPOLE MOMENT
-------------
                                X             Y             Z
Electronic contribution:      0.50035      -0.62841       0.10021
Nuclear contribution   :     -0.48267       0.62853      -0.07145
                        -----------------------------------------
Total Dipole Moment    :      0.01768       0.00012       0.02876
                        -----------------------------------------
Magnitude (a.u.)       :      0.03376
Magnitude (Debye)      :      0.08582

Rotational constants in cm-1:     0.457318     0.164089     0.140183
Rotational constants in MHz : 13710.038687  4919.250587  4202.581436

                             ****ORCA TERMINATED NORMALLY****
TOTAL RUN TIME: 0 days 0 hours 0 minutes 13 seconds 95 msec
