                         Program Version 5.0.0 -  RELEASE  -
|  1> !M062X D3Zero RIJCOSX def2-SVP def2/J TightSCF
|  2> *xyz -1 1
|  3> C         -1.10433        0.25137       -2.86006
|  4> C         -0.71189        0.84252       -4.21834
|  5> H          0.15463        1.49980       -4.13091
|  6> H         -1.53813        1.45922       -4.58267
|  7> C         -0.39762       -0.20587       -5.28802
|  8> O          0.61717       -0.00535       -5.99827
|  9> O         -1.13317       -1.22138       -5.34147
| 10> H         -1.95489       -0.38644       -2.98099
| 11> H         -1.34603        1.04362       -2.18269
| 12> H         -0.28606       -0.31581       -2.46809
| 13> *
| 14>
| 15> %MaxCore 64000
| 16>
| 17> %pal nprocs 4
| 18> end
| 19>
| 20> %scf
| 21>   MaxIter 150
| 22> end
| 23>
| 24>
| 25>                          ****END OF INPUT****

CARTESIAN COORDINATES (ANGSTROEM)
---------------------------------
  C     -1.104330    0.251370   -2.860060
  C     -0.711890    0.842520   -4.218340
  H      0.154630    1.499800   -4.130910
  H     -1.538130    1.459220   -4.582670
  C     -0.397620   -0.205870   -5.288020
  O      0.617170   -0.005350   -5.998270
  O     -1.133170   -1.221380   -5.341470
  H     -1.954890   -0.386440   -2.980990
  H     -1.346030    1.043620   -2.182690
  H     -0.286060   -0.315810   -2.468090

 Total Charge           Charge          ....   -1
 Multiplicity           Mult            ....    1
 Number of Electrons    NEL             ....   40
 Basis Dimension        Dim             ....   95

ORBITAL ENERGIES
----------------

  NO   OCC          E(Eh)            E(eV)
   0   2.0000     -19.332652      -526.0682
   1   2.0000     -19.330551      -526.0110
   2   2.0000     -10.407479      -283.2019
   3   2.0000     -10.379209      -282.4326
   4   2.0000     -10.359865      -281.9063
   5   2.0000      -0.896833       -24.4041
   6   2.0000      -0.796071       -21.6622
   7   2.0000      -0.680466       -18.5164
   8   2.0000      -0.541190       -14.7265
   9   2.0000      -0.375413       -10.2155
  10   2.0000      -0.350717        -9.5435
  11   2.0000      -0.313087        -8.5195
  12   2.0000      -0.280819        -7.6415
  13   2.0000      -0.266763        -7.2590
  14   2.0000      -0.257410        -7.0045
  15   2.0000      -0.224795        -6.1170
  16   2.0000      -0.207491        -5.6461
  17   2.0000      -0.081008        -2.2043
  18   2.0000      -0.077403        -2.1062
  19   2.0000      -0.071076        -1.9341
  20   0.0000       0.254091         6.9142
  21   0.0000       0.305526         8.3138
  22   0.0000       0.315935         8.5970
  23   0.0000       0.322631         8.7792
  24   0.0000       0.330143         8.9836

MULLIKEN ATOMIC CHARGES
-----------------------
   0 C :   -0.035782
   1 C :   -0.079009
   2 H :   -0.022869
   3 H :   -0.013032
   4 C :    0.108563
   5 O :   -0.474687
   6 O :   -0.478344
   7 H :    0.019477
   8 H :   -0.031016
   9 H :    0.006698
Sum of atomic charges:   -1.0000000

LOEWDIN ATOMIC CHARGES
----------------------
   0 C :   -0.069433
   1 C :   -0.101721
   2 H :    0.001616
   3 H :    0.008453
   4 C :   -0.031968
   5 O :   -0.411851
   6 O :   -0.416116
   7 H :    0.014806
   8 H :   -0.005760
   9 H :    0.011975

  Mayer bond orders larger than 0.100000
B(  0-C ,  1-C ) :   1.0772 B(  0-C ,  7-H ) :   0.9643 B(  0-C ,  8-H ) :   0.9659
B(  0-C ,  9-H ) :   0.9776 B(  1-C ,  2-H ) :   0.9476 B(  1-C ,  3-H ) :   0.9409
B(  1-C ,  4-C ) :   0.9129 B(  4-C ,  5-O ) :   1.8435 B(  4-C ,  6-O ) :   1.8168
B(  5-O ,  6-O ) :   0.1034

Dispersion correction           -0.000088286
FINAL SINGLE POINT ENERGY      -267.495182038034

DIPOLE MOMENT
-------------
                                X             Y             Z
Electronic contribution:      1.58344      -2.45679      -5.35472
Nuclear contribution   :     -2.09607       3.44215       6.87744
                        -----------------------------------------
Total Dipole Moment    :     -0.51263       0.98535       1.52272
                        -----------------------------------------
Magnitude (a.u.)       :      1.88478
Magnitude (Debye)      :      4.79072

Rotational constants in cm-1:     0.324698     0.133739     0.103466
Rotational constants in MHz :  9734.203431  4009.406827  3101.846422

                             ****ORCA TERMINATED NORMALLY****
TOTAL RUN TIME: 0 days 0 hours 0 minutes 11 seconds 625 msec
