                         Program Version 5.0.0 -  RELEASE  -
|  1> !M062X D3Zero RIJCOSX def2-SVP def2/J TightSCF
|  2> *xyz 1 1
|  3> C          2.23447       -2.98975       -2.39762
|  4> N          2.75680       -2.94555       -3.76503
|  5> C          1.98721       -2.59045       -4.81898
|  6> N          0.74322       -3.01749       -4.91352
|  7> N          2.49964       -1.84860       -5.80324
|  8> H          3.30978       -1.29282       -5.55895
|  9> H          1.80103       -1.30430       -6.28913
| 10> H          3.71612       -2.62880       -3.82953
| 11> H          0.39583       -3.62775       -4.18502
| 12> H          0.03920       -2.45438       -5.37137
| 13> C          2.19120       -1.61950       -1.71549
| 14> H          2.87278       -3.66637       -1.82801
| 15> H          1.24619       -3.44744       -2.40784
| 16> H          1.56387       -0.96046       -2.27853
| 17> H          3.18033       -1.21449       -1.66568
| 18> H          1.79916       -1.72608       -0.72562
| 19> *
| 20>
| 21> %MaxCore 64000
| 22>
| 23> %pal nprocs 4
| 24> end
| 25>
| 26> %scf
| 27>   MaxIter 150
| 28> end
| 29>
| 30>
| 31>                          ****END OF INPUT****

CARTESIAN COORDINATES (ANGSTROEM)
---------------------------------
  C      2.234470   -2.989750   -2.397620
  N      2.756800   -2.945550   -3.765030
  C      1.987210   -2.590450   -4.818980
  N      0.743220   -3.017490   -4.913520
  N      2.499640   -1.848600   -5.803240
  H      3.309780   -1.292820   -5.558950
  H      1.801030   -1.304300   -6.289130
  H      3.716120   -2.628800   -3.829530
  H      0.395830   -3.627750   -4.185020
  H      0.039200   -2.454380   -5.371370
  C      2.191200   -1.619500   -1.715490
  H      2.872780   -3.666370   -1.828010
  H      1.246190   -3.447440   -2.407840
  H      1.563870   -0.960460   -2.278530
  H      3.180330   -1.214490   -1.665680
  H      1.799160   -1.726080   -0.725620

 Total Charge           Charge          ....    1
 Multiplicity           Mult            ....    1
 Number of Electrons    NEL             ....   48
 Basis Dimension        Dim             ....  134

ORBITAL ENERGIES
----------------

  NO   OCC          E(Eh)            E(eV)
   0   2.0000     -14.991969      -407.9522
   1   2.0000     -14.987151      -407.8211
   2   2.0000     -14.983073      -407.7102
   3   2.0000     -10.895355      -296.4777
   4   2.0000     -10.760810      -292.8165
   5   2.0000     -10.692947      -290.9699
   6   2.0000      -1.324166       -36.0324
   7   2.0000      -1.201354       -32.6905
   8   2.0000      -1.195674       -32.5359
   9   2.0000      -1.016760       -27.6675
  10   2.0000      -0.923903       -25.1407
  11   2.0000      -0.884697       -24.0738
  12   2.0000      -0.863288       -23.4913
  13   2.0000      -0.815631       -22.1944
  14   2.0000      -0.774873       -21.0854
  15   2.0000      -0.755397       -20.5554
  16   2.0000      -0.721081       -19.6216
  17   2.0000      -0.693474       -18.8704
  18   2.0000      -0.670951       -18.2575
  19   2.0000      -0.635541       -17.2939
  20   2.0000      -0.599020       -16.3002
  21   2.0000      -0.579196       -15.7607
  22   2.0000      -0.552277       -15.0282
  23   2.0000      -0.510869       -13.9015
  24   0.0000      -0.147848        -4.0231
  25   0.0000      -0.104925        -2.8551
  26   0.0000      -0.071752        -1.9525
  27   0.0000      -0.057032        -1.5519
  28   0.0000      -0.038190        -1.0392

MULLIKEN ATOMIC CHARGES
-----------------------
   0 C :   -0.034618
   1 N :   -0.181543
   2 C :    0.086276
   3 N :   -0.067590
   4 N :   -0.048568
   5 H :    0.179264
   6 H :    0.180849
   7 H :    0.174808
   8 H :    0.187338
   9 H :    0.192615
  10 C :   -0.046243
  11 H :    0.103221
  12 H :    0.068783
  13 H :    0.046205
  14 H :    0.066367
  15 H :    0.092835
Sum of atomic charges:    1.0000000

LOEWDIN ATOMIC CHARGES
----------------------
   0 C :    0.040355
   1 N :    0.000224
   2 C :    0.159649
   3 N :    0.053821
   4 N :    0.038610
   5 H :    0.110570
   6 H :    0.112832
   7 H :    0.104392
   8 H :    0.113164
   9 H :    0.117870
  10 C :   -0.052455
  11 H :    0.051913
  12 H :    0.031866
  13 H :    0.027012
  14 H :    0.036345
  15 H :    0.053832

  Mayer bond orders larger than 0.100000
B(  0-C ,  1-N ) :   0.9268 B(  0-C , 10-C ) :   1.0794 B(  0-C , 11-H ) :   0.9492
B(  0-C , 12-H ) :   0.9574 B(  1-N ,  2-C ) :   1.3466 B(  1-N ,  7-H ) :   0.9051
B(  2-C ,  3-N ) :   1.4170 B(  2-C ,  4-N ) :   1.3848 B(  3-N ,  8-H ) :   0.9176
B(  3-N ,  9-H ) :   0.9192 B(  4-N ,  5-H ) :   0.9212 B(  4-N ,  6-H ) :   0.9223
B( 10-C , 13-H ) :   0.9685 B( 10-C , 14-H ) :   0.9701 B( 10-C , 15-H ) :   0.9618

Dispersion correction           -0.000319792
FINAL SINGLE POINT ENERGY      -284.032923403516

DIPOLE MOMENT
-------------
                                X             Y             Z
Electronic contribution:      0.15431      -1.62322      -5.22525
Nuclear contribution   :     -0.59121       2.30298       4.63196
                        -----------------------------------------
Total Dipole Moment    :     -0.43690       0.67976      -0.59330
                        -----------------------------------------
Magnitude (a.u.)       :      1.00248
Magnitude (Debye)      :      2.54809

Rotational constants in cm-1:     0.205874     0.074757     0.066901
Rotational constants in MHz :  6171.937773  2241.151057  2005.629823

                             ****ORCA TERMINATED NORMALLY****
TOTAL RUN TIME: 0 days 0 hours 0 minutes 18 seconds 188 msec
