                         Program Version 5.0.0 -  RELEASE  -
|  1> !M062X D3Zero RIJCOSX def2-SVP def2/J TightSCF
|  2> *xyz 0 1
|  3> C         -1.10433        0.25137       -2.86006
|  4> C         -0.71189        0.84252       -4.21834
|  5> H          0.15463        1.49980       -4.13091
|  6> H         -1.53813        1.45922       -4.58267
|  7> C         -0.39762       -0.20587       -5.28802
|  8> F          0.61717       -0.00535       -5.99827
|  9> O         -1.13317       -1.22138       -5.34147
| 10> H         -1.95489       -0.38644       -2.98099
| 11> H         -1.34603        1.04362       -2.18269
| 12> H         -0.28606       -0.31581       -2.46809
| 13> *
| 14>
| 15> %MaxCore 64000
| 16>
| 17> %pal nprocs 4
| 18> end
| 19>
| 20> %scf
| 21>   MaxIter 150
| 22> end
| 23>
| 24>
| 25>                          ****END OF INPUT****

CARTESIAN COORDINATES (ANGSTROEM)
---------------------------------
  C     -1.104330    0.251370   -2.860060
  C     -0.711890    0.842520   -4.218340
  H      0.154630    1.499800   -4.130910
  H     -1.538130    1.459220   -4.582670
  C     -0.397620   -0.205870   -5.288020
  F      0.617170   -0.005350   -5.998270
  O     -1.133170   -1.221380   -5.341470
  H     -1.954890   -0.386440   -2.980990
  H     -1.346030    1.043620   -2.182690
  H     -0.286060   -0.315810   -2.468090

 Total Charge           Charge          ....    0
 Multiplicity           Mult            ....    1
 Number of Electrons    NEL             ....   40
 Basis Dimension        Dim             ....   95

ORBITAL ENERGIES
----------------

  NO   OCC          E(Eh)            E(eV)
   0   2.0000     -25.313564      -688.8171
   1   2.0000     -19.635982      -534.3222
   2   2.0000     -10.728025      -291.9244
   3   2.0000     -10.579699      -287.8883
   4   2.0000     -10.553652      -287.1795
   5   2.0000      -1.436424       -39.0871
   6   2.0000      -1.135932       -30.9103
   7   2.0000      -0.887378       -24.1468
   8   2.0000      -0.776578       -21.1318
   9   2.0000      -0.720678       -19.6107
  10   2.0000      -0.636901       -17.3309
  11   2.0000      -0.622459       -16.9380
  12   2.0000      -0.584612       -15.9081
  13   2.0000      -0.534456       -14.5433
  14   2.0000      -0.504447       -13.7267
  15   2.0000      -0.459934       -12.5155
  16   2.0000      -0.442356       -12.0371
  17   2.0000      -0.437062       -11.8931
  18   2.0000      -0.408817       -11.1245
  19   2.0000      -0.364083        -9.9072
  20   0.0000       0.025198         0.6857
  21   0.0000       0.097513         2.6535
  22   0.0000       0.143655         3.9090
  23   0.0000       0.151134         4.1126
  24   0.0000       0.167994         4.5713

MULLIKEN ATOMIC CHARGES
-----------------------
   0 C :   -0.043673
   1 C :   -0.158737
   2 H :    0.053085
   3 H :    0.083714
   4 C :    0.301133
   5 F :   -0.104742
   6 O :   -0.287389
   7 H :    0.065732
   8 H :    0.043843
   9 H :    0.047034
Sum of atomic charges:   -0.0000000

LOEWDIN ATOMIC CHARGES
----------------------
   0 C :   -0.042524
   1 C :   -0.082931
   2 H :    0.032381
   3 H :    0.053607
   4 C :    0.123352
   5 F :    0.030006
   6 O :   -0.207228
   7 H :    0.034634
   8 H :    0.029750
   9 H :    0.028951

  Mayer bond orders larger than 0.100000
B(  0-C ,  1-C ) :   1.0861 B(  0-C ,  7-H ) :   0.9688 B(  0-C ,  8-H ) :   0.9691
B(  0-C ,  9-H ) :   0.9805 B(  1-C ,  2-H ) :   0.9433 B(  1-C ,  3-H ) :   0.9288
B(  1-C ,  4-C ) :   0.9938 B(  4-C ,  5-F ) :   1.1665 B(  4-C ,  6-O ) :   2.0605

Dispersion correction           -0.000089542
FINAL SINGLE POINT ENERGY      -292.046190911013

DIPOLE MOMENT
-------------
                                X             Y             Z
Electronic contribution:      3.58110      -2.39742      -7.73946
Nuclear contribution   :     -3.36368       3.36392       8.24820
                        -----------------------------------------
Total Dipole Moment    :      0.21742       0.96650       0.50873
                        -----------------------------------------
Magnitude (a.u.)       :      1.11364
Magnitude (Debye)      :      2.83065

Rotational constants in cm-1:     0.315013     0.126712     0.098430
Rotational constants in MHz :  9443.861322  3798.734540  2950.846388

                             ****ORCA TERMINATED NORMALLY****
TOTAL RUN TIME: 0 days 0 hours 0 minutes 11 seconds 12 msec
