                         Program Version 5.0.0 -  RELEASE  -
|  1> !M062X D3Zero RIJCOSX def2-SVP def2/J TightSCF
|  2> *xyz 0 1
|  3> C          2.23447       -2.98975       -2.39762
|  4> C          2.75680       -2.94555       -3.76503
|  5> C          1.98721       -2.59045       -4.81898
|  6> N          0.74322       -3.01749       -4.91352
|  7> N          2.49964       -1.84860       -5.80324
|  8> H          3.30978       -1.29282       -5.55895
|  9> H          1.80103       -1.30430       -6.28913
| 10> H          3.71612       -2.62880       -3.82953
| 11> H          0.39583       -3.62775       -4.18502
| 12> H          0.03920       -2.45438       -5.37137
| 13> C          2.19120       -1.61950       -1.71549
| 14> H          2.87278       -3.66637       -1.82801
| 15> H          1.24619       -3.44744       -2.40784
| 16> H          1.56387       -0.96046       -2.27853
| 17> H          3.18033       -1.21449       -1.66568
| 18> H          1.79916       -1.72608       -0.72562
| 19> *
| 20>
| 21> %MaxCore 64000
| 22>
| 23> %pal nprocs 4
| 24> end
| 25>
| 26> %scf
| 27>   MaxIter 150
| 28> end
| 29>
| 30>
| 31>                          ****END OF INPUT****

CARTESIAN COORDINATES (ANGSTROEM)
---------------------------------
  C      2.234470   -2.989750   -2.397620
  C      2.756800   -2.945550   -3.765030
  C      1.987210   -2.590450   -4.818980
  N      0.743220   -3.017490   -4.913520
  N      2.499640   -1.848600   -5.803240
  H      3.309780   -1.292820   -5.558950
  H      1.801030   -1.304300   -6.289130
  H      3.716120   -2.628800   -3.829530
  H      0.395830   -3.627750   -4.185020
  H      0.039200   -2.454380   -5.371370
  C      2.191200   -1.619500   -1.715490
  H      2.872780   -3.666370   -1.828010
  H      1.246190   -3.447440   -2.407840
  H      1.563870   -0.960460   -2.278530
  H      3.180330   -1.214490   -1.665680
  H      1.799160   -1.726080   -0.725620

 Total Charge           Charge          ....    0
 Multiplicity           Mult            ....    1
 Number of Electrons    NEL             ....   48
 Basis Dimension        Dim             ....  134

ORBITAL ENERGIES
----------------

  NO   OCC          E(Eh)            E(eV)
   0   2.0000     -14.760654      -401.6578
   1   2.0000     -14.754701      -401.4958
   2   2.0000     -10.594683      -288.2960
   3   2.0000     -10.523523      -286.3596
   4   2.0000     -10.517430      -286.1938
   5   2.0000     -10.468345      -284.8582
   6   2.0000      -1.064558       -28.9681
   7   2.0000      -0.964937       -26.2573
   8   2.0000      -0.858494       -23.3608
   9   2.0000      -0.770931       -20.9781
  10   2.0000      -0.692838       -18.8531
  11   2.0000      -0.650788       -17.7088
  12   2.0000      -0.611936       -16.6516
  13   2.0000      -0.573800       -15.6139
  14   2.0000      -0.532589       -14.4925
  15   2.0000      -0.516508       -14.0549
  16   2.0000      -0.475969       -12.9518
  17   2.0000      -0.458544       -12.4776
  18   2.0000      -0.434022       -11.8103
  19   2.0000      -0.417889       -11.3713
  20   2.0000      -0.384160       -10.4535
  21   2.0000      -0.377195       -10.2640
  22   2.0000      -0.334065        -9.0904
  23   2.0000      -0.202929        -5.5220
  24   0.0000       0.072825         1.9817
  25   0.0000       0.106398         2.8952
  26   0.0000       0.123260         3.3541
  27   0.0000       0.126939         3.4542
  28   0.0000       0.143590         3.9073

MULLIKEN ATOMIC CHARGES
-----------------------
   0 C :   -0.066135
   1 C :   -0.120068
   2 C :   -0.080192
   3 N :   -0.113320
   4 N :   -0.101751
   5 H :    0.132406
   6 H :    0.111412
   7 H :   -0.079122
   8 H :    0.136201
   9 H :    0.119400
  10 C :    0.004291
  11 H :    0.020760
  12 H :   -0.010376
  13 H :    0.008570
  14 H :    0.017573
  15 H :    0.020351
Sum of atomic charges:    0.0000000

LOEWDIN ATOMIC CHARGES
----------------------
   0 C :   -0.045996
   1 C :   -0.229845
   2 C :    0.024354
   3 N :   -0.020581
   4 N :   -0.032769
   5 H :    0.081513
   6 H :    0.066508
   7 H :   -0.012417
   8 H :    0.084018
   9 H :    0.067937
  10 C :   -0.060029
  11 H :    0.021167
  12 H :    0.007029
  13 H :    0.013565
  14 H :    0.019047
  15 H :    0.016499

  Mayer bond orders larger than 0.100000
B(  0-C ,  1-C ) :   1.0930 B(  0-C , 10-C ) :   1.0720 B(  0-C , 11-H ) :   0.9365
B(  0-C , 12-H ) :   0.9504 B(  1-C ,  2-C ) :   1.6691 B(  1-C ,  7-H ) :   0.9267
B(  2-C ,  3-N ) :   1.2652 B(  2-C ,  4-N ) :   1.2082 B(  3-N ,  8-H ) :   0.9413
B(  3-N ,  9-H ) :   0.9391 B(  4-N ,  5-H ) :   0.9404 B(  4-N ,  6-H ) :   0.9499
B( 10-C , 13-H ) :   0.9738 B( 10-C , 14-H ) :   0.9715 B( 10-C , 15-H ) :   0.9656

Dispersion correction           -0.000318004
FINAL SINGLE POINT ENERGY      -267.566396055306

DIPOLE MOMENT
-------------
                                X             Y             Z
Electronic contribution:     -0.40327      -1.33576      -5.08997
Nuclear contribution   :     -0.44240       2.20379       4.66256
                        -----------------------------------------
Total Dipole Moment    :     -0.84567       0.86802      -0.42740
                        -----------------------------------------
Magnitude (a.u.)       :      1.28503
Magnitude (Debye)      :      3.26628

Rotational constants in cm-1:     0.209447     0.075194     0.066975
Rotational constants in MHz :  6279.068019  2254.272519  2007.845458

                             ****ORCA TERMINATED NORMALLY****
TOTAL RUN TIME: 0 days 0 hours 0 minutes 18 seconds 185 msec
