                         Program Version 5.0.0 -  RELEASE  -
|  1> !M062X D3Zero RIJCOSX def2-SVP def2/J TightSCF
|  2> *xyz 0 1
|  3> C         -1.10433        0.25137       -2.86006
|  4> C         -0.71189        0.84252       -4.21834
|  5> H          0.15463        1.49980       -4.13091
|  6> H         -1.53813        1.45922       -4.58267
|  7> C         -0.39762       -0.20587       -5.28802
|  8> O          0.61717       -0.00535       -5.99827
|  9> F         -1.13317       -1.22138       -5.34147
| 10> H         -1.95489       -0.38644       -2.98099
| 11> H         -1.34603        1.04362       -2.18269
| 12> H         -0.28606       -0.31581       -2.46809
| 13> *
| 14>
| 15> %MaxCore 64000
| 16>
| 17> %pal nprocs 4
| 18> end
| 19>
| 20> %scf
| 21>   MaxIter 150
| 22> end
| 23>
| 24>
| 25>                          ****END OF INPUT****

CARTESIAN COORDINATES (ANGSTROEM)
---------------------------------
  C     -1.104330    0.251370   -2.860060
  C     -0.711890    0.842520   -4.218340
  H      0.154630    1.499800   -4.130910
  H     -1.538130    1.459220   -4.582670
  C     -0.397620   -0.205870   -5.288020
  O      0.617170   -0.005350   -5.998270
  F     -1.133170   -1.221380   -5.341470
  H     -1.954890   -0.386440   -2.980990
  H     -1.346030    1.043620   -2.182690
  H     -0.286060   -0.315810   -2.468090

 Total Charge           Charge          ....    0
 Multiplicity           Mult            ....    1
 Number of Electrons    NEL             ....   40
 Basis Dimension        Dim             ....   95

ORBITAL ENERGIES
----------------

  NO   OCC          E(Eh)            E(eV)
   0   2.0000     -25.314927      -688.8542
   1   2.0000     -19.634122      -534.2716
   2   2.0000     -10.726887      -291.8934
   3   2.0000     -10.578713      -287.8614
   4   2.0000     -10.559174      -287.3297
   5   2.0000      -1.437114       -39.1059
   6   2.0000      -1.134490       -30.8710
   7   2.0000      -0.891666       -24.2635
   8   2.0000      -0.771151       -20.9841
   9   2.0000      -0.727900       -19.8072
  10   2.0000      -0.638898       -17.3853
  11   2.0000      -0.630698       -17.1622
  12   2.0000      -0.573486       -15.6054
  13   2.0000      -0.535905       -14.5827
  14   2.0000      -0.503989       -13.7142
  15   2.0000      -0.467406       -12.7188
  16   2.0000      -0.450527       -12.2595
  17   2.0000      -0.440379       -11.9833
  18   2.0000      -0.408781       -11.1235
  19   2.0000      -0.358737        -9.7617
  20   0.0000       0.028158         0.7662
  21   0.0000       0.092202         2.5089
  22   0.0000       0.141799         3.8586
  23   0.0000       0.151864         4.1324
  24   0.0000       0.167881         4.5683

MULLIKEN ATOMIC CHARGES
-----------------------
   0 C :   -0.069325
   1 C :   -0.150520
   2 H :    0.078051
   3 H :    0.076548
   4 C :    0.299383
   5 O :   -0.282725
   6 F :   -0.106678
   7 H :    0.050888
   8 H :    0.050935
   9 H :    0.053443
Sum of atomic charges:   -0.0000000

LOEWDIN ATOMIC CHARGES
----------------------
   0 C :   -0.054849
   1 C :   -0.078044
   2 H :    0.048571
   3 H :    0.047924
   4 C :    0.121565
   5 O :   -0.203800
   6 F :    0.029177
   7 H :    0.027195
   8 H :    0.032805
   9 H :    0.029456

  Mayer bond orders larger than 0.100000
B(  0-C ,  1-C ) :   1.0629 B(  0-C ,  7-H ) :   0.9728 B(  0-C ,  8-H ) :   0.9686
B(  0-C ,  9-H ) :   0.9793 B(  1-C ,  2-H ) :   0.9522 B(  1-C ,  3-H ) :   0.9324
B(  1-C ,  4-C ) :   1.0023 B(  4-C ,  5-O ) :   2.0736 B(  4-C ,  6-F ) :   1.1580

Dispersion correction           -0.000094616
FINAL SINGLE POINT ENERGY      -292.044923799728

DIPOLE MOMENT
-------------
                                X             Y             Z
Electronic contribution:      0.71382      -4.38212      -6.64381
Nuclear contribution   :     -1.45527       4.68977       7.53208
                        -----------------------------------------
Total Dipole Moment    :     -0.74144       0.30765       0.88827
                        -----------------------------------------
Magnitude (a.u.)       :      1.19725
Magnitude (Debye)      :      3.04317

Rotational constants in cm-1:     0.298240     0.132464     0.099915
Rotational constants in MHz :  8940.998095  3971.171647  2995.369122

                             ****ORCA TERMINATED NORMALLY****
TOTAL RUN TIME: 0 days 0 hours 0 minutes 12 seconds 509 msec
