                         Program Version 5.0.0 -  RELEASE  -
|  1> !M062X D3Zero RIJCOSX def2-SVP def2/J TightSCF
|  2> *xyz 0 1
|  3> C          2.23447       -2.98975       -2.39762
|  4> N          2.75680       -2.94555       -3.76503
|  5> C          1.98721       -2.59045       -4.81898
|  6> C          0.74322       -3.01749       -4.91352
|  7> N          2.49964       -1.84860       -5.80324
|  8> H          3.30978       -1.29282       -5.55895
|  9> H          1.80103       -1.30430       -6.28913
| 10> H          3.71612       -2.62880       -3.82953
| 11> H          0.39583       -3.62775       -4.18502
| 12> H          0.03920       -2.45438       -5.37137
| 13> C          2.19120       -1.61950       -1.71549
| 14> H          2.87278       -3.66637       -1.82801
| 15> H          1.24619       -3.44744       -2.40784
| 16> H          1.56387       -0.96046       -2.27853
| 17> H          3.18033       -1.21449       -1.66568
| 18> H          1.79916       -1.72608       -0.72562
| 19> *
| 20>
| 21> %MaxCore 64000
| 22>
| 23> %pal nprocs 4
| 24> end
| 25>
| 26> %scf
| 27>   MaxIter 150
| 28> end
| 29>
| 30>
| 31>                          ****END OF INPUT****

CARTESIAN COORDINATES (ANGSTROEM)
---------------------------------
  C      2.234470   -2.989750   -2.397620
  N      2.756800   -2.945550   -3.765030
  C      1.987210   -2.590450   -4.818980
  C      0.743220   -3.017490   -4.913520
  N      2.499640   -1.848600   -5.803240
  H      3.309780   -1.292820   -5.558950
  H      1.801030   -1.304300   -6.289130
  H      3.716120   -2.628800   -3.829530
  H      0.395830   -3.627750   -4.185020
  H      0.039200   -2.454380   -5.371370
  C      2.191200   -1.619500   -1.715490
  H      2.872780   -3.666370   -1.828010
  H      1.246190   -3.447440   -2.407840
  H      1.563870   -0.960460   -2.278530
  H      3.180330   -1.214490   -1.665680
  H      1.799160   -1.726080   -0.725620

 Total Charge           Charge          ....    0
 Multiplicity           Mult            ....    1
 Number of Electrons    NEL             ....   48
 Basis Dimension        Dim             ....  134

ORBITAL ENERGIES
----------------

  NO   OCC          E(Eh)            E(eV)
   0   2.0000     -14.755009      -401.5042
   1   2.0000     -14.753519      -401.4637
   2   2.0000     -10.591420      -288.2072
   3   2.0000     -10.580966      -287.9227
   4   2.0000     -10.539289      -286.7886
   5   2.0000     -10.464207      -284.7456
   6   2.0000      -1.061846       -28.8943
   7   2.0000      -0.976003       -26.5584
   8   2.0000      -0.840105       -22.8604
   9   2.0000      -0.794593       -21.6220
  10   2.0000      -0.716840       -19.5062
  11   2.0000      -0.632418       -17.2090
  12   2.0000      -0.612491       -16.6667
  13   2.0000      -0.579253       -15.7623
  14   2.0000      -0.527526       -14.3547
  15   2.0000      -0.512178       -13.9371
  16   2.0000      -0.480967       -13.0878
  17   2.0000      -0.457568       -12.4511
  18   2.0000      -0.455967       -12.4075
  19   2.0000      -0.430686       -11.7196
  20   2.0000      -0.419599       -11.4179
  21   2.0000      -0.407856       -11.0983
  22   2.0000      -0.309447        -8.4205
  23   2.0000      -0.221287        -6.0215
  24   0.0000       0.079261         2.1568
  25   0.0000       0.107027         2.9123
  26   0.0000       0.119757         3.2587
  27   0.0000       0.131447         3.5768
  28   0.0000       0.150671         4.1000

MULLIKEN ATOMIC CHARGES
-----------------------
   0 C :    0.026057
   1 N :   -0.230968
   2 C :   -0.007548
   3 C :   -0.111905
   4 N :   -0.112600
   5 H :    0.103351
   6 H :    0.132704
   7 H :    0.109888
   8 H :   -0.029552
   9 H :   -0.028502
  10 C :   -0.046625
  11 H :    0.036925
  12 H :    0.056523
  13 H :    0.041147
  14 H :    0.023947
  15 H :    0.037158
Sum of atomic charges:   -0.0000000

LOEWDIN ATOMIC CHARGES
----------------------
   0 C :    0.038784
   1 N :   -0.056081
   2 C :    0.033959
   3 C :   -0.231291
   4 N :   -0.037344
   5 H :    0.059921
   6 H :    0.084223
   7 H :    0.062355
   8 H :   -0.004345
   9 H :   -0.004083
  10 C :   -0.069865
  11 H :    0.021395
  12 H :    0.031020
  13 H :    0.025770
  14 H :    0.017900
  15 H :    0.027682

  Mayer bond orders larger than 0.100000
B(  0-C ,  1-N ) :   0.9967 B(  0-C , 10-C ) :   1.0876 B(  0-C , 11-H ) :   0.9604
B(  0-C , 12-H ) :   0.9549 B(  1-N ,  2-C ) :   1.1413 B(  1-N ,  7-H ) :   0.9331
B(  2-C ,  3-C ) :   1.7745 B(  2-C ,  4-N ) :   1.2074 B(  3-C ,  8-H ) :   0.9447
B(  3-C ,  9-H ) :   0.9494 B(  4-N ,  5-H ) :   0.9434 B(  4-N ,  6-H ) :   0.9420
B( 10-C , 13-H ) :   0.9687 B( 10-C , 14-H ) :   0.9718 B( 10-C , 15-H ) :   0.9660

Dispersion correction           -0.000316330
FINAL SINGLE POINT ENERGY      -267.562414215307

DIPOLE MOMENT
-------------
                                X             Y             Z
Electronic contribution:      1.53846      -1.19333      -3.87474
Nuclear contribution   :     -0.86957       2.18853       4.41892
                        -----------------------------------------
Total Dipole Moment    :      0.66889       0.99520       0.54418
                        -----------------------------------------
Magnitude (a.u.)       :      1.31680
Magnitude (Debye)      :      3.34705

Rotational constants in cm-1:     0.214718     0.075736     0.068547
Rotational constants in MHz :  6437.075121  2270.519635  2054.974198

                             ****ORCA TERMINATED NORMALLY****
TOTAL RUN TIME: 0 days 0 hours 0 minutes 18 seconds 164 msec
