                         Program Version 5.0.0 -  RELEASE  -
|  1> !M062X D3Zero RIJCOSX def2-SVP def2/J TightSCF
|  2> *xyz 0 1
|  3> C          2.23447       -2.98975       -2.39762
|  4> N          2.75680       -2.94555       -3.76503
|  5> C          1.98721       -2.59045       -4.81898
|  6> N          0.74322       -3.01749       -4.91352
|  7> C          2.49964       -1.84860       -5.80324
|  8> H          3.30978       -1.29282       -5.55895
|  9> H          1.80103       -1.30430       -6.28913
| 10> H          3.71612       -2.62880       -3.82953
| 11> H          0.39583       -3.62775       -4.18502
| 12> H          0.03920       -2.45438       -5.37137
| 13> C          2.19120       -1.61950       -1.71549
| 14> H          2.87278       -3.66637       -1.82801
| 15> H          1.24619       -3.44744       -2.40784
| 16> H          1.56387       -0.96046       -2.27853
| 17> H          3.18033       -1.21449       -1.66568
| 18> H          1.79916       -1.72608       -0.72562
| 19> *
| 20>
| 21> %MaxCore 64000
| 22>
| 23> %pal nprocs 4
| 24> end
| 25>
| 26> %scf
| 27>   MaxIter 150
| 28> end
| 29>
| 30>
| 31>                          ****END OF INPUT****

CARTESIAN COORDINATES (ANGSTROEM)
---------------------------------
  C      2.234470   -2.989750   -2.397620
  N      2.756800   -2.945550   -3.765030
  C      1.987210   -2.590450   -4.818980
  N      0.743220   -3.017490   -4.913520
  C      2.499640   -1.848600   -5.803240
  H      3.309780   -1.292820   -5.558950
  H      1.801030   -1.304300   -6.289130
  H      3.716120   -2.628800   -3.829530
  H      0.395830   -3.627750   -4.185020
  H      0.039200   -2.454380   -5.371370
  C      2.191200   -1.619500   -1.715490
  H      2.872780   -3.666370   -1.828010
  H      1.246190   -3.447440   -2.407840
  H      1.563870   -0.960460   -2.278530
  H      3.180330   -1.214490   -1.665680
  H      1.799160   -1.726080   -0.725620

 Total Charge           Charge          ....    0
 Multiplicity           Mult            ....    1
 Number of Electrons    NEL             ....   48
 Basis Dimension        Dim             ....  134

ORBITAL ENERGIES
----------------

  NO   OCC          E(Eh)            E(eV)
   0   2.0000     -14.757146      -401.5623
   1   2.0000     -14.753596      -401.4658
   2   2.0000     -10.594780      -288.2986
   3   2.0000     -10.589978      -288.1680
   4   2.0000     -10.543230      -286.8959
   5   2.0000     -10.458792      -284.5982
   6   2.0000      -1.063721       -28.9453
   7   2.0000      -0.975647       -26.5487
   8   2.0000      -0.852795       -23.2057
   9   2.0000      -0.787700       -21.4344
  10   2.0000      -0.705872       -19.2078
  11   2.0000      -0.672706       -18.3053
  12   2.0000      -0.607859       -16.5407
  13   2.0000      -0.557761       -15.1775
  14   2.0000      -0.556104       -15.1324
  15   2.0000      -0.503019       -13.6878
  16   2.0000      -0.493178       -13.4201
  17   2.0000      -0.464799       -12.6478
  18   2.0000      -0.436854       -11.8874
  19   2.0000      -0.426556       -11.6072
  20   2.0000      -0.426151       -11.5962
  21   2.0000      -0.415008       -11.2929
  22   2.0000      -0.311664        -8.4808
  23   2.0000      -0.215744        -5.8707
  24   0.0000       0.078442         2.1345
  25   0.0000       0.103122         2.8061
  26   0.0000       0.111124         3.0238
  27   0.0000       0.129223         3.5163
  28   0.0000       0.141752         3.8573

MULLIKEN ATOMIC CHARGES
-----------------------
   0 C :   -0.002375
   1 N :   -0.213617
   2 C :   -0.042955
   3 N :   -0.133566
   4 C :   -0.058442
   5 H :   -0.047391
   6 H :   -0.042688
   7 H :    0.131965
   8 H :    0.118117
   9 H :    0.144223
  10 C :   -0.036185
  11 H :    0.042779
  12 H :    0.026868
  13 H :    0.042186
  14 H :    0.035495
  15 H :    0.035586
Sum of atomic charges:   -0.0000000

LOEWDIN ATOMIC CHARGES
----------------------
   0 C :    0.026962
   1 N :   -0.057264
   2 C :    0.039258
   3 N :   -0.020843
   4 C :   -0.254665
   5 H :   -0.010727
   6 H :   -0.006323
   7 H :    0.081678
   8 H :    0.067074
   9 H :    0.086775
  10 C :   -0.068606
  11 H :    0.023721
  12 H :    0.016115
  13 H :    0.026627
  14 H :    0.023784
  15 H :    0.026435

  Mayer bond orders larger than 0.100000
B(  0-C ,  1-N ) :   1.0143 B(  0-C , 10-C ) :   1.0698 B(  0-C , 11-H ) :   0.9594
B(  0-C , 12-H ) :   0.9582 B(  1-N ,  2-C ) :   1.1634 B(  1-N ,  7-H ) :   0.9267
B(  2-C ,  3-N ) :   1.2095 B(  2-C ,  4-C ) :   1.7743 B(  3-N ,  8-H ) :   0.9507
B(  3-N ,  9-H ) :   0.9425 B(  4-C ,  5-H ) :   0.9427 B(  4-C ,  6-H ) :   0.9478
B( 10-C , 13-H ) :   0.9702 B( 10-C , 14-H ) :   0.9720 B( 10-C , 15-H ) :   0.9654

Dispersion correction           -0.000314679
FINAL SINGLE POINT ENERGY      -267.557290351684

DIPOLE MOMENT
-------------
                                X             Y             Z
Electronic contribution:     -0.16164      -2.40621      -2.97498
Nuclear contribution   :     -0.49695       2.43650       4.23017
                        -----------------------------------------
Total Dipole Moment    :     -0.65859       0.03029       1.25519
                        -----------------------------------------
Magnitude (a.u.)       :      1.41780
Magnitude (Debye)      :      3.60377

Rotational constants in cm-1:     0.211102     0.077011     0.069221
Rotational constants in MHz :  6328.667765  2308.731604  2075.192956

                             ****ORCA TERMINATED NORMALLY****
TOTAL RUN TIME: 0 days 0 hours 0 minutes 18 seconds 728 msec
