                         Program Version 5.0.0 -  RELEASE  -
|  1> !M062X D3Zero RIJCOSX def2-TZVP def2/J TightSCF xyzfile
|  2>
|  3> *xyzfile 0 1 D1.xyz
|  4>
|  5> %MaxCore 64000
|  6>
|  7> %pal nprocs 18
|  8> end
|  9>
| 10> %scf
| 11>   MaxIter 150
| 12> end
| 13>
| 14>
| 15>                          ****END OF INPUT****

CARTESIAN COORDINATES (ANGSTROEM)
---------------------------------
  C      2.234473   -2.989754   -2.397622
  C      2.756799   -2.945553   -3.765029
  C     -1.104325    0.251374   -2.860056
  C     -0.711893    0.842517   -4.218344
  H      0.154626    1.499800   -4.130909
  H     -1.538134    1.459222   -4.582671
  C     -0.397624   -0.205875   -5.288018
  C      1.987208   -2.590451   -4.818975
  N      0.743221   -3.017493   -4.913524
  N      2.499636   -1.848598   -5.803241
  H      3.309780   -1.292818   -5.558947
  H      1.801025   -1.304298   -6.289129
  H      3.716116   -2.628797   -3.829533
  H      0.395828   -3.627747   -4.185024
  H      0.039201   -2.454383   -5.371367
  F      0.617165   -0.005348   -5.998273
  O     -1.133173   -1.221380   -5.341465
  C      2.191199   -1.619503   -1.715492
  H      2.872783   -3.666368   -1.828014
  H      1.246188   -3.447444   -2.407842
  C      1.298729   -0.554314   -2.359773
  H      1.872917   -1.787955   -0.681310
  H      3.216809   -1.238432   -1.654428
  C     -0.196255   -0.863365   -2.325763
  H      1.612531   -0.371346   -3.393065
  H      1.480944    0.388638   -1.834444
  H     -0.404105   -1.761825   -2.909448
  H     -0.490439   -1.087880   -1.294131
  H     -1.143842    1.066711   -2.129680
  H     -2.114401   -0.156834   -2.930323

 Total Charge           Charge          ....    0
 Multiplicity           Mult            ....    1
 Number of Electrons    NEL             ....  102
 Basis Dimension        Dim             ....  505

ORBITAL ENERGIES
----------------

  NO   OCC          E(Eh)            E(eV)
   0   2.0000     -25.350890      -689.8328
   1   2.0000     -19.666473      -535.1519
   2   2.0000     -14.734816      -400.9547
   3   2.0000     -14.725918      -400.7126
   4   2.0000     -10.750696      -292.5413
   5   2.0000     -10.581280      -287.9313
   6   2.0000     -10.575499      -287.7740
   7   2.0000     -10.555235      -287.2225
   8   2.0000     -10.534383      -286.6551
   9   2.0000     -10.530453      -286.5482
  10   2.0000     -10.517759      -286.2028
  11   2.0000     -10.506947      -285.9086
  12   2.0000     -10.449939      -284.3573
  13   2.0000      -1.503260       -40.9058
  14   2.0000      -1.194823       -32.5128
  15   2.0000      -1.069511       -29.1029
  16   2.0000      -0.969661       -26.3858
  17   2.0000      -0.932269       -25.3683
  18   2.0000      -0.890211       -24.2239
  19   2.0000      -0.852614       -23.2008
  20   2.0000      -0.808599       -22.0031
  21   2.0000      -0.782888       -21.3035
  22   2.0000      -0.744402       -20.2562
  23   2.0000      -0.701570       -19.0907
  24   2.0000      -0.684956       -18.6386
  25   2.0000      -0.669019       -18.2049
  26   2.0000      -0.661012       -17.9871
  27   2.0000      -0.634504       -17.2657
  28   2.0000      -0.625114       -17.0102
  29   2.0000      -0.596152       -16.2221
  30   2.0000      -0.568355       -15.4657
  31   2.0000      -0.555914       -15.1272
  32   2.0000      -0.547867       -14.9082
  33   2.0000      -0.528527       -14.3819
  34   2.0000      -0.517109       -14.0713
  35   2.0000      -0.508182       -13.8283
  36   2.0000      -0.491781       -13.3821
  37   2.0000      -0.479319       -13.0429
  38   2.0000      -0.462817       -12.5939
  39   2.0000      -0.455082       -12.3834
  40   2.0000      -0.443882       -12.0786
  41   2.0000      -0.436647       -11.8818
  42   2.0000      -0.422558       -11.4984
  43   2.0000      -0.409663       -11.1475
  44   2.0000      -0.401594       -10.9279
  45   2.0000      -0.393565       -10.7095
  46   2.0000      -0.379270       -10.3205
  47   2.0000      -0.370714       -10.0876
  48   2.0000      -0.364670        -9.9232
  49   2.0000      -0.324328        -8.8254
  50   2.0000      -0.201871        -5.4932
  51   0.0000      -0.015729        -0.4280
  52   0.0000       0.048872         1.3299
  53   0.0000       0.072378         1.9695
  54   0.0000       0.077387         2.1058
  55   0.0000       0.081160         2.2085

MULLIKEN ATOMIC CHARGES
-----------------------
   0 C :   -0.332326
   1 C :   -0.331152
   2 C :   -0.263085
   3 C :   -0.332409
   4 H :    0.182352
   5 H :    0.182014
   6 C :    0.393489
   7 C :    0.272701
   8 N :   -0.493662
   9 N :   -0.486740
  10 H :    0.248756
  11 H :    0.228328
  12 H :    0.100230
  13 H :    0.245424
  14 H :    0.267495
  15 F :   -0.127824
  16 O :   -0.360043
  17 C :   -0.249758
  18 H :    0.141251
  19 H :    0.118172
  20 C :   -0.259134
  21 H :    0.136158
  22 H :    0.138883
  23 C :   -0.312567
  24 H :    0.129748
  25 H :    0.149510
  26 H :    0.139671
  27 H :    0.153581
  28 H :    0.157031
  29 H :    0.163907
Sum of atomic charges:   -0.0000000

LOEWDIN ATOMIC CHARGES
----------------------
   0 C :   -0.297872
   1 C :   -0.285696
   2 C :   -0.257864
   3 C :   -0.234472
   4 H :    0.148899
   5 H :    0.162112
   6 C :   -0.484797
   7 C :   -0.485996
   8 N :    0.010791
   9 N :   -0.022507
  10 H :    0.173316
  11 H :    0.154676
  12 H :    0.116719
  13 H :    0.174468
  14 H :    0.150171
  15 F :    0.326024
  16 O :    0.073475
  17 C :   -0.263716
  18 H :    0.140616
  19 H :    0.129524
  20 C :   -0.271429
  21 H :    0.135097
  22 H :    0.137766
  23 C :   -0.272423
  24 H :    0.135163
  25 H :    0.138575
  26 H :    0.136018
  27 H :    0.142450
  28 H :    0.144103
  29 H :    0.146811

  Mayer bond orders larger than 0.100000
B(  0-C ,  1-C ) :   0.9561 B(  0-C , 17-C ) :   0.8908 B(  0-C , 18-H ) :   0.9972
B(  0-C , 19-H ) :   0.9917 B(  1-C ,  7-C ) :   1.6525 B(  1-C , 12-H ) :   1.0464
B(  2-C ,  3-C ) :   0.9030 B(  2-C , 23-C ) :   0.9224 B(  2-C , 28-H ) :   0.9786
B(  2-C , 29-H ) :   0.9795 B(  3-C ,  4-H ) :   0.9648 B(  3-C ,  5-H ) :   0.9504
B(  3-C ,  6-C ) :   0.9805 B(  6-C , 15-F ) :   1.0890 B(  6-C , 16-O ) :   1.9535
B(  7-C ,  8-N ) :   1.1403 B(  7-C ,  9-N ) :   1.0586 B(  8-N , 13-H ) :   0.9286
B(  8-N , 14-H ) :   0.8732 B(  9-N , 10-H ) :   0.9271 B(  9-N , 11-H ) :   0.9313
B( 17-C , 20-C ) :   0.9442 B( 17-C , 21-H ) :   0.9852 B( 17-C , 22-H ) :   0.9880
B( 20-C , 23-C ) :   0.8607 B( 20-C , 24-H ) :   0.9574 B( 20-C , 25-H ) :   0.9808
B( 23-C , 26-H ) :   0.9834 B( 23-C , 27-H ) :   0.9809

Dispersion correction           -0.001673400
FINAL SINGLE POINT ENERGY      -637.690327765785

DIPOLE MOMENT
-------------
                                X             Y             Z
Electronic contribution:     -3.09517       2.25616     -14.50539
Nuclear contribution   :      2.31842      -0.27661      14.74721
                        -----------------------------------------
Total Dipole Moment    :     -0.77674       1.97955       0.24182
                        -----------------------------------------
Magnitude (a.u.)       :      2.14019
Magnitude (Debye)      :      5.43994

Rotational constants in cm-1:     0.032691     0.023990     0.017099
Rotational constants in MHz :   980.050971   719.190545   512.606858

                             ****ORCA TERMINATED NORMALLY****
TOTAL RUN TIME: 0 days 0 hours 1 minutes 13 seconds 610 msec
