                         Program Version 5.0.0 -  RELEASE  -
|  1> !M062X D3Zero RIJCOSX def2-TZVP def2/J TightSCF xyzfile
|  2>
|  3> *xyzfile 0 1 D2.xyz
|  4>
|  5> %MaxCore 64000
|  6>
|  7> %pal nprocs 18
|  8> end
|  9>
| 10> %scf
| 11>   MaxIter 150
| 12> end
| 13>
| 14>
| 15>                          ****END OF INPUT****

CARTESIAN COORDINATES (ANGSTROEM)
---------------------------------
  C      2.234473   -2.989754   -2.397622
  N      2.756799   -2.945553   -3.765029
  C     -1.104325    0.251374   -2.860056
  C     -0.711893    0.842517   -4.218344
  H      0.154626    1.499800   -4.130909
  H     -1.538134    1.459222   -4.582671
  C     -0.397624   -0.205875   -5.288018
  C      1.987208   -2.590451   -4.818975
  C      0.743221   -3.017493   -4.913524
  N      2.499636   -1.848598   -5.803241
  H      3.309780   -1.292818   -5.558947
  H      1.801025   -1.304298   -6.289129
  H      3.716116   -2.628797   -3.829533
  H      0.395828   -3.627747   -4.185024
  H      0.039201   -2.454383   -5.371367
  F      0.617165   -0.005348   -5.998273
  O     -1.133173   -1.221380   -5.341465
  C      2.191199   -1.619503   -1.715492
  H      2.872783   -3.666368   -1.828014
  H      1.246188   -3.447444   -2.407842
  C      1.298729   -0.554314   -2.359773
  H      1.872917   -1.787955   -0.681310
  H      3.216809   -1.238432   -1.654428
  C     -0.196255   -0.863365   -2.325763
  H      1.612531   -0.371346   -3.393065
  H      1.480944    0.388638   -1.834444
  H     -0.404105   -1.761825   -2.909448
  H     -0.490439   -1.087880   -1.294131
  H     -1.143842    1.066711   -2.129680
  H     -2.114401   -0.156834   -2.930323

 Total Charge           Charge          ....    0
 Multiplicity           Mult            ....    1
 Number of Electrons    NEL             ....  102
 Basis Dimension        Dim             ....  505

ORBITAL ENERGIES
----------------

  NO   OCC          E(Eh)            E(eV)
   0   2.0000     -25.333801      -689.3678
   1   2.0000     -19.641562      -534.4741
   2   2.0000     -14.739497      -401.0821
   3   2.0000     -14.731901      -400.8754
   4   2.0000     -10.729173      -291.9556
   5   2.0000     -10.570696      -287.6433
   6   2.0000     -10.569149      -287.6012
   7   2.0000     -10.563947      -287.4596
   8   2.0000     -10.548827      -287.0482
   9   2.0000     -10.537061      -286.7280
  10   2.0000     -10.536106      -286.7020
  11   2.0000     -10.530463      -286.5485
  12   2.0000     -10.431222      -283.8480
  13   2.0000      -1.486059       -40.4377
  14   2.0000      -1.170054       -31.8388
  15   2.0000      -1.069461       -29.1015
  16   2.0000      -0.985625       -26.8202
  17   2.0000      -0.924634       -25.1606
  18   2.0000      -0.884143       -24.0587
  19   2.0000      -0.831604       -22.6291
  20   2.0000      -0.805094       -21.9077
  21   2.0000      -0.785645       -21.3785
  22   2.0000      -0.755163       -20.5490
  23   2.0000      -0.705247       -19.1908
  24   2.0000      -0.677729       -18.4419
  25   2.0000      -0.661119       -17.9900
  26   2.0000      -0.639282       -17.3958
  27   2.0000      -0.629325       -17.1248
  28   2.0000      -0.606931       -16.5154
  29   2.0000      -0.604222       -16.4417
  30   2.0000      -0.570183       -15.5155
  31   2.0000      -0.555523       -15.1166
  32   2.0000      -0.541321       -14.7301
  33   2.0000      -0.521352       -14.1867
  34   2.0000      -0.514924       -14.0118
  35   2.0000      -0.493436       -13.4271
  36   2.0000      -0.484100       -13.1730
  37   2.0000      -0.476571       -12.9681
  38   2.0000      -0.468317       -12.7435
  39   2.0000      -0.450229       -12.2514
  40   2.0000      -0.441327       -12.0091
  41   2.0000      -0.429644       -11.6912
  42   2.0000      -0.427377       -11.6295
  43   2.0000      -0.418730       -11.3942
  44   2.0000      -0.412239       -11.2176
  45   2.0000      -0.391768       -10.6605
  46   2.0000      -0.382857       -10.4181
  47   2.0000      -0.378299       -10.2940
  48   2.0000      -0.358623        -9.7586
  49   2.0000      -0.307254        -8.3608
  50   2.0000      -0.216539        -5.8923
  51   0.0000       0.003778         0.1028
  52   0.0000       0.048050         1.3075
  53   0.0000       0.065707         1.7880
  54   0.0000       0.075448         2.0531
  55   0.0000       0.087868         2.3910

MULLIKEN ATOMIC CHARGES
-----------------------
   0 C :   -0.227887
   1 N :   -0.367314
   2 C :   -0.265209
   3 C :   -0.336292
   4 H :    0.174996
   5 H :    0.177813
   6 C :    0.394839
   7 C :    0.357336
   8 C :   -0.526722
   9 N :   -0.500134
  10 H :    0.212014
  11 H :    0.250042
  12 H :    0.204989
  13 H :    0.094514
  14 H :    0.144458
  15 F :   -0.142354
  16 O :   -0.327465
  17 C :   -0.297609
  18 H :    0.155348
  19 H :    0.168112
  20 C :   -0.266320
  21 H :    0.141486
  22 H :    0.145449
  23 C :   -0.287912
  24 H :    0.136815
  25 H :    0.151564
  26 H :    0.172507
  27 H :    0.147350
  28 H :    0.152681
  29 H :    0.162906
Sum of atomic charges:    0.0000000

LOEWDIN ATOMIC CHARGES
----------------------
   0 C :   -0.280288
   1 N :    0.096684
   2 C :   -0.257998
   3 C :   -0.237428
   4 H :    0.145425
   5 H :    0.160175
   6 C :   -0.488960
   7 C :   -0.491254
   8 C :   -0.300368
   9 N :   -0.030846
  10 H :    0.152878
  11 H :    0.168035
  12 H :    0.173713
  13 H :    0.097012
  14 H :    0.097786
  15 F :    0.320910
  16 O :    0.091195
  17 C :   -0.275234
  18 H :    0.133341
  19 H :    0.139369
  20 C :   -0.271778
  21 H :    0.141102
  22 H :    0.135581
  23 C :   -0.270968
  24 H :    0.136226
  25 H :    0.139162
  26 H :    0.146762
  27 H :    0.140113
  28 H :    0.141861
  29 H :    0.147790

  Mayer bond orders larger than 0.100000
B(  0-C ,  1-N ) :   0.8911 B(  0-C , 17-C ) :   0.9288 B(  0-C , 18-H ) :   0.9902
B(  0-C , 19-H ) :   0.9844 B(  1-N ,  7-C ) :   1.0473 B(  1-N , 12-H ) :   0.9338
B(  2-C ,  3-C ) :   0.9067 B(  2-C , 23-C ) :   0.9300 B(  2-C , 28-H ) :   0.9814
B(  2-C , 29-H ) :   0.9769 B(  3-C ,  4-H ) :   0.9663 B(  3-C ,  5-H ) :   0.9546
B(  3-C ,  6-C ) :   0.9763 B(  6-C , 15-F ) :   1.0679 B(  6-C , 16-O ) :   2.0019
B(  7-C ,  8-C ) :   1.5798 B(  7-C ,  9-N ) :   1.0686 B(  8-C , 13-H ) :   1.0399
B(  8-C , 14-H ) :   1.0042 B(  9-N , 10-H ) :   0.9312 B(  9-N , 11-H ) :   0.9183
B( 17-C , 20-C ) :   0.9292 B( 17-C , 21-H ) :   0.9827 B( 17-C , 22-H ) :   0.9892
B( 20-C , 23-C ) :   0.8577 B( 20-C , 24-H ) :   0.9609 B( 20-C , 25-H ) :   0.9816
B( 23-C , 26-H ) :   0.9765 B( 23-C , 27-H ) :   0.9798

Dispersion correction           -0.001681020
FINAL SINGLE POINT ENERGY      -637.672207376441

DIPOLE MOMENT
-------------
                                X             Y             Z
Electronic contribution:     -1.49234       2.17972     -13.52027
Nuclear contribution   :      2.00823      -0.28769      14.57028
                        -----------------------------------------
Total Dipole Moment    :      0.51589       1.89204       1.05001
                        -----------------------------------------
Magnitude (a.u.)       :      2.22452
Magnitude (Debye)      :      5.65427

Rotational constants in cm-1:     0.033070     0.023715     0.016943
Rotational constants in MHz :   991.423248   710.957140   507.940500

                             ****ORCA TERMINATED NORMALLY****
TOTAL RUN TIME: 0 days 0 hours 1 minutes 19 seconds 644 msec
