                         Program Version 5.0.0 -  RELEASE  -
|  1> !M062X D3Zero RIJCOSX def2-TZVP def2/J TightSCF xyzfile
|  2>
|  3> *xyzfile 0 1 D4.xyz
|  4>
|  5> %MaxCore 64000
|  6>
|  7> %pal nprocs 18
|  8> end
|  9>
| 10> %scf
| 11>   MaxIter 150
| 12> end
| 13>
| 14>
| 15>                          ****END OF INPUT****

CARTESIAN COORDINATES (ANGSTROEM)
---------------------------------
  C      2.234473   -2.989754   -2.397622
  C      2.756799   -2.945553   -3.765029
  C     -1.104325    0.251374   -2.860056
  C     -0.711893    0.842517   -4.218344
  H      0.154626    1.499800   -4.130909
  H     -1.538134    1.459222   -4.582671
  C     -0.397624   -0.205875   -5.288018
  C      1.987208   -2.590451   -4.818975
  N      0.743221   -3.017493   -4.913524
  N      2.499636   -1.848598   -5.803241
  H      3.309780   -1.292818   -5.558947
  H      1.801025   -1.304298   -6.289129
  H      3.716116   -2.628797   -3.829533
  H      0.395828   -3.627747   -4.185024
  H      0.039201   -2.454383   -5.371367
  O      0.617165   -0.005348   -5.998273
  F     -1.133173   -1.221380   -5.341465
  C      2.191199   -1.619503   -1.715492
  H      2.872783   -3.666368   -1.828014
  H      1.246188   -3.447444   -2.407842
  C      1.298729   -0.554314   -2.359773
  H      1.872917   -1.787955   -0.681310
  H      3.216809   -1.238432   -1.654428
  C     -0.196255   -0.863365   -2.325763
  H      1.612531   -0.371346   -3.393065
  H      1.480944    0.388638   -1.834444
  H     -0.404105   -1.761825   -2.909448
  H     -0.490439   -1.087880   -1.294131
  H     -1.143842    1.066711   -2.129680
  H     -2.114401   -0.156834   -2.930323

 Total Charge           Charge          ....    0
 Multiplicity           Mult            ....    1
 Number of Electrons    NEL             ....  102
 Basis Dimension        Dim             ....  505

ORBITAL ENERGIES
----------------

  NO   OCC          E(Eh)            E(eV)
   0   2.0000     -25.350978      -689.8352
   1   2.0000     -19.666356      -535.1488
   2   2.0000     -14.738245      -401.0480
   3   2.0000     -14.719873      -400.5481
   4   2.0000     -10.749569      -292.5106
   5   2.0000     -10.580205      -287.9020
   6   2.0000     -10.573983      -287.7327
   7   2.0000     -10.558814      -287.3199
   8   2.0000     -10.539968      -286.8071
   9   2.0000     -10.528733      -286.5014
  10   2.0000     -10.517142      -286.1860
  11   2.0000     -10.507116      -285.9132
  12   2.0000     -10.448605      -284.3210
  13   2.0000      -1.504385       -40.9364
  14   2.0000      -1.192619       -32.4528
  15   2.0000      -1.067755       -29.0551
  16   2.0000      -0.967408       -26.3245
  17   2.0000      -0.936111       -25.4729
  18   2.0000      -0.890327       -24.2270
  19   2.0000      -0.851329       -23.1658
  20   2.0000      -0.804832       -21.9006
  21   2.0000      -0.783574       -21.3221
  22   2.0000      -0.747260       -20.3340
  23   2.0000      -0.702654       -19.1202
  24   2.0000      -0.692531       -18.8447
  25   2.0000      -0.674885       -18.3646
  26   2.0000      -0.659666       -17.9504
  27   2.0000      -0.641844       -17.4655
  28   2.0000      -0.609530       -16.5862
  29   2.0000      -0.595624       -16.2077
  30   2.0000      -0.563657       -15.3379
  31   2.0000      -0.556568       -15.1450
  32   2.0000      -0.548237       -14.9183
  33   2.0000      -0.521466       -14.1898
  34   2.0000      -0.515788       -14.0353
  35   2.0000      -0.508541       -13.8381
  36   2.0000      -0.499962       -13.6047
  37   2.0000      -0.473589       -12.8870
  38   2.0000      -0.467658       -12.7256
  39   2.0000      -0.462101       -12.5744
  40   2.0000      -0.448977       -12.2173
  41   2.0000      -0.430983       -11.7276
  42   2.0000      -0.426452       -11.6044
  43   2.0000      -0.409756       -11.1500
  44   2.0000      -0.401813       -10.9339
  45   2.0000      -0.390752       -10.6329
  46   2.0000      -0.380243       -10.3469
  47   2.0000      -0.368439       -10.0257
  48   2.0000      -0.365530        -9.9466
  49   2.0000      -0.323758        -8.8099
  50   2.0000      -0.200502        -5.4559
  51   0.0000      -0.011683        -0.3179
  52   0.0000       0.046180         1.2566
  53   0.0000       0.070989         1.9317
  54   0.0000       0.077846         2.1183
  55   0.0000       0.083082         2.2608

MULLIKEN ATOMIC CHARGES
-----------------------
   0 C :   -0.332985
   1 C :   -0.329001
   2 C :   -0.285355
   3 C :   -0.322941
   4 H :    0.194994
   5 H :    0.178850
   6 C :    0.391342
   7 C :    0.278313
   8 N :   -0.500899
   9 N :   -0.480528
  10 H :    0.244139
  11 H :    0.253363
  12 H :    0.102401
  13 H :    0.249811
  14 H :    0.242331
  15 O :   -0.370284
  16 F :   -0.123517
  17 C :   -0.247340
  18 H :    0.141932
  19 H :    0.112769
  20 C :   -0.266106
  21 H :    0.133923
  22 H :    0.140635
  23 C :   -0.313421
  24 H :    0.157093
  25 H :    0.149756
  26 H :    0.122603
  27 H :    0.156272
  28 H :    0.159574
  29 H :    0.162276
Sum of atomic charges:    0.0000000

LOEWDIN ATOMIC CHARGES
----------------------
   0 C :   -0.299562
   1 C :   -0.284539
   2 C :   -0.267866
   3 C :   -0.229870
   4 H :    0.160042
   5 H :    0.158541
   6 C :   -0.487809
   7 C :   -0.482328
   8 N :    0.005632
   9 N :   -0.015671
  10 H :    0.172923
  11 H :    0.156269
  12 H :    0.117913
  13 H :    0.174478
  14 H :    0.151264
  15 O :    0.068802
  16 F :    0.329628
  17 C :   -0.264138
  18 H :    0.140547
  19 H :    0.127562
  20 C :   -0.270898
  21 H :    0.134074
  22 H :    0.138674
  23 C :   -0.275396
  24 H :    0.142014
  25 H :    0.139066
  26 H :    0.130357
  27 H :    0.143002
  28 H :    0.145379
  29 H :    0.141911

  Mayer bond orders larger than 0.100000
B(  0-C ,  1-C ) :   0.9566 B(  0-C , 17-C ) :   0.8867 B(  0-C , 18-H ) :   0.9983
B(  0-C , 19-H ) :   0.9940 B(  1-C ,  7-C ) :   1.6541 B(  1-C , 12-H ) :   1.0451
B(  2-C ,  3-C ) :   0.8850 B(  2-C , 23-C ) :   0.9033 B(  2-C , 28-H ) :   0.9742
B(  2-C , 29-H ) :   0.9906 B(  3-C ,  4-H ) :   0.9698 B(  3-C ,  5-H ) :   0.9528
B(  3-C ,  6-C ) :   0.9817 B(  6-C , 15-O ) :   1.9504 B(  6-C , 16-F ) :   1.0902
B(  7-C ,  8-N ) :   1.1022 B(  7-C ,  9-N ) :   1.0917 B(  8-N , 13-H ) :   0.9255
B(  8-N , 14-H ) :   0.9080 B(  9-N , 10-H ) :   0.9294 B(  9-N , 11-H ) :   0.9065
B( 17-C , 20-C ) :   0.9400 B( 17-C , 21-H ) :   0.9856 B( 17-C , 22-H ) :   0.9873
B( 20-C , 23-C ) :   0.8497 B( 20-C , 24-H ) :   0.9541 B( 20-C , 25-H ) :   0.9807
B( 23-C , 26-H ) :   0.9934 B( 23-C , 27-H ) :   0.9798

Dispersion correction           -0.001680681
FINAL SINGLE POINT ENERGY      -637.690570829531

DIPOLE MOMENT
-------------
                                X             Y             Z
Electronic contribution:     -6.01273       0.23803     -13.40325
Nuclear contribution   :      4.38568       1.15960      13.97148
                        -----------------------------------------
Total Dipole Moment    :     -1.62705       1.39763       0.56823
                        -----------------------------------------
Magnitude (a.u.)       :      2.21891
Magnitude (Debye)      :      5.64002

Rotational constants in cm-1:     0.032892     0.023844     0.017123
Rotational constants in MHz :   986.091711   714.821905   513.334630

                             ****ORCA TERMINATED NORMALLY****
TOTAL RUN TIME: 0 days 0 hours 1 minutes 14 seconds 994 msec
