                         Program Version 5.0.0 -  RELEASE  -
|  1> !B3LYP D3BJ RIJCOSX def2-SVPD def2/J TightSCF
|  2> *xyz -1 1
|  3> C          1.44442        5.26658       -0.97546
|  4> O          1.56525        4.23349       -1.86489
|  5> C         -1.07389        4.84473       -0.97990
|  6> C          0.14812        5.21087       -0.13809
|  7> H          1.47425        6.26464       -1.47692
|  8> H          2.28962        5.30327       -0.26445
|  9> H          0.26183        4.45094        0.64071
| 10> H         -0.00252        6.17103        0.37148
| 11> H         -1.20745        5.57445       -1.75098
| 12> H         -1.94291        4.82190       -0.35605
| 13> H         -0.92683        3.88150       -1.42201
| 14> *
| 15> %MaxCore 64000
| 16>
| 17> %pal nprocs 4
| 18> end
| 19>
| 20> %scf
| 21>   MaxIter 150
| 22> end
| 23>
| 24>
| 25>                          ****END OF INPUT****

CARTESIAN COORDINATES (ANGSTROEM)
---------------------------------
  C      1.444420    5.266580   -0.975460
  O      1.565250    4.233490   -1.864890
  C     -1.073890    4.844730   -0.979900
  C      0.148120    5.210870   -0.138090
  H      1.474250    6.264640   -1.476920
  H      2.289620    5.303270   -0.264450
  H      0.261830    4.450940    0.640710
  H     -0.002520    6.171030    0.371480
  H     -1.207450    5.574450   -1.750980
  H     -1.942910    4.821900   -0.356050
  H     -0.926830    3.881500   -1.422010

 Total Charge           Charge          ....   -1
 Multiplicity           Mult            ....    1
 Number of Electrons    NEL             ....   34
 Basis Dimension        Dim             ....  139

ORBITAL ENERGIES
----------------

  NO   OCC          E(Eh)            E(eV)
   0   2.0000     -18.812802      -511.9224
   1   2.0000     -10.000129      -272.1173
   2   2.0000      -9.996812      -272.0271
   3   2.0000      -9.991862      -271.8924
   4   2.0000      -0.676318       -18.4035
   5   2.0000      -0.573140       -15.5959
   6   2.0000      -0.460771       -12.5382
   7   2.0000      -0.357523        -9.7287
   8   2.0000      -0.274592        -7.4720
   9   2.0000      -0.263118        -7.1598
  10   2.0000      -0.212907        -5.7935
  11   2.0000      -0.189407        -5.1540
  12   2.0000      -0.161768        -4.4019
  13   2.0000      -0.150292        -4.0896
  14   2.0000      -0.114603        -3.1185
  15   2.0000       0.023844         0.6488
  16   2.0000       0.027902         0.7592
  17   0.0000       0.165299         4.4980
  18   0.0000       0.189241         5.1495
  19   0.0000       0.206756         5.6261
  20   0.0000       0.228788         6.2256
  21   0.0000       0.249568         6.7911

MULLIKEN ATOMIC CHARGES
-----------------------
   0 C :    0.599093
   1 O :   -0.875589
   2 C :    0.838627
   3 C :   -0.371739
   4 H :   -0.185708
   5 H :   -0.268747
   6 H :   -0.134732
   7 H :   -0.165884
   8 H :   -0.150605
   9 H :   -0.199821
  10 H :   -0.084894
Sum of atomic charges:   -1.0000000

LOEWDIN ATOMIC CHARGES
----------------------
   0 C :   -0.208637
   1 O :   -0.546775
   2 C :    0.090084
   3 C :   -0.105062
   4 H :   -0.034471
   5 H :   -0.041428
   6 H :   -0.008096
   7 H :   -0.017385
   8 H :   -0.034391
   9 H :   -0.055019
  10 H :   -0.038820

  Mayer bond orders larger than 0.100000
B(  0-C ,  1-O ) :   1.1503 B(  0-C ,  3-C ) :   1.0442 B(  0-C ,  4-H ) :   0.9061
B(  0-C ,  5-H ) :   0.9160 B(  0-C ,  6-H ) :   0.1169 B(  0-C ,  7-H ) :   0.1107
B(  1-O ,  3-C ) :   0.1196 B(  2-C ,  3-C ) :   1.2687 B(  2-C ,  6-H ) :   0.1017
B(  2-C ,  8-H ) :   0.7756 B(  2-C ,  9-H ) :   0.7422 B(  2-C , 10-H ) :   0.7831
B(  3-C ,  4-H ) :   0.1745 B(  3-C ,  5-H ) :   0.1723 B(  3-C ,  6-H ) :   0.9162
B(  3-C ,  7-H ) :   0.9757 B(  3-C ,  8-H ) :   0.2270 B(  3-C ,  9-H ) :   0.2356
B(  3-C , 10-H ) :   0.2283 B(  4-H ,  5-H ) :   0.1053

Dispersion correction           -0.010980377
FINAL SINGLE POINT ENERGY      -193.500954102249

DIPOLE MOMENT
-------------
                                X             Y             Z
Electronic contribution:      2.07352      -1.36357      -1.48680
Nuclear contribution   :     -3.50495       2.13585       2.58010
                        -----------------------------------------
Total Dipole Moment    :     -1.43143       0.77228       1.09330
                        -----------------------------------------
Magnitude (a.u.)       :      1.95977
Magnitude (Debye)      :      4.98134

Rotational constants in cm-1:     0.478988     0.188199     0.150738
Rotational constants in MHz : 14359.706344  5642.078771  4519.011003

                             ****ORCA TERMINATED NORMALLY****
TOTAL RUN TIME: 0 days 0 hours 0 minutes 10 seconds 976 msec
