                         Program Version 5.0.0 -  RELEASE  -
|  1> !B3LYP D3BJ RIJCOSX def2-SVPD def2/J TightSCF
|  2> *xyz 1 1
|  3> C         -0.70169        4.07250       -4.00392
|  4> N          0.68053        4.61482       -4.04800
|  5> H          0.69993        5.58489       -4.38827
|  6> H          1.27804        4.05598       -4.66824
|  7> H          1.08573        4.53358       -3.10652
|  8> C         -1.70347        5.09320       -3.47740
|  9> H         -0.99590        3.74039       -5.00065
| 10> H         -0.64358        3.20191       -3.35153
| 11> C         -1.31400        5.78600       -2.16927
| 12> H         -1.87706        5.85010       -4.25115
| 13> H         -2.65326        4.56448       -3.35480
| 14> H         -0.38448        6.29945       -2.30062
| 15> H         -1.21111        5.05451       -1.39516
| 16> H         -2.07413        6.48833       -1.89758
| 17> *
| 18> %MaxCore 64000
| 19>
| 20> %pal nprocs 4
| 21> end
| 22>
| 23> %scf
| 24>   MaxIter 150
| 25> end
| 26>
| 27>
| 28>                          ****END OF INPUT****

CARTESIAN COORDINATES (ANGSTROEM)
---------------------------------
  C     -0.701690    4.072500   -4.003920
  N      0.680530    4.614820   -4.048000
  H      0.699930    5.584890   -4.388270
  H      1.278040    4.055980   -4.668240
  H      1.085730    4.533580   -3.106520
  C     -1.703470    5.093200   -3.477400
  H     -0.995900    3.740390   -5.000650
  H     -0.643580    3.201910   -3.351530
  C     -1.314000    5.786000   -2.169270
  H     -1.877060    5.850100   -4.251150
  H     -2.653260    4.564480   -3.354800
  H     -0.384480    6.299450   -2.300620
  H     -1.211110    5.054510   -1.395160
  H     -2.074130    6.488330   -1.897580

 Total Charge           Charge          ....    1
 Multiplicity           Mult            ....    1
 Number of Electrons    NEL             ....   34
 Basis Dimension        Dim             ....  160

ORBITAL ENERGIES
----------------

  NO   OCC          E(Eh)            E(eV)
   0   2.0000     -14.660615      -398.9356
   1   2.0000     -10.430521      -283.8289
   2   2.0000     -10.361815      -281.9593
   3   2.0000     -10.332631      -281.1652
   4   2.0000      -1.204082       -32.7647
   5   2.0000      -0.966356       -26.2959
   6   2.0000      -0.879906       -23.9435
   7   2.0000      -0.807137       -21.9633
   8   2.0000      -0.789844       -21.4927
   9   2.0000      -0.770746       -20.9731
  10   2.0000      -0.686646       -18.6846
  11   2.0000      -0.636228       -17.3126
  12   2.0000      -0.608493       -16.5579
  13   2.0000      -0.586580       -15.9617
  14   2.0000      -0.530101       -14.4248
  15   2.0000      -0.525875       -14.3098
  16   2.0000      -0.512332       -13.9413
  17   0.0000      -0.193090        -5.2542
  18   0.0000      -0.136057        -3.7023
  19   0.0000      -0.134327        -3.6552
  20   0.0000      -0.120755        -3.2859
  21   0.0000      -0.092605        -2.5199

MULLIKEN ATOMIC CHARGES
-----------------------
   0 C :    0.739421
   1 N :   -0.604181
   2 H :    0.353444
   3 H :    0.257348
   4 H :    0.388948
   5 C :   -0.196513
   6 H :   -0.167635
   7 H :   -0.124384
   8 C :    0.976035
   9 H :   -0.111134
  10 H :   -0.120699
  11 H :   -0.149304
  12 H :   -0.079938
  13 H :   -0.161409
Sum of atomic charges:    1.0000000

LOEWDIN ATOMIC CHARGES
----------------------
   0 C :    0.089217
   1 N :    0.335692
   2 H :    0.105016
   3 H :    0.104371
   4 H :    0.101078
   5 C :   -0.038988
   6 H :    0.051162
   7 H :    0.051316
   8 C :    0.155143
   9 H :    0.033861
  10 H :    0.043993
  11 H :   -0.030712
  12 H :   -0.004915
  13 H :    0.003766

  Mayer bond orders larger than 0.100000
B(  0-C ,  1-N ) :   0.8148 B(  0-C ,  5-C ) :   1.1861 B(  0-C ,  6-H ) :   0.8761
B(  0-C ,  7-H ) :   0.7921 B(  0-C ,  9-H ) :   0.1232 B(  0-C , 10-H ) :   0.1590
B(  1-N ,  2-H ) :   0.7600 B(  1-N ,  3-H ) :   0.8725 B(  1-N ,  4-H ) :   0.7688
B(  1-N ,  7-H ) :   0.1409 B(  5-C ,  7-H ) :   0.1253 B(  5-C ,  8-C ) :   1.2993
B(  5-C ,  9-H ) :   0.8915 B(  5-C , 10-H ) :   0.8869 B(  5-C , 11-H ) :   0.2058
B(  5-C , 12-H ) :   0.2114 B(  5-C , 13-H ) :   0.2412 B(  8-C , 11-H ) :   0.7817
B(  8-C , 12-H ) :   0.7578 B(  8-C , 13-H ) :   0.7426

Dispersion correction           -0.015393964
FINAL SINGLE POINT ENERGY      -174.624671703186

DIPOLE MOMENT
-------------
                                X             Y             Z
Electronic contribution:      1.53379      -0.90921      -1.45777
Nuclear contribution   :      0.19992       0.44181       0.60618
                        -----------------------------------------
Total Dipole Moment    :      1.73370      -0.46739      -0.85159
                        -----------------------------------------
Magnitude (a.u.)       :      1.98730
Magnitude (Debye)      :      5.05133

Rotational constants in cm-1:     0.427003     0.166237     0.135950
Rotational constants in MHz : 12801.234133  4983.663157  4075.681698

                             ****ORCA TERMINATED NORMALLY****
TOTAL RUN TIME: 0 days 0 hours 0 minutes 13 seconds 149 msec
