                         Program Version 5.0.0 -  RELEASE  -
|  1> !B3LYP D3BJ RIJCOSX def2-SVPD def2/J TightSCF
|  2> *xyz 0 1
|  3> C          1.44442        5.26658       -0.97546
|  4> F          1.56525        4.23349       -1.86489
|  5> C         -1.07389        4.84473       -0.97990
|  6> C          0.14812        5.21087       -0.13809
|  7> H          1.47425        6.26464       -1.47692
|  8> H          2.28962        5.30327       -0.26445
|  9> H          0.26183        4.45094        0.64071
| 10> H         -0.00252        6.17103        0.37148
| 11> H         -1.20745        5.57445       -1.75098
| 12> H         -1.94291        4.82190       -0.35605
| 13> H         -0.92683        3.88150       -1.42201
| 14> *
| 15> %MaxCore 64000
| 16>
| 17> %pal nprocs 4
| 18> end
| 19>
| 20> %scf
| 21>   MaxIter 150
| 22> end
| 23>
| 24>
| 25>                          ****END OF INPUT****

CARTESIAN COORDINATES (ANGSTROEM)
---------------------------------
  C      1.444420    5.266580   -0.975460
  F      1.565250    4.233490   -1.864890
  C     -1.073890    4.844730   -0.979900
  C      0.148120    5.210870   -0.138090
  H      1.474250    6.264640   -1.476920
  H      2.289620    5.303270   -0.264450
  H      0.261830    4.450940    0.640710
  H     -0.002520    6.171030    0.371480
  H     -1.207450    5.574450   -1.750980
  H     -1.942910    4.821900   -0.356050
  H     -0.926830    3.881500   -1.422010

 Total Charge           Charge          ....    0
 Multiplicity           Mult            ....    1
 Number of Electrons    NEL             ....   34
 Basis Dimension        Dim             ....  139

ORBITAL ENERGIES
----------------

  NO   OCC          E(Eh)            E(eV)
   0   2.0000     -24.687704      -671.7866
   1   2.0000     -10.262553      -279.2583
   2   2.0000     -10.190070      -277.2859
   3   2.0000     -10.169753      -276.7330
   4   2.0000      -1.186118       -32.2759
   5   2.0000      -0.781055       -21.2536
   6   2.0000      -0.684479       -18.6256
   7   2.0000      -0.591717       -16.1014
   8   2.0000      -0.510876       -13.9016
   9   2.0000      -0.495471       -13.4824
  10   2.0000      -0.474969       -12.9246
  11   2.0000      -0.437138       -11.8951
  12   2.0000      -0.399053       -10.8588
  13   2.0000      -0.374803       -10.1989
  14   2.0000      -0.358748        -9.7620
  15   2.0000      -0.329676        -8.9709
  16   2.0000      -0.324793        -8.8381
  17   0.0000       0.018863         0.5133
  18   0.0000       0.044347         1.2068
  19   0.0000       0.055589         1.5127
  20   0.0000       0.067962         1.8494
  21   0.0000       0.089158         2.4261

MULLIKEN ATOMIC CHARGES
-----------------------
   0 C :    0.882908
   1 F :   -0.440585
   2 C :    0.848219
   3 C :   -0.318027
   4 H :   -0.102049
   5 H :   -0.183105
   6 H :   -0.135427
   7 H :   -0.154064
   8 H :   -0.138247
   9 H :   -0.171662
  10 H :   -0.087961
Sum of atomic charges:   -0.0000000

LOEWDIN ATOMIC CHARGES
----------------------
   0 C :    0.103507
   1 F :   -0.208243
   2 C :    0.128047
   3 C :   -0.056878
   4 H :    0.032750
   5 H :    0.023702
   6 H :    0.015834
   7 H :    0.022924
   8 H :   -0.018267
   9 H :   -0.022629
  10 H :   -0.020748

  Mayer bond orders larger than 0.100000
B(  0-C ,  1-F ) :   0.7325 B(  0-C ,  3-C ) :   1.1843 B(  0-C ,  4-H ) :   0.8559
B(  0-C ,  5-H ) :   0.8781 B(  2-C ,  3-C ) :   1.3098 B(  2-C ,  8-H ) :   0.7736
B(  2-C ,  9-H ) :   0.7687 B(  2-C , 10-H ) :   0.7843 B(  3-C ,  4-H ) :   0.1391
B(  3-C ,  5-H ) :   0.1324 B(  3-C ,  6-H ) :   0.8976 B(  3-C ,  7-H ) :   0.9301
B(  3-C ,  8-H ) :   0.2042 B(  3-C ,  9-H ) :   0.2196 B(  3-C , 10-H ) :   0.1960

Dispersion correction           -0.010335663
FINAL SINGLE POINT ENERGY      -218.109299985972

DIPOLE MOMENT
-------------
                                X             Y             Z
Electronic contribution:      4.60336      -2.43736      -3.13930
Nuclear contribution   :     -4.76356       2.92420       3.62609
                        -----------------------------------------
Total Dipole Moment    :     -0.16020       0.48684       0.48679
                        -----------------------------------------
Magnitude (a.u.)       :      0.70685
Magnitude (Debye)      :      1.79668

Rotational constants in cm-1:     0.464485     0.177633     0.142630
Rotational constants in MHz : 13924.923489  5325.290206  4275.938589

                             ****ORCA TERMINATED NORMALLY****
TOTAL RUN TIME: 0 days 0 hours 0 minutes 8 seconds 727 msec
