                         Program Version 5.0.0 -  RELEASE  -
|  1> !B3LYP D3BJ RIJCOSX def2-SVPD def2/J TightSCF
|  2> *xyz 0 1
|  3> C         -0.70169        4.07250       -4.00392
|  4> C          0.68053        4.61482       -4.04800
|  5> H          0.69993        5.58489       -4.38827
|  6> H          1.27804        4.05598       -4.66824
|  7> H          1.08573        4.53358       -3.10652
|  8> C         -1.70347        5.09320       -3.47740
|  9> H         -0.99590        3.74039       -5.00065
| 10> H         -0.64358        3.20191       -3.35153
| 11> C         -1.31400        5.78600       -2.16927
| 12> H         -1.87706        5.85010       -4.25115
| 13> H         -2.65326        4.56448       -3.35480
| 14> H         -0.38448        6.29945       -2.30062
| 15> H         -1.21111        5.05451       -1.39516
| 16> H         -2.07413        6.48833       -1.89758
| 17> *
| 18> %MaxCore 64000
| 19>
| 20> %pal nprocs 4
| 21> end
| 22>
| 23> %scf
| 24>   MaxIter 150
| 25> end
| 26>
| 27>
| 28>                          ****END OF INPUT****

CARTESIAN COORDINATES (ANGSTROEM)
---------------------------------
  C     -0.701690    4.072500   -4.003920
  C      0.680530    4.614820   -4.048000
  H      0.699930    5.584890   -4.388270
  H      1.278040    4.055980   -4.668240
  H      1.085730    4.533580   -3.106520
  C     -1.703470    5.093200   -3.477400
  H     -0.995900    3.740390   -5.000650
  H     -0.643580    3.201910   -3.351530
  C     -1.314000    5.786000   -2.169270
  H     -1.877060    5.850100   -4.251150
  H     -2.653260    4.564480   -3.354800
  H     -0.384480    6.299450   -2.300620
  H     -1.211110    5.054510   -1.395160
  H     -2.074130    6.488330   -1.897580

 Total Charge           Charge          ....    0
 Multiplicity           Mult            ....    1
 Number of Electrons    NEL             ....   34
 Basis Dimension        Dim             ....  160

ORBITAL ENERGIES
----------------

  NO   OCC          E(Eh)            E(eV)
   0   2.0000     -10.171989      -276.7939
   1   2.0000     -10.167447      -276.6703
   2   2.0000     -10.163006      -276.5495
   3   2.0000     -10.144362      -276.0421
   4   2.0000      -0.795044       -21.6343
   5   2.0000      -0.721013       -19.6198
   6   2.0000      -0.640222       -17.4213
   7   2.0000      -0.558030       -15.1848
   8   2.0000      -0.467838       -12.7305
   9   2.0000      -0.460416       -12.5285
  10   2.0000      -0.425184       -11.5698
  11   2.0000      -0.387987       -10.5577
  12   2.0000      -0.384415       -10.4605
  13   2.0000      -0.364603        -9.9214
  14   2.0000      -0.324263        -8.8237
  15   2.0000      -0.321582        -8.7507
  16   2.0000      -0.318306        -8.6615
  17   0.0000       0.023304         0.6341
  18   0.0000       0.049785         1.3547
  19   0.0000       0.052150         1.4191
  20   0.0000       0.062798         1.7088
  21   0.0000       0.091729         2.4961

MULLIKEN ATOMIC CHARGES
-----------------------
   0 C :   -0.091898
   1 C :    1.219567
   2 H :   -0.267390
   3 H :   -0.495609
   4 H :   -0.095577
   5 C :   -0.181123
   6 H :   -0.196124
   7 H :   -0.128094
   8 C :    0.897634
   9 H :   -0.070072
  10 H :   -0.201469
  11 H :   -0.098644
  12 H :   -0.109276
  13 H :   -0.181923
Sum of atomic charges:   -0.0000000

LOEWDIN ATOMIC CHARGES
----------------------
   0 C :   -0.074342
   1 C :    0.120321
   2 H :   -0.029759
   3 H :   -0.038125
   4 H :   -0.031739
   5 C :   -0.075724
   6 H :    0.018555
   7 H :    0.019934
   8 C :    0.132179
   9 H :    0.018922
  10 H :    0.011265
  11 H :   -0.030253
  12 H :   -0.018034
  13 H :   -0.023200

  Mayer bond orders larger than 0.100000
B(  0-C ,  1-C ) :   1.2622 B(  0-C ,  2-H ) :   0.2661 B(  0-C ,  3-H ) :   0.2658
B(  0-C ,  4-H ) :   0.3006 B(  0-C ,  5-C ) :   1.1934 B(  0-C ,  6-H ) :   0.8719
B(  0-C ,  7-H ) :   0.8096 B(  0-C ,  9-H ) :   0.1438 B(  0-C , 10-H ) :   0.1624
B(  1-C ,  2-H ) :   0.6556 B(  1-C ,  3-H ) :   0.6025 B(  1-C ,  4-H ) :   0.6338
B(  1-C ,  7-H ) :   0.1590 B(  5-C ,  7-H ) :   0.1450 B(  5-C ,  8-C ) :   1.3083
B(  5-C ,  9-H ) :   0.8534 B(  5-C , 10-H ) :   0.8889 B(  5-C , 11-H ) :   0.2154
B(  5-C , 12-H ) :   0.2135 B(  5-C , 13-H ) :   0.2481 B(  8-C ,  9-H ) :   0.1002
B(  8-C , 11-H ) :   0.8007 B(  8-C , 12-H ) :   0.7560 B(  8-C , 13-H ) :   0.7037

Dispersion correction           -0.015506525
FINAL SINGLE POINT ENERGY      -158.225361042447

DIPOLE MOMENT
-------------
                                X             Y             Z
Electronic contribution:     -0.62536      -0.37178      -0.42935
Nuclear contribution   :      0.63648       0.35464       0.41252
                        -----------------------------------------
Total Dipole Moment    :      0.01112      -0.01714      -0.01683
                        -----------------------------------------
Magnitude (a.u.)       :      0.02647
Magnitude (Debye)      :      0.06728

Rotational constants in cm-1:     0.435124     0.173315     0.141457
Rotational constants in MHz : 13044.691962  5195.845291  4240.763698

                             ****ORCA TERMINATED NORMALLY****
TOTAL RUN TIME: 0 days 0 hours 0 minutes 11 seconds 571 msec
