                         Program Version 5.0.0 -  RELEASE  -
|  1> !CAM-B3LYP RIJCOSX def2-TZVPD def2/J TightSCF
|  2> *xyz -1 1
|  3> C          3.80351        1.37472       -3.26081
|  4> C          3.93993        0.32036       -4.36773
|  5> H          4.10504       -0.65508       -3.90773
|  6> H          3.02280        0.28052       -4.95712
|  7> C          5.10585        0.66802       -5.30546
|  8> O          4.80913        1.15019       -6.41436
|  9> O          6.26737        0.56500       -4.81948
| 10> H          3.64113        2.33595       -3.70189
| 11> H          4.69995        1.39701       -2.67703
| 12> H          2.97435        1.12625       -2.63180
| 13> *
| 14>
| 15> %MaxCore 64000
| 16>
| 17> %pal nprocs 4
| 18> end
| 19>
| 20> %scf
| 21>   MaxIter 150
| 22> end
| 23>
| 24>
| 25>                          ****END OF INPUT****

CARTESIAN COORDINATES (ANGSTROEM)
---------------------------------
  C      3.803510    1.374720   -3.260810
  C      3.939930    0.320360   -4.367730
  H      4.105040   -0.655080   -3.907730
  H      3.022800    0.280520   -4.957120
  C      5.105850    0.668020   -5.305460
  O      4.809130    1.150190   -6.414360
  O      6.267370    0.565000   -4.819480
  H      3.641130    2.335950   -3.701890
  H      4.699950    1.397010   -2.677030
  H      2.974350    1.126250   -2.631800

 Total Charge           Charge          ....   -1
 Multiplicity           Mult            ....    1
 Number of Electrons    NEL             ....   40
 Basis Dimension        Dim             ....  236

ORBITAL ENERGIES
----------------

  NO   OCC          E(Eh)            E(eV)
   0   2.0000     -18.936842      -515.2977
   1   2.0000     -18.932985      -515.1927
   2   2.0000     -10.129731      -275.6440
   3   2.0000     -10.079910      -274.2883
   4   2.0000     -10.068391      -273.9749
   5   2.0000      -0.904595       -24.6153
   6   2.0000      -0.810851       -22.0644
   7   2.0000      -0.687998       -18.7214
   8   2.0000      -0.551196       -14.9988
   9   2.0000      -0.394511       -10.7352
  10   2.0000      -0.362664        -9.8686
  11   2.0000      -0.331586        -9.0229
  12   2.0000      -0.299556        -8.1513
  13   2.0000      -0.282703        -7.6927
  14   2.0000      -0.278565        -7.5801
  15   2.0000      -0.245475        -6.6797
  16   2.0000      -0.232324        -6.3219
  17   2.0000      -0.114083        -3.1044
  18   2.0000      -0.106219        -2.8904
  19   2.0000      -0.097637        -2.6568
  20   0.0000       0.158863         4.3229
  21   0.0000       0.182370         4.9626
  22   0.0000       0.192605         5.2410
  23   0.0000       0.204280         5.5587
  24   0.0000       0.233110         6.3432

MULLIKEN ATOMIC CHARGES
-----------------------
   0 C :   -1.124713
   1 C :   -0.132008
   2 H :    0.225545
   3 H :    0.222429
   4 C :    0.368084
   5 O :   -0.698319
   6 O :   -0.730743
   7 H :    0.313563
   8 H :    0.280947
   9 H :    0.275215
Sum of atomic charges:   -1.0000000

LOEWDIN ATOMIC CHARGES
----------------------
   0 C :   -0.129917
   1 C :   -0.213293
   2 H :    0.090271
   3 H :    0.087114
   4 C :   -0.782576
   5 O :   -0.097864
   6 O :   -0.117101
   7 H :    0.062909
   8 H :    0.057531
   9 H :    0.042925

  Mayer bond orders larger than 0.100000
B(  0-C ,  1-C ) :   0.5272 B(  0-C ,  7-H ) :   0.9598 B(  0-C ,  8-H ) :   1.0151
B(  0-C ,  9-H ) :   0.9434 B(  1-C ,  2-H ) :   0.9743 B(  1-C ,  3-H ) :   1.0053
B(  1-C ,  4-C ) :   0.8826 B(  4-C ,  5-O ) :   1.4919 B(  4-C ,  6-O ) :   1.4690

FINAL SINGLE POINT ENERGY      -267.836518577023

DIPOLE MOMENT
-------------
                                X             Y             Z
Electronic contribution:      3.68887      -0.49973      -4.46779
Nuclear contribution   :     -5.15232       0.33441       5.87398
                        -----------------------------------------
Total Dipole Moment    :     -1.46346      -0.16533       1.40619
                        -----------------------------------------
Magnitude (a.u.)       :      2.03627
Magnitude (Debye)      :      5.17580

Rotational constants in cm-1:     0.295355     0.137164     0.110193
Rotational constants in MHz :  8854.523706  4112.077980  3303.490503

                             ****ORCA TERMINATED NORMALLY****
TOTAL RUN TIME: 0 days 0 hours 0 minutes 43 seconds 322 msec
