                         Program Version 5.0.0 -  RELEASE  -
|  1> !CAM-B3LYP RIJCOSX def2-TZVPD def2/J TightSCF
|  2> *xyz 1 1
|  3> C          3.90595        2.81985       -3.75292
|  4> N          5.29562        3.13151       -4.10533
|  5> C          3.80351        1.37472       -3.26081
|  6> C          5.70862        3.46889       -5.32419
|  7> N          6.90470        3.03895       -5.71708
|  8> N          4.98188        4.29357       -6.09746
|  9> H          5.00055        4.10131       -7.08776
| 10> H          4.08469        4.59690       -5.73965
| 11> H          5.96336        2.52611       -3.64239
| 12> H          7.04716        2.06686       -5.47360
| 13> H          7.19815        3.30799       -6.64523
| 14> H          3.28202        2.94919       -4.64026
| 15> H          3.56525        3.51457       -2.98252
| 16> H          4.14157        0.71142       -4.02935
| 17> H          2.78528        1.15146       -3.01944
| 18> H          4.41205        1.25066       -2.38949
| 19> *
| 20>
| 21> %MaxCore 64000
| 22>
| 23> %pal nprocs 4
| 24> end
| 25>
| 26> %scf
| 27>   MaxIter 150
| 28> end
| 29>
| 30>
| 31>                          ****END OF INPUT****

CARTESIAN COORDINATES (ANGSTROEM)
---------------------------------
  C      3.905950    2.819850   -3.752920
  N      5.295620    3.131510   -4.105330
  C      3.803510    1.374720   -3.260810
  C      5.708620    3.468890   -5.324190
  N      6.904700    3.038950   -5.717080
  N      4.981880    4.293570   -6.097460
  H      5.000550    4.101310   -7.087760
  H      4.084690    4.596900   -5.739650
  H      5.963360    2.526110   -3.642390
  H      7.047160    2.066860   -5.473600
  H      7.198150    3.307990   -6.645230
  H      3.282020    2.949190   -4.640260
  H      3.565250    3.514570   -2.982520
  H      4.141570    0.711420   -4.029350
  H      2.785280    1.151460   -3.019440
  H      4.412050    1.250660   -2.389490

 Total Charge           Charge          ....    1
 Multiplicity           Mult            ....    1
 Number of Electrons    NEL             ....   48
 Basis Dimension        Dim             ....  312

ORBITAL ENERGIES
----------------

  NO   OCC          E(Eh)            E(eV)
   0   2.0000     -14.617112      -397.7518
   1   2.0000     -14.616370      -397.7317
   2   2.0000     -14.615942      -397.7200
   3   2.0000     -10.585783      -288.0538
   4   2.0000     -10.454705      -284.4870
   5   2.0000     -10.386313      -282.6259
   6   2.0000      -1.307248       -35.5720
   7   2.0000      -1.192187       -32.4411
   8   2.0000      -1.183939       -32.2166
   9   2.0000      -1.016827       -27.6693
  10   2.0000      -0.912515       -24.8308
  11   2.0000      -0.885944       -24.1078
  12   2.0000      -0.850710       -23.1490
  13   2.0000      -0.819281       -22.2938
  14   2.0000      -0.773337       -21.0436
  15   2.0000      -0.758351       -20.6358
  16   2.0000      -0.722703       -19.6657
  17   2.0000      -0.697323       -18.9751
  18   2.0000      -0.666692       -18.1416
  19   2.0000      -0.628447       -17.1009
  20   2.0000      -0.604168       -16.4403
  21   2.0000      -0.588960       -16.0264
  22   2.0000      -0.556661       -15.1475
  23   2.0000      -0.524014       -14.2592
  24   0.0000      -0.148390        -4.0379
  25   0.0000      -0.132038        -3.5929
  26   0.0000      -0.099572        -2.7095
  27   0.0000      -0.087683        -2.3860
  28   0.0000      -0.070431        -1.9165

MULLIKEN ATOMIC CHARGES
-----------------------
   0 C :   -0.339438
   1 N :   -0.145942
   2 C :   -1.318822
   3 C :    0.514730
   4 N :   -0.355192
   5 N :   -0.362978
   6 H :    0.234447
   7 H :    0.265181
   8 H :    0.240329
   9 H :    0.251762
  10 H :    0.249719
  11 H :    0.339926
  12 H :    0.305254
  13 H :    0.372352
  14 H :    0.356818
  15 H :    0.391853
Sum of atomic charges:    1.0000000

LOEWDIN ATOMIC CHARGES
----------------------
   0 C :   -0.203418
   1 N :    0.089232
   2 C :   -0.060752
   3 C :   -0.441312
   4 N :    0.209177
   5 N :    0.218852
   6 H :    0.137605
   7 H :    0.128419
   8 H :    0.155219
   9 H :    0.139743
  10 H :    0.136539
  11 H :    0.117496
  12 H :    0.129313
  13 H :    0.077834
  14 H :    0.085704
  15 H :    0.080347

  Mayer bond orders larger than 0.100000
B(  0-C ,  1-N ) :   0.8016 B(  0-C ,  2-C ) :   0.5492 B(  0-C , 11-H ) :   0.8578
B(  0-C , 12-H ) :   0.9719 B(  1-N ,  3-C ) :   1.3139 B(  1-N ,  8-H ) :   0.9005
B(  2-C , 13-H ) :   0.9428 B(  2-C , 14-H ) :   0.9471 B(  2-C , 15-H ) :   0.9260
B(  3-C ,  4-N ) :   1.1878 B(  3-C ,  5-N ) :   1.1480 B(  4-N ,  9-H ) :   0.9344
B(  4-N , 10-H ) :   0.9111 B(  5-N ,  6-H ) :   0.9474 B(  5-N ,  7-H ) :   0.9106

FINAL SINGLE POINT ENERGY      -284.354132896325

DIPOLE MOMENT
-------------
                                X             Y             Z
Electronic contribution:      3.50858       3.40365      -2.65464
Nuclear contribution   :     -3.31456      -3.64300       1.57303
                        -----------------------------------------
Total Dipole Moment    :      0.19402      -0.23935      -1.08161
                        -----------------------------------------
Magnitude (a.u.)       :      1.12464
Magnitude (Debye)      :      2.85860

Rotational constants in cm-1:     0.229487     0.071000     0.059428
Rotational constants in MHz :  6879.840828  2128.520047  1781.605314

                             ****ORCA TERMINATED NORMALLY****
TOTAL RUN TIME: 0 days 0 hours 1 minutes 25 seconds 235 msec
