                         Program Version 5.0.0 -  RELEASE  -
|  1> !CAM-B3LYP RIJCOSX def2-TZVPD def2/J TightSCF xyzfile
|  2>
|  3> *xyzfile 0 1 B.xyz
|  4>
|  5> %MaxCore 64000
|  6>
|  7> %pal nprocs 4
|  8> end
|  9>
| 10> %scf
| 11>   MaxIter 150
| 12> end
| 13>
| 14>
| 15>                          ****END OF INPUT****

CARTESIAN COORDINATES (ANGSTROEM)
---------------------------------
  C      3.905947    2.819855   -3.752920
  N      5.295615    3.131515   -4.105334
  C      3.803511    1.374716   -3.260807
  C      3.939934    0.320362   -4.367729
  H      4.105043   -0.655085   -3.907733
  H      3.022801    0.280517   -4.957117
  C      5.105846    0.668022   -5.305463
  C      5.708619    3.468885   -5.324190
  N      6.904696    3.038954   -5.717084
  N      4.981884    4.293570   -6.097457
  H      5.000546    4.101311   -7.087761
  H      4.084693    4.596899   -5.739652
  H      5.963358    2.526112   -3.642391
  H      7.047164    2.066861   -5.473604
  H      7.198145    3.307994   -6.645225
  H      3.282025    2.949187   -4.640259
  H      3.565254    3.514574   -2.982523
  H      4.574833    1.215157   -2.500443
  H      2.843514    1.260845   -2.751465
  O      4.809132    1.150187   -6.414361
  O      6.267366    0.564999   -4.819481

 Total Charge           Charge          ....    0
 Multiplicity           Mult            ....    1
 Number of Electrons    NEL             ....   78
 Basis Dimension        Dim             ....  475

ORBITAL ENERGIES
----------------

  NO   OCC          E(Eh)            E(eV)
   0   2.0000     -19.115987      -520.1725
   1   2.0000     -19.113605      -520.1076
   2   2.0000     -14.454896      -393.3377
   3   2.0000     -14.446371      -393.1057
   4   2.0000     -14.423958      -392.4959
   5   2.0000     -10.415287      -283.4144
   6   2.0000     -10.306549      -280.4554
   7   2.0000     -10.306074      -280.4425
   8   2.0000     -10.255938      -279.0782
   9   2.0000     -10.223204      -278.1875
  10   2.0000      -1.136988       -30.9390
  11   2.0000      -1.087785       -29.6001
  12   2.0000      -1.027117       -27.9493
  13   2.0000      -1.008369       -27.4391
  14   2.0000      -0.993925       -27.0461
  15   2.0000      -0.879954       -23.9448
  16   2.0000      -0.795495       -21.6465
  17   2.0000      -0.734412       -19.9844
  18   2.0000      -0.702441       -19.1144
  19   2.0000      -0.681934       -18.5564
  20   2.0000      -0.648683       -17.6516
  21   2.0000      -0.608299       -16.5527
  22   2.0000      -0.587305       -15.9814
  23   2.0000      -0.571491       -15.5511
  24   2.0000      -0.549904       -14.9636
  25   2.0000      -0.547275       -14.8921
  26   2.0000      -0.502203       -13.6656
  27   2.0000      -0.495707       -13.4889
  28   2.0000      -0.481213       -13.0945
  29   2.0000      -0.458244       -12.4695
  30   2.0000      -0.451800       -12.2941
  31   2.0000      -0.446354       -12.1459
  32   2.0000      -0.408586       -11.1182
  33   2.0000      -0.403651       -10.9839
  34   2.0000      -0.383808       -10.4439
  35   2.0000      -0.356930        -9.7126
  36   2.0000      -0.298763        -8.1298
  37   2.0000      -0.285307        -7.7636
  38   2.0000      -0.277140        -7.5414
  39   0.0000       0.010459         0.2846
  40   0.0000       0.019699         0.5360
  41   0.0000       0.034018         0.9257
  42   0.0000       0.042985         1.1697
  43   0.0000       0.060161         1.6371

MULLIKEN ATOMIC CHARGES
-----------------------
   0 C :   -0.504278
   1 N :   -0.189778
   2 C :   -0.695135
   3 C :   -0.420926
   4 H :    0.267772
   5 H :    0.279845
   6 C :    0.732850
   7 C :    0.485640
   8 N :   -0.371255
   9 N :   -0.438237
  10 H :    0.213731
  11 H :    0.242296
  12 H :    0.294415
  13 H :    0.307856
  14 H :    0.211987
  15 H :    0.321154
  16 H :    0.223321
  17 H :    0.291292
  18 H :    0.256545
  19 O :   -0.702873
  20 O :   -0.806223
Sum of atomic charges:   -0.0000000

LOEWDIN ATOMIC CHARGES
----------------------
   0 C :   -0.164121
   1 N :    0.090046
   2 C :   -0.181084
   3 C :   -0.120189
   4 H :    0.113776
   5 H :    0.110485
   6 C :   -0.712948
   7 C :   -0.473279
   8 N :    0.200917
   9 N :    0.197232
  10 H :    0.125992
  11 H :    0.114165
  12 H :    0.143812
  13 H :    0.075103
  14 H :    0.126594
  15 H :    0.121663
  16 H :    0.117221
  17 H :    0.116588
  18 H :    0.111834
  19 O :   -0.036317
  20 O :   -0.077490

  Mayer bond orders larger than 0.100000
B(  0-C ,  1-N ) :   0.8003 B(  0-C ,  2-C ) :   0.8010 B(  0-C , 15-H ) :   0.8515
B(  0-C , 16-H ) :   1.0645 B(  1-N ,  7-C ) :   1.2994 B(  1-N , 12-H ) :   0.8216
B(  2-C ,  3-C ) :   0.8264 B(  2-C , 17-H ) :   0.9390 B(  2-C , 18-H ) :   1.0055
B(  3-C ,  4-H ) :   0.9549 B(  3-C ,  5-H ) :   0.9893 B(  3-C ,  6-C ) :   0.8708
B(  6-C , 19-O ) :   1.3796 B(  6-C , 20-O ) :   1.1908 B(  7-C ,  8-N ) :   1.1459
B(  7-C ,  9-N ) :   0.9424 B(  7-C , 19-O ) :   0.1188 B(  8-N , 13-H ) :   0.7865
B(  8-N , 14-H ) :   0.9088 B(  9-N , 10-H ) :   0.9520 B(  9-N , 11-H ) :   0.9095
B( 13-H , 20-O ) :   0.1493

FINAL SINGLE POINT ENERGY      -511.861949036824

DIPOLE MOMENT
-------------
                                X             Y             Z
Electronic contribution:      4.14320       0.40673      -3.40847
Nuclear contribution   :     -4.94498       2.03334       3.78956
                        -----------------------------------------
Total Dipole Moment    :     -0.80178       2.44007       0.38109
                        -----------------------------------------
Magnitude (a.u.)       :      2.59654
Magnitude (Debye)      :      6.59989

Rotational constants in cm-1:     0.062533     0.042832     0.033687
Rotational constants in MHz :  1874.701390  1284.063603  1009.911042

                             ****ORCA TERMINATED NORMALLY****
TOTAL RUN TIME: 0 days 0 hours 3 minutes 38 seconds 178 msec
