                         Program Version 5.0.0 -  RELEASE  -
|  1> !CAM-B3LYP RIJCOSX def2-TZVPD def2/J TightSCF
|  2> *xyz 0 1
|  3> C          3.80351        1.37472       -3.26081
|  4> C          3.93993        0.32036       -4.36773
|  5> H          4.10504       -0.65508       -3.90773
|  6> H          3.02280        0.28052       -4.95712
|  7> C          5.10585        0.66802       -5.30546
|  8> F          4.80913        1.15019       -6.41436
|  9> O          6.26737        0.56500       -4.81948
| 10> H          3.64113        2.33595       -3.70189
| 11> H          4.69995        1.39701       -2.67703
| 12> H          2.97435        1.12625       -2.63180
| 13> *
| 14>
| 15> %MaxCore 64000
| 16>
| 17> %pal nprocs 4
| 18> end
| 19>
| 20> %scf
| 21>   MaxIter 150
| 22> end
| 23>
| 24>
| 25>                          ****END OF INPUT****

CARTESIAN COORDINATES (ANGSTROEM)
---------------------------------
  C      3.803510    1.374720   -3.260810
  C      3.939930    0.320360   -4.367730
  H      4.105040   -0.655080   -3.907730
  H      3.022800    0.280520   -4.957120
  C      5.105850    0.668020   -5.305460
  F      4.809130    1.150190   -6.414360
  O      6.267370    0.565000   -4.819480
  H      3.641130    2.335950   -3.701890
  H      4.699950    1.397010   -2.677030
  H      2.974350    1.126250   -2.631800

 Total Charge           Charge          ....    0
 Multiplicity           Mult            ....    1
 Number of Electrons    NEL             ....   40
 Basis Dimension        Dim             ....  236

ORBITAL ENERGIES
----------------

  NO   OCC          E(Eh)            E(eV)
   0   2.0000     -24.834455      -675.7799
   1   2.0000     -19.206944      -522.6475
   2   2.0000     -10.429440      -283.7995
   3   2.0000     -10.276614      -279.6409
   4   2.0000     -10.250021      -278.9173
   5   2.0000      -1.413123       -38.4530
   6   2.0000      -1.113405       -30.2973
   7   2.0000      -0.885536       -24.0967
   8   2.0000      -0.771449       -20.9922
   9   2.0000      -0.722100       -19.6493
  10   2.0000      -0.632082       -17.1998
  11   2.0000      -0.617464       -16.8021
  12   2.0000      -0.583278       -15.8718
  13   2.0000      -0.537870       -14.6362
  14   2.0000      -0.507429       -13.8079
  15   2.0000      -0.468642       -12.7524
  16   2.0000      -0.448825       -12.2131
  17   2.0000      -0.442051       -12.0288
  18   2.0000      -0.413713       -11.2577
  19   2.0000      -0.360948        -9.8219
  20   0.0000       0.013877         0.3776
  21   0.0000       0.028121         0.7652
  22   0.0000       0.053458         1.4547
  23   0.0000       0.062340         1.6964
  24   0.0000       0.071451         1.9443

MULLIKEN ATOMIC CHARGES
-----------------------
   0 C :   -1.141844
   1 C :   -0.192078
   2 H :    0.255043
   3 H :    0.269948
   4 C :    0.522401
   5 F :   -0.194439
   6 O :   -0.489741
   7 H :    0.347633
   8 H :    0.321342
   9 H :    0.301736
Sum of atomic charges:    0.0000000

LOEWDIN ATOMIC CHARGES
----------------------
   0 C :   -0.088496
   1 C :   -0.156274
   2 H :    0.118827
   3 H :    0.107951
   4 C :   -0.493202
   5 F :    0.221074
   6 O :    0.070673
   7 H :    0.074994
   8 H :    0.074607
   9 H :    0.069845

  Mayer bond orders larger than 0.100000
B(  0-C ,  1-C ) :   0.5821 B(  0-C ,  7-H ) :   0.9139 B(  0-C ,  8-H ) :   0.9947
B(  0-C ,  9-H ) :   0.9553 B(  1-C ,  2-H ) :   0.9716 B(  1-C ,  3-H ) :   0.9624
B(  1-C ,  4-C ) :   0.8762 B(  4-C ,  5-F ) :   1.0354 B(  4-C ,  6-O ) :   1.7629

FINAL SINGLE POINT ENERGY      -292.399556418469

DIPOLE MOMENT
-------------
                                X             Y             Z
Electronic contribution:      3.96812      -0.01749      -7.42674
Nuclear contribution   :     -5.17129      -0.01923       7.59895
                        -----------------------------------------
Total Dipole Moment    :     -1.20317      -0.03672       0.17220
                        -----------------------------------------
Magnitude (a.u.)       :      1.21598
Magnitude (Debye)      :      3.09079

Rotational constants in cm-1:     0.282073     0.131822     0.105134
Rotational constants in MHz :  8456.328792  3951.925810  3151.840112

                             ****ORCA TERMINATED NORMALLY****
TOTAL RUN TIME: 0 days 0 hours 0 minutes 46 seconds 31 msec
