                         Program Version 5.0.0 -  RELEASE  -
|  1> !CAM-B3LYP RIJCOSX def2-TZVPD def2/J TightSCF
|  2> *xyz 0 1
|  3> C          3.90595        2.81985       -3.75292
|  4> C          5.29562        3.13151       -4.10533
|  5> C          3.80351        1.37472       -3.26081
|  6> C          5.70862        3.46889       -5.32419
|  7> N          6.90470        3.03895       -5.71708
|  8> N          4.98188        4.29357       -6.09746
|  9> H          5.00055        4.10131       -7.08776
| 10> H          4.08469        4.59690       -5.73965
| 11> H          5.96336        2.52611       -3.64239
| 12> H          7.04716        2.06686       -5.47360
| 13> H          7.19815        3.30799       -6.64523
| 14> H          3.28202        2.94919       -4.64026
| 15> H          3.56525        3.51457       -2.98252
| 16> H          4.14157        0.71142       -4.02935
| 17> H          2.78528        1.15146       -3.01944
| 18> H          4.41205        1.25066       -2.38949
| 19> *
| 20>
| 21> %MaxCore 64000
| 22>
| 23> %pal nprocs 4
| 24> end
| 25>
| 26> %scf
| 27>   MaxIter 150
| 28> end
| 29>
| 30>
| 31>                          ****END OF INPUT****

CARTESIAN COORDINATES (ANGSTROEM)
---------------------------------
  C      3.905950    2.819850   -3.752920
  C      5.295620    3.131510   -4.105330
  C      3.803510    1.374720   -3.260810
  C      5.708620    3.468890   -5.324190
  N      6.904700    3.038950   -5.717080
  N      4.981880    4.293570   -6.097460
  H      5.000550    4.101310   -7.087760
  H      4.084690    4.596900   -5.739650
  H      5.963360    2.526110   -3.642390
  H      7.047160    2.066860   -5.473600
  H      7.198150    3.307990   -6.645230
  H      3.282020    2.949190   -4.640260
  H      3.565250    3.514570   -2.982520
  H      4.141570    0.711420   -4.029350
  H      2.785280    1.151460   -3.019440
  H      4.412050    1.250660   -2.389490

 Total Charge           Charge          ....    0
 Multiplicity           Mult            ....    1
 Number of Electrons    NEL             ....   48
 Basis Dimension        Dim             ....  312

ORBITAL ENERGIES
----------------

  NO   OCC          E(Eh)            E(eV)
   0   2.0000     -14.393781      -391.6747
   1   2.0000     -14.390611      -391.5884
   2   2.0000     -10.289012      -279.9783
   3   2.0000     -10.221150      -278.1316
   4   2.0000     -10.213028      -277.9106
   5   2.0000     -10.169530      -276.7270
   6   2.0000      -1.050881       -28.5959
   7   2.0000      -0.960039       -26.1240
   8   2.0000      -0.861314       -23.4375
   9   2.0000      -0.777070       -21.1451
  10   2.0000      -0.691649       -18.8207
  11   2.0000      -0.651691       -17.7334
  12   2.0000      -0.607728       -16.5371
  13   2.0000      -0.583667       -15.8824
  14   2.0000      -0.547817       -14.9069
  15   2.0000      -0.517984       -14.0951
  16   2.0000      -0.491858       -13.3841
  17   2.0000      -0.458936       -12.4883
  18   2.0000      -0.438458       -11.9311
  19   2.0000      -0.418133       -11.3780
  20   2.0000      -0.393375       -10.7043
  21   2.0000      -0.389937       -10.6107
  22   2.0000      -0.341735        -9.2991
  23   2.0000      -0.229168        -6.2360
  24   0.0000       0.023829         0.6484
  25   0.0000       0.051377         1.3980
  26   0.0000       0.052868         1.4386
  27   0.0000       0.069810         1.8996
  28   0.0000       0.081254         2.2110

MULLIKEN ATOMIC CHARGES
-----------------------
   0 C :   -0.071683
   1 C :   -0.474315
   2 C :   -1.349003
   3 C :    0.042347
   4 N :   -0.401684
   5 N :   -0.427248
   6 H :    0.164890
   7 H :    0.210749
   8 H :    0.373947
   9 H :    0.206764
  10 H :    0.206636
  11 H :    0.282298
  12 H :    0.221261
  13 H :    0.348606
  14 H :    0.331374
  15 H :    0.335062
Sum of atomic charges:    0.0000000

LOEWDIN ATOMIC CHARGES
----------------------
   0 C :   -0.286678
   1 C :   -0.138053
   2 C :   -0.111586
   3 C :   -0.556772
   4 N :    0.113198
   5 N :    0.124752
   6 H :    0.095652
   7 H :    0.100224
   8 H :    0.063569
   9 H :    0.108675
  10 H :    0.096083
  11 H :    0.095921
  12 H :    0.100266
  13 H :    0.067806
  14 H :    0.060260
  15 H :    0.066683

  Mayer bond orders larger than 0.100000
B(  0-C ,  1-C ) :   0.5724 B(  0-C ,  2-C ) :   0.4560 B(  0-C , 11-H ) :   0.9156
B(  0-C , 12-H ) :   1.0330 B(  1-C ,  2-C ) :   0.1582 B(  1-C ,  3-C ) :   1.6947
B(  1-C ,  5-N ) :   0.1114 B(  1-C ,  8-H ) :   0.9269 B(  2-C , 13-H ) :   0.9699
B(  2-C , 14-H ) :   0.9658 B(  2-C , 15-H ) :   0.9736 B(  3-C ,  4-N ) :   1.0161
B(  3-C ,  5-N ) :   0.8938 B(  4-N ,  9-H ) :   0.9670 B(  4-N , 10-H ) :   0.9338
B(  5-N ,  6-H ) :   1.0162 B(  5-N ,  7-H ) :   0.9215

FINAL SINGLE POINT ENERGY      -267.870844305174

DIPOLE MOMENT
-------------
                                X             Y             Z
Electronic contribution:      3.15840       3.24695      -2.81659
Nuclear contribution   :     -3.27358      -3.61654       1.70633
                        -----------------------------------------
Total Dipole Moment    :     -0.11518      -0.36959      -1.11027
                        -----------------------------------------
Magnitude (a.u.)       :      1.17582
Magnitude (Debye)      :      2.98870

Rotational constants in cm-1:     0.231961     0.071249     0.059473
Rotational constants in MHz :  6954.024434  2135.976855  1782.962814

                             ****ORCA TERMINATED NORMALLY****
TOTAL RUN TIME: 0 days 0 hours 1 minutes 26 seconds 589 msec
