                         Program Version 5.0.0 -  RELEASE  -
|  1> !CAM-B3LYP RIJCOSX def2-TZVPD def2/J TightSCF
|  2> *xyz 0 1
|  3> C          3.80351        1.37472       -3.26081
|  4> C          3.93993        0.32036       -4.36773
|  5> H          4.10504       -0.65508       -3.90773
|  6> H          3.02280        0.28052       -4.95712
|  7> C          5.10585        0.66802       -5.30546
|  8> O          4.80913        1.15019       -6.41436
|  9> F          6.26737        0.56500       -4.81948
| 10> H          3.64113        2.33595       -3.70189
| 11> H          4.69995        1.39701       -2.67703
| 12> H          2.97435        1.12625       -2.63180
| 13> *
| 14>
| 15> %MaxCore 64000
| 16>
| 17> %pal nprocs 4
| 18> end
| 19>
| 20> %scf
| 21>   MaxIter 150
| 22> end
| 23>
| 24>
| 25>                          ****END OF INPUT****

CARTESIAN COORDINATES (ANGSTROEM)
---------------------------------
  C      3.803510    1.374720   -3.260810
  C      3.939930    0.320360   -4.367730
  H      4.105040   -0.655080   -3.907730
  H      3.022800    0.280520   -4.957120
  C      5.105850    0.668020   -5.305460
  O      4.809130    1.150190   -6.414360
  F      6.267370    0.565000   -4.819480
  H      3.641130    2.335950   -3.701890
  H      4.699950    1.397010   -2.677030
  H      2.974350    1.126250   -2.631800

 Total Charge           Charge          ....    0
 Multiplicity           Mult            ....    1
 Number of Electrons    NEL             ....   40
 Basis Dimension        Dim             ....  236

ORBITAL ENERGIES
----------------

  NO   OCC          E(Eh)            E(eV)
   0   2.0000     -24.827577      -675.5927
   1   2.0000     -19.209830      -522.7261
   2   2.0000     -10.427403      -283.7441
   3   2.0000     -10.276115      -279.6273
   4   2.0000     -10.252727      -278.9909
   5   2.0000      -1.399493       -38.0821
   6   2.0000      -1.124556       -30.6007
   7   2.0000      -0.887405       -24.1475
   8   2.0000      -0.765869       -20.8404
   9   2.0000      -0.720109       -19.5952
  10   2.0000      -0.626186       -17.0394
  11   2.0000      -0.612996       -16.6805
  12   2.0000      -0.579975       -15.7819
  13   2.0000      -0.537968       -14.6389
  14   2.0000      -0.508366       -13.8333
  15   2.0000      -0.472662       -12.8618
  16   2.0000      -0.454525       -12.3683
  17   2.0000      -0.442664       -12.0455
  18   2.0000      -0.422662       -11.5012
  19   2.0000      -0.361473        -9.8362
  20   0.0000       0.017476         0.4756
  21   0.0000       0.028270         0.7693
  22   0.0000       0.053020         1.4427
  23   0.0000       0.062381         1.6975
  24   0.0000       0.071766         1.9529

MULLIKEN ATOMIC CHARGES
-----------------------
   0 C :   -1.148708
   1 C :   -0.189734
   2 H :    0.282062
   3 H :    0.247133
   4 C :    0.518338
   5 O :   -0.469366
   6 F :   -0.214747
   7 H :    0.352604
   8 H :    0.325475
   9 H :    0.296943
Sum of atomic charges:    0.0000000

LOEWDIN ATOMIC CHARGES
----------------------
   0 C :   -0.089742
   1 C :   -0.154612
   2 H :    0.113349
   3 H :    0.116609
   4 C :   -0.493851
   5 O :    0.088705
   6 F :    0.200844
   7 H :    0.077463
   8 H :    0.070984
   9 H :    0.070251

  Mayer bond orders larger than 0.100000
B(  0-C ,  1-C ) :   0.5477 B(  0-C ,  7-H ) :   0.9459 B(  0-C ,  8-H ) :   0.9526
B(  0-C ,  9-H ) :   0.9631 B(  1-C ,  2-H ) :   0.9491 B(  1-C ,  3-H ) :   0.9911
B(  1-C ,  4-C ) :   0.8794 B(  4-C ,  5-O ) :   1.7746 B(  4-C ,  6-F ) :   1.0054

FINAL SINGLE POINT ENERGY      -292.405079229737

DIPOLE MOMENT
-------------
                                X             Y             Z
Electronic contribution:      6.39501      -0.99854      -4.74812
Nuclear contribution   :     -6.76123       0.61881       5.86003
                        -----------------------------------------
Total Dipole Moment    :     -0.36622      -0.37973       1.11191
                        -----------------------------------------
Magnitude (a.u.)       :      1.23071
Magnitude (Debye)      :      3.12821

Rotational constants in cm-1:     0.275298     0.134631     0.105723
Rotational constants in MHz :  8253.224169  4036.137572  3169.487264

                             ****ORCA TERMINATED NORMALLY****
TOTAL RUN TIME: 0 days 0 hours 0 minutes 46 seconds 51 msec
