                         Program Version 5.0.0 -  RELEASE  -
|  1> !CAM-B3LYP RIJCOSX def2-TZVPD def2/J TightSCF
|  2> *xyz 0 1
|  3> C          3.90595        2.81985       -3.75292
|  4> N          5.29562        3.13151       -4.10533
|  5> C          3.80351        1.37472       -3.26081
|  6> C          5.70862        3.46889       -5.32419
|  7> C          6.90470        3.03895       -5.71708
|  8> N          4.98188        4.29357       -6.09746
|  9> H          5.00055        4.10131       -7.08776
| 10> H          4.08469        4.59690       -5.73965
| 11> H          5.96336        2.52611       -3.64239
| 12> H          7.04716        2.06686       -5.47360
| 13> H          7.19815        3.30799       -6.64523
| 14> H          3.28202        2.94919       -4.64026
| 15> H          3.56525        3.51457       -2.98252
| 16> H          4.14157        0.71142       -4.02935
| 17> H          2.78528        1.15146       -3.01944
| 18> H          4.41205        1.25066       -2.38949
| 19> *
| 20>
| 21> %MaxCore 64000
| 22>
| 23> %pal nprocs 4
| 24> end
| 25>
| 26> %scf
| 27>   MaxIter 150
| 28> end
| 29>
| 30>
| 31>                          ****END OF INPUT****

CARTESIAN COORDINATES (ANGSTROEM)
---------------------------------
  C      3.905950    2.819850   -3.752920
  N      5.295620    3.131510   -4.105330
  C      3.803510    1.374720   -3.260810
  C      5.708620    3.468890   -5.324190
  C      6.904700    3.038950   -5.717080
  N      4.981880    4.293570   -6.097460
  H      5.000550    4.101310   -7.087760
  H      4.084690    4.596900   -5.739650
  H      5.963360    2.526110   -3.642390
  H      7.047160    2.066860   -5.473600
  H      7.198150    3.307990   -6.645230
  H      3.282020    2.949190   -4.640260
  H      3.565250    3.514570   -2.982520
  H      4.141570    0.711420   -4.029350
  H      2.785280    1.151460   -3.019440
  H      4.412050    1.250660   -2.389490

 Total Charge           Charge          ....    0
 Multiplicity           Mult            ....    1
 Number of Electrons    NEL             ....   48
 Basis Dimension        Dim             ....  312

ORBITAL ENERGIES
----------------

  NO   OCC          E(Eh)            E(eV)
   0   2.0000     -14.393571      -391.6690
   1   2.0000     -14.391500      -391.6126
   2   2.0000     -10.294366      -280.1239
   3   2.0000     -10.284754      -279.8624
   4   2.0000     -10.242191      -278.7042
   5   2.0000     -10.154725      -276.3241
   6   2.0000      -1.055875       -28.7318
   7   2.0000      -0.971863       -26.4457
   8   2.0000      -0.857430       -23.3319
   9   2.0000      -0.788840       -21.4654
  10   2.0000      -0.709674       -19.3112
  11   2.0000      -0.672343       -18.2954
  12   2.0000      -0.607299       -16.5254
  13   2.0000      -0.566635       -15.4189
  14   2.0000      -0.557002       -15.1568
  15   2.0000      -0.522812       -14.2264
  16   2.0000      -0.493386       -13.4257
  17   2.0000      -0.471645       -12.8341
  18   2.0000      -0.449091       -12.2204
  19   2.0000      -0.442329       -12.0364
  20   2.0000      -0.439112       -11.9488
  21   2.0000      -0.405985       -11.0474
  22   2.0000      -0.327107        -8.9010
  23   2.0000      -0.233713        -6.3596
  24   0.0000       0.024778         0.6742
  25   0.0000       0.044215         1.2032
  26   0.0000       0.055269         1.5040
  27   0.0000       0.066773         1.8170
  28   0.0000       0.088069         2.3965

MULLIKEN ATOMIC CHARGES
-----------------------
   0 C :   -0.334344
   1 N :   -0.241337
   2 C :   -1.267255
   3 C :    0.453548
   4 C :   -0.943973
   5 N :   -0.410645
   6 H :    0.198364
   7 H :    0.212141
   8 H :    0.201925
   9 H :    0.241710
  10 H :    0.281792
  11 H :    0.314720
  12 H :    0.258355
  13 H :    0.347075
  14 H :    0.343160
  15 H :    0.344763
Sum of atomic charges:   -0.0000000

LOEWDIN ATOMIC CHARGES
----------------------
   0 C :   -0.239677
   1 N :    0.016121
   2 C :   -0.088457
   3 C :   -0.571008
   4 C :   -0.007093
   5 N :    0.126654
   6 H :    0.107883
   7 H :    0.091796
   8 H :    0.128723
   9 H :    0.009804
  10 H :    0.005007
  11 H :    0.105647
  12 H :    0.108178
  13 H :    0.072196
  14 H :    0.066281
  15 H :    0.067942

  Mayer bond orders larger than 0.100000
B(  0-C ,  1-N ) :   0.7699 B(  0-C ,  2-C ) :   0.5143 B(  0-C , 11-H ) :   0.8988
B(  0-C , 12-H ) :   1.0038 B(  1-N ,  3-C ) :   1.1663 B(  1-N ,  8-H ) :   0.9168
B(  2-C , 13-H ) :   0.9839 B(  2-C , 14-H ) :   0.9517 B(  2-C , 15-H ) :   0.9522
B(  3-C ,  4-C ) :   1.3357 B(  3-C ,  5-N ) :   0.9605 B(  4-C ,  9-H ) :   1.0213
B(  4-C , 10-H ) :   1.1034 B(  5-N ,  6-H ) :   0.9718 B(  5-N ,  7-H ) :   0.9311

FINAL SINGLE POINT ENERGY      -267.860494679822

DIPOLE MOMENT
-------------
                                X             Y             Z
Electronic contribution:      1.50849       3.22845      -1.26636
Nuclear contribution   :     -2.93222      -3.63618       1.36440
                        -----------------------------------------
Total Dipole Moment    :     -1.42373      -0.40773       0.09805
                        -----------------------------------------
Magnitude (a.u.)       :      1.48421
Magnitude (Debye)      :      3.77255

Rotational constants in cm-1:     0.237993     0.072843     0.061284
Rotational constants in MHz :  7134.860770  2183.763760  1837.240960

                             ****ORCA TERMINATED NORMALLY****
TOTAL RUN TIME: 0 days 0 hours 1 minutes 25 seconds 820 msec
