                         Program Version 5.0.0 -  RELEASE  -
|  1> !CAM-B3LYP RIJCOSX def2-TZVPD def2/J TightSCF
|  2> *xyz 0 1
|  3> C          3.90595        2.81985       -3.75292
|  4> N          5.29562        3.13151       -4.10533
|  5> C          3.80351        1.37472       -3.26081
|  6> C          5.70862        3.46889       -5.32419
|  7> N          6.90470        3.03895       -5.71708
|  8> C          4.98188        4.29357       -6.09746
|  9> H          5.00055        4.10131       -7.08776
| 10> H          4.08469        4.59690       -5.73965
| 11> H          5.96336        2.52611       -3.64239
| 12> H          7.04716        2.06686       -5.47360
| 13> H          7.19815        3.30799       -6.64523
| 14> H          3.28202        2.94919       -4.64026
| 15> H          3.56525        3.51457       -2.98252
| 16> H          4.14157        0.71142       -4.02935
| 17> H          2.78528        1.15146       -3.01944
| 18> H          4.41205        1.25066       -2.38949
| 19> *
| 20>
| 21> %MaxCore 64000
| 22>
| 23> %pal nprocs 4
| 24> end
| 25>
| 26> %scf
| 27>   MaxIter 150
| 28> end
| 29>
| 30>
| 31>                          ****END OF INPUT****

CARTESIAN COORDINATES (ANGSTROEM)
---------------------------------
  C      3.905950    2.819850   -3.752920
  N      5.295620    3.131510   -4.105330
  C      3.803510    1.374720   -3.260810
  C      5.708620    3.468890   -5.324190
  N      6.904700    3.038950   -5.717080
  C      4.981880    4.293570   -6.097460
  H      5.000550    4.101310   -7.087760
  H      4.084690    4.596900   -5.739650
  H      5.963360    2.526110   -3.642390
  H      7.047160    2.066860   -5.473600
  H      7.198150    3.307990   -6.645230
  H      3.282020    2.949190   -4.640260
  H      3.565250    3.514570   -2.982520
  H      4.141570    0.711420   -4.029350
  H      2.785280    1.151460   -3.019440
  H      4.412050    1.250660   -2.389490

 Total Charge           Charge          ....    0
 Multiplicity           Mult            ....    1
 Number of Electrons    NEL             ....   48
 Basis Dimension        Dim             ....  312

ORBITAL ENERGIES
----------------

  NO   OCC          E(Eh)            E(eV)
   0   2.0000     -14.393705      -391.6726
   1   2.0000     -14.392712      -391.6456
   2   2.0000     -10.293245      -280.0934
   3   2.0000     -10.278984      -279.7054
   4   2.0000     -10.240000      -278.6446
   5   2.0000     -10.160154      -276.4719
   6   2.0000      -1.060771       -28.8651
   7   2.0000      -0.973784       -26.4980
   8   2.0000      -0.846077       -23.0229
   9   2.0000      -0.790441       -21.5090
  10   2.0000      -0.723130       -19.6774
  11   2.0000      -0.642725       -17.4894
  12   2.0000      -0.609903       -16.5963
  13   2.0000      -0.589809       -16.0495
  14   2.0000      -0.544742       -14.8232
  15   2.0000      -0.527503       -14.3541
  16   2.0000      -0.476140       -12.9564
  17   2.0000      -0.470663       -12.8074
  18   2.0000      -0.462318       -12.5803
  19   2.0000      -0.441483       -12.0134
  20   2.0000      -0.430990       -11.7278
  21   2.0000      -0.407425       -11.0866
  22   2.0000      -0.324695        -8.8354
  23   2.0000      -0.236857        -6.4452
  24   0.0000       0.025020         0.6808
  25   0.0000       0.046808         1.2737
  26   0.0000       0.055787         1.5180
  27   0.0000       0.068778         1.8716
  28   0.0000       0.080107         2.1798

MULLIKEN ATOMIC CHARGES
-----------------------
   0 C :   -0.293581
   1 N :   -0.230548
   2 C :   -1.265478
   3 C :    0.425599
   4 N :   -0.427466
   5 C :   -1.006410
   6 H :    0.203871
   7 H :    0.365601
   8 H :    0.218782
   9 H :    0.188976
  10 H :    0.213245
  11 H :    0.321715
  12 H :    0.255971
  13 H :    0.343899
  14 H :    0.344047
  15 H :    0.341778
Sum of atomic charges:   -0.0000000

LOEWDIN ATOMIC CHARGES
----------------------
   0 C :   -0.233277
   1 N :    0.017264
   2 C :   -0.091027
   3 C :   -0.578435
   4 N :    0.115629
   5 C :    0.007392
   6 H :    0.007150
   7 H :    0.002651
   8 H :    0.124981
   9 H :    0.099603
  10 H :    0.105642
  11 H :    0.109222
  12 H :    0.112341
  13 H :    0.068871
  14 H :    0.066815
  15 H :    0.065180

  Mayer bond orders larger than 0.100000
B(  0-C ,  1-N ) :   0.7820 B(  0-C ,  2-C ) :   0.4500 B(  0-C , 11-H ) :   0.9093
B(  0-C , 12-H ) :   0.9936 B(  1-N ,  3-C ) :   1.0532 B(  1-N ,  8-H ) :   0.9183
B(  2-C , 13-H ) :   0.9888 B(  2-C , 14-H ) :   0.9512 B(  2-C , 15-H ) :   0.9581
B(  3-C ,  4-N ) :   1.0072 B(  3-C ,  5-C ) :   1.4208 B(  4-N ,  9-H ) :   0.9804
B(  4-N , 10-H ) :   0.9307 B(  5-C ,  6-H ) :   1.1584 B(  5-C ,  7-H ) :   0.8820

FINAL SINGLE POINT ENERGY      -267.865033655984

DIPOLE MOMENT
-------------
                                X             Y             Z
Electronic contribution:      3.36865       2.06045      -0.98003
Nuclear contribution   :     -3.34013      -3.37002       1.28371
                        -----------------------------------------
Total Dipole Moment    :      0.02852      -1.30957       0.30368
                        -----------------------------------------
Magnitude (a.u.)       :      1.34463
Magnitude (Debye)      :      3.41777

Rotational constants in cm-1:     0.239537     0.072280     0.060961
Rotational constants in MHz :  7181.153552  2166.902802  1827.551447

                             ****ORCA TERMINATED NORMALLY****
TOTAL RUN TIME: 0 days 0 hours 1 minutes 24 seconds 688 msec
