                         Program Version 5.0.0 -  RELEASE  -
|  1> !CAM-B3LYP RIJCOSX def2-TZVPD def2/J TightSCF xyzfile
|  2>
|  3> *xyzfile 0 1 D1.xyz
|  4>
|  5> %MaxCore 64000
|  6>
|  7> %pal nprocs 4
|  8> end
|  9>
| 10> %scf
| 11>   MaxIter 150
| 12> end
| 13>
| 14>
| 15>                          ****END OF INPUT****

CARTESIAN COORDINATES (ANGSTROEM)
---------------------------------
  C      3.905947    2.819855   -3.752920
  C      5.295615    3.131515   -4.105334
  C      3.803511    1.374716   -3.260807
  C      3.939934    0.320362   -4.367729
  H      4.105043   -0.655085   -3.907733
  H      3.022801    0.280517   -4.957117
  C      5.105846    0.668022   -5.305463
  C      5.708619    3.468885   -5.324190
  N      6.904696    3.038954   -5.717084
  N      4.981884    4.293570   -6.097457
  H      5.000546    4.101311   -7.087761
  H      4.084693    4.596899   -5.739652
  H      5.963358    2.526112   -3.642391
  H      7.047164    2.066861   -5.473604
  H      7.198145    3.307994   -6.645225
  H      3.282025    2.949187   -4.640259
  H      3.565254    3.514574   -2.982523
  H      4.574833    1.215157   -2.500443
  H      2.843514    1.260845   -2.751465
  F      4.809132    1.150187   -6.414361
  O      6.267366    0.564999   -4.819481

 Total Charge           Charge          ....    0
 Multiplicity           Mult            ....    1
 Number of Electrons    NEL             ....   78
 Basis Dimension        Dim             ....  475

ORBITAL ENERGIES
----------------

  NO   OCC          E(Eh)            E(eV)
   0   2.0000     -24.838891      -675.9006
   1   2.0000     -19.209830      -522.7261
   2   2.0000     -14.392440      -391.6382
   3   2.0000     -14.370805      -391.0495
   4   2.0000     -10.436426      -283.9896
   5   2.0000     -10.286992      -279.9233
   6   2.0000     -10.273616      -279.5593
   7   2.0000     -10.251221      -278.9499
   8   2.0000     -10.233109      -278.4571
   9   2.0000     -10.169231      -276.7188
  10   2.0000      -1.418992       -38.6127
  11   2.0000      -1.124564       -30.6009
  12   2.0000      -1.044819       -28.4310
  13   2.0000      -0.952663       -25.9233
  14   2.0000      -0.903298       -24.5800
  15   2.0000      -0.835319       -22.7302
  16   2.0000      -0.776736       -21.1360
  17   2.0000      -0.740953       -20.1624
  18   2.0000      -0.687684       -18.7128
  19   2.0000      -0.654927       -17.8215
  20   2.0000      -0.637661       -17.3516
  21   2.0000      -0.620019       -16.8716
  22   2.0000      -0.608788       -16.5660
  23   2.0000      -0.593319       -16.1450
  24   2.0000      -0.574786       -15.6407
  25   2.0000      -0.538718       -14.6593
  26   2.0000      -0.531874       -14.4730
  27   2.0000      -0.512813       -13.9544
  28   2.0000      -0.501599       -13.6492
  29   2.0000      -0.469575       -12.7778
  30   2.0000      -0.456613       -12.4251
  31   2.0000      -0.435600       -11.8533
  32   2.0000      -0.432528       -11.7697
  33   2.0000      -0.414251       -11.2723
  34   2.0000      -0.401882       -10.9358
  35   2.0000      -0.388365       -10.5679
  36   2.0000      -0.369116       -10.0442
  37   2.0000      -0.331233        -9.0133
  38   2.0000      -0.229415        -6.2427
  39   0.0000       0.008891         0.2419
  40   0.0000       0.023145         0.6298
  41   0.0000       0.042107         1.1458
  42   0.0000       0.049337         1.3425
  43   0.0000       0.056347         1.5333

MULLIKEN ATOMIC CHARGES
-----------------------
   0 C :   -0.297080
   1 C :   -0.517717
   2 C :   -0.657528
   3 C :   -0.549663
   4 H :    0.283659
   5 H :    0.305795
   6 C :    0.870425
   7 C :   -0.205058
   8 N :   -0.388713
   9 N :   -0.450914
  10 H :    0.160683
  11 H :    0.221745
  12 H :    0.515843
  13 H :    0.306174
  14 H :    0.183734
  15 H :    0.334312
  16 H :    0.169781
  17 H :    0.299762
  18 H :    0.276149
  19 F :   -0.266547
  20 O :   -0.594841
Sum of atomic charges:   -0.0000000

LOEWDIN ATOMIC CHARGES
----------------------
   0 C :   -0.222644
   1 C :   -0.132623
   2 C :   -0.189381
   3 C :   -0.086957
   4 H :    0.124005
   5 H :    0.116024
   6 C :   -0.470235
   7 C :   -0.568419
   8 N :    0.134534
   9 N :    0.135404
  10 H :    0.097398
  11 H :    0.100790
  12 H :    0.071305
  13 H :    0.064107
  14 H :    0.104211
  15 H :    0.106728
  16 H :    0.106852
  17 H :    0.121039
  18 H :    0.111412
  19 F :    0.229193
  20 O :    0.047256

  Mayer bond orders larger than 0.100000
B(  0-C ,  1-C ) :   0.5043 B(  0-C ,  2-C ) :   0.7232 B(  0-C , 15-H ) :   0.8660
B(  0-C , 16-H ) :   1.1406 B(  1-C ,  2-C ) :   0.1005 B(  1-C ,  7-C ) :   1.6956
B(  1-C , 12-H ) :   0.8609 B(  2-C ,  3-C ) :   0.8391 B(  2-C , 17-H ) :   0.9318
B(  2-C , 18-H ) :   1.0050 B(  3-C ,  4-H ) :   0.9355 B(  3-C ,  5-H ) :   0.9673
B(  3-C ,  6-C ) :   0.8761 B(  6-C , 19-F ) :   0.9076 B(  6-C , 20-O ) :   1.5462
B(  7-C ,  8-N ) :   0.9141 B(  7-C ,  9-N ) :   0.7926 B(  8-N , 13-H ) :   0.7981
B(  8-N , 14-H ) :   0.9272 B(  9-N , 10-H ) :   0.9917 B(  9-N , 11-H ) :   0.9187

FINAL SINGLE POINT ENERGY      -519.764359973155

DIPOLE MOMENT
-------------
                                X             Y             Z
Electronic contribution:      3.37279      -3.66062      -6.44169
Nuclear contribution   :     -4.60158       3.22721       5.56005
                        -----------------------------------------
Total Dipole Moment    :     -1.22879      -0.43341      -0.88164
                        -----------------------------------------
Magnitude (a.u.)       :      1.57323
Magnitude (Debye)      :      3.99884

Rotational constants in cm-1:     0.061224     0.042534     0.033552
Rotational constants in MHz :  1835.464095  1275.135177  1005.856966

                             ****ORCA TERMINATED NORMALLY****
TOTAL RUN TIME: 0 days 0 hours 4 minutes 17 seconds 924 msec
