                         Program Version 5.0.0 -  RELEASE  -
|  1> !CAM-B3LYP RIJCOSX def2-TZVPD def2/J TightSCF xyzfile
|  2>
|  3> *xyzfile 0 1 D2.xyz
|  4>
|  5> %MaxCore 64000
|  6>
|  7> %pal nprocs 4
|  8> end
|  9>
| 10> %scf
| 11>   MaxIter 150
| 12> end
| 13>
| 14>
| 15>                          ****END OF INPUT****

CARTESIAN COORDINATES (ANGSTROEM)
---------------------------------
  C      3.905947    2.819855   -3.752920
  N      5.295615    3.131515   -4.105334
  C      3.803511    1.374716   -3.260807
  C      3.939934    0.320362   -4.367729
  H      4.105043   -0.655085   -3.907733
  H      3.022801    0.280517   -4.957117
  C      5.105846    0.668022   -5.305463
  C      5.708619    3.468885   -5.324190
  C      6.904696    3.038954   -5.717084
  N      4.981884    4.293570   -6.097457
  H      5.000546    4.101311   -7.087761
  H      4.084693    4.596899   -5.739652
  H      5.963358    2.526112   -3.642391
  H      7.047164    2.066861   -5.473604
  H      7.198145    3.307994   -6.645225
  H      3.282025    2.949187   -4.640259
  H      3.565254    3.514574   -2.982523
  H      4.574833    1.215157   -2.500443
  H      2.843514    1.260845   -2.751465
  F      4.809132    1.150187   -6.414361
  O      6.267366    0.564999   -4.819481

 Total Charge           Charge          ....    0
 Multiplicity           Mult            ....    1
 Number of Electrons    NEL             ....   78
 Basis Dimension        Dim             ....  475

ORBITAL ENERGIES
----------------

  NO   OCC          E(Eh)            E(eV)
   0   2.0000     -24.838168      -675.8809
   1   2.0000     -19.208995      -522.7033
   2   2.0000     -14.390609      -391.5884
   3   2.0000     -14.388761      -391.5381
   4   2.0000     -10.436931      -284.0033
   5   2.0000     -10.293072      -280.0887
   6   2.0000     -10.285328      -279.8780
   7   2.0000     -10.284154      -279.8461
   8   2.0000     -10.275219      -279.6029
   9   2.0000     -10.137501      -275.8554
  10   2.0000      -1.418079       -38.5879
  11   2.0000      -1.123950       -30.5842
  12   2.0000      -1.054820       -28.7031
  13   2.0000      -0.972504       -26.4632
  14   2.0000      -0.904627       -24.6162
  15   2.0000      -0.826997       -22.5037
  16   2.0000      -0.782219       -21.2853
  17   2.0000      -0.745584       -20.2884
  18   2.0000      -0.700865       -19.0715
  19   2.0000      -0.670796       -18.2533
  20   2.0000      -0.641344       -17.4519
  21   2.0000      -0.625019       -17.0076
  22   2.0000      -0.610683       -16.6175
  23   2.0000      -0.585725       -15.9384
  24   2.0000      -0.569650       -15.5010
  25   2.0000      -0.555768       -15.1232
  26   2.0000      -0.539741       -14.6871
  27   2.0000      -0.514233       -13.9930
  28   2.0000      -0.489013       -13.3067
  29   2.0000      -0.475897       -12.9498
  30   2.0000      -0.465833       -12.6760
  31   2.0000      -0.461236       -12.5509
  32   2.0000      -0.436603       -11.8806
  33   2.0000      -0.434537       -11.8244
  34   2.0000      -0.412773       -11.2321
  35   2.0000      -0.405176       -11.0254
  36   2.0000      -0.352181        -9.5833
  37   2.0000      -0.324178        -8.8213
  38   2.0000      -0.224872        -6.1191
  39   0.0000       0.004217         0.1147
  40   0.0000       0.020009         0.5445
  41   0.0000       0.037831         1.0294
  42   0.0000       0.043150         1.1742
  43   0.0000       0.052674         1.4333

MULLIKEN ATOMIC CHARGES
-----------------------
   0 C :   -0.620479
   1 N :   -0.268450
   2 C :   -0.609822
   3 C :   -0.465670
   4 H :    0.275126
   5 H :    0.308832
   6 C :    0.768744
   7 C :    0.281600
   8 C :   -0.980144
   9 N :   -0.483680
  10 H :    0.193091
  11 H :    0.213505
  12 H :    0.257340
  13 H :    0.508011
  14 H :    0.266335
  15 H :    0.329282
  16 H :    0.248538
  17 H :    0.299070
  18 H :    0.276811
  19 F :   -0.251215
  20 O :   -0.546824
Sum of atomic charges:   -0.0000000

LOEWDIN ATOMIC CHARGES
----------------------
   0 C :   -0.182443
   1 N :    0.034750
   2 C :   -0.175854
   3 C :   -0.087918
   4 H :    0.124966
   5 H :    0.116646
   6 C :   -0.472406
   7 C :   -0.584542
   8 C :    0.002734
   9 N :    0.132629
  10 H :    0.107356
  11 H :    0.091278
  12 H :    0.131331
  13 H :   -0.011289
  14 H :    0.020274
  15 H :    0.115568
  16 H :    0.114693
  17 H :    0.121148
  18 H :    0.114622
  19 F :    0.234695
  20 O :    0.051761

  Mayer bond orders larger than 0.100000
B(  0-C ,  1-N ) :   0.7479 B(  0-C ,  2-C ) :   0.7660 B(  0-C ,  7-C ) :  -0.1478
B(  0-C , 15-H ) :   0.9187 B(  0-C , 16-H ) :   1.0465 B(  1-N ,  7-C ) :   0.9671
B(  1-N , 12-H ) :   0.8479 B(  2-C ,  3-C ) :   0.8086 B(  2-C , 17-H ) :   0.9455
B(  2-C , 18-H ) :   1.0120 B(  3-C ,  4-H ) :   0.9525 B(  3-C ,  5-H ) :   0.9688
B(  3-C ,  6-C ) :   0.8833 B(  6-C , 19-F ) :   0.9357 B(  6-C , 20-O ) :   1.6493
B(  7-C ,  8-C ) :   1.5409 B(  7-C ,  9-N ) :   0.7838 B(  7-C , 14-H ) :  -0.1414
B(  8-C , 13-H ) :   0.7155 B(  8-C , 14-H ) :   1.2875 B(  9-N , 10-H ) :   0.9632
B(  9-N , 11-H ) :   0.9277

FINAL SINGLE POINT ENERGY      -519.736145316010

DIPOLE MOMENT
-------------
                                X             Y             Z
Electronic contribution:      2.04648      -3.79705      -5.16931
Nuclear contribution   :     -4.40347       3.21582       5.36161
                        -----------------------------------------
Total Dipole Moment    :     -2.35700      -0.58124       0.19230
                        -----------------------------------------
Magnitude (a.u.)       :      2.43521
Magnitude (Debye)      :      6.18981

Rotational constants in cm-1:     0.061226     0.043199     0.033926
Rotational constants in MHz :  1835.503528  1295.087558  1017.061512

                             ****ORCA TERMINATED NORMALLY****
TOTAL RUN TIME: 0 days 0 hours 4 minutes 17 seconds 596 msec
