                         Program Version 5.0.0 -  RELEASE  -
|  1> !CAM-B3LYP RIJCOSX def2-TZVPD def2/J TightSCF xyzfile
|  2>
|  3> *xyzfile 0 1 D3.xyz
|  4>
|  5> %MaxCore 64000
|  6>
|  7> %pal nprocs 4
|  8> end
|  9>
| 10> %scf
| 11>   MaxIter 150
| 12> end
| 13>
| 14>
| 15>                          ****END OF INPUT****

CARTESIAN COORDINATES (ANGSTROEM)
---------------------------------
  C      3.905947    2.819855   -3.752920
  N      5.295615    3.131515   -4.105334
  C      3.803511    1.374716   -3.260807
  C      3.939934    0.320362   -4.367729
  H      4.105043   -0.655085   -3.907733
  H      3.022801    0.280517   -4.957117
  C      5.105846    0.668022   -5.305463
  C      5.708619    3.468885   -5.324190
  N      6.904696    3.038954   -5.717084
  C      4.981884    4.293570   -6.097457
  H      5.000546    4.101311   -7.087761
  H      4.084693    4.596899   -5.739652
  H      5.963358    2.526112   -3.642391
  H      7.047164    2.066861   -5.473604
  H      7.198145    3.307994   -6.645225
  H      3.282025    2.949187   -4.640259
  H      3.565254    3.514574   -2.982523
  H      4.574833    1.215157   -2.500443
  H      2.843514    1.260845   -2.751465
  F      4.809132    1.150187   -6.414361
  O      6.267366    0.564999   -4.819481

 Total Charge           Charge          ....    0
 Multiplicity           Mult            ....    1
 Number of Electrons    NEL             ....   78
 Basis Dimension        Dim             ....  475

ORBITAL ENERGIES
----------------

  NO   OCC          E(Eh)            E(eV)
   0   2.0000     -24.849137      -676.1794
   1   2.0000     -19.227250      -523.2001
   2   2.0000     -14.392913      -391.6511
   3   2.0000     -14.369803      -391.0222
   4   2.0000     -10.452828      -284.4359
   5   2.0000     -10.291060      -280.0340
   6   2.0000     -10.289656      -279.9958
   7   2.0000     -10.286997      -279.9234
   8   2.0000     -10.276554      -279.6392
   9   2.0000     -10.154470      -276.3172
  10   2.0000      -1.428881       -38.8818
  11   2.0000      -1.142667       -31.0935
  12   2.0000      -1.056089       -28.7376
  13   2.0000      -0.970734       -26.4150
  14   2.0000      -0.903954       -24.5978
  15   2.0000      -0.821780       -22.3618
  16   2.0000      -0.785863       -21.3844
  17   2.0000      -0.759487       -20.6667
  18   2.0000      -0.713432       -19.4135
  19   2.0000      -0.652189       -17.7470
  20   2.0000      -0.644097       -17.5268
  21   2.0000      -0.635219       -17.2852
  22   2.0000      -0.618124       -16.8200
  23   2.0000      -0.588178       -16.0051
  24   2.0000      -0.577329       -15.7099
  25   2.0000      -0.556403       -15.1405
  26   2.0000      -0.545839       -14.8530
  27   2.0000      -0.507379       -13.8065
  28   2.0000      -0.499666       -13.5966
  29   2.0000      -0.479235       -13.0406
  30   2.0000      -0.462559       -12.5869
  31   2.0000      -0.460022       -12.5178
  32   2.0000      -0.445750       -12.1295
  33   2.0000      -0.439027       -11.9465
  34   2.0000      -0.426018       -11.5925
  35   2.0000      -0.401199       -10.9172
  36   2.0000      -0.383358       -10.4317
  37   2.0000      -0.317944        -8.6517
  38   2.0000      -0.230904        -6.2832
  39   0.0000      -0.007767        -0.2114
  40   0.0000       0.022075         0.6007
  41   0.0000       0.042139         1.1467
  42   0.0000       0.045551         1.2395
  43   0.0000       0.051343         1.3971

MULLIKEN ATOMIC CHARGES
-----------------------
   0 C :   -0.605079
   1 N :   -0.248695
   2 C :   -0.623061
   3 C :   -0.484489
   4 H :    0.281835
   5 H :    0.314950
   6 C :    0.831184
   7 C :    0.204899
   8 N :   -0.404741
   9 C :   -1.166044
  10 H :    0.299436
  11 H :    0.405008
  12 H :    0.297585
  13 H :    0.336994
  14 H :    0.207429
  15 H :    0.350507
  16 H :    0.257494
  17 H :    0.300323
  18 H :    0.270304
  19 F :   -0.221257
  20 O :   -0.604582
Sum of atomic charges:   -0.0000000

LOEWDIN ATOMIC CHARGES
----------------------
   0 C :   -0.174640
   1 N :    0.035165
   2 C :   -0.174265
   3 C :   -0.085337
   4 H :    0.125754
   5 H :    0.119237
   6 C :   -0.464803
   7 C :   -0.593663
   8 N :    0.133347
   9 C :    0.002522
  10 H :    0.010060
  11 H :    0.002848
  12 H :    0.127782
  13 H :    0.056791
  14 H :    0.112191
  15 H :    0.119490
  16 H :    0.119105
  17 H :    0.119408
  18 H :    0.116345
  19 F :    0.244018
  20 O :    0.048645

  Mayer bond orders larger than 0.100000
B(  0-C ,  1-N ) :   0.7654 B(  0-C ,  2-C ) :   0.7429 B(  0-C ,  9-C ) :   0.1066
B(  0-C , 15-H ) :   0.9273 B(  0-C , 16-H ) :   1.0038 B(  1-N ,  7-C ) :   1.0102
B(  1-N , 12-H ) :   0.7863 B(  2-C ,  3-C ) :   0.8076 B(  2-C , 17-H ) :   0.9407
B(  2-C , 18-H ) :   1.0145 B(  3-C ,  4-H ) :   0.9472 B(  3-C ,  5-H ) :   0.9646
B(  3-C ,  6-C ) :   0.8940 B(  6-C , 19-F ) :   0.9726 B(  6-C , 20-O ) :   1.5024
B(  7-C ,  8-N ) :   0.8696 B(  7-C ,  9-C ) :   1.5118 B(  8-N , 13-H ) :   0.7714
B(  8-N , 14-H ) :   0.9138 B(  9-C , 10-H ) :   1.0149 B(  9-C , 11-H ) :   0.9019

FINAL SINGLE POINT ENERGY      -519.755292107926

DIPOLE MOMENT
-------------
                                X             Y             Z
Electronic contribution:      3.53619      -4.88564      -4.86480
Nuclear contribution   :     -4.64021       3.37029       5.31478
                        -----------------------------------------
Total Dipole Moment    :     -1.10402      -1.51535       0.44999
                        -----------------------------------------
Magnitude (a.u.)       :      1.92812
Magnitude (Debye)      :      4.90088

Rotational constants in cm-1:     0.061077     0.043622     0.034103
Rotational constants in MHz :  1831.041375  1307.759852  1022.388536

                             ****ORCA TERMINATED NORMALLY****
TOTAL RUN TIME: 0 days 0 hours 4 minutes 14 seconds 581 msec
