                         Program Version 5.0.0 -  RELEASE  -
|  1> !CAM-B3LYP RIJCOSX def2-TZVPD def2/J TightSCF xyzfile
|  2>
|  3> *xyzfile 0 1 D4.xyz
|  4>
|  5> %MaxCore 64000
|  6>
|  7> %pal nprocs 4
|  8> end
|  9>
| 10> %scf
| 11>   MaxIter 150
| 12> end
| 13>
| 14>
| 15>                          ****END OF INPUT****

CARTESIAN COORDINATES (ANGSTROEM)
---------------------------------
  C      3.905947    2.819855   -3.752920
  C      5.295615    3.131515   -4.105334
  C      3.803511    1.374716   -3.260807
  C      3.939934    0.320362   -4.367729
  H      4.105043   -0.655085   -3.907733
  H      3.022801    0.280517   -4.957117
  C      5.105846    0.668022   -5.305463
  C      5.708619    3.468885   -5.324190
  N      6.904696    3.038954   -5.717084
  N      4.981884    4.293570   -6.097457
  H      5.000546    4.101311   -7.087761
  H      4.084693    4.596899   -5.739652
  H      5.963358    2.526112   -3.642391
  H      7.047164    2.066861   -5.473604
  H      7.198145    3.307994   -6.645225
  H      3.282025    2.949187   -4.640259
  H      3.565254    3.514574   -2.982523
  H      4.574833    1.215157   -2.500443
  H      2.843514    1.260845   -2.751465
  O      4.809132    1.150187   -6.414361
  F      6.267366    0.564999   -4.819481

 Total Charge           Charge          ....    0
 Multiplicity           Mult            ....    1
 Number of Electrons    NEL             ....   78
 Basis Dimension        Dim             ....  475

ORBITAL ENERGIES
----------------

  NO   OCC          E(Eh)            E(eV)
   0   2.0000     -24.835651      -675.8124
   1   2.0000     -19.207694      -522.6679
   2   2.0000     -14.390223      -391.5779
   3   2.0000     -14.379485      -391.2857
   4   2.0000     -10.429570      -283.8030
   5   2.0000     -10.290099      -280.0078
   6   2.0000     -10.270802      -279.4827
   7   2.0000     -10.251454      -278.9563
   8   2.0000     -10.230519      -278.3866
   9   2.0000     -10.170262      -276.7469
  10   2.0000      -1.411356       -38.4050
  11   2.0000      -1.126966       -30.6663
  12   2.0000      -1.046235       -28.4695
  13   2.0000      -0.955064       -25.9886
  14   2.0000      -0.902792       -24.5662
  15   2.0000      -0.834117       -22.6975
  16   2.0000      -0.775564       -21.1042
  17   2.0000      -0.738747       -20.1023
  18   2.0000      -0.687272       -18.7016
  19   2.0000      -0.665836       -18.1183
  20   2.0000      -0.633637       -17.2421
  21   2.0000      -0.620169       -16.8756
  22   2.0000      -0.600797       -16.3485
  23   2.0000      -0.582149       -15.8411
  24   2.0000      -0.576188       -15.6789
  25   2.0000      -0.538969       -14.6661
  26   2.0000      -0.536368       -14.5953
  27   2.0000      -0.513512       -13.9734
  28   2.0000      -0.500244       -13.6123
  29   2.0000      -0.469403       -12.7731
  30   2.0000      -0.454316       -12.3626
  31   2.0000      -0.440501       -11.9866
  32   2.0000      -0.431426       -11.7397
  33   2.0000      -0.412702       -11.2302
  34   2.0000      -0.404386       -11.0039
  35   2.0000      -0.393632       -10.7113
  36   2.0000      -0.360364        -9.8060
  37   2.0000      -0.332116        -9.0373
  38   2.0000      -0.231603        -6.3022
  39   0.0000       0.016563         0.4507
  40   0.0000       0.028009         0.7622
  41   0.0000       0.041976         1.1422
  42   0.0000       0.050370         1.3706
  43   0.0000       0.055828         1.5192

MULLIKEN ATOMIC CHARGES
-----------------------
   0 C :   -0.216664
   1 C :   -0.636788
   2 C :   -0.738083
   3 C :   -0.539992
   4 H :    0.313337
   5 H :    0.280607
   6 C :    0.822245
   7 C :   -0.101723
   8 N :   -0.383403
   9 N :   -0.452250
  10 H :    0.160839
  11 H :    0.225447
  12 H :    0.562274
  13 H :    0.274821
  14 H :    0.182369
  15 H :    0.326045
  16 H :    0.169901
  17 H :    0.306482
  18 H :    0.271703
  19 O :   -0.538152
  20 F :   -0.289015
Sum of atomic charges:    0.0000000

LOEWDIN ATOMIC CHARGES
----------------------
   0 C :   -0.222085
   1 C :   -0.141407
   2 C :   -0.193462
   3 C :   -0.087961
   4 H :    0.117893
   5 H :    0.123540
   6 C :   -0.484473
   7 C :   -0.565364
   8 N :    0.136958
   9 N :    0.147542
  10 H :    0.102225
  11 H :    0.103267
  12 H :    0.067647
  13 H :    0.079348
  14 H :    0.108092
  15 H :    0.109992
  16 H :    0.106259
  17 H :    0.116775
  18 H :    0.111508
  19 O :    0.085305
  20 F :    0.178401

  Mayer bond orders larger than 0.100000
B(  0-C ,  1-C ) :   0.5279 B(  0-C ,  2-C ) :   0.6933 B(  0-C , 15-H ) :   0.8556
B(  0-C , 16-H ) :   1.1496 B(  1-C ,  2-C ) :   0.1380 B(  1-C ,  7-C ) :   1.6503
B(  1-C , 12-H ) :   0.7933 B(  2-C ,  3-C ) :   0.8378 B(  2-C , 17-H ) :   0.9419
B(  2-C , 18-H ) :   1.0056 B(  3-C ,  4-H ) :   0.9337 B(  3-C ,  5-H ) :   0.9814
B(  3-C ,  6-C ) :   0.8728 B(  6-C , 19-O ) :   1.6519 B(  6-C , 20-F ) :   0.8121
B(  7-C ,  8-N ) :   0.9347 B(  7-C ,  9-N ) :   0.8093 B(  8-N , 13-H ) :   0.8476
B(  8-N , 14-H ) :   0.9130 B(  9-N , 10-H ) :   0.9861 B(  9-N , 11-H ) :   0.9162

FINAL SINGLE POINT ENERGY      -519.765799787533

DIPOLE MOMENT
-------------
                                X             Y             Z
Electronic contribution:      5.80275      -4.54645      -3.89186
Nuclear contribution   :     -6.25608       3.89116       3.75052
                        -----------------------------------------
Total Dipole Moment    :     -0.45332      -0.65529      -0.14133
                        -----------------------------------------
Magnitude (a.u.)       :      0.80924
Magnitude (Debye)      :      2.05694

Rotational constants in cm-1:     0.061229     0.042568     0.033282
Rotational constants in MHz :  1835.590871  1276.154029   997.769927

                             ****ORCA TERMINATED NORMALLY****
TOTAL RUN TIME: 0 days 0 hours 4 minutes 13 seconds 628 msec
