                         Program Version 5.0.0 -  RELEASE  -
|  1> !CAM-B3LYP RIJCOSX def2-TZVPD def2/J TightSCF xyzfile
|  2>
|  3> *xyzfile 0 1 D5.xyz
|  4>
|  5> %MaxCore 64000
|  6>
|  7> %pal nprocs 4
|  8> end
|  9>
| 10> %scf
| 11>   MaxIter 150
| 12> end
| 13>
| 14>
| 15>                          ****END OF INPUT****

CARTESIAN COORDINATES (ANGSTROEM)
---------------------------------
  C      3.905947    2.819855   -3.752920
  N      5.295615    3.131515   -4.105334
  C      3.803511    1.374716   -3.260807
  C      3.939934    0.320362   -4.367729
  H      4.105043   -0.655085   -3.907733
  H      3.022801    0.280517   -4.957117
  C      5.105846    0.668022   -5.305463
  C      5.708619    3.468885   -5.324190
  C      6.904696    3.038954   -5.717084
  N      4.981884    4.293570   -6.097457
  H      5.000546    4.101311   -7.087761
  H      4.084693    4.596899   -5.739652
  H      5.963358    2.526112   -3.642391
  H      7.047164    2.066861   -5.473604
  H      7.198145    3.307994   -6.645225
  H      3.282025    2.949187   -4.640259
  H      3.565254    3.514574   -2.982523
  H      4.574833    1.215157   -2.500443
  H      2.843514    1.260845   -2.751465
  O      4.809132    1.150187   -6.414361
  F      6.267366    0.564999   -4.819481

 Total Charge           Charge          ....    0
 Multiplicity           Mult            ....    1
 Number of Electrons    NEL             ....   78
 Basis Dimension        Dim             ....  475

ORBITAL ENERGIES
----------------

  NO   OCC          E(Eh)            E(eV)
   0   2.0000     -24.831417      -675.6972
   1   2.0000     -19.211289      -522.7658
   2   2.0000     -14.395843      -391.7308
   3   2.0000     -14.385676      -391.4541
   4   2.0000     -10.431626      -283.8590
   5   2.0000     -10.292404      -280.0705
   6   2.0000     -10.286400      -279.9072
   7   2.0000     -10.283748      -279.8350
   8   2.0000     -10.276886      -279.6483
   9   2.0000     -10.142574      -275.9935
  10   2.0000      -1.407821       -38.3088
  11   2.0000      -1.129318       -30.7303
  12   2.0000      -1.056291       -28.7431
  13   2.0000      -0.972018       -26.4500
  14   2.0000      -0.905040       -24.6274
  15   2.0000      -0.826903       -22.5012
  16   2.0000      -0.783240       -21.3130
  17   2.0000      -0.740292       -20.1444
  18   2.0000      -0.701992       -19.1022
  19   2.0000      -0.675349       -18.3772
  20   2.0000      -0.634943       -17.2777
  21   2.0000      -0.631805       -17.1923
  22   2.0000      -0.595076       -16.1928
  23   2.0000      -0.583275       -15.8717
  24   2.0000      -0.571609       -15.5543
  25   2.0000      -0.559645       -15.2287
  26   2.0000      -0.537538       -14.6271
  27   2.0000      -0.513279       -13.9670
  28   2.0000      -0.493381       -13.4256
  29   2.0000      -0.474585       -12.9141
  30   2.0000      -0.464240       -12.6326
  31   2.0000      -0.452642       -12.3170
  32   2.0000      -0.442168       -12.0320
  33   2.0000      -0.433928       -11.8078
  34   2.0000      -0.427674       -11.6376
  35   2.0000      -0.392444       -10.6789
  36   2.0000      -0.364144        -9.9089
  37   2.0000      -0.327226        -8.9043
  38   2.0000      -0.225408        -6.1337
  39   0.0000       0.011064         0.3011
  40   0.0000       0.023420         0.6373
  41   0.0000       0.036856         1.0029
  42   0.0000       0.044353         1.2069
  43   0.0000       0.053573         1.4578

MULLIKEN ATOMIC CHARGES
-----------------------
   0 C :   -0.541716
   1 N :   -0.285030
   2 C :   -0.693809
   3 C :   -0.454048
   4 H :    0.307240
   5 H :    0.284927
   6 C :    0.729272
   7 C :    0.314356
   8 C :   -0.854606
   9 N :   -0.486730
  10 H :    0.190830
  11 H :    0.212768
  12 H :    0.239281
  13 H :    0.385628
  14 H :    0.264413
  15 H :    0.317772
  16 H :    0.249568
  17 H :    0.308091
  18 H :    0.273788
  19 O :   -0.497042
  20 F :   -0.264952
Sum of atomic charges:    0.0000000

LOEWDIN ATOMIC CHARGES
----------------------
   0 C :   -0.180956
   1 N :    0.035236
   2 C :   -0.179008
   3 C :   -0.088018
   4 H :    0.119640
   5 H :    0.124148
   6 C :   -0.485567
   7 C :   -0.581799
   8 C :   -0.002346
   9 N :    0.142211
  10 H :    0.111183
  11 H :    0.093404
  12 H :    0.129036
  13 H :   -0.001173
  14 H :    0.022482
  15 H :    0.118924
  16 H :    0.114793
  17 H :    0.117528
  18 H :    0.114854
  19 O :    0.099950
  20 F :    0.175479

  Mayer bond orders larger than 0.100000
B(  0-C ,  1-N ) :   0.7786 B(  0-C ,  2-C ) :   0.7519 B(  0-C ,  7-C ) :  -0.1260
B(  0-C , 15-H ) :   0.9057 B(  0-C , 16-H ) :   1.0523 B(  1-N ,  7-C ) :   0.9422
B(  1-N , 12-H ) :   0.8564 B(  2-C ,  3-C ) :   0.7937 B(  2-C , 17-H ) :   0.9534
B(  2-C , 18-H ) :   1.0133 B(  3-C ,  4-H ) :   0.9505 B(  3-C ,  5-H ) :   0.9831
B(  3-C ,  6-C ) :   0.8816 B(  6-C , 19-O ) :   1.7044 B(  6-C , 20-F ) :   0.8591
B(  7-C ,  8-C ) :   1.5774 B(  7-C ,  9-N ) :   0.7972 B(  7-C , 14-H ) :  -0.1366
B(  8-C , 13-H ) :   0.7777 B(  8-C , 14-H ) :   1.2457 B(  9-N , 10-H ) :   0.9567
B(  9-N , 11-H ) :   0.9246

FINAL SINGLE POINT ENERGY      -519.741914109466

DIPOLE MOMENT
-------------
                                X             Y             Z
Electronic contribution:      4.38542      -4.69417      -2.58848
Nuclear contribution   :     -6.05797       3.87976       3.55209
                        -----------------------------------------
Total Dipole Moment    :     -1.67255      -0.81440       0.96361
                        -----------------------------------------
Magnitude (a.u.)       :      2.09505
Magnitude (Debye)      :      5.32519

Rotational constants in cm-1:     0.061282     0.043164     0.033679
Rotational constants in MHz :  1837.191639  1294.028651  1009.659886

                             ****ORCA TERMINATED NORMALLY****
TOTAL RUN TIME: 0 days 0 hours 4 minutes 15 seconds 62 msec
