                         Program Version 5.0.0 -  RELEASE  -
|  1> !CAM-B3LYP RIJCOSX def2-TZVPD def2/J TightSCF xyzfile
|  2>
|  3> *xyzfile 0 1 D6.xyz
|  4>
|  5> %MaxCore 64000
|  6>
|  7> %pal nprocs 4
|  8> end
|  9>
| 10> %scf
| 11>   MaxIter 150
| 12> end
| 13>
| 14>
| 15>                          ****END OF INPUT****

CARTESIAN COORDINATES (ANGSTROEM)
---------------------------------
  C      3.905947    2.819855   -3.752920
  N      5.295615    3.131515   -4.105334
  C      3.803511    1.374716   -3.260807
  C      3.939934    0.320362   -4.367729
  H      4.105043   -0.655085   -3.907733
  H      3.022801    0.280517   -4.957117
  C      5.105846    0.668022   -5.305463
  C      5.708619    3.468885   -5.324190
  N      6.904696    3.038954   -5.717084
  C      4.981884    4.293570   -6.097457
  H      5.000546    4.101311   -7.087761
  H      4.084693    4.596899   -5.739652
  H      5.963358    2.526112   -3.642391
  H      7.047164    2.066861   -5.473604
  H      7.198145    3.307994   -6.645225
  H      3.282025    2.949187   -4.640259
  H      3.565254    3.514574   -2.982523
  H      4.574833    1.215157   -2.500443
  H      2.843514    1.260845   -2.751465
  O      4.809132    1.150187   -6.414361
  F      6.267366    0.564999   -4.819481

 Total Charge           Charge          ....    0
 Multiplicity           Mult            ....    1
 Number of Electrons    NEL             ....   78
 Basis Dimension        Dim             ....  475

ORBITAL ENERGIES
----------------

  NO   OCC          E(Eh)            E(eV)
   0   2.0000     -24.849663      -676.1937
   1   2.0000     -19.220619      -523.0196
   2   2.0000     -14.398194      -391.7948
   3   2.0000     -14.377584      -391.2339
   4   2.0000     -10.438936      -284.0579
   5   2.0000     -10.288390      -279.9613
   6   2.0000     -10.287019      -279.9240
   7   2.0000     -10.286812      -279.9184
   8   2.0000     -10.276345      -279.6336
   9   2.0000     -10.153276      -276.2847
  10   2.0000      -1.425808       -38.7982
  11   2.0000      -1.137716       -30.9588
  12   2.0000      -1.060099       -28.8468
  13   2.0000      -0.974254       -26.5108
  14   2.0000      -0.902856       -24.5680
  15   2.0000      -0.820995       -22.3404
  16   2.0000      -0.784891       -21.3580
  17   2.0000      -0.760887       -20.7048
  18   2.0000      -0.714039       -19.4300
  19   2.0000      -0.657117       -17.8811
  20   2.0000      -0.650917       -17.7124
  21   2.0000      -0.639932       -17.4134
  22   2.0000      -0.597960       -16.2713
  23   2.0000      -0.586031       -15.9467
  24   2.0000      -0.574883       -15.6434
  25   2.0000      -0.557019       -15.1573
  26   2.0000      -0.552151       -15.0248
  27   2.0000      -0.502324       -13.6689
  28   2.0000      -0.498253       -13.5582
  29   2.0000      -0.474711       -12.9176
  30   2.0000      -0.463646       -12.6165
  31   2.0000      -0.458329       -12.4718
  32   2.0000      -0.450611       -12.2617
  33   2.0000      -0.435288       -11.8448
  34   2.0000      -0.428067       -11.6483
  35   2.0000      -0.400290       -10.8924
  36   2.0000      -0.370075       -10.0703
  37   2.0000      -0.322584        -8.7779
  38   2.0000      -0.230860        -6.2820
  39   0.0000       0.005743         0.1563
  40   0.0000       0.020460         0.5567
  41   0.0000       0.043142         1.1739
  42   0.0000       0.044483         1.2105
  43   0.0000       0.052510         1.4289

MULLIKEN ATOMIC CHARGES
-----------------------
   0 C :   -0.517188
   1 N :   -0.256959
   2 C :   -0.711422
   3 C :   -0.473244
   4 H :    0.311023
   5 H :    0.286485
   6 C :    0.754959
   7 C :    0.320540
   8 N :   -0.394696
   9 C :   -1.176670
  10 H :    0.294670
  11 H :    0.402184
  12 H :    0.267033
  13 H :    0.288793
  14 H :    0.210958
  15 H :    0.329861
  16 H :    0.257024
  17 H :    0.314263
  18 H :    0.264738
  19 O :   -0.473027
  20 F :   -0.299324
Sum of atomic charges:    0.0000000

LOEWDIN ATOMIC CHARGES
----------------------
   0 C :   -0.172735
   1 N :    0.034725
   2 C :   -0.178587
   3 C :   -0.087464
   4 H :    0.119332
   5 H :    0.126138
   6 C :   -0.485691
   7 C :   -0.593525
   8 N :    0.134087
   9 C :    0.012978
  10 H :    0.016217
  11 H :    0.006296
  12 H :    0.125659
  13 H :    0.070846
  14 H :    0.115133
  15 H :    0.123228
  16 H :    0.118969
  17 H :    0.115244
  18 H :    0.116049
  19 O :    0.108883
  20 F :    0.174218

  Mayer bond orders larger than 0.100000
B(  0-C ,  1-N ) :   0.7989 B(  0-C ,  2-C ) :   0.7379 B(  0-C ,  9-C ) :   0.1013
B(  0-C , 15-H ) :   0.9131 B(  0-C , 16-H ) :   1.0118 B(  1-N ,  7-C ) :   1.0092
B(  1-N , 12-H ) :   0.7817 B(  2-C ,  3-C ) :   0.7915 B(  2-C , 17-H ) :   0.9413
B(  2-C , 18-H ) :   1.0224 B(  3-C ,  4-H ) :   0.9497 B(  3-C ,  5-H ) :   0.9780
B(  3-C ,  6-C ) :   0.8892 B(  6-C , 19-O ) :   1.7119 B(  6-C , 20-F ) :   0.7960
B(  7-C ,  8-N ) :   0.8549 B(  7-C ,  9-C ) :   1.4711 B(  7-C , 10-H ) :  -0.1069
B(  7-C , 11-H ) :  -0.1008 B(  8-N , 13-H ) :   0.8135 B(  8-N , 14-H ) :   0.8976
B(  9-C , 10-H ) :   1.0208 B(  9-C , 11-H ) :   0.9004

FINAL SINGLE POINT ENERGY      -519.752332006991

DIPOLE MOMENT
-------------
                                X             Y             Z
Electronic contribution:      5.92941      -5.71304      -2.31828
Nuclear contribution   :     -6.29470       4.03423       3.50525
                        -----------------------------------------
Total Dipole Moment    :     -0.36530      -1.67881       1.18697
                        -----------------------------------------
Magnitude (a.u.)       :      2.08824
Magnitude (Debye)      :      5.30788

Rotational constants in cm-1:     0.061094     0.043661     0.033867
Rotational constants in MHz :  1831.559881  1308.929520  1015.295167

                             ****ORCA TERMINATED NORMALLY****
TOTAL RUN TIME: 0 days 0 hours 4 minutes 19 seconds 17 msec
