                         Program Version 5.0.0 -  RELEASE  -
|  1> !BLYP D3BJ RIJCOSX def2-TZVPD def2/J TightSCF
|  2> *xyz -1 1
|  3> C          2.49556        1.81615       -2.13636
|  4> C          1.87218        0.42790       -2.07750
|  5> H          2.61427       -0.36583       -2.19889
|  6> H          1.38995        0.27309       -1.11236
|  7> S          0.57902        0.14047       -3.29794
|  8> O          0.22886       -1.24687       -3.12787
|  9> O         -0.43927        1.11897       -3.01455
| 10> O          1.24788        0.40347       -4.59565
| 11> H          2.96535        1.95613       -3.08747
| 12> H          3.22581        1.91242       -1.36024
| 13> H          1.73350        2.55528       -2.00274
| 14> *
| 15>
| 16> %MaxCore 64000
| 17>
| 18> %pal nprocs 4
| 19> end
| 20>
| 21> %scf
| 22>   MaxIter 150
| 23> end
| 24>
| 25>
| 26>                          ****END OF INPUT****

CARTESIAN COORDINATES (ANGSTROEM)
---------------------------------
  C      2.495560    1.816150   -2.136360
  C      1.872180    0.427900   -2.077500
  H      2.614270   -0.365830   -2.198890
  H      1.389950    0.273090   -1.112360
  S      0.579020    0.140470   -3.297940
  O      0.228860   -1.246870   -3.127870
  O     -0.439270    1.118970   -3.014550
  O      1.247880    0.403470   -4.595650
  H      2.965350    1.956130   -3.087470
  H      3.225810    1.912420   -1.360240
  H      1.733500    2.555280   -2.002740

 Total Charge           Charge          ....   -1
 Multiplicity           Mult            ....    1
 Number of Electrons    NEL             ....   58
 Basis Dimension        Dim             ....  285

ORBITAL ENERGIES
----------------

  NO   OCC          E(Eh)            E(eV)
   0   2.0000     -88.077898     -2396.7214
   1   2.0000     -18.553966      -504.8791
   2   2.0000     -18.553895      -504.8772
   3   2.0000     -18.540361      -504.5089
   4   2.0000      -9.760138      -265.5869
   5   2.0000      -9.754851      -265.4430
   6   2.0000      -7.609099      -207.0541
   7   2.0000      -5.637626      -153.4076
   8   2.0000      -5.636818      -153.3856
   9   2.0000      -5.636550      -153.3783
  10   2.0000      -0.828475       -22.5439
  11   2.0000      -0.705835       -19.2068
  12   2.0000      -0.680747       -18.5241
  13   2.0000      -0.549987       -14.9659
  14   2.0000      -0.432312       -11.7638
  15   2.0000      -0.316325        -8.6076
  16   2.0000      -0.261252        -7.1090
  17   2.0000      -0.255524        -6.9532
  18   2.0000      -0.218737        -5.9521
  19   2.0000      -0.204640        -5.5685
  20   2.0000      -0.199154        -5.4193
  21   2.0000      -0.180021        -4.8986
  22   2.0000      -0.163679        -4.4539
  23   2.0000      -0.101089        -2.7508
  24   2.0000      -0.100231        -2.7274
  25   2.0000      -0.069704        -1.8967
  26   2.0000      -0.064061        -1.7432
  27   2.0000      -0.052681        -1.4335
  28   2.0000      -0.017249        -0.4694
  29   0.0000       0.110855         3.0165
  30   0.0000       0.135200         3.6790
  31   0.0000       0.143499         3.9048
  32   0.0000       0.151986         4.1357
  33   0.0000       0.168939         4.5971

MULLIKEN ATOMIC CHARGES
-----------------------
   0 C :   -1.232859
   1 C :   -0.344830
   2 H :    0.267991
   3 H :    0.259797
   4 S :    1.242182
   5 O :   -0.688072
   6 O :   -0.703801
   7 O :   -0.752228
   8 H :    0.312838
   9 H :    0.333210
  10 H :    0.305771
Sum of atomic charges:   -1.0000000

LOEWDIN ATOMIC CHARGES
----------------------
   0 C :   -0.145607
   1 C :   -0.333614
   2 H :    0.079065
   3 H :    0.074603
   4 S :    0.312066
   5 O :   -0.373311
   6 O :   -0.366832
   7 O :   -0.399483
   8 H :    0.054072
   9 H :    0.043606
  10 H :    0.055434

  Mayer bond orders larger than 0.100000
B(  0-C ,  1-C ) :   0.6220 B(  0-C ,  8-H ) :   0.9751 B(  0-C ,  9-H ) :   0.9078
B(  0-C , 10-H ) :   0.9722 B(  1-C ,  2-H ) :   0.9419 B(  1-C ,  3-H ) :   0.9523
B(  1-C ,  4-S ) :   0.8635 B(  1-C ,  5-O ) :   0.1600 B(  1-C ,  6-O ) :   0.1263
B(  1-C ,  7-O ) :   0.1126 B(  4-S ,  5-O ) :   1.4619 B(  4-S ,  6-O ) :   1.4721
B(  4-S ,  7-O ) :   1.4280

Dispersion correction           -0.020600005
FINAL SINGLE POINT ENERGY      -703.249719168052

DIPOLE MOMENT
-------------
                                X             Y             Z
Electronic contribution:     -5.73456      -3.60923      -4.13975
Nuclear contribution   :      6.89220       4.11756       5.35566
                        -----------------------------------------
Total Dipole Moment    :      1.15764       0.50833       1.21591
                        -----------------------------------------
Magnitude (a.u.)       :      1.75413
Magnitude (Debye)      :      4.45863

Rotational constants in cm-1:     0.162183     0.084017     0.082390
Rotational constants in MHz :  4862.117324  2518.774315  2469.980309

                             ****ORCA TERMINATED NORMALLY****
TOTAL RUN TIME: 0 days 0 hours 0 minutes 10 seconds 822 msec
