                         Program Version 5.0.0 -  RELEASE  -
|  1> !BLYP D3BJ RIJCOSX def2-TZVPD def2/J TightSCF
|  2> *xyz 1 1
|  3> C          3.38093        2.08304       -3.35013
|  4> N          4.53592        1.18245       -3.42852
|  5> C          2.49556        1.81615       -2.13636
|  6> C          4.67196        0.12227       -4.22060
|  7> N          5.86602       -0.50785       -4.22428
|  8> N          3.69888       -0.31284       -4.98699
|  9> H          2.73141       -0.05009       -4.84900
| 10> H          3.89005       -1.05517       -5.64373
| 11> H          5.25193        1.30346       -2.72101
| 12> H          6.69516       -0.06232       -3.85160
| 13> H          5.97538       -1.39688       -4.69141
| 14> H          2.80646        1.98651       -4.26848
| 15> H          3.77871        3.09828       -3.30738
| 16> H          2.11090        0.81901       -2.18783
| 17> H          1.68276        2.51198       -2.12786
| 18> H          3.07216        1.93031       -1.24227
| 19> *
| 20>
| 21> %MaxCore 64000
| 22>
| 23> %pal nprocs 4
| 24> end
| 25>
| 26> %scf
| 27>   MaxIter 150
| 28> end
| 29>
| 30>
| 31>                          ****END OF INPUT****

CARTESIAN COORDINATES (ANGSTROEM)
---------------------------------
  C      3.380930    2.083040   -3.350130
  N      4.535920    1.182450   -3.428520
  C      2.495560    1.816150   -2.136360
  C      4.671960    0.122270   -4.220600
  N      5.866020   -0.507850   -4.224280
  N      3.698880   -0.312840   -4.986990
  H      2.731410   -0.050090   -4.849000
  H      3.890050   -1.055170   -5.643730
  H      5.251930    1.303460   -2.721010
  H      6.695160   -0.062320   -3.851600
  H      5.975380   -1.396880   -4.691410
  H      2.806460    1.986510   -4.268480
  H      3.778710    3.098280   -3.307380
  H      2.110900    0.819010   -2.187830
  H      1.682760    2.511980   -2.127860
  H      3.072160    1.930310   -1.242270

 Total Charge           Charge          ....    1
 Multiplicity           Mult            ....    1
 Number of Electrons    NEL             ....   48
 Basis Dimension        Dim             ....  312

ORBITAL ENERGIES
----------------

  NO   OCC          E(Eh)            E(eV)
   0   2.0000     -14.229572      -387.2063
   1   2.0000     -14.225328      -387.0909
   2   2.0000     -14.221861      -386.9965
   3   2.0000     -10.229097      -278.3479
   4   2.0000     -10.109341      -275.0891
   5   2.0000     -10.039118      -273.1783
   6   2.0000      -1.118981       -30.4490
   7   2.0000      -1.018057       -27.7028
   8   2.0000      -1.003916       -27.3179
   9   2.0000      -0.853578       -23.2270
  10   2.0000      -0.775097       -21.0915
  11   2.0000      -0.737176       -20.0596
  12   2.0000      -0.725740       -19.7484
  13   2.0000      -0.683130       -18.5889
  14   2.0000      -0.642191       -17.4749
  15   2.0000      -0.638893       -17.3852
  16   2.0000      -0.590036       -16.0557
  17   2.0000      -0.575492       -15.6599
  18   2.0000      -0.552557       -15.0358
  19   2.0000      -0.509217       -13.8565
  20   2.0000      -0.484049       -13.1717
  21   2.0000      -0.469260       -12.7692
  22   2.0000      -0.432101       -11.7581
  23   2.0000      -0.404811       -11.0155
  24   0.0000      -0.197740        -5.3808
  25   0.0000      -0.183285        -4.9874
  26   0.0000      -0.151480        -4.1220
  27   0.0000      -0.141832        -3.8595
  28   0.0000      -0.125227        -3.4076

MULLIKEN ATOMIC CHARGES
-----------------------
   0 C :   -0.436351
   1 N :   -0.125328
   2 C :   -1.017578
   3 C :    0.679099
   4 N :   -0.304260
   5 N :   -0.245108
   6 H :    0.190519
   7 H :    0.176400
   8 H :    0.179556
   9 H :    0.182179
  10 H :    0.164928
  11 H :    0.314911
  12 H :    0.255940
  13 H :    0.322123
  14 H :    0.334802
  15 H :    0.328169
Sum of atomic charges:    1.0000000

LOEWDIN ATOMIC CHARGES
----------------------
   0 C :   -0.195459
   1 N :    0.095758
   2 C :   -0.051070
   3 C :   -0.448151
   4 N :    0.208652
   5 N :    0.233164
   6 H :    0.132546
   7 H :    0.137798
   8 H :    0.164082
   9 H :    0.131757
  10 H :    0.127795
  11 H :    0.112291
  12 H :    0.126842
  13 H :    0.069492
  14 H :    0.080375
  15 H :    0.074126

  Mayer bond orders larger than 0.100000
B(  0-C ,  1-N ) :   0.8599 B(  0-C ,  2-C ) :   0.5945 B(  0-C ,  3-C ) :  -0.1121
B(  0-C , 11-H ) :   0.8844 B(  0-C , 12-H ) :   0.9611 B(  1-N ,  3-C ) :   1.2336
B(  1-N ,  4-N ) :   0.1148 B(  1-N ,  8-H ) :   0.9882 B(  2-C , 13-H ) :   0.9616
B(  2-C , 14-H ) :   0.9667 B(  2-C , 15-H ) :   0.9333 B(  3-C ,  4-N ) :   1.0206
B(  3-C ,  5-N ) :   1.1667 B(  4-N ,  9-H ) :   0.9916 B(  4-N , 10-H ) :   1.0262
B(  5-N ,  6-H ) :   0.9578 B(  5-N ,  7-H ) :   1.0146

Dispersion correction           -0.024502283
FINAL SINGLE POINT ENERGY      -284.410370362475

DIPOLE MOMENT
-------------
                                X             Y             Z
Electronic contribution:      3.54315      -2.62628      -2.80426
Nuclear contribution   :     -2.93277       1.85779       2.25966
                        -----------------------------------------
Total Dipole Moment    :      0.61038      -0.76848      -0.54460
                        -----------------------------------------
Magnitude (a.u.)       :      1.12237
Magnitude (Debye)      :      2.85285

Rotational constants in cm-1:     0.245511     0.068839     0.059711
Rotational constants in MHz :  7360.233487  2063.743353  1790.088408

                             ****ORCA TERMINATED NORMALLY****
TOTAL RUN TIME: 0 days 0 hours 0 minutes 13 seconds 947 msec
