                         Program Version 5.0.0 -  RELEASE  -
|  1> !BLYP D3BJ RIJCOSX def2-TZVPD def2/J TightSCF xyzfile
|  2>
|  3> *xyzfile 0 1 B.xyz
|  4>
|  5> %MaxCore 64000
|  6>
|  7> %pal nprocs 4
|  8> end
|  9>
| 10> %scf
| 11>   MaxIter 150
| 12> end
| 13>
| 14>
| 15>                          ****END OF INPUT****

CARTESIAN COORDINATES (ANGSTROEM)
---------------------------------
  C      3.380928    2.083045   -3.350127
  N      4.535924    1.182447   -3.428518
  C      2.495557    1.816150   -2.136364
  C      1.872181    0.427903   -2.077497
  H      2.614270   -0.365825   -2.198894
  H      1.389953    0.273087   -1.112360
  S      0.579024    0.140472   -3.297943
  C      4.671956    0.122273   -4.220598
  N      5.866023   -0.507849   -4.224284
  N      3.698881   -0.312844   -4.986988
  H      2.731405   -0.050091   -4.849000
  H      3.890046   -1.055172   -5.643730
  H      5.251933    1.303459   -2.721014
  H      6.695165   -0.062322   -3.851596
  H      5.975383   -1.396884   -4.691414
  O      0.228860   -1.246868   -3.127871
  O     -0.439269    1.118966   -3.014550
  O      1.247881    0.403474   -4.595647
  H      1.697003    2.561969   -2.141109
  H      3.080787    1.987436   -1.225838
  H      2.806463    1.986511   -4.268484
  H      3.778714    3.098282   -3.307383

 Total Charge           Charge          ....    0
 Multiplicity           Mult            ....    1
 Number of Electrons    NEL             ....   96
 Basis Dimension        Dim             ....  524

ORBITAL ENERGIES
----------------

  NO   OCC          E(Eh)            E(eV)
   0   2.0000     -88.224603     -2400.7135
   1   2.0000     -18.706076      -509.0182
   2   2.0000     -18.691348      -508.6174
   3   2.0000     -18.691151      -508.6121
   4   2.0000     -14.096999      -383.5988
   5   2.0000     -14.092038      -383.4638
   6   2.0000     -14.062169      -382.6511
   7   2.0000     -10.089277      -274.5432
   8   2.0000      -9.967290      -271.2237
   9   2.0000      -9.918508      -269.8963
  10   2.0000      -9.903299      -269.4825
  11   2.0000      -7.755947      -211.0500
  12   2.0000      -5.784887      -157.4148
  13   2.0000      -5.783858      -157.3868
  14   2.0000      -5.782753      -157.3567
  15   2.0000      -0.981467       -26.7071
  16   2.0000      -0.974968       -26.5302
  17   2.0000      -0.880859       -23.9694
  18   2.0000      -0.866007       -23.5652
  19   2.0000      -0.843023       -22.9398
  20   2.0000      -0.842629       -22.9291
  21   2.0000      -0.730123       -19.8677
  22   2.0000      -0.665184       -18.1006
  23   2.0000      -0.619858       -16.8672
  24   2.0000      -0.588755       -16.0208
  25   2.0000      -0.576093       -15.6763
  26   2.0000      -0.544310       -14.8114
  27   2.0000      -0.509004       -13.8507
  28   2.0000      -0.494899       -13.4669
  29   2.0000      -0.470024       -12.7900
  30   2.0000      -0.451241       -12.2789
  31   2.0000      -0.434277       -11.8173
  32   2.0000      -0.419103       -11.4044
  33   2.0000      -0.398442       -10.8421
  34   2.0000      -0.379593       -10.3293
  35   2.0000      -0.362504        -9.8642
  36   2.0000      -0.342843        -9.3292
  37   2.0000      -0.333801        -9.0832
  38   2.0000      -0.326061        -8.8726
  39   2.0000      -0.315805        -8.5935
  40   2.0000      -0.293850        -7.9961
  41   2.0000      -0.270075        -7.3491
  42   2.0000      -0.250938        -6.8284
  43   2.0000      -0.243028        -6.6131
  44   2.0000      -0.216601        -5.8940
  45   2.0000      -0.206189        -5.6107
  46   2.0000      -0.204141        -5.5550
  47   2.0000      -0.167725        -4.5640
  48   0.0000      -0.072392        -1.9699
  49   0.0000      -0.061852        -1.6831
  50   0.0000      -0.037284        -1.0145
  51   0.0000      -0.020858        -0.5676
  52   0.0000       0.001373         0.0373

MULLIKEN ATOMIC CHARGES
-----------------------
   0 C :   -0.585676
   1 N :   -0.164166
   2 C :   -0.484834
   3 C :   -0.622780
   4 H :    0.219257
   5 H :    0.318186
   6 S :    1.298105
   7 C :    0.567450
   8 N :   -0.317902
   9 N :   -0.211796
  10 H :    0.323605
  11 H :    0.155983
  12 H :    0.181726
  13 H :    0.160932
  14 H :    0.152695
  15 O :   -0.681110
  16 O :   -0.672670
  17 O :   -0.856183
  18 H :    0.287143
  19 H :    0.264270
  20 H :    0.433535
  21 H :    0.234230
Sum of atomic charges:   -0.0000000

LOEWDIN ATOMIC CHARGES
----------------------
   0 C :   -0.158096
   1 N :    0.095956
   2 C :   -0.198665
   3 C :   -0.255097
   4 H :    0.084495
   5 H :    0.097537
   6 S :    0.389997
   7 C :   -0.460219
   8 N :    0.180217
   9 N :    0.241816
  10 H :    0.019569
  11 H :    0.132281
  12 H :    0.153662
  13 H :    0.114557
  14 H :    0.114976
  15 O :   -0.321351
  16 O :   -0.310341
  17 O :   -0.373661
  18 H :    0.115913
  19 H :    0.105911
  20 H :    0.110006
  21 H :    0.120539

  Mayer bond orders larger than 0.100000
B(  0-C ,  1-N ) :   0.8314 B(  0-C ,  2-C ) :   0.7930 B(  0-C ,  7-C ) :  -0.1114
B(  0-C , 20-H ) :   0.8034 B(  0-C , 21-H ) :   0.9230 B(  1-N ,  7-C ) :   1.2510
B(  1-N ,  8-N ) :   0.1194 B(  1-N , 12-H ) :   0.9660 B(  2-C ,  3-C ) :   1.0162
B(  2-C ,  6-S ) :   0.1197 B(  2-C , 18-H ) :   0.9662 B(  2-C , 19-H ) :   0.8953
B(  3-C ,  4-H ) :   0.9255 B(  3-C ,  5-H ) :   0.9074 B(  3-C ,  6-S ) :   0.8385
B(  3-C , 15-O ) :   0.1708 B(  3-C , 16-O ) :   0.1210 B(  6-S , 15-O ) :   1.4312
B(  6-S , 16-O ) :   1.4521 B(  6-S , 17-O ) :   1.3158 B(  7-C ,  8-N ) :   0.9717
B(  7-C ,  9-N ) :   1.2509 B(  8-N , 13-H ) :   1.0011 B(  8-N , 14-H ) :   1.0308
B(  9-N , 10-H ) :   0.7307 B(  9-N , 11-H ) :   1.0220

Dispersion correction           -0.051499326
FINAL SINGLE POINT ENERGY      -947.304377757016

DIPOLE MOMENT
-------------
                                X             Y             Z
Electronic contribution:     -7.24301      -3.19283      -2.45819
Nuclear contribution   :     13.40759       3.44219       2.21042
                        -----------------------------------------
Total Dipole Moment    :      6.16458       0.24936      -0.24777
                        -----------------------------------------
Magnitude (a.u.)       :      6.17460
Magnitude (Debye)      :     15.69458

Rotational constants in cm-1:     0.059860     0.020817     0.017914
Rotational constants in MHz :  1794.564877   624.092098   537.039275

                             ****ORCA TERMINATED NORMALLY****
TOTAL RUN TIME: 0 days 0 hours 0 minutes 49 seconds 536 msec
