                         Program Version 5.0.0 -  RELEASE  -
|  1> !BLYP D3BJ RIJCOSX def2-TZVPD def2/J TightSCF
|  2> *xyz 0 1
|  3> C          2.49556        1.81615       -2.13636
|  4> C          1.87218        0.42790       -2.07750
|  5> H          2.61427       -0.36583       -2.19889
|  6> H          1.38995        0.27309       -1.11236
|  7> S          0.57902        0.14047       -3.29794
|  8> F          0.22886       -1.24687       -3.12787
|  9> O         -0.43927        1.11897       -3.01455
| 10> O          1.24788        0.40347       -4.59565
| 11> H          2.96535        1.95613       -3.08747
| 12> H          3.22581        1.91242       -1.36024
| 13> H          1.73350        2.55528       -2.00274
| 14> *
| 15>
| 16> %MaxCore 64000
| 17>
| 18> %pal nprocs 4
| 19> end
| 20>
| 21> %scf
| 22>   MaxIter 150
| 23> end
| 24>
| 25>
| 26>                          ****END OF INPUT****

CARTESIAN COORDINATES (ANGSTROEM)
---------------------------------
  C      2.495560    1.816150   -2.136360
  C      1.872180    0.427900   -2.077500
  H      2.614270   -0.365830   -2.198890
  H      1.389950    0.273090   -1.112360
  S      0.579020    0.140470   -3.297940
  F      0.228860   -1.246870   -3.127870
  O     -0.439270    1.118970   -3.014550
  O      1.247880    0.403470   -4.595650
  H      2.965350    1.956130   -3.087470
  H      3.225810    1.912420   -1.360240
  H      1.733500    2.555280   -2.002740

 Total Charge           Charge          ....    0
 Multiplicity           Mult            ....    1
 Number of Electrons    NEL             ....   58
 Basis Dimension        Dim             ....  285

ORBITAL ENERGIES
----------------

  NO   OCC          E(Eh)            E(eV)
   0   2.0000     -88.336033     -2403.7456
   1   2.0000     -24.402315      -664.0208
   2   2.0000     -18.785644      -511.1834
   3   2.0000     -18.771700      -510.8039
   4   2.0000      -9.960757      -271.0460
   5   2.0000      -9.919213      -269.9155
   6   2.0000      -7.867754      -214.0925
   7   2.0000      -5.899884      -160.5440
   8   2.0000      -5.893261      -160.3638
   9   2.0000      -5.893102      -160.3595
  10   2.0000      -1.272848       -34.6360
  11   2.0000      -1.009716       -27.4758
  12   2.0000      -0.912731       -24.8367
  13   2.0000      -0.739763       -20.1300
  14   2.0000      -0.663766       -18.0620
  15   2.0000      -0.604738       -16.4558
  16   2.0000      -0.520344       -14.1593
  17   2.0000      -0.518311       -14.1040
  18   2.0000      -0.492431       -13.3997
  19   2.0000      -0.438694       -11.9375
  20   2.0000      -0.425605       -11.5813
  21   2.0000      -0.388943       -10.5837
  22   2.0000      -0.379237       -10.3196
  23   2.0000      -0.360572        -9.8117
  24   2.0000      -0.340845        -9.2749
  25   2.0000      -0.333943        -9.0870
  26   2.0000      -0.287599        -7.8260
  27   2.0000      -0.274412        -7.4671
  28   2.0000      -0.256413        -6.9773
  29   0.0000      -0.030899        -0.8408
  30   0.0000      -0.009992        -0.2719
  31   0.0000       0.006628         0.1804
  32   0.0000       0.014275         0.3884
  33   0.0000       0.025255         0.6872

MULLIKEN ATOMIC CHARGES
-----------------------
   0 C :   -1.243732
   1 C :   -0.358416
   2 H :    0.329717
   3 H :    0.324032
   4 S :    1.175764
   5 F :   -0.116017
   6 O :   -0.550786
   7 O :   -0.591715
   8 H :    0.349200
   9 H :    0.332118
  10 H :    0.349835
Sum of atomic charges:    0.0000000

LOEWDIN ATOMIC CHARGES
----------------------
   0 C :   -0.097595
   1 C :   -0.290124
   2 H :    0.097501
   3 H :    0.093393
   4 S :    0.557972
   5 F :   -0.041328
   6 O :   -0.252432
   7 O :   -0.283180
   8 H :    0.071310
   9 H :    0.072111
  10 H :    0.072372

  Mayer bond orders larger than 0.100000
B(  0-C ,  1-C ) :   0.6900 B(  0-C ,  8-H ) :   0.9386 B(  0-C ,  9-H ) :   0.9171
B(  0-C , 10-H ) :   0.9293 B(  1-C ,  2-H ) :   0.8762 B(  1-C ,  3-H ) :   0.8878
B(  1-C ,  4-S ) :   0.8561 B(  1-C ,  6-O ) :   0.1013 B(  4-S ,  5-F ) :   1.0079
B(  4-S ,  6-O ) :   1.6767 B(  4-S ,  7-O ) :   1.6296 B(  6-O ,  7-O ) :   0.1182

Dispersion correction           -0.019692846
FINAL SINGLE POINT ENERGY      -727.773273067415

DIPOLE MOMENT
-------------
                                X             Y             Z
Electronic contribution:     -6.84347      -6.37203      -4.14319
Nuclear contribution   :      7.60530       5.82028       5.38743
                        -----------------------------------------
Total Dipole Moment    :      0.76183      -0.55175       1.24425
                        -----------------------------------------
Magnitude (a.u.)       :      1.55979
Magnitude (Debye)      :      3.96468

Rotational constants in cm-1:     0.157861     0.081452     0.078859
Rotational constants in MHz :  4732.562506  2441.865430  2364.129821

                             ****ORCA TERMINATED NORMALLY****
TOTAL RUN TIME: 0 days 0 hours 0 minutes 10 seconds 816 msec
