                         Program Version 5.0.0 -  RELEASE  -
|  1> !BLYP D3BJ RIJCOSX def2-TZVPD def2/J TightSCF
|  2> *xyz 0 1
|  3> C          3.38093        2.08304       -3.35013
|  4> C          4.53592        1.18245       -3.42852
|  5> C          2.49556        1.81615       -2.13636
|  6> C          4.67196        0.12227       -4.22060
|  7> N          5.86602       -0.50785       -4.22428
|  8> N          3.69888       -0.31284       -4.98699
|  9> H          2.73141       -0.05009       -4.84900
| 10> H          3.89005       -1.05517       -5.64373
| 11> H          5.25193        1.30346       -2.72101
| 12> H          6.69516       -0.06232       -3.85160
| 13> H          5.97538       -1.39688       -4.69141
| 14> H          2.80646        1.98651       -4.26848
| 15> H          3.77871        3.09828       -3.30738
| 16> H          2.11090        0.81901       -2.18783
| 17> H          1.68276        2.51198       -2.12786
| 18> H          3.07216        1.93031       -1.24227
| 19> *
| 20>
| 21> %MaxCore 64000
| 22>
| 23> %pal nprocs 4
| 24> end
| 25>
| 26> %scf
| 27>   MaxIter 150
| 28> end
| 29>
| 30>
| 31>                          ****END OF INPUT****

CARTESIAN COORDINATES (ANGSTROEM)
---------------------------------
  C      3.380930    2.083040   -3.350130
  C      4.535920    1.182450   -3.428520
  C      2.495560    1.816150   -2.136360
  C      4.671960    0.122270   -4.220600
  N      5.866020   -0.507850   -4.224280
  N      3.698880   -0.312840   -4.986990
  H      2.731410   -0.050090   -4.849000
  H      3.890050   -1.055170   -5.643730
  H      5.251930    1.303460   -2.721010
  H      6.695160   -0.062320   -3.851600
  H      5.975380   -1.396880   -4.691410
  H      2.806460    1.986510   -4.268480
  H      3.778710    3.098280   -3.307380
  H      2.110900    0.819010   -2.187830
  H      1.682760    2.511980   -2.127860
  H      3.072160    1.930310   -1.242270

 Total Charge           Charge          ....    0
 Multiplicity           Mult            ....    1
 Number of Electrons    NEL             ....   48
 Basis Dimension        Dim             ....  312

ORBITAL ENERGIES
----------------

  NO   OCC          E(Eh)            E(eV)
   0   2.0000     -14.010142      -381.2353
   1   2.0000     -14.002794      -381.0354
   2   2.0000      -9.943202      -270.5683
   3   2.0000      -9.877234      -268.7732
   4   2.0000      -9.868097      -268.5246
   5   2.0000      -9.827927      -267.4315
   6   2.0000      -0.871769       -23.7220
   7   2.0000      -0.787153       -21.4195
   8   2.0000      -0.690403       -18.7868
   9   2.0000      -0.620443       -16.8831
  10   2.0000      -0.551302       -15.0017
  11   2.0000      -0.516573       -14.0567
  12   2.0000      -0.487811       -13.2740
  13   2.0000      -0.450517       -12.2592
  14   2.0000      -0.429222       -11.6797
  15   2.0000      -0.389611       -10.6019
  16   2.0000      -0.364095        -9.9075
  17   2.0000      -0.341670        -9.2973
  18   2.0000      -0.328707        -8.9446
  19   2.0000      -0.303432        -8.2568
  20   2.0000      -0.281905        -7.6710
  21   2.0000      -0.276471        -7.5232
  22   2.0000      -0.219125        -5.9627
  23   2.0000      -0.124897        -3.3986
  24   0.0000      -0.021863        -0.5949
  25   0.0000       0.003855         0.1049
  26   0.0000       0.015762         0.4289
  27   0.0000       0.026874         0.7313
  28   0.0000       0.040400         1.0993

MULLIKEN ATOMIC CHARGES
-----------------------
   0 C :   -0.451665
   1 C :   -0.523390
   2 C :   -1.086372
   3 C :    0.489747
   4 N :   -0.338740
   5 N :   -0.285635
   6 H :    0.137720
   7 H :    0.123780
   8 H :    0.324309
   9 H :    0.136615
  10 H :    0.114959
  11 H :    0.240314
  12 H :    0.196801
  13 H :    0.311599
  14 H :    0.294928
  15 H :    0.315030
Sum of atomic charges:   -0.0000000

LOEWDIN ATOMIC CHARGES
----------------------
   0 C :   -0.275762
   1 C :   -0.134561
   2 C :   -0.102823
   3 C :   -0.551958
   4 N :    0.115577
   5 N :    0.142278
   6 H :    0.104263
   7 H :    0.095811
   8 H :    0.064163
   9 H :    0.100727
  10 H :    0.083706
  11 H :    0.089259
  12 H :    0.096842
  13 H :    0.058696
  14 H :    0.052922
  15 H :    0.060858

  Mayer bond orders larger than 0.100000
B(  0-C ,  1-C ) :   0.6301 B(  0-C ,  2-C ) :   0.4889 B(  0-C , 11-H ) :   0.9806
B(  0-C , 12-H ) :   1.0881 B(  1-C ,  3-C ) :   1.3522 B(  1-C ,  4-N ) :   0.1805
B(  1-C ,  5-N ) :   0.1159 B(  1-C ,  8-H ) :   0.9551 B(  2-C , 13-H ) :   0.9713
B(  2-C , 14-H ) :   0.9648 B(  2-C , 15-H ) :   0.9699 B(  3-C ,  4-N ) :   0.8405
B(  3-C ,  5-N ) :   0.9611 B(  3-C ,  8-H ) :  -0.1095 B(  4-N ,  9-H ) :   1.0310
B(  4-N , 10-H ) :   1.0737 B(  5-N ,  6-H ) :   1.0015 B(  5-N ,  7-H ) :   1.0577

Dispersion correction           -0.025631351
FINAL SINGLE POINT ENERGY      -267.915201060957

DIPOLE MOMENT
-------------
                                X             Y             Z
Electronic contribution:      3.00819      -2.77412      -2.88612
Nuclear contribution   :     -2.84307       1.95814       2.32378
                        -----------------------------------------
Total Dipole Moment    :      0.16511      -0.81598      -0.56234
                        -----------------------------------------
Magnitude (a.u.)       :      1.00465
Magnitude (Debye)      :      2.55361

Rotational constants in cm-1:     0.248902     0.068887     0.059904
Rotational constants in MHz :  7461.898926  2065.183281  1795.882140

                             ****ORCA TERMINATED NORMALLY****
TOTAL RUN TIME: 0 days 0 hours 0 minutes 15 seconds 62 msec
