                         Program Version 5.0.0 -  RELEASE  -
|  1> !BLYP D3BJ RIJCOSX def2-TZVPD def2/J TightSCF
|  2> *xyz 0 1
|  3> C          2.49556        1.81615       -2.13636
|  4> C          1.87218        0.42790       -2.07750
|  5> H          2.61427       -0.36583       -2.19889
|  6> H          1.38995        0.27309       -1.11236
|  7> S          0.57902        0.14047       -3.29794
|  8> O          0.22886       -1.24687       -3.12787
|  9> F         -0.43927        1.11897       -3.01455
| 10> O          1.24788        0.40347       -4.59565
| 11> H          2.96535        1.95613       -3.08747
| 12> H          3.22581        1.91242       -1.36024
| 13> H          1.73350        2.55528       -2.00274
| 14> *
| 15>
| 16> %MaxCore 64000
| 17>
| 18> %pal nprocs 4
| 19> end
| 20>
| 21> %scf
| 22>   MaxIter 150
| 23> end
| 24>
| 25>
| 26>                          ****END OF INPUT****

CARTESIAN COORDINATES (ANGSTROEM)
---------------------------------
  C      2.495560    1.816150   -2.136360
  C      1.872180    0.427900   -2.077500
  H      2.614270   -0.365830   -2.198890
  H      1.389950    0.273090   -1.112360
  S      0.579020    0.140470   -3.297940
  O      0.228860   -1.246870   -3.127870
  F     -0.439270    1.118970   -3.014550
  O      1.247880    0.403470   -4.595650
  H      2.965350    1.956130   -3.087470
  H      3.225810    1.912420   -1.360240
  H      1.733500    2.555280   -2.002740

 Total Charge           Charge          ....    0
 Multiplicity           Mult            ....    1
 Number of Electrons    NEL             ....   58
 Basis Dimension        Dim             ....  285

ORBITAL ENERGIES
----------------

  NO   OCC          E(Eh)            E(eV)
   0   2.0000     -88.336254     -2403.7517
   1   2.0000     -24.402574      -664.0278
   2   2.0000     -18.785957      -511.1919
   3   2.0000     -18.772402      -510.8230
   4   2.0000      -9.960687      -271.0441
   5   2.0000      -9.921658      -269.9820
   6   2.0000      -7.867942      -214.0976
   7   2.0000      -5.900224      -160.5533
   8   2.0000      -5.893376      -160.3669
   9   2.0000      -5.893231      -160.3630
  10   2.0000      -1.273548       -34.6550
  11   2.0000      -1.009204       -27.4618
  12   2.0000      -0.913714       -24.8634
  13   2.0000      -0.742423       -20.2023
  14   2.0000      -0.660717       -17.9790
  15   2.0000      -0.608380       -16.5548
  16   2.0000      -0.529819       -14.4171
  17   2.0000      -0.517596       -14.0845
  18   2.0000      -0.486585       -13.2407
  19   2.0000      -0.438890       -11.9428
  20   2.0000      -0.422936       -11.5087
  21   2.0000      -0.397786       -10.8243
  22   2.0000      -0.381817       -10.3898
  23   2.0000      -0.359790        -9.7904
  24   2.0000      -0.349659        -9.5147
  25   2.0000      -0.329125        -8.9559
  26   2.0000      -0.286780        -7.8037
  27   2.0000      -0.274657        -7.4738
  28   2.0000      -0.258337        -7.0297
  29   0.0000      -0.035059        -0.9540
  30   0.0000      -0.005197        -0.1414
  31   0.0000       0.008167         0.2222
  32   0.0000       0.009333         0.2540
  33   0.0000       0.020928         0.5695

MULLIKEN ATOMIC CHARGES
-----------------------
   0 C :   -1.233509
   1 C :   -0.335828
   2 H :    0.312269
   3 H :    0.322756
   4 S :    1.161384
   5 O :   -0.536166
   6 F :   -0.135732
   7 O :   -0.589405
   8 H :    0.347047
   9 H :    0.334441
  10 H :    0.352745
Sum of atomic charges:    0.0000000

LOEWDIN ATOMIC CHARGES
----------------------
   0 C :   -0.109089
   1 C :   -0.281874
   2 H :    0.109011
   3 H :    0.093851
   4 S :    0.556223
   5 O :   -0.255812
   6 F :   -0.037415
   7 O :   -0.280680
   8 H :    0.069182
   9 H :    0.070159
  10 H :    0.066444

  Mayer bond orders larger than 0.100000
B(  0-C ,  1-C ) :   0.6234 B(  0-C ,  8-H ) :   0.9703 B(  0-C ,  9-H ) :   0.9299
B(  0-C , 10-H ) :   0.9083 B(  1-C ,  2-H ) :   0.9086 B(  1-C ,  3-H ) :   0.9066
B(  1-C ,  4-S ) :   0.8612 B(  1-C ,  5-O ) :   0.1271 B(  4-S ,  5-O ) :   1.6729
B(  4-S ,  6-F ) :   1.0168 B(  4-S ,  7-O ) :   1.6361 B(  5-O ,  7-O ) :   0.1117

Dispersion correction           -0.019592196
FINAL SINGLE POINT ENERGY      -727.773095485103

DIPOLE MOMENT
-------------
                                X             Y             Z
Electronic contribution:     -7.94424      -2.44352      -3.95093
Nuclear contribution   :      8.30151       3.35500       5.26935
                        -----------------------------------------
Total Dipole Moment    :      0.35727       0.91148       1.31842
                        -----------------------------------------
Magnitude (a.u.)       :      1.64215
Magnitude (Debye)      :      4.17402

Rotational constants in cm-1:     0.152913     0.083043     0.080351
Rotational constants in MHz :  4584.227971  2489.580280  2408.872860

                             ****ORCA TERMINATED NORMALLY****
TOTAL RUN TIME: 0 days 0 hours 0 minutes 10 seconds 831 msec
