                         Program Version 5.0.0 -  RELEASE  -
|  1> !BLYP D3BJ RIJCOSX def2-TZVPD def2/J TightSCF
|  2> *xyz 0 1
|  3> C          3.38093        2.08304       -3.35013
|  4> N          4.53592        1.18245       -3.42852
|  5> C          2.49556        1.81615       -2.13636
|  6> C          4.67196        0.12227       -4.22060
|  7> C          5.86602       -0.50785       -4.22428
|  8> N          3.69888       -0.31284       -4.98699
|  9> H          2.73141       -0.05009       -4.84900
| 10> H          3.89005       -1.05517       -5.64373
| 11> H          5.25193        1.30346       -2.72101
| 12> H          6.69516       -0.06232       -3.85160
| 13> H          5.97538       -1.39688       -4.69141
| 14> H          2.80646        1.98651       -4.26848
| 15> H          3.77871        3.09828       -3.30738
| 16> H          2.11090        0.81901       -2.18783
| 17> H          1.68276        2.51198       -2.12786
| 18> H          3.07216        1.93031       -1.24227
| 19> *
| 20>
| 21> %MaxCore 64000
| 22>
| 23> %pal nprocs 4
| 24> end
| 25>
| 26> %scf
| 27>   MaxIter 150
| 28> end
| 29>
| 30>
| 31>                          ****END OF INPUT****

CARTESIAN COORDINATES (ANGSTROEM)
---------------------------------
  C      3.380930    2.083040   -3.350130
  N      4.535920    1.182450   -3.428520
  C      2.495560    1.816150   -2.136360
  C      4.671960    0.122270   -4.220600
  C      5.866020   -0.507850   -4.224280
  N      3.698880   -0.312840   -4.986990
  H      2.731410   -0.050090   -4.849000
  H      3.890050   -1.055170   -5.643730
  H      5.251930    1.303460   -2.721010
  H      6.695160   -0.062320   -3.851600
  H      5.975380   -1.396880   -4.691410
  H      2.806460    1.986510   -4.268480
  H      3.778710    3.098280   -3.307380
  H      2.110900    0.819010   -2.187830
  H      1.682760    2.511980   -2.127860
  H      3.072160    1.930310   -1.242270

 Total Charge           Charge          ....    0
 Multiplicity           Mult            ....    1
 Number of Electrons    NEL             ....   48
 Basis Dimension        Dim             ....  312

ORBITAL ENERGIES
----------------

  NO   OCC          E(Eh)            E(eV)
   0   2.0000     -14.009098      -381.2069
   1   2.0000     -14.006031      -381.1235
   2   2.0000      -9.946372      -270.6545
   3   2.0000      -9.943312      -270.5713
   4   2.0000      -9.896619      -269.3007
   5   2.0000      -9.815040      -267.0808
   6   2.0000      -0.878007       -23.8918
   7   2.0000      -0.803759       -21.8714
   8   2.0000      -0.693750       -18.8779
   9   2.0000      -0.623007       -16.9529
  10   2.0000      -0.560651       -15.2561
  11   2.0000      -0.541535       -14.7359
  12   2.0000      -0.487056       -13.2535
  13   2.0000      -0.443892       -12.0789
  14   2.0000      -0.428891       -11.6707
  15   2.0000      -0.395049       -10.7498
  16   2.0000      -0.377199       -10.2641
  17   2.0000      -0.352681        -9.5970
  18   2.0000      -0.339493        -9.2381
  19   2.0000      -0.323248        -8.7960
  20   2.0000      -0.317746        -8.6463
  21   2.0000      -0.304962        -8.2984
  22   2.0000      -0.210081        -5.7166
  23   2.0000      -0.123601        -3.3634
  24   0.0000      -0.021112        -0.5745
  25   0.0000       0.005660         0.1540
  26   0.0000       0.011210         0.3050
  27   0.0000       0.018069         0.4917
  28   0.0000       0.040783         1.1098

MULLIKEN ATOMIC CHARGES
-----------------------
   0 C :   -0.428742
   1 N :   -0.164087
   2 C :   -1.029865
   3 C :    0.717361
   4 C :   -1.243918
   5 N :   -0.288594
   6 H :    0.136664
   7 H :    0.141210
   8 H :    0.143982
   9 H :    0.274013
  10 H :    0.271212
  11 H :    0.305370
  12 H :    0.245892
  13 H :    0.302409
  14 H :    0.328786
  15 H :    0.288306
Sum of atomic charges:    0.0000000

LOEWDIN ATOMIC CHARGES
----------------------
   0 C :   -0.234654
   1 N :    0.032766
   2 C :   -0.081597
   3 C :   -0.574822
   4 C :    0.003007
   5 N :    0.137230
   6 H :    0.092306
   7 H :    0.109284
   8 H :    0.140733
   9 H :   -0.002966
  10 H :   -0.007709
  11 H :    0.099305
  12 H :    0.104718
  13 H :    0.061338
  14 H :    0.059714
  15 H :    0.061346

  Mayer bond orders larger than 0.100000
B(  0-C ,  1-N ) :   0.8427 B(  0-C ,  2-C ) :   0.5482 B(  0-C ,  3-C ) :  -0.1080
B(  0-C , 11-H ) :   0.9129 B(  0-C , 12-H ) :   0.9717 B(  1-N ,  3-C ) :   1.0874
B(  1-N ,  4-C ) :   0.1409 B(  1-N ,  8-H ) :   0.9957 B(  2-C , 13-H ) :   0.9952
B(  2-C , 14-H ) :   0.9647 B(  2-C , 15-H ) :   0.9609 B(  3-C ,  4-C ) :   1.0128
B(  3-C ,  5-N ) :   1.0238 B(  3-C , 10-H ) :  -0.1180 B(  4-C ,  9-H ) :   0.9621
B(  4-C , 10-H ) :   1.1021 B(  5-N ,  6-H ) :   1.0121 B(  5-N ,  7-H ) :   1.0255

Dispersion correction           -0.025310934
FINAL SINGLE POINT ENERGY      -267.905687661805

DIPOLE MOMENT
-------------
                                X             Y             Z
Electronic contribution:      1.53844      -1.10628      -2.04701
Nuclear contribution   :     -2.56090       1.59955       2.15496
                        -----------------------------------------
Total Dipole Moment    :     -1.02246       0.49327       0.10795
                        -----------------------------------------
Magnitude (a.u.)       :      1.14035
Magnitude (Debye)      :      2.89853

Rotational constants in cm-1:     0.249834     0.071381     0.061833
Rotational constants in MHz :  7489.842787  2139.945635  1853.706310

                             ****ORCA TERMINATED NORMALLY****
TOTAL RUN TIME: 0 days 0 hours 0 minutes 14 seconds 543 msec
