                         Program Version 5.0.0 -  RELEASE  -
|  1> !BLYP D3BJ RIJCOSX def2-TZVPD def2/J TightSCF
|  2> *xyz 0 1
|  3> C          2.49556        1.81615       -2.13636
|  4> C          1.87218        0.42790       -2.07750
|  5> H          2.61427       -0.36583       -2.19889
|  6> H          1.38995        0.27309       -1.11236
|  7> S          0.57902        0.14047       -3.29794
|  8> O          0.22886       -1.24687       -3.12787
|  9> O         -0.43927        1.11897       -3.01455
| 10> F          1.24788        0.40347       -4.59565
| 11> H          2.96535        1.95613       -3.08747
| 12> H          3.22581        1.91242       -1.36024
| 13> H          1.73350        2.55528       -2.00274
| 14> *
| 15>
| 16> %MaxCore 64000
| 17>
| 18> %pal nprocs 4
| 19> end
| 20>
| 21> %scf
| 22>   MaxIter 150
| 23> end
| 24>
| 25>
| 26>                          ****END OF INPUT****

CARTESIAN COORDINATES (ANGSTROEM)
---------------------------------
  C      2.495560    1.816150   -2.136360
  C      1.872180    0.427900   -2.077500
  H      2.614270   -0.365830   -2.198890
  H      1.389950    0.273090   -1.112360
  S      0.579020    0.140470   -3.297940
  O      0.228860   -1.246870   -3.127870
  O     -0.439270    1.118970   -3.014550
  F      1.247880    0.403470   -4.595650
  H      2.965350    1.956130   -3.087470
  H      3.225810    1.912420   -1.360240
  H      1.733500    2.555280   -2.002740

 Total Charge           Charge          ....    0
 Multiplicity           Mult            ....    1
 Number of Electrons    NEL             ....   58
 Basis Dimension        Dim             ....  285

ORBITAL ENERGIES
----------------

  NO   OCC          E(Eh)            E(eV)
   0   2.0000     -88.333616     -2403.6799
   1   2.0000     -24.380862      -663.4370
   2   2.0000     -18.785734      -511.1858
   3   2.0000     -18.785386      -511.1763
   4   2.0000      -9.959602      -271.0146
   5   2.0000      -9.922127      -269.9948
   6   2.0000      -7.865427      -214.0292
   7   2.0000      -5.897727      -160.4853
   8   2.0000      -5.890921      -160.3001
   9   2.0000      -5.890752      -160.2955
  10   2.0000      -1.238443       -33.6998
  11   2.0000      -1.019355       -27.7381
  12   2.0000      -0.933760       -25.4089
  13   2.0000      -0.741700       -20.1827
  14   2.0000      -0.647406       -17.6168
  15   2.0000      -0.601987       -16.3809
  16   2.0000      -0.514101       -13.9894
  17   2.0000      -0.493576       -13.4309
  18   2.0000      -0.482930       -13.1412
  19   2.0000      -0.439424       -11.9573
  20   2.0000      -0.419568       -11.4170
  21   2.0000      -0.400446       -10.8967
  22   2.0000      -0.385247       -10.4831
  23   2.0000      -0.360212        -9.8019
  24   2.0000      -0.354104        -9.6357
  25   2.0000      -0.332467        -9.0469
  26   2.0000      -0.292834        -7.9684
  27   2.0000      -0.286446        -7.7946
  28   2.0000      -0.273112        -7.4318
  29   0.0000      -0.032986        -0.8976
  30   0.0000      -0.002020        -0.0550
  31   0.0000       0.008616         0.2345
  32   0.0000       0.011593         0.3155
  33   0.0000       0.022459         0.6111

MULLIKEN ATOMIC CHARGES
-----------------------
   0 C :   -1.242253
   1 C :   -0.328449
   2 H :    0.324991
   3 H :    0.307617
   4 S :    1.181075
   5 O :   -0.541747
   6 O :   -0.556792
   7 F :   -0.179983
   8 H :    0.355676
   9 H :    0.332312
  10 H :    0.347552
Sum of atomic charges:   -0.0000000

LOEWDIN ATOMIC CHARGES
----------------------
   0 C :   -0.108924
   1 C :   -0.280590
   2 H :    0.099220
   3 H :    0.104662
   4 S :    0.557666
   5 O :   -0.256243
   6 O :   -0.250882
   7 F :   -0.070604
   8 H :    0.065921
   9 H :    0.070181
  10 H :    0.069592

  Mayer bond orders larger than 0.100000
B(  0-C ,  1-C ) :   0.6165 B(  0-C ,  8-H ) :   0.9135 B(  0-C ,  9-H ) :   0.9314
B(  0-C , 10-H ) :   0.9604 B(  1-C ,  2-H ) :   0.9034 B(  1-C ,  3-H ) :   0.9174
B(  1-C ,  4-S ) :   0.8542 B(  1-C ,  5-O ) :   0.1255 B(  4-S ,  5-O ) :   1.6646
B(  4-S ,  6-O ) :   1.6704 B(  4-S ,  7-F ) :   0.9764 B(  5-O ,  6-O ) :   0.1088

Dispersion correction           -0.019586486
FINAL SINGLE POINT ENERGY      -727.790898073459

DIPOLE MOMENT
-------------
                                X             Y             Z
Electronic contribution:     -5.13367      -3.62458      -6.58872
Nuclear contribution   :      6.54345       4.10057       6.91691
                        -----------------------------------------
Total Dipole Moment    :      1.40977       0.47599       0.32818
                        -----------------------------------------
Magnitude (a.u.)       :      1.52372
Magnitude (Debye)      :      3.87300

Rotational constants in cm-1:     0.152835     0.082826     0.080611
Rotational constants in MHz :  4581.878371  2483.049050  2416.647141

                             ****ORCA TERMINATED NORMALLY****
TOTAL RUN TIME: 0 days 0 hours 0 minutes 10 seconds 870 msec
