                         Program Version 5.0.0 -  RELEASE  -
|  1> !BLYP D3BJ RIJCOSX def2-TZVPD def2/J TightSCF
|  2> *xyz 0 1
|  3> C          3.38093        2.08304       -3.35013
|  4> N          4.53592        1.18245       -3.42852
|  5> C          2.49556        1.81615       -2.13636
|  6> C          4.67196        0.12227       -4.22060
|  7> N          5.86602       -0.50785       -4.22428
|  8> C          3.69888       -0.31284       -4.98699
|  9> H          2.73141       -0.05009       -4.84900
| 10> H          3.89005       -1.05517       -5.64373
| 11> H          5.25193        1.30346       -2.72101
| 12> H          6.69516       -0.06232       -3.85160
| 13> H          5.97538       -1.39688       -4.69141
| 14> H          2.80646        1.98651       -4.26848
| 15> H          3.77871        3.09828       -3.30738
| 16> H          2.11090        0.81901       -2.18783
| 17> H          1.68276        2.51198       -2.12786
| 18> H          3.07216        1.93031       -1.24227
| 19> *
| 20>
| 21> %MaxCore 64000
| 22>
| 23> %pal nprocs 4
| 24> end
| 25>
| 26> %scf
| 27>   MaxIter 150
| 28> end
| 29>
| 30>
| 31>                          ****END OF INPUT****

CARTESIAN COORDINATES (ANGSTROEM)
---------------------------------
  C      3.380930    2.083040   -3.350130
  N      4.535920    1.182450   -3.428520
  C      2.495560    1.816150   -2.136360
  C      4.671960    0.122270   -4.220600
  N      5.866020   -0.507850   -4.224280
  C      3.698880   -0.312840   -4.986990
  H      2.731410   -0.050090   -4.849000
  H      3.890050   -1.055170   -5.643730
  H      5.251930    1.303460   -2.721010
  H      6.695160   -0.062320   -3.851600
  H      5.975380   -1.396880   -4.691410
  H      2.806460    1.986510   -4.268480
  H      3.778710    3.098280   -3.307380
  H      2.110900    0.819010   -2.187830
  H      1.682760    2.511980   -2.127860
  H      3.072160    1.930310   -1.242270

 Total Charge           Charge          ....    0
 Multiplicity           Mult            ....    1
 Number of Electrons    NEL             ....   48
 Basis Dimension        Dim             ....  312

ORBITAL ENERGIES
----------------

  NO   OCC          E(Eh)            E(eV)
   0   2.0000     -14.006430      -381.1343
   1   2.0000     -14.002646      -381.0314
   2   2.0000      -9.943837      -270.5856
   3   2.0000      -9.935711      -270.3644
   4   2.0000      -9.889695      -269.1123
   5   2.0000      -9.818466      -267.1740
   6   2.0000      -0.871760       -23.7218
   7   2.0000      -0.794778       -21.6270
   8   2.0000      -0.680112       -18.5068
   9   2.0000      -0.636374       -17.3166
  10   2.0000      -0.572073       -15.5669
  11   2.0000      -0.504644       -13.7321
  12   2.0000      -0.486854       -13.2480
  13   2.0000      -0.459421       -12.5015
  14   2.0000      -0.407580       -11.0908
  15   2.0000      -0.396721       -10.7953
  16   2.0000      -0.368245       -10.0204
  17   2.0000      -0.353259        -9.6127
  18   2.0000      -0.332286        -9.0420
  19   2.0000      -0.329290        -8.9604
  20   2.0000      -0.308588        -8.3971
  21   2.0000      -0.301844        -8.2136
  22   2.0000      -0.202579        -5.5125
  23   2.0000      -0.135140        -3.6773
  24   0.0000      -0.017193        -0.4678
  25   0.0000       0.002938         0.0800
  26   0.0000       0.016060         0.4370
  27   0.0000       0.021979         0.5981
  28   0.0000       0.041915         1.1406

MULLIKEN ATOMIC CHARGES
-----------------------
   0 C :   -0.411028
   1 N :   -0.195406
   2 C :   -1.048357
   3 C :    0.796788
   4 N :   -0.316904
   5 C :   -1.264341
   6 H :    0.272981
   7 H :    0.276255
   8 H :    0.154058
   9 H :    0.131514
  10 H :    0.127569
  11 H :    0.322491
  12 H :    0.235147
  13 H :    0.295431
  14 H :    0.324931
  15 H :    0.298871
Sum of atomic charges:    0.0000000

LOEWDIN ATOMIC CHARGES
----------------------
   0 C :   -0.229429
   1 N :    0.024149
   2 C :   -0.078089
   3 C :   -0.567500
   4 N :    0.118701
   5 C :    0.010862
   6 H :    0.004845
   7 H :    0.006948
   8 H :    0.131601
   9 H :    0.088212
  10 H :    0.098090
  11 H :    0.103060
  12 H :    0.105030
  13 H :    0.064215
  14 H :    0.060578
  15 H :    0.058726

  Mayer bond orders larger than 0.100000
B(  0-C ,  1-N ) :   0.8310 B(  0-C ,  2-C ) :   0.5390 B(  0-C ,  5-C ) :   0.1175
B(  0-C , 11-H ) :   0.9071 B(  0-C , 12-H ) :   0.9355 B(  1-N ,  3-C ) :   1.0465
B(  1-N ,  8-H ) :   1.0085 B(  2-C , 13-H ) :   1.0116 B(  2-C , 14-H ) :   0.9527
B(  2-C , 15-H ) :   0.9482 B(  3-C ,  4-N ) :   0.8804 B(  3-C ,  5-C ) :   1.1742
B(  3-C ,  7-H ) :  -0.1180 B(  4-N ,  5-C ) :   0.1027 B(  4-N ,  9-H ) :   1.0424
B(  4-N , 10-H ) :   1.0423 B(  5-C ,  6-H ) :   0.9388 B(  5-C ,  7-H ) :   1.1078

Dispersion correction           -0.025469260
FINAL SINGLE POINT ENERGY      -267.910645233487

DIPOLE MOMENT
-------------
                                X             Y             Z
Electronic contribution:      3.64630      -1.32178      -1.36295
Nuclear contribution   :     -3.02065       1.64092       1.99316
                        -----------------------------------------
Total Dipole Moment    :      0.62565       0.31914       0.63021
                        -----------------------------------------
Magnitude (a.u.)       :      0.94364
Magnitude (Debye)      :      2.39854

Rotational constants in cm-1:     0.259304     0.069422     0.060943
Rotational constants in MHz :  7773.747720  2081.225169  1827.013389

                             ****ORCA TERMINATED NORMALLY****
TOTAL RUN TIME: 0 days 0 hours 0 minutes 13 seconds 730 msec
