                         Program Version 5.0.0 -  RELEASE  -
|  1> !BLYP D3BJ RIJCOSX def2-TZVPD def2/J TightSCF xyzfile
|  2>
|  3> *xyzfile 0 1 D1.xyz
|  4>
|  5> %MaxCore 64000
|  6>
|  7> %pal nprocs 4
|  8> end
|  9>
| 10> %scf
| 11>   MaxIter 150
| 12> end
| 13>
| 14>
| 15>                          ****END OF INPUT****

CARTESIAN COORDINATES (ANGSTROEM)
---------------------------------
  C      3.380928    2.083045   -3.350127
  C      4.535924    1.182447   -3.428518
  C      2.495557    1.816150   -2.136364
  C      1.872181    0.427903   -2.077497
  H      2.614270   -0.365825   -2.198894
  H      1.389953    0.273087   -1.112360
  S      0.579024    0.140472   -3.297943
  C      4.671956    0.122273   -4.220598
  N      5.866023   -0.507849   -4.224284
  N      3.698881   -0.312844   -4.986988
  H      2.731405   -0.050091   -4.849000
  H      3.890046   -1.055172   -5.643730
  H      5.251933    1.303459   -2.721014
  H      6.695165   -0.062322   -3.851596
  H      5.975383   -1.396884   -4.691414
  F      0.228860   -1.246868   -3.127871
  O     -0.439269    1.118966   -3.014550
  O      1.247881    0.403474   -4.595647
  H      1.697003    2.561969   -2.141109
  H      3.080787    1.987436   -1.225838
  H      2.806463    1.986511   -4.268484
  H      3.778714    3.098282   -3.307383

 Total Charge           Charge          ....    0
 Multiplicity           Mult            ....    1
 Number of Electrons    NEL             ....   96
 Basis Dimension        Dim             ....  524

ORBITAL ENERGIES
----------------

  NO   OCC          E(Eh)            E(eV)
   0   2.0000     -88.345256     -2403.9966
   1   2.0000     -24.408811      -664.1975
   2   2.0000     -18.792778      -511.3775
   3   2.0000     -18.787924      -511.2454
   4   2.0000     -13.999971      -380.9586
   5   2.0000     -13.983884      -380.5208
   6   2.0000      -9.953297      -270.8430
   7   2.0000      -9.940150      -270.4852
   8   2.0000      -9.912866      -269.7428
   9   2.0000      -9.880954      -268.8744
  10   2.0000      -9.827429      -267.4179
  11   2.0000      -7.877272      -214.3515
  12   2.0000      -5.909395      -160.8028
  13   2.0000      -5.903166      -160.6333
  14   2.0000      -5.902184      -160.6066
  15   2.0000      -1.279740       -34.8235
  16   2.0000      -1.021616       -27.7996
  17   2.0000      -0.931522       -25.3480
  18   2.0000      -0.862602       -23.4726
  19   2.0000      -0.777886       -21.1673
  20   2.0000      -0.742949       -20.2167
  21   2.0000      -0.687463       -18.7068
  22   2.0000      -0.652660       -17.7598
  23   2.0000      -0.610446       -16.6111
  24   2.0000      -0.560429       -15.2501
  25   2.0000      -0.531609       -14.4658
  26   2.0000      -0.523698       -14.2505
  27   2.0000      -0.513803       -13.9813
  28   2.0000      -0.492595       -13.4042
  29   2.0000      -0.478301       -13.0152
  30   2.0000      -0.458121       -12.4661
  31   2.0000      -0.436775       -11.8852
  32   2.0000      -0.428729       -11.6663
  33   2.0000      -0.414167       -11.2700
  34   2.0000      -0.398666       -10.8482
  35   2.0000      -0.385560       -10.4916
  36   2.0000      -0.359509        -9.7827
  37   2.0000      -0.351701        -9.5703
  38   2.0000      -0.342289        -9.3142
  39   2.0000      -0.331512        -9.0209
  40   2.0000      -0.310550        -8.4505
  41   2.0000      -0.303786        -8.2664
  42   2.0000      -0.291830        -7.9411
  43   2.0000      -0.290470        -7.9041
  44   2.0000      -0.271209        -7.3800
  45   2.0000      -0.267925        -7.2906
  46   2.0000      -0.209957        -5.7132
  47   2.0000      -0.125363        -3.4113
  48   0.0000      -0.033539        -0.9126
  49   0.0000      -0.013627        -0.3708
  50   0.0000      -0.005061        -0.1377
  51   0.0000       0.007894         0.2148
  52   0.0000       0.015037         0.4092

MULLIKEN ATOMIC CHARGES
-----------------------
   0 C :   -0.464893
   1 C :   -0.853292
   2 C :   -0.563270
   3 C :   -0.642000
   4 H :    0.364155
   5 H :    0.331998
   6 S :    1.198795
   7 C :    0.596506
   8 N :   -0.340089
   9 N :   -0.299354
  10 H :    0.308734
  11 H :    0.101801
  12 H :    0.294698
  13 H :    0.142095
  14 H :    0.113821
  15 F :   -0.133937
  16 O :   -0.562853
  17 O :   -0.709676
  18 H :    0.211868
  19 H :    0.323507
  20 H :    0.341011
  21 H :    0.240375
Sum of atomic charges:   -0.0000000

LOEWDIN ATOMIC CHARGES
----------------------
   0 C :   -0.216482
   1 C :   -0.126932
   2 C :   -0.203143
   3 C :   -0.223095
   4 H :    0.101010
   5 H :    0.099190
   6 S :    0.608226
   7 C :   -0.546155
   8 N :    0.118008
   9 N :    0.155959
  10 H :    0.009665
  11 H :    0.100678
  12 H :    0.064005
  13 H :    0.098814
  14 H :    0.083926
  15 F :   -0.030551
  16 O :   -0.235093
  17 O :   -0.288282
  18 H :    0.107440
  19 H :    0.119380
  20 H :    0.095970
  21 H :    0.107464

  Mayer bond orders larger than 0.100000
B(  0-C ,  1-C ) :   0.5043 B(  0-C ,  2-C ) :   0.6997 B(  0-C , 12-H ) :  -0.1007
B(  0-C , 20-H ) :   0.9075 B(  0-C , 21-H ) :   1.0428 B(  1-C ,  7-C ) :   1.2982
B(  1-C ,  8-N ) :   0.1855 B(  1-C ,  9-N ) :   0.1346 B(  1-C , 12-H ) :   1.0254
B(  2-C ,  3-C ) :   1.0662 B(  2-C ,  6-S ) :   0.1463 B(  2-C , 18-H ) :   0.9439
B(  2-C , 19-H ) :   0.8933 B(  3-C ,  4-H ) :   0.8158 B(  3-C ,  5-H ) :   0.8697
B(  3-C ,  6-S ) :   0.8189 B(  6-S , 15-F ) :   0.9590 B(  6-S , 16-O ) :   1.6520
B(  6-S , 17-O ) :   1.5842 B(  7-C ,  8-N ) :   0.8289 B(  7-C ,  9-N ) :   0.9162
B(  7-C , 12-H ) :  -0.1244 B(  8-N , 13-H ) :   1.0207 B(  8-N , 14-H ) :   1.0771
B(  9-N , 10-H ) :   0.8103 B(  9-N , 11-H ) :   1.0632

Dispersion correction           -0.051896183
FINAL SINGLE POINT ENERGY      -955.194267754089

DIPOLE MOMENT
-------------
                                X             Y             Z
Electronic contribution:    -15.31426      -6.64899      -1.19275
Nuclear contribution   :     15.92508       5.34175       1.81950
                        -----------------------------------------
Total Dipole Moment    :      0.61082      -1.30724       0.62675
                        -----------------------------------------
Magnitude (a.u.)       :      1.57315
Magnitude (Debye)      :      3.99862

Rotational constants in cm-1:     0.058561     0.020662     0.017762
Rotational constants in MHz :  1755.621534   619.433801   532.501507

                             ****ORCA TERMINATED NORMALLY****
TOTAL RUN TIME: 0 days 0 hours 0 minutes 49 seconds 298 msec
