                         Program Version 5.0.0 -  RELEASE  -
|  1> !BLYP D3BJ RIJCOSX def2-TZVPD def2/J TightSCF xyzfile
|  2>
|  3> *xyzfile 0 1 D2.xyz
|  4>
|  5> %MaxCore 64000
|  6>
|  7> %pal nprocs 4
|  8> end
|  9>
| 10> %scf
| 11>   MaxIter 150
| 12> end
| 13>
| 14>
| 15>                          ****END OF INPUT****

CARTESIAN COORDINATES (ANGSTROEM)
---------------------------------
  C      3.380928    2.083045   -3.350127
  N      4.535924    1.182447   -3.428518
  C      2.495557    1.816150   -2.136364
  C      1.872181    0.427903   -2.077497
  H      2.614270   -0.365825   -2.198894
  H      1.389953    0.273087   -1.112360
  S      0.579024    0.140472   -3.297943
  C      4.671956    0.122273   -4.220598
  C      5.866023   -0.507849   -4.224284
  N      3.698881   -0.312844   -4.986988
  H      2.731405   -0.050091   -4.849000
  H      3.890046   -1.055172   -5.643730
  H      5.251933    1.303459   -2.721014
  H      6.695165   -0.062322   -3.851596
  H      5.975383   -1.396884   -4.691414
  F      0.228860   -1.246868   -3.127871
  O     -0.439269    1.118966   -3.014550
  O      1.247881    0.403474   -4.595647
  H      1.697003    2.561969   -2.141109
  H      3.080787    1.987436   -1.225838
  H      2.806463    1.986511   -4.268484
  H      3.778714    3.098282   -3.307383

 Total Charge           Charge          ....    0
 Multiplicity           Mult            ....    1
 Number of Electrons    NEL             ....   96
 Basis Dimension        Dim             ....  524

ORBITAL ENERGIES
----------------

  NO   OCC          E(Eh)            E(eV)
   0   2.0000     -88.358713     -2404.3628
   1   2.0000     -24.420124      -664.5054
   2   2.0000     -18.805397      -511.7209
   3   2.0000     -18.799552      -511.5618
   4   2.0000     -14.006991      -381.1496
   5   2.0000     -13.980629      -380.4323
   6   2.0000      -9.971741      -271.3449
   7   2.0000      -9.946485      -270.6576
   8   2.0000      -9.939912      -270.4788
   9   2.0000      -9.939022      -270.4545
  10   2.0000      -9.808661      -266.9072
  11   2.0000      -7.890566      -214.7132
  12   2.0000      -5.922623      -161.1628
  13   2.0000      -5.916433      -160.9943
  14   2.0000      -5.915636      -160.9726
  15   2.0000      -1.290869       -35.1263
  16   2.0000      -1.034129       -28.1401
  17   2.0000      -0.943652       -25.6781
  18   2.0000      -0.871881       -23.7251
  19   2.0000      -0.796701       -21.6793
  20   2.0000      -0.755047       -20.5459
  21   2.0000      -0.695546       -18.9268
  22   2.0000      -0.654336       -17.8054
  23   2.0000      -0.615300       -16.7432
  24   2.0000      -0.569905       -15.5079
  25   2.0000      -0.538992       -14.6667
  26   2.0000      -0.535600       -14.5744
  27   2.0000      -0.529998       -14.4220
  28   2.0000      -0.518993       -14.1225
  29   2.0000      -0.485276       -13.2050
  30   2.0000      -0.452628       -12.3166
  31   2.0000      -0.437049       -11.8927
  32   2.0000      -0.433876       -11.8064
  33   2.0000      -0.428734       -11.6665
  34   2.0000      -0.410448       -11.1689
  35   2.0000      -0.395415       -10.7598
  36   2.0000      -0.366545        -9.9742
  37   2.0000      -0.359641        -9.7863
  38   2.0000      -0.356608        -9.7038
  39   2.0000      -0.339829        -9.2472
  40   2.0000      -0.335336        -9.1250
  41   2.0000      -0.322138        -8.7658
  42   2.0000      -0.308648        -8.3987
  43   2.0000      -0.299041        -8.1373
  44   2.0000      -0.294796        -8.0218
  45   2.0000      -0.277934        -7.5630
  46   2.0000      -0.204249        -5.5579
  47   2.0000      -0.118058        -3.2125
  48   0.0000      -0.042909        -1.1676
  49   0.0000      -0.024210        -0.6588
  50   0.0000      -0.003355        -0.0913
  51   0.0000       0.000505         0.0137
  52   0.0000       0.007505         0.2042

MULLIKEN ATOMIC CHARGES
-----------------------
   0 C :   -0.616434
   1 N :   -0.195259
   2 C :   -0.499475
   3 C :   -0.637328
   4 H :    0.333401
   5 H :    0.336747
   6 S :    1.208840
   7 C :    0.616339
   8 C :   -1.268492
   9 N :   -0.310240
  10 H :    0.351792
  11 H :    0.103238
  12 H :    0.158244
  13 H :    0.278928
  14 H :    0.293578
  15 F :   -0.128632
  16 O :   -0.559902
  17 O :   -0.708625
  18 H :    0.275503
  19 H :    0.287605
  20 H :    0.401603
  21 H :    0.278569
Sum of atomic charges:    0.0000000

LOEWDIN ATOMIC CHARGES
----------------------
   0 C :   -0.175093
   1 N :    0.044258
   2 C :   -0.187483
   3 C :   -0.220002
   4 H :    0.104314
   5 H :    0.101441
   6 S :    0.609756
   7 C :   -0.575763
   8 C :   -0.001610
   9 N :    0.151708
  10 H :    0.004028
  11 H :    0.113543
  12 H :    0.141417
  13 H :   -0.007554
  14 H :   -0.009141
  15 F :   -0.024145
  16 O :   -0.232848
  17 O :   -0.288310
  18 H :    0.112314
  19 H :    0.118740
  20 H :    0.104755
  21 H :    0.115674

  Mayer bond orders larger than 0.100000
B(  0-C ,  1-N ) :   0.7987 B(  0-C ,  2-C ) :   0.8012 B(  0-C ,  7-C ) :  -0.1053
B(  0-C , 20-H ) :   0.8451 B(  0-C , 21-H ) :   0.9273 B(  1-N ,  3-C ) :   0.1040
B(  1-N ,  7-C ) :   1.1090 B(  1-N ,  8-C ) :   0.1674 B(  1-N , 12-H ) :   0.9715
B(  2-C ,  3-C ) :   1.0421 B(  2-C ,  6-S ) :   0.1413 B(  2-C , 18-H ) :   0.9652
B(  2-C , 19-H ) :   0.8812 B(  3-C ,  4-H ) :   0.8337 B(  3-C ,  5-H ) :   0.8741
B(  3-C ,  6-S ) :   0.8228 B(  6-S , 15-F ) :   0.9671 B(  6-S , 16-O ) :   1.6533
B(  6-S , 17-O ) :   1.5833 B(  7-C ,  8-C ) :   1.0454 B(  7-C ,  9-N ) :   1.0522
B(  7-C , 14-H ) :  -0.1118 B(  8-C ,  9-N ) :   0.1099 B(  8-C , 13-H ) :   1.0206
B(  8-C , 14-H ) :   1.0638 B(  9-N , 10-H ) :   0.7600 B(  9-N , 11-H ) :   1.0496

Dispersion correction           -0.051347389
FINAL SINGLE POINT ENERGY      -955.179636662010

DIPOLE MOMENT
-------------
                                X             Y             Z
Electronic contribution:    -16.77462      -5.22015      -0.43873
Nuclear contribution   :     16.05479       5.17692       1.74190
                        -----------------------------------------
Total Dipole Moment    :     -0.71984      -0.04323       1.30317
                        -----------------------------------------
Magnitude (a.u.)       :      1.48939
Magnitude (Debye)      :      3.78572

Rotational constants in cm-1:     0.058652     0.021107     0.018077
Rotational constants in MHz :  1758.344290   632.763813   541.920558

                             ****ORCA TERMINATED NORMALLY****
TOTAL RUN TIME: 0 days 0 hours 0 minutes 48 seconds 268 msec
