                         Program Version 5.0.0 -  RELEASE  -
|  1> !BLYP D3BJ RIJCOSX def2-TZVPD def2/J TightSCF xyzfile
|  2>
|  3> *xyzfile 0 1 D3.xyz
|  4>
|  5> %MaxCore 64000
|  6>
|  7> %pal nprocs 4
|  8> end
|  9>
| 10> %scf
| 11>   MaxIter 150
| 12> end
| 13>
| 14>
| 15>                          ****END OF INPUT****

CARTESIAN COORDINATES (ANGSTROEM)
---------------------------------
  C      3.380928    2.083045   -3.350127
  N      4.535924    1.182447   -3.428518
  C      2.495557    1.816150   -2.136364
  C      1.872181    0.427903   -2.077497
  H      2.614270   -0.365825   -2.198894
  H      1.389953    0.273087   -1.112360
  S      0.579024    0.140472   -3.297943
  C      4.671956    0.122273   -4.220598
  N      5.866023   -0.507849   -4.224284
  C      3.698881   -0.312844   -4.986988
  H      2.731405   -0.050091   -4.849000
  H      3.890046   -1.055172   -5.643730
  H      5.251933    1.303459   -2.721014
  H      6.695165   -0.062322   -3.851596
  H      5.975383   -1.396884   -4.691414
  F      0.228860   -1.246868   -3.127871
  O     -0.439269    1.118966   -3.014550
  O      1.247881    0.403474   -4.595647
  H      1.697003    2.561969   -2.141109
  H      3.080787    1.987436   -1.225838
  H      2.806463    1.986511   -4.268484
  H      3.778714    3.098282   -3.307383

 Total Charge           Charge          ....    0
 Multiplicity           Mult            ....    1
 Number of Electrons    NEL             ....   96
 Basis Dimension        Dim             ....  524

ORBITAL ENERGIES
----------------

  NO   OCC          E(Eh)            E(eV)
   0   2.0000     -88.336666     -2403.7629
   1   2.0000     -24.401377      -663.9952
   2   2.0000     -18.785426      -511.1774
   3   2.0000     -18.771013      -510.7852
   4   2.0000     -14.008490      -381.1904
   5   2.0000     -13.998906      -380.9296
   6   2.0000      -9.957566      -270.9592
   7   2.0000      -9.940767      -270.5020
   8   2.0000      -9.937352      -270.4091
   9   2.0000      -9.931819      -270.2585
  10   2.0000      -9.797795      -266.6116
  11   2.0000      -7.868573      -214.1147
  12   2.0000      -5.900704      -160.5663
  13   2.0000      -5.894239      -160.3904
  14   2.0000      -5.893742      -160.3769
  15   2.0000      -1.272000       -34.6129
  16   2.0000      -1.011988       -27.5376
  17   2.0000      -0.918689       -24.9988
  18   2.0000      -0.871565       -23.7165
  19   2.0000      -0.796168       -21.6648
  20   2.0000      -0.742098       -20.1935
  21   2.0000      -0.678273       -18.4568
  22   2.0000      -0.643239       -17.5034
  23   2.0000      -0.622843       -16.9484
  24   2.0000      -0.575749       -15.6669
  25   2.0000      -0.521518       -14.1912
  26   2.0000      -0.518539       -14.1102
  27   2.0000      -0.508132       -13.8270
  28   2.0000      -0.495202       -13.4751
  29   2.0000      -0.479628       -13.0513
  30   2.0000      -0.459714       -12.5095
  31   2.0000      -0.438288       -11.9264
  32   2.0000      -0.435002       -11.8370
  33   2.0000      -0.402554       -10.9540
  34   2.0000      -0.399695       -10.8762
  35   2.0000      -0.393770       -10.7150
  36   2.0000      -0.356947        -9.7130
  37   2.0000      -0.347886        -9.4665
  38   2.0000      -0.340850        -9.2750
  39   2.0000      -0.333915        -9.0863
  40   2.0000      -0.330162        -8.9842
  41   2.0000      -0.321999        -8.7620
  42   2.0000      -0.301115        -8.1938
  43   2.0000      -0.287731        -7.8296
  44   2.0000      -0.271887        -7.3984
  45   2.0000      -0.235859        -6.4180
  46   2.0000      -0.203913        -5.5488
  47   2.0000      -0.129541        -3.5250
  48   0.0000      -0.028468        -0.7747
  49   0.0000      -0.021260        -0.5785
  50   0.0000      -0.006224        -0.1694
  51   0.0000       0.004300         0.1170
  52   0.0000       0.019035         0.5180

MULLIKEN ATOMIC CHARGES
-----------------------
   0 C :   -0.612690
   1 N :   -0.214598
   2 C :   -0.525358
   3 C :   -0.617427
   4 H :    0.349139
   5 H :    0.333591
   6 S :    1.181838
   7 C :    0.962073
   8 N :   -0.346174
   9 C :   -1.616755
  10 H :    0.565528
  11 H :    0.244183
  12 H :    0.157411
  13 H :    0.120331
  14 H :    0.131979
  15 F :   -0.140988
  16 O :   -0.575488
  17 O :   -0.597589
  18 H :    0.263607
  19 H :    0.287881
  20 H :    0.394589
  21 H :    0.254916
Sum of atomic charges:    0.0000000

LOEWDIN ATOMIC CHARGES
----------------------
   0 C :   -0.169052
   1 N :    0.035772
   2 C :   -0.186866
   3 C :   -0.221198
   4 H :    0.100976
   5 H :    0.098653
   6 S :    0.599277
   7 C :   -0.558702
   8 N :    0.116583
   9 C :    0.024128
  10 H :   -0.058907
  11 H :    0.020168
  12 H :    0.132100
  13 H :    0.084825
  14 H :    0.097136
  15 F :   -0.029219
  16 O :   -0.244539
  17 O :   -0.294479
  18 H :    0.112235
  19 H :    0.115434
  20 H :    0.109466
  21 H :    0.116208

  Mayer bond orders larger than 0.100000
B(  0-C ,  1-N ) :   0.8519 B(  0-C ,  2-C ) :   0.7945 B(  0-C , 20-H ) :   0.8369
B(  0-C , 21-H ) :   0.9280 B(  1-N ,  3-C ) :   0.1003 B(  1-N ,  7-C ) :   1.0252
B(  1-N , 12-H ) :   0.9847 B(  2-C ,  3-C ) :   1.0469 B(  2-C ,  6-S ) :   0.1550
B(  2-C , 18-H ) :   0.9494 B(  2-C , 19-H ) :   0.8831 B(  3-C ,  4-H ) :   0.8425
B(  3-C ,  5-H ) :   0.8855 B(  3-C ,  6-S ) :   0.7899 B(  3-C , 15-F ) :   0.1011
B(  6-S , 15-F ) :   0.9472 B(  6-S , 16-O ) :   1.6459 B(  6-S , 17-O ) :   1.6594
B(  7-C ,  8-N ) :   0.8691 B(  7-C ,  9-C ) :   0.8197 B(  7-C , 11-H ) :  -0.1793
B(  8-N ,  9-C ) :   0.1090 B(  8-N , 13-H ) :   1.0581 B(  8-N , 14-H ) :   1.0384
B(  9-C , 10-H ) :   0.9238 B(  9-C , 11-H ) :   1.2464 B(  9-C , 17-O ) :   0.2258
B( 10-H , 17-O ) :  -0.4359

Dispersion correction           -0.051849334
FINAL SINGLE POINT ENERGY      -955.164158648313

DIPOLE MOMENT
-------------
                                X             Y             Z
Electronic contribution:    -14.72688      -5.45932      -0.03090
Nuclear contribution   :     15.84345       5.19593       1.66752
                        -----------------------------------------
Total Dipole Moment    :      1.11658      -0.26339       1.63662
                        -----------------------------------------
Magnitude (a.u.)       :      1.99866
Magnitude (Debye)      :      5.08018

Rotational constants in cm-1:     0.059060     0.020573     0.017713
Rotational constants in MHz :  1770.576058   616.749938   531.036486

                             ****ORCA TERMINATED NORMALLY****
TOTAL RUN TIME: 0 days 0 hours 0 minutes 47 seconds 71 msec
