                         Program Version 5.0.0 -  RELEASE  -
|  1> !BLYP D3BJ RIJCOSX def2-TZVPD def2/J TightSCF xyzfile
|  2>
|  3> *xyzfile 0 1 D4.xyz
|  4>
|  5> %MaxCore 64000
|  6>
|  7> %pal nprocs 4
|  8> end
|  9>
| 10> %scf
| 11>   MaxIter 150
| 12> end
| 13>
| 14>
| 15>                          ****END OF INPUT****

CARTESIAN COORDINATES (ANGSTROEM)
---------------------------------
  C      3.380928    2.083045   -3.350127
  C      4.535924    1.182447   -3.428518
  C      2.495557    1.816150   -2.136364
  C      1.872181    0.427903   -2.077497
  H      2.614270   -0.365825   -2.198894
  H      1.389953    0.273087   -1.112360
  S      0.579024    0.140472   -3.297943
  C      4.671956    0.122273   -4.220598
  N      5.866023   -0.507849   -4.224284
  N      3.698881   -0.312844   -4.986988
  H      2.731405   -0.050091   -4.849000
  H      3.890046   -1.055172   -5.643730
  H      5.251933    1.303459   -2.721014
  H      6.695165   -0.062322   -3.851596
  H      5.975383   -1.396884   -4.691414
  O      0.228860   -1.246868   -3.127871
  F     -0.439269    1.118966   -3.014550
  O      1.247881    0.403474   -4.595647
  H      1.697003    2.561969   -2.141109
  H      3.080787    1.987436   -1.225838
  H      2.806463    1.986511   -4.268484
  H      3.778714    3.098282   -3.307383

 Total Charge           Charge          ....    0
 Multiplicity           Mult            ....    1
 Number of Electrons    NEL             ....   96
 Basis Dimension        Dim             ....  524

ORBITAL ENERGIES
----------------

  NO   OCC          E(Eh)            E(eV)
   0   2.0000     -88.345450     -2404.0019
   1   2.0000     -24.408379      -664.1858
   2   2.0000     -18.793020      -511.3841
   3   2.0000     -18.787250      -511.2271
   4   2.0000     -13.999763      -380.9529
   5   2.0000     -13.983619      -380.5136
   6   2.0000      -9.952539      -270.8223
   7   2.0000      -9.940756      -270.5017
   8   2.0000      -9.914408      -269.7847
   9   2.0000      -9.882686      -268.9216
  10   2.0000      -9.828095      -267.4361
  11   2.0000      -7.877330      -214.3531
  12   2.0000      -5.909534      -160.8066
  13   2.0000      -5.903257      -160.6358
  14   2.0000      -5.902168      -160.6062
  15   2.0000      -1.279396       -34.8141
  16   2.0000      -1.021131       -27.7864
  17   2.0000      -0.931505       -25.3475
  18   2.0000      -0.862267       -23.4635
  19   2.0000      -0.777469       -21.1560
  20   2.0000      -0.745097       -20.2751
  21   2.0000      -0.685337       -18.6490
  22   2.0000      -0.652629       -17.7589
  23   2.0000      -0.611978       -16.6528
  24   2.0000      -0.559364       -15.2211
  25   2.0000      -0.534602       -14.5473
  26   2.0000      -0.525083       -14.2882
  27   2.0000      -0.516536       -14.0556
  28   2.0000      -0.488942       -13.3048
  29   2.0000      -0.476165       -12.9571
  30   2.0000      -0.457737       -12.4557
  31   2.0000      -0.434232       -11.8160
  32   2.0000      -0.425929       -11.5901
  33   2.0000      -0.419131       -11.4051
  34   2.0000      -0.399897       -10.8817
  35   2.0000      -0.387090       -10.5332
  36   2.0000      -0.362233        -9.8569
  37   2.0000      -0.351992        -9.5782
  38   2.0000      -0.346265        -9.4223
  39   2.0000      -0.329685        -8.9712
  40   2.0000      -0.311222        -8.4688
  41   2.0000      -0.303166        -8.2496
  42   2.0000      -0.292258        -7.9527
  43   2.0000      -0.289707        -7.8833
  44   2.0000      -0.278257        -7.5718
  45   2.0000      -0.263850        -7.1797
  46   2.0000      -0.209216        -5.6930
  47   2.0000      -0.125813        -3.4235
  48   0.0000      -0.034982        -0.9519
  49   0.0000      -0.010601        -0.2885
  50   0.0000      -0.005062        -0.1377
  51   0.0000       0.011121         0.3026
  52   0.0000       0.012287         0.3343

MULLIKEN ATOMIC CHARGES
-----------------------
   0 C :   -0.448438
   1 C :   -0.882927
   2 C :   -0.521412
   3 C :   -0.618998
   4 H :    0.331320
   5 H :    0.336766
   6 S :    1.188266
   7 C :    0.616600
   8 N :   -0.340497
   9 N :   -0.287217
  10 H :    0.275633
  11 H :    0.103139
  12 H :    0.295658
  13 H :    0.142422
  14 H :    0.115810
  15 O :   -0.571333
  16 F :   -0.127770
  17 O :   -0.705897
  18 H :    0.211984
  19 H :    0.309302
  20 H :    0.338048
  21 H :    0.239541
Sum of atomic charges:   -0.0000000

LOEWDIN ATOMIC CHARGES
----------------------
   0 C :   -0.222264
   1 C :   -0.126708
   2 C :   -0.215155
   3 C :   -0.217352
   4 H :    0.111519
   5 H :    0.099484
   6 S :    0.605855
   7 C :   -0.542291
   8 N :    0.119877
   9 N :    0.162252
  10 H :    0.015884
  11 H :    0.103711
  12 H :    0.063880
  13 H :    0.099107
  14 H :    0.085529
  15 O :   -0.241396
  16 F :   -0.024781
  17 O :   -0.293348
  18 H :    0.100840
  19 H :    0.116531
  20 H :    0.092812
  21 H :    0.106013

  Mayer bond orders larger than 0.100000
B(  0-C ,  1-C ) :   0.5258 B(  0-C ,  2-C ) :   0.7194 B(  0-C , 20-H ) :   0.9027
B(  0-C , 21-H ) :   1.0504 B(  1-C ,  3-C ) :   0.1002 B(  1-C ,  7-C ) :   1.2883
B(  1-C ,  8-N ) :   0.1816 B(  1-C ,  9-N ) :   0.1360 B(  1-C , 12-H ) :   1.0238
B(  2-C ,  3-C ) :   0.9891 B(  2-C ,  6-S ) :   0.1083 B(  2-C , 18-H ) :   0.9283
B(  2-C , 19-H ) :   0.9138 B(  3-C ,  4-H ) :   0.8650 B(  3-C ,  5-H ) :   0.8881
B(  3-C ,  6-S ) :   0.8181 B(  3-C , 15-O ) :   0.1207 B(  6-S , 15-O ) :   1.6218
B(  6-S , 16-F ) :   1.0109 B(  6-S , 17-O ) :   1.5791 B(  7-C ,  8-N ) :   0.8356
B(  7-C ,  9-N ) :   0.9199 B(  7-C , 12-H ) :  -0.1253 B(  8-N , 13-H ) :   1.0203
B(  8-N , 14-H ) :   1.0751 B(  9-N , 10-H ) :   0.8100 B(  9-N , 11-H ) :   1.0570
B( 15-O , 17-O ) :   0.1008

Dispersion correction           -0.051826257
FINAL SINGLE POINT ENERGY      -955.194496358441

DIPOLE MOMENT
-------------
                                X             Y             Z
Electronic contribution:    -16.39601      -2.68219      -1.03298
Nuclear contribution   :     16.65743       2.74852       1.69529
                        -----------------------------------------
Total Dipole Moment    :      0.26142       0.06633       0.66231
                        -----------------------------------------
Magnitude (a.u.)       :      0.71512
Magnitude (Debye)      :      1.81768

Rotational constants in cm-1:     0.059907     0.020458     0.017675
Rotational constants in MHz :  1795.978106   613.328205   529.885290

                             ****ORCA TERMINATED NORMALLY****
TOTAL RUN TIME: 0 days 0 hours 0 minutes 47 seconds 277 msec
