                         Program Version 5.0.0 -  RELEASE  -
|  1> !BLYP D3BJ RIJCOSX def2-TZVPD def2/J TightSCF xyzfile
|  2>
|  3> *xyzfile 0 1 D5.xyz
|  4>
|  5> %MaxCore 64000
|  6>
|  7> %pal nprocs 4
|  8> end
|  9>
| 10> %scf
| 11>   MaxIter 150
| 12> end
| 13>
| 14>
| 15>                          ****END OF INPUT****

CARTESIAN COORDINATES (ANGSTROEM)
---------------------------------
  C      3.380928    2.083045   -3.350127
  N      4.535924    1.182447   -3.428518
  C      2.495557    1.816150   -2.136364
  C      1.872181    0.427903   -2.077497
  H      2.614270   -0.365825   -2.198894
  H      1.389953    0.273087   -1.112360
  S      0.579024    0.140472   -3.297943
  C      4.671956    0.122273   -4.220598
  C      5.866023   -0.507849   -4.224284
  N      3.698881   -0.312844   -4.986988
  H      2.731405   -0.050091   -4.849000
  H      3.890046   -1.055172   -5.643730
  H      5.251933    1.303459   -2.721014
  H      6.695165   -0.062322   -3.851596
  H      5.975383   -1.396884   -4.691414
  O      0.228860   -1.246868   -3.127871
  F     -0.439269    1.118966   -3.014550
  O      1.247881    0.403474   -4.595647
  H      1.697003    2.561969   -2.141109
  H      3.080787    1.987436   -1.225838
  H      2.806463    1.986511   -4.268484
  H      3.778714    3.098282   -3.307383

 Total Charge           Charge          ....    0
 Multiplicity           Mult            ....    1
 Number of Electrons    NEL             ....   96
 Basis Dimension        Dim             ....  524

ORBITAL ENERGIES
----------------

  NO   OCC          E(Eh)            E(eV)
   0   2.0000     -88.358152     -2404.3475
   1   2.0000     -24.420668      -664.5202
   2   2.0000     -18.804434      -511.6947
   3   2.0000     -18.799328      -511.5557
   4   2.0000     -14.008092      -381.1796
   5   2.0000     -13.979942      -380.4136
   6   2.0000      -9.971284      -271.3324
   7   2.0000      -9.948320      -270.7076
   8   2.0000      -9.941670      -270.5266
   9   2.0000      -9.938574      -270.4424
  10   2.0000      -9.808165      -266.8937
  11   2.0000      -7.889957      -214.6966
  12   2.0000      -5.922119      -161.1490
  13   2.0000      -5.915818      -160.9776
  14   2.0000      -5.914939      -160.9537
  15   2.0000      -1.291739       -35.1500
  16   2.0000      -1.032746       -28.1025
  17   2.0000      -0.943133       -25.6640
  18   2.0000      -0.872013       -23.7287
  19   2.0000      -0.796766       -21.6811
  20   2.0000      -0.756927       -20.5970
  21   2.0000      -0.693409       -18.8686
  22   2.0000      -0.655808       -17.8454
  23   2.0000      -0.616302       -16.7704
  24   2.0000      -0.569101       -15.4860
  25   2.0000      -0.542594       -14.7647
  26   2.0000      -0.540985       -14.7209
  27   2.0000      -0.534139       -14.5347
  28   2.0000      -0.510917       -13.9028
  29   2.0000      -0.481795       -13.1103
  30   2.0000      -0.452680       -12.3180
  31   2.0000      -0.441030       -12.0010
  32   2.0000      -0.433943       -11.8082
  33   2.0000      -0.426953       -11.6180
  34   2.0000      -0.407080       -11.0772
  35   2.0000      -0.400311       -10.8930
  36   2.0000      -0.368536       -10.0284
  37   2.0000      -0.364533        -9.9195
  38   2.0000      -0.356274        -9.6947
  39   2.0000      -0.344216        -9.3666
  40   2.0000      -0.332567        -9.0496
  41   2.0000      -0.319891        -8.7047
  42   2.0000      -0.304885        -8.2963
  43   2.0000      -0.296223        -8.0606
  44   2.0000      -0.293051        -7.9743
  45   2.0000      -0.283153        -7.7050
  46   2.0000      -0.203992        -5.5509
  47   2.0000      -0.117550        -3.1987
  48   0.0000      -0.045979        -1.2511
  49   0.0000      -0.021999        -0.5986
  50   0.0000      -0.002202        -0.0599
  51   0.0000      -0.001216        -0.0331
  52   0.0000       0.000244         0.0066

MULLIKEN ATOMIC CHARGES
-----------------------
   0 C :   -0.600773
   1 N :   -0.203627
   2 C :   -0.474598
   3 C :   -0.623326
   4 H :    0.307901
   5 H :    0.342605
   6 S :    1.204057
   7 C :    0.629658
   8 C :   -1.278007
   9 N :   -0.298357
  10 H :    0.320373
  11 H :    0.103949
  12 H :    0.160148
  13 H :    0.280488
  14 H :    0.294441
  15 O :   -0.564839
  16 F :   -0.128217
  17 O :   -0.706061
  18 H :    0.276270
  19 H :    0.280359
  20 H :    0.396805
  21 H :    0.280751
Sum of atomic charges:   -0.0000000

LOEWDIN ATOMIC CHARGES
----------------------
   0 C :   -0.180620
   1 N :    0.045002
   2 C :   -0.198877
   3 C :   -0.213676
   4 H :    0.114982
   5 H :    0.101768
   6 S :    0.605841
   7 C :   -0.573209
   8 C :    0.000358
   9 N :    0.157189
  10 H :    0.009877
  11 H :    0.115964
  12 H :    0.141536
  13 H :   -0.007207
  14 H :   -0.007636
  15 O :   -0.233062
  16 F :   -0.023482
  17 O :   -0.292802
  18 H :    0.106160
  19 H :    0.116011
  20 H :    0.101512
  21 H :    0.114371

  Mayer bond orders larger than 0.100000
B(  0-C ,  1-N ) :   0.8081 B(  0-C ,  2-C ) :   0.8179 B(  0-C ,  7-C ) :  -0.1006
B(  0-C , 20-H ) :   0.8499 B(  0-C , 21-H ) :   0.9263 B(  1-N ,  3-C ) :   0.1073
B(  1-N ,  7-C ) :   1.0968 B(  1-N ,  8-C ) :   0.1684 B(  1-N , 12-H ) :   0.9728
B(  2-C ,  3-C ) :   0.9631 B(  2-C ,  6-S ) :   0.1059 B(  2-C , 18-H ) :   0.9570
B(  2-C , 19-H ) :   0.8993 B(  3-C ,  4-H ) :   0.8751 B(  3-C ,  5-H ) :   0.8926
B(  3-C ,  6-S ) :   0.8278 B(  3-C , 15-O ) :   0.1262 B(  6-S , 15-O ) :   1.6287
B(  6-S , 16-F ) :   1.0129 B(  6-S , 17-O ) :   1.5757 B(  7-C ,  8-C ) :   1.0355
B(  7-C ,  9-N ) :   1.0519 B(  7-C , 14-H ) :  -0.1116 B(  8-C ,  9-N ) :   0.1109
B(  8-C , 13-H ) :   1.0220 B(  8-C , 14-H ) :   1.0621 B(  9-N , 10-H ) :   0.7582
B(  9-N , 11-H ) :   1.0437 B( 15-O , 17-O ) :   0.1011

Dispersion correction           -0.051278048
FINAL SINGLE POINT ENERGY      -955.178632432155

DIPOLE MOMENT
-------------
                                X             Y             Z
Electronic contribution:    -17.85732      -1.25108      -0.26339
Nuclear contribution   :     16.78714       2.58368       1.61768
                        -----------------------------------------
Total Dipole Moment    :     -1.07018       1.33260       1.35429
                        -----------------------------------------
Magnitude (a.u.)       :      2.18065
Magnitude (Debye)      :      5.54277

Rotational constants in cm-1:     0.059928     0.020911     0.017993
Rotational constants in MHz :  1796.610847   626.896941   539.414615

                             ****ORCA TERMINATED NORMALLY****
TOTAL RUN TIME: 0 days 0 hours 0 minutes 46 seconds 947 msec
