                         Program Version 5.0.0 -  RELEASE  -
|  1> !BLYP D3BJ RIJCOSX def2-TZVPD def2/J TightSCF xyzfile
|  2>
|  3> *xyzfile 0 1 D6.xyz
|  4>
|  5> %MaxCore 64000
|  6>
|  7> %pal nprocs 4
|  8> end
|  9>
| 10> %scf
| 11>   MaxIter 150
| 12> end
| 13>
| 14>
| 15>                          ****END OF INPUT****

CARTESIAN COORDINATES (ANGSTROEM)
---------------------------------
  C      3.380928    2.083045   -3.350127
  N      4.535924    1.182447   -3.428518
  C      2.495557    1.816150   -2.136364
  C      1.872181    0.427903   -2.077497
  H      2.614270   -0.365825   -2.198894
  H      1.389953    0.273087   -1.112360
  S      0.579024    0.140472   -3.297943
  C      4.671956    0.122273   -4.220598
  N      5.866023   -0.507849   -4.224284
  C      3.698881   -0.312844   -4.986988
  H      2.731405   -0.050091   -4.849000
  H      3.890046   -1.055172   -5.643730
  H      5.251933    1.303459   -2.721014
  H      6.695165   -0.062322   -3.851596
  H      5.975383   -1.396884   -4.691414
  O      0.228860   -1.246868   -3.127871
  F     -0.439269    1.118966   -3.014550
  O      1.247881    0.403474   -4.595647
  H      1.697003    2.561969   -2.141109
  H      3.080787    1.987436   -1.225838
  H      2.806463    1.986511   -4.268484
  H      3.778714    3.098282   -3.307383

 Total Charge           Charge          ....    0
 Multiplicity           Mult            ....    1
 Number of Electrons    NEL             ....   96
 Basis Dimension        Dim             ....  524

ORBITAL ENERGIES
----------------

  NO   OCC          E(Eh)            E(eV)
   0   2.0000     -88.335599     -2403.7338
   1   2.0000     -24.401126      -663.9884
   2   2.0000     -18.784849      -511.1617
   3   2.0000     -18.772559      -510.8273
   4   2.0000     -14.008883      -381.2011
   5   2.0000     -13.997635      -380.8950
   6   2.0000      -9.957323      -270.9525
   7   2.0000      -9.942524      -270.5498
   8   2.0000      -9.936129      -270.3758
   9   2.0000      -9.933759      -270.3113
  10   2.0000      -9.797655      -266.6077
  11   2.0000      -7.867574      -214.0876
  12   2.0000      -5.899834      -160.5426
  13   2.0000      -5.893129      -160.3602
  14   2.0000      -5.892740      -160.3496
  15   2.0000      -1.272545       -34.6277
  16   2.0000      -1.010639       -27.5009
  17   2.0000      -0.918977       -25.0066
  18   2.0000      -0.871255       -23.7080
  19   2.0000      -0.795903       -21.6576
  20   2.0000      -0.744503       -20.2589
  21   2.0000      -0.675502       -18.3813
  22   2.0000      -0.644704       -17.5433
  23   2.0000      -0.622965       -16.9517
  24   2.0000      -0.576218       -15.6797
  25   2.0000      -0.530150       -14.4261
  26   2.0000      -0.519919       -14.1477
  27   2.0000      -0.506268       -13.7763
  28   2.0000      -0.493680       -13.4337
  29   2.0000      -0.475709       -12.9447
  30   2.0000      -0.459059       -12.4916
  31   2.0000      -0.438671       -11.9368
  32   2.0000      -0.431671       -11.7464
  33   2.0000      -0.409835       -11.1522
  34   2.0000      -0.396722       -10.7954
  35   2.0000      -0.392922       -10.6919
  36   2.0000      -0.363372        -9.8879
  37   2.0000      -0.348596        -9.4858
  38   2.0000      -0.345546        -9.4028
  39   2.0000      -0.337801        -9.1920
  40   2.0000      -0.329409        -8.9637
  41   2.0000      -0.317280        -8.6336
  42   2.0000      -0.301320        -8.1993
  43   2.0000      -0.278953        -7.5907
  44   2.0000      -0.261498        -7.1157
  45   2.0000      -0.250702        -6.8219
  46   2.0000      -0.203751        -5.5444
  47   2.0000      -0.128143        -3.4869
  48   0.0000      -0.032764        -0.8915
  49   0.0000      -0.017931        -0.4879
  50   0.0000      -0.006718        -0.1828
  51   0.0000       0.004816         0.1311
  52   0.0000       0.012442         0.3386

MULLIKEN ATOMIC CHARGES
-----------------------
   0 C :   -0.595491
   1 N :   -0.223004
   2 C :   -0.493815
   3 C :   -0.591162
   4 H :    0.313953
   5 H :    0.330141
   6 S :    1.176124
   7 C :    0.951069
   8 N :   -0.346505
   9 C :   -1.544063
  10 H :    0.479716
  11 H :    0.249849
  12 H :    0.158063
  13 H :    0.119168
  14 H :    0.132473
  15 O :   -0.584158
  16 F :   -0.136059
  17 O :   -0.585388
  18 H :    0.262392
  19 H :    0.281684
  20 H :    0.388583
  21 H :    0.256429
Sum of atomic charges:   -0.0000000

LOEWDIN ATOMIC CHARGES
----------------------
   0 C :   -0.174661
   1 N :    0.035714
   2 C :   -0.197938
   3 C :   -0.214627
   4 H :    0.111841
   5 H :    0.099112
   6 S :    0.595213
   7 C :   -0.556671
   8 N :    0.117163
   9 C :    0.031053
  10 H :   -0.052712
  11 H :    0.023167
  12 H :    0.131975
  13 H :    0.084657
  14 H :    0.097976
  15 O :   -0.241385
  16 F :   -0.032541
  17 O :   -0.297706
  18 H :    0.106297
  19 H :    0.112853
  20 H :    0.106257
  21 H :    0.114962

  Mayer bond orders larger than 0.100000
B(  0-C ,  1-N ) :   0.8609 B(  0-C ,  2-C ) :   0.8117 B(  0-C , 20-H ) :   0.8420
B(  0-C , 21-H ) :   0.9267 B(  1-N ,  3-C ) :   0.1005 B(  1-N ,  7-C ) :   1.0097
B(  1-N , 12-H ) :   0.9874 B(  2-C ,  3-C ) :   0.9727 B(  2-C ,  6-S ) :   0.1253
B(  2-C , 18-H ) :   0.9424 B(  2-C , 19-H ) :   0.8997 B(  3-C ,  4-H ) :   0.8896
B(  3-C ,  5-H ) :   0.9087 B(  3-C ,  6-S ) :   0.7897 B(  3-C , 15-O ) :   0.1424
B(  6-S , 15-O ) :   1.5969 B(  6-S , 16-F ) :   1.0084 B(  6-S , 17-O ) :   1.6358
B(  7-C ,  8-N ) :   0.8639 B(  7-C ,  9-C ) :   0.8253 B(  7-C , 10-H ) :  -0.1076
B(  7-C , 11-H ) :  -0.1710 B(  8-N ,  9-C ) :   0.1153 B(  8-N , 13-H ) :   1.0594
B(  8-N , 14-H ) :   1.0385 B(  9-C , 10-H ) :   0.9477 B(  9-C , 11-H ) :   1.2132
B(  9-C , 17-O ) :   0.1394 B( 10-H , 17-O ) :  -0.3101 B( 15-O , 17-O ) :   0.1065

Dispersion correction           -0.051786876
FINAL SINGLE POINT ENERGY      -955.163815714257

DIPOLE MOMENT
-------------
                                X             Y             Z
Electronic contribution:    -15.83751      -1.47484       0.14699
Nuclear contribution   :     16.57580       2.60270       1.54331
                        -----------------------------------------
Total Dipole Moment    :      0.73829       1.12786       1.69030
                        -----------------------------------------
Magnitude (a.u.)       :      2.16200
Magnitude (Debye)      :      5.49537

Rotational constants in cm-1:     0.060402     0.020377     0.017632
Rotational constants in MHz :  1810.792194   610.900365   528.582827

                             ****ORCA TERMINATED NORMALLY****
TOTAL RUN TIME: 0 days 0 hours 0 minutes 48 seconds 518 msec
