                         Program Version 5.0.0 -  RELEASE  -
|  1> !BLYP D3BJ RIJCOSX def2-TZVPD def2/J TightSCF xyzfile
|  2>
|  3> *xyzfile 0 1 D7.xyz
|  4>
|  5> %MaxCore 64000
|  6>
|  7> %pal nprocs 4
|  8> end
|  9>
| 10> %scf
| 11>   MaxIter 150
| 12> end
| 13>
| 14>
| 15>                          ****END OF INPUT****

CARTESIAN COORDINATES (ANGSTROEM)
---------------------------------
  C      3.380928    2.083045   -3.350127
  C      4.535924    1.182447   -3.428518
  C      2.495557    1.816150   -2.136364
  C      1.872181    0.427903   -2.077497
  H      2.614270   -0.365825   -2.198894
  H      1.389953    0.273087   -1.112360
  S      0.579024    0.140472   -3.297943
  C      4.671956    0.122273   -4.220598
  N      5.866023   -0.507849   -4.224284
  N      3.698881   -0.312844   -4.986988
  H      2.731405   -0.050091   -4.849000
  H      3.890046   -1.055172   -5.643730
  H      5.251933    1.303459   -2.721014
  H      6.695165   -0.062322   -3.851596
  H      5.975383   -1.396884   -4.691414
  O      0.228860   -1.246868   -3.127871
  O     -0.439269    1.118966   -3.014550
  F      1.247881    0.403474   -4.595647
  H      1.697003    2.561969   -2.141109
  H      3.080787    1.987436   -1.225838
  H      2.806463    1.986511   -4.268484
  H      3.778714    3.098282   -3.307383

 Total Charge           Charge          ....    0
 Multiplicity           Mult            ....    1
 Number of Electrons    NEL             ....   96
 Basis Dimension        Dim             ....  524

ORBITAL ENERGIES
----------------

  NO   OCC          E(Eh)            E(eV)
   0   2.0000     -88.335202     -2403.7231
   1   2.0000     -24.396619      -663.8657
   2   2.0000     -18.787905      -511.2449
   3   2.0000     -18.787405      -511.2313
   4   2.0000     -14.012294      -381.2939
   5   2.0000     -14.011467      -381.2714
   6   2.0000      -9.955601      -270.9057
   7   2.0000      -9.949395      -270.7368
   8   2.0000      -9.914046      -269.7749
   9   2.0000      -9.896571      -269.2994
  10   2.0000      -9.841608      -267.8038
  11   2.0000      -7.867672      -214.0902
  12   2.0000      -5.900376      -160.5574
  13   2.0000      -5.892879      -160.3534
  14   2.0000      -5.892621      -160.3464
  15   2.0000      -1.258763       -34.2527
  16   2.0000      -1.023016       -27.8377
  17   2.0000      -0.935798       -25.4644
  18   2.0000      -0.881114       -23.9763
  19   2.0000      -0.796671       -21.6785
  20   2.0000      -0.745843       -20.2954
  21   2.0000      -0.688976       -18.7480
  22   2.0000      -0.658038       -17.9061
  23   2.0000      -0.616748       -16.7826
  24   2.0000      -0.576864       -15.6973
  25   2.0000      -0.532360       -14.4862
  26   2.0000      -0.521833       -14.1998
  27   2.0000      -0.508383       -13.8338
  28   2.0000      -0.495092       -13.4721
  29   2.0000      -0.485952       -13.2234
  30   2.0000      -0.458874       -12.4866
  31   2.0000      -0.437201       -11.8968
  32   2.0000      -0.424315       -11.5462
  33   2.0000      -0.419179       -11.4065
  34   2.0000      -0.405454       -11.0330
  35   2.0000      -0.399206       -10.8630
  36   2.0000      -0.365010        -9.9324
  37   2.0000      -0.357960        -9.7406
  38   2.0000      -0.353820        -9.6279
  39   2.0000      -0.335792        -9.1374
  40   2.0000      -0.318387        -8.6637
  41   2.0000      -0.306088        -8.3291
  42   2.0000      -0.296415        -8.0659
  43   2.0000      -0.291878        -7.9424
  44   2.0000      -0.282361        -7.6834
  45   2.0000      -0.274126        -7.4593
  46   2.0000      -0.227551        -6.1920
  47   2.0000      -0.139372        -3.7925
  48   0.0000      -0.031255        -0.8505
  49   0.0000      -0.017841        -0.4855
  50   0.0000      -0.002881        -0.0784
  51   0.0000       0.009904         0.2695
  52   0.0000       0.012839         0.3494

MULLIKEN ATOMIC CHARGES
-----------------------
   0 C :   -0.446108
   1 C :   -0.813678
   2 C :   -0.558686
   3 C :   -0.576295
   4 H :    0.321356
   5 H :    0.337920
   6 S :    1.155584
   7 C :    0.618808
   8 N :   -0.344283
   9 N :   -0.334988
  10 H :    0.336681
  11 H :    0.109023
  12 H :    0.296972
  13 H :    0.145934
  14 H :    0.116597
  15 O :   -0.573236
  16 O :   -0.560671
  17 F :   -0.293676
  18 H :    0.212735
  19 H :    0.327750
  20 H :    0.294506
  21 H :    0.227755
Sum of atomic charges:    0.0000000

LOEWDIN ATOMIC CHARGES
----------------------
   0 C :   -0.218218
   1 C :   -0.123373
   2 C :   -0.213764
   3 C :   -0.218755
   4 H :    0.102321
   5 H :    0.109895
   6 S :    0.576501
   7 C :   -0.541424
   8 N :    0.123209
   9 N :    0.161023
  10 H :    0.041920
  11 H :    0.106584
  12 H :    0.068319
  13 H :    0.102153
  14 H :    0.087221
  15 O :   -0.247045
  16 O :   -0.238558
  17 F :   -0.103754
  18 H :    0.105332
  19 H :    0.117557
  20 H :    0.093663
  21 H :    0.109192

  Mayer bond orders larger than 0.100000
B(  0-C ,  1-C ) :   0.5185 B(  0-C ,  2-C ) :   0.6920 B(  0-C , 12-H ) :  -0.1051
B(  0-C , 20-H ) :   0.8952 B(  0-C , 21-H ) :   1.0601 B(  1-C ,  7-C ) :   1.3054
B(  1-C ,  8-N ) :   0.1826 B(  1-C ,  9-N ) :   0.1343 B(  1-C , 12-H ) :   1.0143
B(  2-C ,  3-C ) :   1.0359 B(  2-C ,  6-S ) :   0.1353 B(  2-C , 18-H ) :   0.9825
B(  2-C , 19-H ) :   0.8847 B(  3-C ,  4-H ) :   0.8949 B(  3-C ,  5-H ) :   0.8694
B(  3-C ,  6-S ) :   0.7948 B(  3-C , 15-O ) :   0.1220 B(  6-S , 15-O ) :   1.6024
B(  6-S , 16-O ) :   1.6243 B(  6-S , 17-F ) :   1.0038 B(  7-C ,  8-N ) :   0.8308
B(  7-C ,  9-N ) :   0.9041 B(  7-C , 12-H ) :  -0.1177 B(  8-N , 13-H ) :   1.0185
B(  8-N , 14-H ) :   1.0747 B(  9-N , 10-H ) :   0.8052 B(  9-N , 11-H ) :   1.0629
B( 15-O , 16-O ) :   0.1090

Dispersion correction           -0.051332528
FINAL SINGLE POINT ENERGY      -955.199626548714

DIPOLE MOMENT
-------------
                                X             Y             Z
Electronic contribution:    -13.26628      -3.84557      -3.65798
Nuclear contribution   :     14.80811       3.53278       3.42836
                        -----------------------------------------
Total Dipole Moment    :      1.54183      -0.31279      -0.22962
                        -----------------------------------------
Magnitude (a.u.)       :      1.58990
Magnitude (Debye)      :      4.04121

Rotational constants in cm-1:     0.059173     0.020923     0.018056
Rotational constants in MHz :  1773.956621   627.264018   541.303397

                             ****ORCA TERMINATED NORMALLY****
TOTAL RUN TIME: 0 days 0 hours 0 minutes 45 seconds 831 msec
