                         Program Version 5.0.0 -  RELEASE  -
|  1> !BLYP D3BJ RIJCOSX def2-TZVPD def2/J TightSCF xyzfile
|  2>
|  3> *xyzfile 0 1 D8.xyz
|  4>
|  5> %MaxCore 64000
|  6>
|  7> %pal nprocs 4
|  8> end
|  9>
| 10> %scf
| 11>   MaxIter 150
| 12> end
| 13>
| 14>
| 15>                          ****END OF INPUT****

CARTESIAN COORDINATES (ANGSTROEM)
---------------------------------
  C      3.380928    2.083045   -3.350127
  N      4.535924    1.182447   -3.428518
  C      2.495557    1.816150   -2.136364
  C      1.872181    0.427903   -2.077497
  H      2.614270   -0.365825   -2.198894
  H      1.389953    0.273087   -1.112360
  S      0.579024    0.140472   -3.297943
  C      4.671956    0.122273   -4.220598
  C      5.866023   -0.507849   -4.224284
  N      3.698881   -0.312844   -4.986988
  H      2.731405   -0.050091   -4.849000
  H      3.890046   -1.055172   -5.643730
  H      5.251933    1.303459   -2.721014
  H      6.695165   -0.062322   -3.851596
  H      5.975383   -1.396884   -4.691414
  O      0.228860   -1.246868   -3.127871
  O     -0.439269    1.118966   -3.014550
  F      1.247881    0.403474   -4.595647
  H      1.697003    2.561969   -2.141109
  H      3.080787    1.987436   -1.225838
  H      2.806463    1.986511   -4.268484
  H      3.778714    3.098282   -3.307383

 Total Charge           Charge          ....    0
 Multiplicity           Mult            ....    1
 Number of Electrons    NEL             ....   96
 Basis Dimension        Dim             ....  524

ORBITAL ENERGIES
----------------

  NO   OCC          E(Eh)            E(eV)
   0   2.0000     -88.347925     -2404.0693
   1   2.0000     -24.407706      -664.1675
   2   2.0000     -18.799814      -511.5689
   3   2.0000     -18.798915      -511.5445
   4   2.0000     -14.019750      -381.4968
   5   2.0000     -14.008541      -381.1918
   6   2.0000      -9.967406      -271.2269
   7   2.0000      -9.961299      -271.0607
   8   2.0000      -9.954623      -270.8791
   9   2.0000      -9.940348      -270.4906
  10   2.0000      -9.822808      -267.2922
  11   2.0000      -7.880275      -214.4332
  12   2.0000      -5.912927      -160.8989
  13   2.0000      -5.905483      -160.6964
  14   2.0000      -5.905323      -160.6920
  15   2.0000      -1.270061       -34.5601
  16   2.0000      -1.034697       -28.1555
  17   2.0000      -0.947359       -25.7789
  18   2.0000      -0.889300       -24.1991
  19   2.0000      -0.815567       -22.1927
  20   2.0000      -0.757255       -20.6060
  21   2.0000      -0.696855       -18.9624
  22   2.0000      -0.654624       -17.8132
  23   2.0000      -0.630344       -17.1525
  24   2.0000      -0.576007       -15.6740
  25   2.0000      -0.553147       -15.0519
  26   2.0000      -0.542983       -14.7753
  27   2.0000      -0.525646       -14.3036
  28   2.0000      -0.500686       -13.6244
  29   2.0000      -0.479814       -13.0564
  30   2.0000      -0.459921       -12.5151
  31   2.0000      -0.444637       -12.0992
  32   2.0000      -0.437791       -11.9129
  33   2.0000      -0.430269       -11.7082
  34   2.0000      -0.415472       -11.3056
  35   2.0000      -0.406598       -11.0641
  36   2.0000      -0.377046       -10.2600
  37   2.0000      -0.361900        -9.8478
  38   2.0000      -0.355993        -9.6871
  39   2.0000      -0.347415        -9.4536
  40   2.0000      -0.339615        -9.2414
  41   2.0000      -0.333173        -9.0661
  42   2.0000      -0.315071        -8.5735
  43   2.0000      -0.304964        -8.2985
  44   2.0000      -0.297535        -8.0963
  45   2.0000      -0.286260        -7.7895
  46   2.0000      -0.221356        -6.0234
  47   2.0000      -0.132568        -3.6074
  48   0.0000      -0.039528        -1.0756
  49   0.0000      -0.020293        -0.5522
  50   0.0000      -0.007038        -0.1915
  51   0.0000      -0.001751        -0.0477
  52   0.0000       0.009906         0.2696

MULLIKEN ATOMIC CHARGES
-----------------------
   0 C :   -0.616332
   1 N :   -0.178751
   2 C :   -0.484179
   3 C :   -0.574416
   4 H :    0.293588
   5 H :    0.337286
   6 S :    1.170393
   7 C :    0.686283
   8 C :   -1.285542
   9 N :   -0.343433
  10 H :    0.379326
  11 H :    0.109763
  12 H :    0.160358
  13 H :    0.281387
  14 H :    0.293665
  15 O :   -0.566517
  16 O :   -0.558361
  17 F :   -0.300147
  18 H :    0.275489
  19 H :    0.294467
  20 H :    0.356183
  21 H :    0.269489
Sum of atomic charges:   -0.0000000

LOEWDIN ATOMIC CHARGES
----------------------
   0 C :   -0.177870
   1 N :    0.045288
   2 C :   -0.199000
   3 C :   -0.216439
   4 H :    0.105113
   5 H :    0.111911
   6 S :    0.577565
   7 C :   -0.570443
   8 C :    0.008651
   9 N :    0.155965
  10 H :    0.035401
  11 H :    0.118661
  12 H :    0.144589
  13 H :   -0.001940
  14 H :   -0.004384
  15 O :   -0.238896
  16 O :   -0.236421
  17 F :   -0.104375
  18 H :    0.109973
  19 H :    0.116860
  20 H :    0.102935
  21 H :    0.116856

  Mayer bond orders larger than 0.100000
B(  0-C ,  1-N ) :   0.8190 B(  0-C ,  2-C ) :   0.7737 B(  0-C ,  7-C ) :  -0.1094
B(  0-C , 20-H ) :   0.8353 B(  0-C , 21-H ) :   0.9546 B(  1-N ,  3-C ) :   0.1051
B(  1-N ,  7-C ) :   1.0946 B(  1-N ,  8-C ) :   0.1692 B(  1-N , 12-H ) :   0.9679
B(  2-C ,  3-C ) :   1.0006 B(  2-C ,  6-S ) :   0.1282 B(  2-C , 18-H ) :   1.0022
B(  2-C , 19-H ) :   0.8763 B(  3-C ,  4-H ) :   0.9048 B(  3-C ,  5-H ) :   0.8798
B(  3-C ,  6-S ) :   0.8059 B(  3-C , 15-O ) :   0.1261 B(  6-S , 15-O ) :   1.6116
B(  6-S , 16-O ) :   1.6251 B(  6-S , 17-F ) :   1.0005 B(  7-C ,  8-C ) :   0.9922
B(  7-C ,  9-N ) :   1.0243 B(  7-C , 14-H ) :  -0.1202 B(  8-C ,  9-N ) :   0.1103
B(  8-C , 13-H ) :   1.0169 B(  8-C , 14-H ) :   1.0657 B(  9-N , 10-H ) :   0.7540
B(  9-N , 11-H ) :   1.0433 B( 15-O , 16-O ) :   0.1111

Dispersion correction           -0.050796567
FINAL SINGLE POINT ENERGY      -955.184784673851

DIPOLE MOMENT
-------------
                                X             Y             Z
Electronic contribution:    -14.69114      -2.45178      -2.91466
Nuclear contribution   :     14.93782       3.36795       3.35075
                        -----------------------------------------
Total Dipole Moment    :      0.24668       0.91616       0.43609
                        -----------------------------------------
Magnitude (a.u.)       :      1.04422
Magnitude (Debye)      :      2.65419

Rotational constants in cm-1:     0.059219     0.021387     0.018380
Rotational constants in MHz :  1775.354399   641.172207   551.019443

                             ****ORCA TERMINATED NORMALLY****
TOTAL RUN TIME: 0 days 0 hours 0 minutes 46 seconds 835 msec
