                         Program Version 5.0.0 -  RELEASE  -
|  1> !BLYP D3BJ RIJCOSX def2-TZVPD def2/J TightSCF xyzfile
|  2>
|  3> *xyzfile 0 1 D9.xyz
|  4>
|  5> %MaxCore 64000
|  6>
|  7> %pal nprocs 4
|  8> end
|  9>
| 10> %scf
| 11>   MaxIter 150
| 12> end
| 13>
| 14>
| 15>                          ****END OF INPUT****

CARTESIAN COORDINATES (ANGSTROEM)
---------------------------------
  C      3.380928    2.083045   -3.350127
  N      4.535924    1.182447   -3.428518
  C      2.495557    1.816150   -2.136364
  C      1.872181    0.427903   -2.077497
  H      2.614270   -0.365825   -2.198894
  H      1.389953    0.273087   -1.112360
  S      0.579024    0.140472   -3.297943
  C      4.671956    0.122273   -4.220598
  N      5.866023   -0.507849   -4.224284
  C      3.698881   -0.312844   -4.986988
  H      2.731405   -0.050091   -4.849000
  H      3.890046   -1.055172   -5.643730
  H      5.251933    1.303459   -2.721014
  H      6.695165   -0.062322   -3.851596
  H      5.975383   -1.396884   -4.691414
  O      0.228860   -1.246868   -3.127871
  O     -0.439269    1.118966   -3.014550
  F      1.247881    0.403474   -4.595647
  H      1.697003    2.561969   -2.141109
  H      3.080787    1.987436   -1.225838
  H      2.806463    1.986511   -4.268484
  H      3.778714    3.098282   -3.307383

 Total Charge           Charge          ....    0
 Multiplicity           Mult            ....    1
 Number of Electrons    NEL             ....   96
 Basis Dimension        Dim             ....  524

ORBITAL ENERGIES
----------------

  NO   OCC          E(Eh)            E(eV)
   0   2.0000     -88.330505     -2403.5952
   1   2.0000     -24.377830      -663.3545
   2   2.0000     -18.783085      -511.1137
   3   2.0000     -18.781586      -511.0729
   4   2.0000     -14.021889      -381.5550
   5   2.0000     -14.012007      -381.2861
   6   2.0000      -9.955384      -270.8998
   7   2.0000      -9.954690      -270.8809
   8   2.0000      -9.954264      -270.8693
   9   2.0000      -9.933080      -270.2928
  10   2.0000      -9.821512      -267.2569
  11   2.0000      -7.862557      -213.9511
  12   2.0000      -5.894923      -160.4090
  13   2.0000      -5.888018      -160.2211
  14   2.0000      -5.887784      -160.2148
  15   2.0000      -1.241699       -33.7883
  16   2.0000      -1.017010       -27.6742
  17   2.0000      -0.930612       -25.3232
  18   2.0000      -0.885712       -24.1015
  19   2.0000      -0.809149       -22.0181
  20   2.0000      -0.744519       -20.2594
  21   2.0000      -0.675055       -18.3692
  22   2.0000      -0.656568       -17.8661
  23   2.0000      -0.623714       -16.9721
  24   2.0000      -0.584506       -15.9052
  25   2.0000      -0.525228       -14.2922
  26   2.0000      -0.516839       -14.0639
  27   2.0000      -0.500675       -13.6241
  28   2.0000      -0.494168       -13.4470
  29   2.0000      -0.481120       -13.0919
  30   2.0000      -0.462972       -12.5981
  31   2.0000      -0.439944       -11.9715
  32   2.0000      -0.425484       -11.5780
  33   2.0000      -0.412317       -11.2197
  34   2.0000      -0.411373       -11.1940
  35   2.0000      -0.391937       -10.6652
  36   2.0000      -0.367122        -9.9899
  37   2.0000      -0.361059        -9.8249
  38   2.0000      -0.346806        -9.4371
  39   2.0000      -0.339915        -9.2496
  40   2.0000      -0.334823        -9.1110
  41   2.0000      -0.323820        -8.8116
  42   2.0000      -0.308967        -8.4074
  43   2.0000      -0.288970        -7.8633
  44   2.0000      -0.282279        -7.6812
  45   2.0000      -0.269463        -7.3325
  46   2.0000      -0.216380        -5.8880
  47   2.0000      -0.146646        -3.9904
  48   0.0000      -0.030666        -0.8345
  49   0.0000      -0.017545        -0.4774
  50   0.0000      -0.007235        -0.1969
  51   0.0000       0.003307         0.0900
  52   0.0000       0.018568         0.5053

MULLIKEN ATOMIC CHARGES
-----------------------
   0 C :   -0.617524
   1 N :   -0.198157
   2 C :   -0.514671
   3 C :   -0.549244
   4 H :    0.314527
   5 H :    0.330981
   6 S :    1.181180
   7 C :    0.966795
   8 N :   -0.346712
   9 C :   -1.584236
  10 H :    0.522374
  11 H :    0.245754
  12 H :    0.161548
  13 H :    0.124781
  14 H :    0.134425
  15 O :   -0.585299
  16 O :   -0.573096
  17 F :   -0.185864
  18 H :    0.266874
  19 H :    0.292371
  20 H :    0.366093
  21 H :    0.247100
Sum of atomic charges:   -0.0000000

LOEWDIN ATOMIC CHARGES
----------------------
   0 C :   -0.171941
   1 N :    0.038669
   2 C :   -0.197758
   3 C :   -0.216833
   4 H :    0.102805
   5 H :    0.109367
   6 S :    0.574070
   7 C :   -0.553112
   8 N :    0.124509
   9 C :    0.027864
  10 H :   -0.033914
  11 H :    0.023305
  12 H :    0.135934
  13 H :    0.089481
  14 H :    0.100661
  15 O :   -0.244201
  16 O :   -0.245065
  17 F :   -0.112311
  18 H :    0.109987
  19 H :    0.113715
  20 H :    0.107335
  21 H :    0.117431

  Mayer bond orders larger than 0.100000
B(  0-C ,  1-N ) :   0.8689 B(  0-C ,  2-C ) :   0.7752 B(  0-C , 20-H ) :   0.8240
B(  0-C , 21-H ) :   0.9560 B(  1-N ,  7-C ) :   1.0233 B(  1-N , 12-H ) :   0.9818
B(  2-C ,  3-C ) :   1.0101 B(  2-C ,  6-S ) :   0.1386 B(  2-C , 18-H ) :   0.9854
B(  2-C , 19-H ) :   0.8796 B(  3-C ,  4-H ) :   0.9054 B(  3-C ,  5-H ) :   0.8939
B(  3-C ,  6-S ) :   0.7810 B(  3-C , 15-O ) :   0.1441 B(  6-S , 15-O ) :   1.5893
B(  6-S , 16-O ) :   1.6104 B(  6-S , 17-F ) :   1.0453 B(  7-C ,  8-N ) :   0.8659
B(  7-C ,  9-C ) :   0.8775 B(  7-C , 11-H ) :  -0.1502 B(  8-N ,  9-C ) :   0.1166
B(  8-N , 13-H ) :   1.0519 B(  8-N , 14-H ) :   1.0352 B(  9-C , 10-H ) :   0.8497
B(  9-C , 11-H ) :   1.2022 B(  9-C , 17-F ) :   0.1683 B( 10-H , 17-F ) :  -0.2975

Dispersion correction           -0.051282438
FINAL SINGLE POINT ENERGY      -955.182195160612

DIPOLE MOMENT
-------------
                                X             Y             Z
Electronic contribution:    -12.71014      -2.66564      -2.45762
Nuclear contribution   :     14.72648       3.38697       3.27638
                        -----------------------------------------
Total Dipole Moment    :      2.01634       0.72133       0.81876
                        -----------------------------------------
Magnitude (a.u.)       :      2.29266
Magnitude (Debye)      :      5.82749

Rotational constants in cm-1:     0.059651     0.020833     0.018010
Rotational constants in MHz :  1788.283887   624.555661   539.921162

                             ****ORCA TERMINATED NORMALLY****
TOTAL RUN TIME: 0 days 0 hours 0 minutes 52 seconds 657 msec
