                         Program Version 5.0.0 -  RELEASE  -
|  1> !wB97X-D3 RIJCOSX def2-TZVPD def2/J TightSCF
|  2> *xyz -1 1
|  3> C         -0.25875        1.00432       -5.40983
|  4> C          0.39596       -0.37070       -5.33994
|  5> O         -0.32633       -1.39040       -5.49128
|  6> O          1.61941       -0.40073       -5.03683
|  7> H         -1.28979        0.89539       -5.67439
|  8> H          0.23798        1.59877       -6.14792
|  9> H         -0.18395        1.48386       -4.45623
| 10> *
| 11> %MaxCore 64000
| 12>
| 13> %pal nprocs 18
| 14> end
| 15>
| 16> %scf
| 17>   MaxIter 150
| 18> end
| 19>
| 20>
| 21>                          ****END OF INPUT****

CARTESIAN COORDINATES (ANGSTROEM)
---------------------------------
  C     -0.258750    1.004320   -5.409830
  C      0.395960   -0.370700   -5.339940
  O     -0.326330   -1.390400   -5.491280
  O      1.619410   -0.400730   -5.036830
  H     -1.289790    0.895390   -5.674390
  H      0.237980    1.598770   -6.147920
  H     -0.183950    1.483860   -4.456230

 Total Charge           Charge          ....   -1
 Multiplicity           Mult            ....    1
 Number of Electrons    NEL             ....   32
 Basis Dimension        Dim             ....  181

ORBITAL ENERGIES
----------------

  NO   OCC          E(Eh)            E(eV)
   0   2.0000     -18.961061      -515.9567
   1   2.0000     -18.958261      -515.8805
   2   2.0000     -10.157151      -276.3901
   3   2.0000     -10.085161      -274.4312
   4   2.0000      -0.929979       -25.3060
   5   2.0000      -0.834149       -22.6984
   6   2.0000      -0.659667       -17.9504
   7   2.0000      -0.410305       -11.1650
   8   2.0000      -0.360306        -9.8044
   9   2.0000      -0.346140        -9.4189
  10   2.0000      -0.324499        -8.8301
  11   2.0000      -0.279370        -7.6020
  12   2.0000      -0.259699        -7.0668
  13   2.0000      -0.136088        -3.7031
  14   2.0000      -0.133629        -3.6362
  15   2.0000      -0.117549        -3.1987
  16   0.0000       0.203015         5.5243
  17   0.0000       0.223701         6.0872
  18   0.0000       0.236092         6.4244
  19   0.0000       0.253860         6.9079
  20   0.0000       0.275170         7.4877

MULLIKEN ATOMIC CHARGES
-----------------------
   0 C :   -0.701375
   1 C :    0.542610
   2 O :   -0.750491
   3 O :   -0.760599
   4 H :    0.241654
   5 H :    0.220167
   6 H :    0.208035
Sum of atomic charges:   -1.0000000

LOEWDIN ATOMIC CHARGES
----------------------
   0 C :   -0.072311
   1 C :   -0.802423
   2 O :   -0.129891
   3 O :   -0.137001
   4 H :    0.043728
   5 H :    0.047858
   6 H :    0.050039

  Mayer bond orders larger than 0.100000
B(  0-C ,  1-C ) :   0.8917 B(  0-C ,  4-H ) :   0.9891 B(  0-C ,  5-H ) :   0.9471
B(  0-C ,  6-H ) :   0.9377 B(  1-C ,  2-O ) :   1.4696 B(  1-C ,  3-O ) :   1.4694

Dispersion correction           -0.000907174
FINAL SINGLE POINT ENERGY      -228.552851066178

DIPOLE MOMENT
-------------
                                X             Y             Z
Electronic contribution:      1.51943      -3.22417       0.18580
Nuclear contribution   :     -2.15615       4.52621      -0.30445
                        -----------------------------------------
Total Dipole Moment    :     -0.63671       1.30204      -0.11865
                        -----------------------------------------
Magnitude (a.u.)       :      1.45423
Magnitude (Debye)      :      3.69637

Rotational constants in cm-1:     0.393591     0.332639     0.186460
Rotational constants in MHz : 11799.557437  9972.275109  5589.926304

                             ****ORCA TERMINATED NORMALLY****
TOTAL RUN TIME: 0 days 0 hours 0 minutes 11 seconds 115 msec
