                         Program Version 5.0.0 -  RELEASE  -
|  1> !wB97X-D3 RIJCOSX def2-TZVPD def2/J TightSCF
|  2> *xyz 1 1
|  3> C          0.81607       -2.10149       -2.18655
|  4> N          1.10055       -2.46749       -3.59927
|  5> H          1.70061       -1.75723       -4.07838
|  6> H          0.29386       -2.35977       -4.25632
|  7> H          1.50132       -3.42848       -3.69491
|  8> H          0.40947       -1.11246       -2.14929
|  9> H          1.72290       -2.13590       -1.61965
| 10> H          0.11112       -2.79271       -1.77405
| 11> *
| 12> %MaxCore 64000
| 13>
| 14> %pal nprocs 18
| 15> end
| 16>
| 17> %scf
| 18>   MaxIter 150
| 19> end
| 20>
| 21>
| 22>                          ****END OF INPUT****

CARTESIAN COORDINATES (ANGSTROEM)
---------------------------------
  C      0.816070   -2.101490   -2.186550
  N      1.100550   -2.467490   -3.599270
  H      1.700610   -1.757230   -4.078380
  H      0.293860   -2.359770   -4.256320
  H      1.501320   -3.428480   -3.694910
  H      0.409470   -1.112460   -2.149290
  H      1.722900   -2.135900   -1.619650
  H      0.111120   -2.792710   -1.774050

 Total Charge           Charge          ....    1
 Multiplicity           Mult            ....    1
 Number of Electrons    NEL             ....   18
 Basis Dimension        Dim             ....  128

ORBITAL ENERGIES
----------------

  NO   OCC          E(Eh)            E(eV)
   0   2.0000     -14.773979      -402.0204
   1   2.0000     -10.530328      -286.5448
   2   2.0000      -1.336213       -36.3602
   3   2.0000      -1.053543       -28.6684
   4   2.0000      -0.916531       -24.9401
   5   2.0000      -0.881933       -23.9986
   6   2.0000      -0.815221       -22.1833
   7   2.0000      -0.724552       -19.7161
   8   2.0000      -0.718833       -19.5604
   9   0.0000      -0.134022        -3.6469
  10   0.0000      -0.070884        -1.9288
  11   0.0000      -0.065135        -1.7724
  12   0.0000      -0.064792        -1.7631
  13   0.0000      -0.020106        -0.5471

MULLIKEN ATOMIC CHARGES
-----------------------
   0 C :   -0.792301
   1 N :   -0.398175
   2 H :    0.388910
   3 H :    0.383836
   4 H :    0.382309
   5 H :    0.346410
   6 H :    0.345452
   7 H :    0.343558
Sum of atomic charges:    1.0000000

LOEWDIN ATOMIC CHARGES
----------------------
   0 C :   -0.012463
   1 N :    0.127838
   2 H :    0.189119
   3 H :    0.189743
   4 H :    0.193488
   5 H :    0.104174
   6 H :    0.104422
   7 H :    0.103679

  Mayer bond orders larger than 0.100000
B(  0-C ,  1-N ) :   0.9298 B(  0-C ,  5-H ) :   0.8825 B(  0-C ,  6-H ) :   0.8893
B(  0-C ,  7-H ) :   0.8926 B(  1-N ,  2-H ) :   0.8421 B(  1-N ,  3-H ) :   0.8488
B(  1-N ,  4-H ) :   0.8455

Dispersion correction           -0.000532430
FINAL SINGLE POINT ENERGY       -96.221840175644

DIPOLE MOMENT
-------------
                                X             Y             Z
Electronic contribution:      0.21283      -0.31150      -0.96887
Nuclear contribution   :     -0.05716       0.15480       0.08012
                        -----------------------------------------
Total Dipole Moment    :      0.15568      -0.15670      -0.88875
                        -----------------------------------------
Magnitude (a.u.)       :      0.91579
Magnitude (Debye)      :      2.32775

Rotational constants in cm-1:     2.875975     0.681325     0.670600
Rotational constants in MHz : 86219.567947 20425.600745 20104.086440

                             ****ORCA TERMINATED NORMALLY****
TOTAL RUN TIME: 0 days 0 hours 0 minutes 6 seconds 281 msec
