                         Program Version 5.0.0 -  RELEASE  -
|  1> !wB97X-D3 RIJCOSX def2-TZVPD def2/J TightSCF xyzfile
|  2>
|  3> *xyzfile 0 1 B.xyz
|  4>
|  5> %MaxCore 64000
|  6>
|  7> %pal nprocs 18
|  8> end
|  9>
| 10> %scf
| 11>   MaxIter 150
| 12> end
| 13>
| 14>
| 15>                          ****END OF INPUT****

CARTESIAN COORDINATES (ANGSTROEM)
---------------------------------
  C      0.816067   -2.101491   -2.186546
  H      1.696232   -2.368691   -1.600457
  N      1.100552   -2.467492   -3.599269
  C      0.516243   -0.613634   -2.039373
  H     -0.020066   -2.712849   -1.840844
  C     -0.868621   -0.193925   -2.546303
  C     -0.984801    1.284739   -2.928686
  H     -0.764939    1.904116   -2.051568
  H     -2.032613    1.478953   -3.178952
  C     -0.106085    1.769914   -4.089836
  H     -0.347744    2.822196   -4.262942
  H      0.949683    1.745875   -3.808781
  C     -0.258747    1.004323   -5.409829
  C      0.395958   -0.370696   -5.339939
  H      0.239150    1.569393   -6.201253
  H     -1.309360    0.888694   -5.682455
  H      1.700606   -1.757225   -4.078378
  H      0.293855   -2.359766   -4.256324
  H      1.501324   -3.428479   -3.694915
  O     -0.326329   -1.390398   -5.491279
  O      1.619412   -0.400726   -5.036827
  H     -1.607271   -0.412651   -1.768955
  H     -1.157234   -0.796164   -3.409254
  H      1.299044   -0.056805   -2.558982
  H      0.612393   -0.365579   -0.979171

 Total Charge           Charge          ....    0
 Multiplicity           Mult            ....    1
 Number of Electrons    NEL             ....   80
 Basis Dimension        Dim             ....  511

ORBITAL ENERGIES
----------------

  NO   OCC          E(Eh)            E(eV)
   0   2.0000     -19.163589      -521.4678
   1   2.0000     -19.162108      -521.4275
   2   2.0000     -14.510128      -394.8407
   3   2.0000     -10.349961      -281.6368
   4   2.0000     -10.348929      -281.6087
   5   2.0000     -10.289582      -279.9938
   6   2.0000     -10.271454      -279.5005
   7   2.0000     -10.267172      -279.3839
   8   2.0000     -10.260302      -279.1970
   9   2.0000     -10.250952      -278.9426
  10   2.0000      -1.146016       -31.1847
  11   2.0000      -1.095479       -29.8095
  12   2.0000      -1.043645       -28.3990
  13   2.0000      -0.933001       -25.3882
  14   2.0000      -0.889014       -24.1913
  15   2.0000      -0.840435       -22.8694
  16   2.0000      -0.774479       -21.0747
  17   2.0000      -0.738809       -20.1040
  18   2.0000      -0.682013       -18.5585
  19   2.0000      -0.671814       -18.2810
  20   2.0000      -0.646127       -17.5820
  21   2.0000      -0.618845       -16.8396
  22   2.0000      -0.585135       -15.9223
  23   2.0000      -0.571839       -15.5605
  24   2.0000      -0.557272       -15.1641
  25   2.0000      -0.545450       -14.8424
  26   2.0000      -0.524208       -14.2644
  27   2.0000      -0.517585       -14.0842
  28   2.0000      -0.498470       -13.5640
  29   2.0000      -0.487193       -13.2572
  30   2.0000      -0.483090       -13.1456
  31   2.0000      -0.467933       -12.7331
  32   2.0000      -0.447218       -12.1694
  33   2.0000      -0.442773       -12.0485
  34   2.0000      -0.417589       -11.3632
  35   2.0000      -0.403542       -10.9809
  36   2.0000      -0.399132       -10.8609
  37   2.0000      -0.342437        -9.3182
  38   2.0000      -0.330464        -8.9924
  39   2.0000      -0.323703        -8.8084
  40   0.0000       0.045644         1.2420
  41   0.0000       0.073211         1.9922
  42   0.0000       0.080026         2.1776
  43   0.0000       0.080584         2.1928
  44   0.0000       0.098048         2.6680

MULLIKEN ATOMIC CHARGES
-----------------------
   0 C :   -0.856888
   1 H :    0.327563
   2 N :   -0.199098
   3 C :   -0.292068
   4 H :    0.317011
   5 C :   -0.475467
   6 C :   -0.738314
   7 H :    0.250152
   8 H :    0.310481
   9 C :   -0.535685
  10 H :    0.264908
  11 H :    0.261422
  12 C :   -0.413041
  13 C :    0.642781
  14 H :    0.325960
  15 H :    0.236975
  16 H :    0.322758
  17 H :    0.323894
  18 H :    0.327256
  19 O :   -0.863371
  20 O :   -0.864176
  21 H :    0.316377
  22 H :    0.360928
  23 H :    0.262825
  24 H :    0.386820
Sum of atomic charges:   -0.0000000

LOEWDIN ATOMIC CHARGES
----------------------
   0 C :   -0.164098
   1 H :    0.120360
   2 N :    0.130780
   3 C :   -0.184653
   4 H :    0.126691
   5 C :   -0.200610
   6 C :   -0.200274
   7 H :    0.110387
   8 H :    0.111734
   9 C :   -0.204439
  10 H :    0.107266
  11 H :    0.103211
  12 C :   -0.112231
  13 C :   -0.660713
  14 H :    0.117933
  15 H :    0.116497
  16 H :    0.097146
  17 H :    0.096986
  18 H :    0.176808
  19 O :   -0.068032
  20 O :   -0.059241
  21 H :    0.113714
  22 H :    0.098511
  23 H :    0.107357
  24 H :    0.118910

  Mayer bond orders larger than 0.100000
B(  0-C ,  1-H ) :   0.8897 B(  0-C ,  2-N ) :   1.0157 B(  0-C ,  3-C ) :   0.7893
B(  0-C ,  4-H ) :   0.8986 B(  0-C ,  5-C ) :   0.3389 B(  2-N , 16-H ) :   0.7687
B(  2-N , 17-H ) :   0.7754 B(  2-N , 18-H ) :   0.8573 B(  3-C ,  5-C ) :   0.4181
B(  3-C ,  6-C ) :   0.3272 B(  3-C , 23-H ) :   0.9848 B(  3-C , 24-H ) :   0.8748
B(  5-C ,  6-C ) :   1.0099 B(  5-C , 21-H ) :   0.9463 B(  5-C , 22-H ) :   0.9516
B(  6-C ,  7-H ) :   0.9683 B(  6-C ,  8-H ) :   0.9138 B(  6-C ,  9-C ) :   0.8999
B(  6-C , 12-C ) :   0.1419 B(  9-C , 10-H ) :   0.9468 B(  9-C , 11-H ) :   0.9313
B(  9-C , 12-C ) :   0.9016 B(  9-C , 13-C ) :   0.1867 B( 12-C , 13-C ) :   0.9812
B( 12-C , 14-H ) :   0.8389 B( 12-C , 15-H ) :   1.0443 B( 13-C , 19-O ) :   1.2188
B( 13-C , 20-O ) :   1.2315 B( 16-H , 20-O ) :   0.1826 B( 17-H , 19-O ) :   0.1735
B( 19-O , 20-O ) :   0.1171

Dispersion correction           -0.011303590
FINAL SINGLE POINT ENERGY      -481.059385998530

DIPOLE MOMENT
-------------
                                X             Y             Z
Electronic contribution:      2.29469      -3.10575      -6.24039
Nuclear contribution   :     -2.02598       1.95876       8.24116
                        -----------------------------------------
Total Dipole Moment    :      0.26871      -1.14699       2.00077
                        -----------------------------------------
Magnitude (a.u.)       :      2.32182
Magnitude (Debye)      :      5.90161

Rotational constants in cm-1:     0.052900     0.041948     0.028766
Rotational constants in MHz :  1585.892512  1257.572595   862.390225

                             ****ORCA TERMINATED NORMALLY****
TOTAL RUN TIME: 0 days 0 hours 1 minutes 25 seconds 532 msec
