                         Program Version 5.0.0 -  RELEASE  -
|  1> !wB97X-D3 RIJCOSX def2-TZVPD def2/J TightSCF
|  2> *xyz 0 1
|  3> C         -0.25875        1.00432       -5.40983
|  4> C          0.39596       -0.37070       -5.33994
|  5> F         -0.32633       -1.39040       -5.49128
|  6> O          1.61941       -0.40073       -5.03683
|  7> H         -1.28979        0.89539       -5.67439
|  8> H          0.23798        1.59877       -6.14792
|  9> H         -0.18395        1.48386       -4.45623
| 10> *
| 11> %MaxCore 64000
| 12>
| 13> %pal nprocs 18
| 14> end
| 15>
| 16> %scf
| 17>   MaxIter 150
| 18> end
| 19>
| 20>
| 21>                          ****END OF INPUT****

CARTESIAN COORDINATES (ANGSTROEM)
---------------------------------
  C     -0.258750    1.004320   -5.409830
  C      0.395960   -0.370700   -5.339940
  F     -0.326330   -1.390400   -5.491280
  O      1.619410   -0.400730   -5.036830
  H     -1.289790    0.895390   -5.674390
  H      0.237980    1.598770   -6.147920
  H     -0.183950    1.483860   -4.456230

 Total Charge           Charge          ....    0
 Multiplicity           Mult            ....    1
 Number of Electrons    NEL             ....   32
 Basis Dimension        Dim             ....  181

ORBITAL ENERGIES
----------------

  NO   OCC          E(Eh)            E(eV)
   0   2.0000     -24.858409      -676.4317
   1   2.0000     -19.237060      -523.4670
   2   2.0000     -10.461515      -284.6723
   3   2.0000     -10.301399      -280.3153
   4   2.0000      -1.436994       -39.1026
   5   2.0000      -1.147589       -31.2275
   6   2.0000      -0.890437       -24.2300
   7   2.0000      -0.768699       -20.9174
   8   2.0000      -0.653713       -17.7884
   9   2.0000      -0.650659       -17.7053
  10   2.0000      -0.610245       -16.6056
  11   2.0000      -0.547096       -14.8872
  12   2.0000      -0.533502       -14.5173
  13   2.0000      -0.501214       -13.6387
  14   2.0000      -0.447719       -12.1830
  15   2.0000      -0.391653       -10.6574
  16   0.0000       0.050461         1.3731
  17   0.0000       0.061859         1.6833
  18   0.0000       0.093451         2.5429
  19   0.0000       0.107455         2.9240
  20   0.0000       0.117450         3.1960

MULLIKEN ATOMIC CHARGES
-----------------------
   0 C :   -0.778155
   1 C :    0.700404
   2 F :   -0.213619
   3 O :   -0.551883
   4 H :    0.305811
   5 H :    0.272629
   6 H :    0.264813
Sum of atomic charges:    0.0000000

LOEWDIN ATOMIC CHARGES
----------------------
   0 C :    0.007402
   1 C :   -0.500242
   2 F :    0.195570
   3 O :    0.057586
   4 H :    0.070782
   5 H :    0.083820
   6 H :    0.085082

  Mayer bond orders larger than 0.100000
B(  0-C ,  1-C ) :   0.8840 B(  0-C ,  4-H ) :   0.9344 B(  0-C ,  5-H ) :   0.9328
B(  0-C ,  6-H ) :   0.9235 B(  1-C ,  2-F ) :   0.9978 B(  1-C ,  3-O ) :   1.7018

Dispersion correction           -0.000909260
FINAL SINGLE POINT ENERGY      -253.120427365301

DIPOLE MOMENT
-------------
                                X             Y             Z
Electronic contribution:      0.42904      -5.04794      -0.09872
Nuclear contribution   :     -1.44986       5.66477      -0.12483
                        -----------------------------------------
Total Dipole Moment    :     -1.02081       0.61683      -0.22355
                        -----------------------------------------
Magnitude (a.u.)       :      1.21347
Magnitude (Debye)      :      3.08440

Rotational constants in cm-1:     0.371735     0.317798     0.176902
Rotational constants in MHz : 11144.324945  9527.341239  5303.391856

                             ****ORCA TERMINATED NORMALLY****
TOTAL RUN TIME: 0 days 0 hours 0 minutes 8 seconds 100 msec
