                         Program Version 5.0.0 -  RELEASE  -
|  1> !wB97X-D3 RIJCOSX def2-TZVPD def2/J TightSCF
|  2> *xyz 0 1
|  3> C          0.81607       -2.10149       -2.18655
|  4> C          1.10055       -2.46749       -3.59927
|  5> H          1.70061       -1.75723       -4.07838
|  6> H          0.29386       -2.35977       -4.25632
|  7> H          1.50132       -3.42848       -3.69491
|  8> H          0.40947       -1.11246       -2.14929
|  9> H          1.72290       -2.13590       -1.61965
| 10> H          0.11112       -2.79271       -1.77405
| 11> *
| 12> %MaxCore 64000
| 13>
| 14> %pal nprocs 18
| 15> end
| 16>
| 17> %scf
| 18>   MaxIter 150
| 19> end
| 20>
| 21>
| 22>                          ****END OF INPUT****

CARTESIAN COORDINATES (ANGSTROEM)
---------------------------------
  C      0.816070   -2.101490   -2.186550
  C      1.100550   -2.467490   -3.599270
  H      1.700610   -1.757230   -4.078380
  H      0.293860   -2.359770   -4.256320
  H      1.501320   -3.428480   -3.694910
  H      0.409470   -1.112460   -2.149290
  H      1.722900   -2.135900   -1.619650
  H      0.111120   -2.792710   -1.774050

 Total Charge           Charge          ....    0
 Multiplicity           Mult            ....    1
 Number of Electrons    NEL             ....   18
 Basis Dimension        Dim             ....  128

ORBITAL ENERGIES
----------------

  NO   OCC          E(Eh)            E(eV)
   0   2.0000     -10.250179      -278.9215
   1   2.0000     -10.239941      -278.6430
   2   2.0000      -0.882634       -24.0177
   3   2.0000      -0.734930       -19.9985
   4   2.0000      -0.554248       -15.0819
   5   2.0000      -0.535448       -14.5703
   6   2.0000      -0.470091       -12.7918
   7   2.0000      -0.446079       -12.1384
   8   2.0000      -0.424939       -11.5632
   9   0.0000       0.077828         2.1178
  10   0.0000       0.098240         2.6732
  11   0.0000       0.141317         3.8454
  12   0.0000       0.146379         3.9832
  13   0.0000       0.169403         4.6097

MULLIKEN ATOMIC CHARGES
-----------------------
   0 C :   -0.767861
   1 C :   -1.011982
   2 H :    0.320104
   3 H :    0.335034
   4 H :    0.309589
   5 H :    0.283765
   6 H :    0.266258
   7 H :    0.265093
Sum of atomic charges:   -0.0000000

LOEWDIN ATOMIC CHARGES
----------------------
   0 C :   -0.164610
   1 C :   -0.181034
   2 H :    0.051774
   3 H :    0.051718
   4 H :    0.055670
   5 H :    0.062828
   6 H :    0.062267
   7 H :    0.061388

  Mayer bond orders larger than 0.100000
B(  0-C ,  1-C ) :   0.6060 B(  0-C ,  5-H ) :   0.9628 B(  0-C ,  6-H ) :   0.9762
B(  0-C ,  7-H ) :   0.9707 B(  1-C ,  2-H ) :   0.9546 B(  1-C ,  3-H ) :   0.9442
B(  1-C ,  4-H ) :   0.9355

Dispersion correction           -0.000521512
FINAL SINGLE POINT ENERGY       -79.824085356583

DIPOLE MOMENT
-------------
                                X             Y             Z
Electronic contribution:      0.00464      -0.07093       0.12727
Nuclear contribution   :     -0.00793       0.09023      -0.16124
                        -----------------------------------------
Total Dipole Moment    :     -0.00329       0.01930      -0.03397
                        -----------------------------------------
Magnitude (a.u.)       :      0.03921
Magnitude (Debye)      :      0.09966

Rotational constants in cm-1:     2.876169     0.710562     0.698917
Rotational constants in MHz : 86225.370734 21302.115394 20952.991121

                             ****ORCA TERMINATED NORMALLY****
TOTAL RUN TIME: 0 days 0 hours 0 minutes 5 seconds 954 msec
