                         Program Version 5.0.0 -  RELEASE  -
|  1> !wB97X-D3 RIJCOSX def2-TZVPD def2/J TightSCF
|  2> *xyz 0 1
|  3> C         -0.25875        1.00432       -5.40983
|  4> C          0.39596       -0.37070       -5.33994
|  5> O         -0.32633       -1.39040       -5.49128
|  6> F          1.61941       -0.40073       -5.03683
|  7> H         -1.28979        0.89539       -5.67439
|  8> H          0.23798        1.59877       -6.14792
|  9> H         -0.18395        1.48386       -4.45623
| 10> *
| 11> %MaxCore 64000
| 12>
| 13> %pal nprocs 18
| 14> end
| 15>
| 16> %scf
| 17>   MaxIter 150
| 18> end
| 19>
| 20>
| 21>                          ****END OF INPUT****

CARTESIAN COORDINATES (ANGSTROEM)
---------------------------------
  C     -0.258750    1.004320   -5.409830
  C      0.395960   -0.370700   -5.339940
  O     -0.326330   -1.390400   -5.491280
  F      1.619410   -0.400730   -5.036830
  H     -1.289790    0.895390   -5.674390
  H      0.237980    1.598770   -6.147920
  H     -0.183950    1.483860   -4.456230

 Total Charge           Charge          ....    0
 Multiplicity           Mult            ....    1
 Number of Electrons    NEL             ....   32
 Basis Dimension        Dim             ....  181

ORBITAL ENERGIES
----------------

  NO   OCC          E(Eh)            E(eV)
   0   2.0000     -24.856190      -676.3713
   1   2.0000     -19.239048      -523.5211
   2   2.0000     -10.461341      -284.6676
   3   2.0000     -10.301303      -280.3127
   4   2.0000      -1.434678       -39.0396
   5   2.0000      -1.149246       -31.2726
   6   2.0000      -0.891493       -24.2588
   7   2.0000      -0.766814       -20.8661
   8   2.0000      -0.653173       -17.7737
   9   2.0000      -0.649231       -17.6665
  10   2.0000      -0.609817       -16.5940
  11   2.0000      -0.545910       -14.8550
  12   2.0000      -0.533806       -14.5256
  13   2.0000      -0.501451       -13.6452
  14   2.0000      -0.451844       -12.2953
  15   2.0000      -0.392682       -10.6854
  16   0.0000       0.053610         1.4588
  17   0.0000       0.062261         1.6942
  18   0.0000       0.093459         2.5432
  19   0.0000       0.107063         2.9133
  20   0.0000       0.115883         3.1533

MULLIKEN ATOMIC CHARGES
-----------------------
   0 C :   -0.806925
   1 C :    0.721989
   2 O :   -0.549516
   3 F :   -0.219106
   4 H :    0.270657
   5 H :    0.297446
   6 H :    0.285455
Sum of atomic charges:    0.0000000

LOEWDIN ATOMIC CHARGES
----------------------
   0 C :    0.008403
   1 C :   -0.502715
   2 O :    0.062907
   3 F :    0.190830
   4 H :    0.080984
   5 H :    0.078533
   6 H :    0.081058

  Mayer bond orders larger than 0.100000
B(  0-C ,  1-C ) :   0.8751 B(  0-C ,  4-H ) :   0.9787 B(  0-C ,  5-H ) :   0.9170
B(  0-C ,  6-H ) :   0.9095 B(  1-C ,  2-O ) :   1.6975 B(  1-C ,  3-F ) :   0.9771

Dispersion correction           -0.000902822
FINAL SINGLE POINT ENERGY      -253.122881263466

DIPOLE MOMENT
-------------
                                X             Y             Z
Electronic contribution:      3.61036      -3.42853       0.64508
Nuclear contribution   :     -3.46039       4.64214      -0.59441
                        -----------------------------------------
Total Dipole Moment    :      0.14997       1.21361       0.05067
                        -----------------------------------------
Magnitude (a.u.)       :      1.22389
Magnitude (Debye)      :      3.11089

Rotational constants in cm-1:     0.366844     0.321935     0.177045
Rotational constants in MHz : 10997.709774  9651.373819  5307.687677

                             ****ORCA TERMINATED NORMALLY****
TOTAL RUN TIME: 0 days 0 hours 0 minutes 8 seconds 592 msec
