                         Program Version 5.0.0 -  RELEASE  -
|  1> !TPSS D3BJ RIJCOSX def2-SVPD def2/J TightSCF
|  2> *xyz -1 1
|  3> C         -0.98480        1.28474       -2.92869
|  4> C         -0.10608        1.76991       -4.08984
|  5> H         -0.34774        2.82220       -4.26294
|  6> H          0.94968        1.74588       -3.80878
|  7> C         -0.25875        1.00432       -5.40983
|  8> C          0.39596       -0.37070       -5.33994
|  9> H          0.23915        1.56939       -6.20125
| 10> H         -1.30936        0.88869       -5.68245
| 11> O         -0.32633       -1.39040       -5.49128
| 12> O          1.61941       -0.40073       -5.03683
| 13> H         -2.01317        1.31546       -3.22263
| 14> H         -0.83724        1.91975       -2.08023
| 15> H         -0.71656        0.28077       -2.67373
| 16> *
| 17> %MaxCore 64000
| 18>
| 19> %pal nprocs 4
| 20> end
| 21>
| 22> %scf
| 23>   MaxIter 150
| 24> end
| 25>
| 26>
| 27>                          ****END OF INPUT****

CARTESIAN COORDINATES (ANGSTROEM)
---------------------------------
  C     -0.984800    1.284740   -2.928690
  C     -0.106080    1.769910   -4.089840
  H     -0.347740    2.822200   -4.262940
  H      0.949680    1.745880   -3.808780
  C     -0.258750    1.004320   -5.409830
  C      0.395960   -0.370700   -5.339940
  H      0.239150    1.569390   -6.201250
  H     -1.309360    0.888690   -5.682450
  O     -0.326330   -1.390400   -5.491280
  O      1.619410   -0.400730   -5.036830
  H     -2.013170    1.315460   -3.222630
  H     -0.837240    1.919750   -2.080230
  H     -0.716560    0.280770   -2.673730

 Total Charge           Charge          ....   -1
 Multiplicity           Mult            ....    1
 Number of Electrons    NEL             ....   48
 Basis Dimension        Dim             ....  182

ORBITAL ENERGIES
----------------

  NO   OCC          E(Eh)            E(eV)
   0   2.0000     -18.640399      -507.2310
   1   2.0000     -18.639697      -507.2119
   2   2.0000      -9.877965      -268.7931
   3   2.0000      -9.853506      -268.1275
   4   2.0000      -9.851812      -268.0814
   5   2.0000      -9.828503      -267.4472
   6   2.0000      -0.740779       -20.1576
   7   2.0000      -0.650534       -17.7019
   8   2.0000      -0.573978       -15.6187
   9   2.0000      -0.486610       -13.2413
  10   2.0000      -0.393036       -10.6951
  11   2.0000      -0.284987        -7.7549
  12   2.0000      -0.263533        -7.1711
  13   2.0000      -0.242705        -6.6043
  14   2.0000      -0.220242        -5.9931
  15   2.0000      -0.189771        -5.1639
  16   2.0000      -0.177677        -4.8348
  17   2.0000      -0.165777        -4.5110
  18   2.0000      -0.153532        -4.1778
  19   2.0000      -0.134154        -3.6505
  20   2.0000      -0.123310        -3.3554
  21   2.0000      -0.014627        -0.3980
  22   2.0000      -0.003249        -0.0884
  23   2.0000       0.014725         0.4007
  24   0.0000       0.135531         3.6880
  25   0.0000       0.160879         4.3778
  26   0.0000       0.175982         4.7887
  27   0.0000       0.188514         5.1297
  28   0.0000       0.207168         5.6373

MULLIKEN ATOMIC CHARGES
-----------------------
   0 C :    0.593495
   1 C :   -0.486532
   2 H :   -0.101350
   3 H :    0.008540
   4 C :    0.040114
   5 C :    0.451296
   6 H :    0.012290
   7 H :    0.008349
   8 O :   -0.694560
   9 O :   -0.732581
  10 H :   -0.006210
  11 H :   -0.055877
  12 H :   -0.036973
Sum of atomic charges:   -1.0000000

LOEWDIN ATOMIC CHARGES
----------------------
   0 C :    0.123421
   1 C :   -0.079353
   2 H :   -0.009883
   3 H :    0.005010
   4 C :    0.005639
   5 C :   -0.300899
   6 H :    0.003840
   7 H :   -0.003431
   8 O :   -0.327179
   9 O :   -0.322842
  10 H :   -0.032398
  11 H :   -0.041161
  12 H :   -0.020765

  Mayer bond orders larger than 0.100000
B(  0-C ,  1-C ) :   1.2910 B(  0-C , 10-H ) :   0.8062 B(  0-C , 11-H ) :   0.7878
B(  0-C , 12-H ) :   0.8534 B(  1-C ,  2-H ) :   0.9768 B(  1-C ,  3-H ) :   0.9335
B(  1-C ,  4-C ) :   1.2393 B(  1-C ,  6-H ) :   0.1304 B(  1-C ,  7-H ) :   0.1246
B(  1-C , 10-H ) :   0.2029 B(  1-C , 11-H ) :   0.2081 B(  1-C , 12-H ) :   0.2100
B(  3-H ,  4-C ) :   0.1463 B(  4-C ,  5-C ) :   1.0338 B(  4-C ,  6-H ) :   0.8491
B(  4-C ,  7-H ) :   0.9098 B(  5-C ,  6-H ) :   0.1012 B(  5-C ,  7-H ) :   0.1891
B(  5-C ,  8-O ) :   1.4300 B(  5-C ,  9-O ) :   1.4458

Dispersion correction           -0.012022209
FINAL SINGLE POINT ENERGY      -307.001605209701

DIPOLE MOMENT
-------------
                                X             Y             Z
Electronic contribution:      3.15745      -5.72393      -3.87998
Nuclear contribution   :     -4.15791       7.87420       4.69333
                        -----------------------------------------
Total Dipole Moment    :     -1.00046       2.15028       0.81336
                        -----------------------------------------
Magnitude (a.u.)       :      2.50722
Magnitude (Debye)      :      6.37285

Rotational constants in cm-1:     0.200385     0.078723     0.072676
Rotational constants in MHz :  6007.394681  2360.059351  2178.761275

                             ****ORCA TERMINATED NORMALLY****
TOTAL RUN TIME: 0 days 0 hours 0 minutes 9 seconds 263 msec
