                         Program Version 5.0.0 -  RELEASE  -
|  1> !TPSS D3BJ RIJCOSX def2-SVPD def2/J TightSCF
|  2> *xyz 1 1
|  3> C          0.81607       -2.10149       -2.18655
|  4> H          1.69623       -2.36869       -1.60046
|  5> N          1.10055       -2.46749       -3.59927
|  6> C          0.51624       -0.61363       -2.03937
|  7> H         -0.02007       -2.71285       -1.84084
|  8> C         -0.86862       -0.19392       -2.54630
|  9> H          1.70061       -1.75723       -4.07838
| 10> H          0.29386       -2.35977       -4.25632
| 11> H          1.50132       -3.42848       -3.69491
| 12> H          1.29904       -0.05680       -2.55898
| 13> H          0.61239       -0.36558       -0.97917
| 14> H         -0.95781       -0.43872       -3.58410
| 15> H         -0.99113        0.86113       -2.41690
| 16> H         -1.62334       -0.71130       -1.99167
| 17> *
| 18> %MaxCore 64000
| 19>
| 20> %pal nprocs 4
| 21> end
| 22>
| 23> %scf
| 24>   MaxIter 150
| 25> end
| 26>
| 27>
| 28>                          ****END OF INPUT****

CARTESIAN COORDINATES (ANGSTROEM)
---------------------------------
  C      0.816070   -2.101490   -2.186550
  H      1.696230   -2.368690   -1.600460
  N      1.100550   -2.467490   -3.599270
  C      0.516240   -0.613630   -2.039370
  H     -0.020070   -2.712850   -1.840840
  C     -0.868620   -0.193920   -2.546300
  H      1.700610   -1.757230   -4.078380
  H      0.293860   -2.359770   -4.256320
  H      1.501320   -3.428480   -3.694910
  H      1.299040   -0.056800   -2.558980
  H      0.612390   -0.365580   -0.979170
  H     -0.957810   -0.438720   -3.584100
  H     -0.991130    0.861130   -2.416900
  H     -1.623340   -0.711300   -1.991670

 Total Charge           Charge          ....    1
 Multiplicity           Mult            ....    1
 Number of Electrons    NEL             ....   34
 Basis Dimension        Dim             ....  160

ORBITAL ENERGIES
----------------

  NO   OCC          E(Eh)            E(eV)
   0   2.0000     -14.450535      -393.2190
   1   2.0000     -10.248577      -278.8780
   2   2.0000     -10.181506      -277.0529
   3   2.0000     -10.147882      -276.1379
   4   2.0000      -1.136255       -30.9191
   5   2.0000      -0.911364       -24.7995
   6   2.0000      -0.828192       -22.5363
   7   2.0000      -0.758754       -20.6467
   8   2.0000      -0.730560       -19.8795
   9   2.0000      -0.713809       -19.4237
  10   2.0000      -0.653499       -17.7826
  11   2.0000      -0.587599       -15.9894
  12   2.0000      -0.569535       -15.4978
  13   2.0000      -0.547988       -14.9115
  14   2.0000      -0.489522       -13.3206
  15   2.0000      -0.483511       -13.1570
  16   2.0000      -0.481112       -13.0917
  17   0.0000      -0.206964        -5.6318
  18   0.0000      -0.155475        -4.2307
  19   0.0000      -0.150302        -4.0899
  20   0.0000      -0.129967        -3.5366
  21   0.0000      -0.103439        -2.8147

MULLIKEN ATOMIC CHARGES
-----------------------
   0 C :    0.646256
   1 H :   -0.037110
   2 N :   -0.983701
   3 C :   -0.359405
   4 H :   -0.032618
   5 C :    0.687460
   6 H :    0.482961
   7 H :    0.368977
   8 H :    0.412269
   9 H :   -0.035557
  10 H :   -0.047459
  11 H :   -0.128639
  12 H :   -0.010916
  13 H :    0.037479
Sum of atomic charges:    1.0000000

LOEWDIN ATOMIC CHARGES
----------------------
   0 C :    0.093540
   1 H :    0.048860
   2 N :    0.311988
   3 C :   -0.035929
   4 H :    0.051631
   5 C :    0.162736
   6 H :    0.108723
   7 H :    0.103905
   8 H :    0.119269
   9 H :    0.024993
  10 H :    0.041823
  11 H :   -0.028586
  12 H :    0.001517
  13 H :   -0.004470

  Mayer bond orders larger than 0.100000
B(  0-C ,  1-H ) :   0.8922 B(  0-C ,  2-N ) :   0.6512 B(  0-C ,  3-C ) :   1.1512
B(  0-C ,  4-H ) :   0.8959 B(  0-C , 10-H ) :   0.1101 B(  1-H ,  2-N ) :   0.1091
B(  2-N ,  4-H ) :   0.1264 B(  2-N ,  6-H ) :   0.5768 B(  2-N ,  7-H ) :   0.7474
B(  2-N ,  8-H ) :   0.6441 B(  3-C ,  5-C ) :   1.2746 B(  3-C ,  9-H ) :   0.9525
B(  3-C , 10-H ) :   0.9754 B(  3-C , 11-H ) :   0.1791 B(  3-C , 12-H ) :   0.1936
B(  3-C , 13-H ) :   0.1729 B(  5-C , 11-H ) :   0.8437 B(  5-C , 12-H ) :   0.8005
B(  5-C , 13-H ) :   0.8049

Dispersion correction           -0.011348429
FINAL SINGLE POINT ENERGY      -174.769198080358

DIPOLE MOMENT
-------------
                                X             Y             Z
Electronic contribution:      1.47685      -1.82935      -0.68477
Nuclear contribution   :     -0.52914       0.42437      -0.52967
                        -----------------------------------------
Total Dipole Moment    :      0.94771      -1.40499      -1.21445
                        -----------------------------------------
Magnitude (a.u.)       :      2.08495
Magnitude (Debye)      :      5.29953

Rotational constants in cm-1:     0.462856     0.150885     0.132529
Rotational constants in MHz : 13876.083919  4523.416930  3973.119974

                             ****ORCA TERMINATED NORMALLY****
TOTAL RUN TIME: 0 days 0 hours 0 minutes 7 seconds 499 msec
