                         Program Version 5.0.0 -  RELEASE  -
|  1> !TPSS D3BJ RIJCOSX def2-SVPD def2/J TightSCF xyzfile
|  2>
|  3> *xyzfile 0 1 B.xyz
|  4>
|  5> %MaxCore 64000
|  6>
|  7> %pal nprocs 4
|  8> end
|  9>
| 10> %scf
| 11>   MaxIter 150
| 12> end
| 13>
| 14>
| 15>                          ****END OF INPUT****

CARTESIAN COORDINATES (ANGSTROEM)
---------------------------------
  C      0.816067   -2.101491   -2.186546
  H      1.696232   -2.368691   -1.600457
  N      1.100552   -2.467492   -3.599269
  C      0.516243   -0.613634   -2.039373
  H     -0.020066   -2.712849   -1.840844
  C     -0.868621   -0.193925   -2.546303
  C     -0.984801    1.284739   -2.928686
  H     -0.764939    1.904116   -2.051568
  H     -2.032613    1.478953   -3.178952
  C     -0.106085    1.769914   -4.089836
  H     -0.347744    2.822196   -4.262942
  H      0.949683    1.745875   -3.808781
  C     -0.258747    1.004323   -5.409829
  C      0.395958   -0.370696   -5.339939
  H      0.239150    1.569393   -6.201253
  H     -1.309360    0.888694   -5.682455
  H      1.700606   -1.757225   -4.078378
  H      0.293855   -2.359766   -4.256324
  H      1.501324   -3.428479   -3.694915
  O     -0.326329   -1.390398   -5.491279
  O      1.619412   -0.400726   -5.036827
  H     -1.607271   -0.412651   -1.768955
  H     -1.157234   -0.796164   -3.409254
  H      1.299044   -0.056805   -2.558982
  H      0.612393   -0.365579   -0.979171

 Total Charge           Charge          ....    0
 Multiplicity           Mult            ....    1
 Number of Electrons    NEL             ....   80
 Basis Dimension        Dim             ....  326

ORBITAL ENERGIES
----------------

  NO   OCC          E(Eh)            E(eV)
   0   2.0000     -18.838876      -512.6319
   1   2.0000     -18.837293      -512.5888
   2   2.0000     -14.203078      -386.4854
   3   2.0000     -10.073897      -274.1247
   4   2.0000     -10.068335      -273.9733
   5   2.0000     -10.016450      -272.5615
   6   2.0000      -9.998403      -272.0704
   7   2.0000      -9.993745      -271.9436
   8   2.0000      -9.987062      -271.7618
   9   2.0000      -9.977378      -271.4983
  10   2.0000      -0.950761       -25.8715
  11   2.0000      -0.907169       -24.6853
  12   2.0000      -0.853379       -23.2216
  13   2.0000      -0.750938       -20.4341
  14   2.0000      -0.710057       -19.3216
  15   2.0000      -0.665507       -18.1094
  16   2.0000      -0.605902       -16.4874
  17   2.0000      -0.574367       -15.6293
  18   2.0000      -0.531357       -14.4590
  19   2.0000      -0.516829       -14.0636
  20   2.0000      -0.495011       -13.4699
  21   2.0000      -0.471639       -12.8339
  22   2.0000      -0.435319       -11.8456
  23   2.0000      -0.425747       -11.5852
  24   2.0000      -0.413295       -11.2463
  25   2.0000      -0.402849       -10.9621
  26   2.0000      -0.383572       -10.4375
  27   2.0000      -0.374893       -10.2014
  28   2.0000      -0.358807        -9.7636
  29   2.0000      -0.350003        -9.5241
  30   2.0000      -0.344505        -9.3745
  31   2.0000      -0.335153        -9.1200
  32   2.0000      -0.317000        -8.6260
  33   2.0000      -0.311806        -8.4847
  34   2.0000      -0.289826        -7.8866
  35   2.0000      -0.278051        -7.5662
  36   2.0000      -0.273065        -7.4305
  37   2.0000      -0.215265        -5.8577
  38   2.0000      -0.198058        -5.3894
  39   2.0000      -0.186888        -5.0855
  40   0.0000      -0.021480        -0.5845
  41   0.0000       0.007903         0.2151
  42   0.0000       0.016371         0.4455
  43   0.0000       0.026697         0.7265
  44   0.0000       0.028248         0.7687

MULLIKEN ATOMIC CHARGES
-----------------------
   0 C :    0.982295
   1 H :   -0.140508
   2 N :   -0.564986
   3 C :    0.024397
   4 H :   -0.151900
   5 C :    0.141412
   6 C :    0.284401
   7 H :   -0.046532
   8 H :    0.089128
   9 C :   -0.008966
  10 H :   -0.195159
  11 H :    0.105957
  12 C :    0.247850
  13 C :    0.295767
  14 H :    0.031831
  15 H :   -0.026235
  16 H :    0.330257
  17 H :    0.284681
  18 H :    0.263738
  19 O :   -0.707584
  20 O :   -0.745135
  21 H :   -0.126285
  22 H :   -0.186851
  23 H :    0.030768
  24 H :   -0.212340
Sum of atomic charges:    0.0000000

LOEWDIN ATOMIC CHARGES
----------------------
   0 C :    0.094514
   1 H :    0.026082
   2 N :    0.308556
   3 C :    0.007967
   4 H :    0.031106
   5 C :   -0.004708
   6 C :   -0.013209
   7 H :    0.016699
   8 H :    0.019522
   9 C :   -0.015264
  10 H :    0.013409
  11 H :    0.006982
  12 C :    0.053292
  13 C :   -0.206401
  14 H :    0.026435
  15 H :    0.020129
  16 H :   -0.025051
  17 H :   -0.022859
  18 H :    0.097352
  19 O :   -0.243466
  20 O :   -0.233388
  21 H :    0.018597
  22 H :   -0.006763
  23 H :    0.006856
  24 H :    0.023612

  Mayer bond orders larger than 0.100000
B(  0-C ,  1-H ) :   0.7628 B(  0-C ,  2-N ) :   0.7045 B(  0-C ,  3-C ) :   1.1406
B(  0-C ,  4-H ) :   0.8192 B(  1-H ,  2-N ) :   0.1070 B(  1-H ,  3-C ) :   0.1995
B(  2-N ,  4-H ) :   0.2074 B(  2-N , 13-C ) :   0.1262 B(  2-N , 16-H ) :   0.7506
B(  2-N , 17-H ) :   0.8382 B(  2-N , 18-H ) :   0.7867 B(  3-C ,  5-C ) :   1.1689
B(  3-C , 21-H ) :   0.2081 B(  3-C , 22-H ) :   0.1257 B(  3-C , 23-H ) :   0.8848
B(  3-C , 24-H ) :   0.9054 B(  5-C ,  6-C ) :   1.2363 B(  5-C ,  7-H ) :   0.1619
B(  5-C ,  8-H ) :   0.1928 B(  5-C , 21-H ) :   0.7994 B(  5-C , 22-H ) :   0.8557
B(  5-C , 23-H ) :   0.1180 B(  5-C , 24-H ) :   0.1683 B(  6-C ,  7-H ) :   0.8292
B(  6-C ,  8-H ) :   0.6807 B(  6-C ,  9-C ) :   1.2362 B(  6-C , 10-H ) :   0.1412
B(  6-C , 11-H ) :   0.1010 B(  6-C , 21-H ) :   0.1210 B(  6-C , 22-H ) :   0.1092
B(  7-H ,  9-C ) :   0.1544 B(  8-H ,  9-C ) :   0.1529 B(  9-C , 10-H ) :   0.9093
B(  9-C , 11-H ) :   0.8013 B(  9-C , 12-C ) :   1.2328 B(  9-C , 14-H ) :   0.1613
B(  9-C , 15-H ) :   0.1206 B( 10-H , 11-H ) :  -0.1008 B( 10-H , 12-C ) :   0.1118
B( 11-H , 12-C ) :   0.1064 B( 12-C , 13-C ) :   1.1570 B( 12-C , 14-H ) :   0.7237
B( 12-C , 15-H ) :   0.8560 B( 13-C , 14-H ) :   0.1659 B( 13-C , 15-H ) :   0.2430
B( 13-C , 19-O ) :   1.3885 B( 13-C , 20-O ) :   1.2966 B( 16-H , 20-O ) :   0.2015
B( 17-H , 19-O ) :   0.2074 B( 19-O , 20-O ) :   0.1145

Dispersion correction           -0.033303010
FINAL SINGLE POINT ENERGY      -480.781895783040

DIPOLE MOMENT
-------------
                                X             Y             Z
Electronic contribution:      2.29501      -3.08680      -6.28092
Nuclear contribution   :     -2.02598       1.95876       8.24116
                        -----------------------------------------
Total Dipole Moment    :      0.26903      -1.12803       1.96023
                        -----------------------------------------
Magnitude (a.u.)       :      2.27758
Magnitude (Debye)      :      5.78914

Rotational constants in cm-1:     0.052900     0.041948     0.028766
Rotational constants in MHz :  1585.892512  1257.572595   862.390225

                             ****ORCA TERMINATED NORMALLY****
TOTAL RUN TIME: 0 days 0 hours 0 minutes 46 seconds 634 msec
