                         Program Version 5.0.0 -  RELEASE  -
|  1> !TPSS D3BJ RIJCOSX def2-SVPD def2/J TightSCF
|  2> *xyz 0 1
|  3> C         -0.98480        1.28474       -2.92869
|  4> C         -0.10608        1.76991       -4.08984
|  5> H         -0.34774        2.82220       -4.26294
|  6> H          0.94968        1.74588       -3.80878
|  7> C         -0.25875        1.00432       -5.40983
|  8> C          0.39596       -0.37070       -5.33994
|  9> H          0.23915        1.56939       -6.20125
| 10> H         -1.30936        0.88869       -5.68245
| 11> F         -0.32633       -1.39040       -5.49128
| 12> O          1.61941       -0.40073       -5.03683
| 13> H         -2.01317        1.31546       -3.22263
| 14> H         -0.83724        1.91975       -2.08023
| 15> H         -0.71656        0.28077       -2.67373
| 16> *
| 17> %MaxCore 64000
| 18>
| 19> %pal nprocs 4
| 20> end
| 21>
| 22> %scf
| 23>   MaxIter 150
| 24> end
| 25>
| 26>
| 27>                          ****END OF INPUT****

CARTESIAN COORDINATES (ANGSTROEM)
---------------------------------
  C     -0.984800    1.284740   -2.928690
  C     -0.106080    1.769910   -4.089840
  H     -0.347740    2.822200   -4.262940
  H      0.949680    1.745880   -3.808780
  C     -0.258750    1.004320   -5.409830
  C      0.395960   -0.370700   -5.339940
  H      0.239150    1.569390   -6.201250
  H     -1.309360    0.888690   -5.682450
  F     -0.326330   -1.390400   -5.491280
  O      1.619410   -0.400730   -5.036830
  H     -2.013170    1.315460   -3.222630
  H     -0.837240    1.919750   -2.080230
  H     -0.716560    0.280770   -2.673730

 Total Charge           Charge          ....    0
 Multiplicity           Mult            ....    1
 Number of Electrons    NEL             ....   48
 Basis Dimension        Dim             ....  182

ORBITAL ENERGIES
----------------

  NO   OCC          E(Eh)            E(eV)
   0   2.0000     -24.495840      -666.5657
   1   2.0000     -18.905647      -514.4488
   2   2.0000     -10.170434      -276.7516
   3   2.0000     -10.032936      -273.0101
   4   2.0000     -10.016480      -272.5623
   5   2.0000      -9.999000      -272.0866
   6   2.0000      -1.223029       -33.2803
   7   2.0000      -0.951946       -25.9038
   8   2.0000      -0.749473       -20.3942
   9   2.0000      -0.671489       -18.2721
  10   2.0000      -0.603609       -16.4250
  11   2.0000      -0.558043       -15.1851
  12   2.0000      -0.495238       -13.4761
  13   2.0000      -0.480419       -13.0729
  14   2.0000      -0.457427       -12.4472
  15   2.0000      -0.421833       -11.4786
  16   2.0000      -0.412130       -11.2146
  17   2.0000      -0.383948       -10.4477
  18   2.0000      -0.357844        -9.7374
  19   2.0000      -0.340450        -9.2641
  20   2.0000      -0.319242        -8.6870
  21   2.0000      -0.313802        -8.5390
  22   2.0000      -0.306716        -8.3462
  23   2.0000      -0.249898        -6.8001
  24   0.0000      -0.067813        -1.8453
  25   0.0000       0.003430         0.0933
  26   0.0000       0.031427         0.8552
  27   0.0000       0.038002         1.0341
  28   0.0000       0.045949         1.2503

MULLIKEN ATOMIC CHARGES
-----------------------
   0 C :    0.615794
   1 C :   -0.434623
   2 H :   -0.073280
   3 H :    0.009578
   4 C :   -0.018747
   5 C :    0.801238
   6 H :    0.058849
   7 H :    0.045940
   8 F :   -0.378550
   9 O :   -0.540678
  10 H :    0.008735
  11 H :   -0.038043
  12 H :   -0.056213
Sum of atomic charges:    0.0000000

LOEWDIN ATOMIC CHARGES
----------------------
   0 C :    0.143074
   1 C :   -0.052931
   2 H :    0.018294
   3 H :    0.020361
   4 C :    0.049603
   5 C :   -0.009046
   6 H :    0.036357
   7 H :    0.019524
   8 F :   -0.031467
   9 O :   -0.134137
  10 H :   -0.020440
  11 H :   -0.018530
  12 H :   -0.020662

  Mayer bond orders larger than 0.100000
B(  0-C ,  1-C ) :   1.3237 B(  0-C , 10-H ) :   0.7972 B(  0-C , 11-H ) :   0.7884
B(  0-C , 12-H ) :   0.8541 B(  1-C ,  2-H ) :   0.9649 B(  1-C ,  3-H ) :   0.9285
B(  1-C ,  4-C ) :   1.2517 B(  1-C ,  6-H ) :   0.1287 B(  1-C ,  7-H ) :   0.1232
B(  1-C , 10-H ) :   0.1961 B(  1-C , 11-H ) :   0.1981 B(  1-C , 12-H ) :   0.1962
B(  3-H ,  4-C ) :   0.1204 B(  4-C ,  5-C ) :   1.0687 B(  4-C ,  6-H ) :   0.8465
B(  4-C ,  7-H ) :   0.9017 B(  5-C ,  8-F ) :   0.7007 B(  5-C ,  9-O ) :   1.7398
B(  8-F ,  9-O ) :   0.1035

Dispersion correction           -0.011547289
FINAL SINGLE POINT ENERGY      -331.536315984445

DIPOLE MOMENT
-------------
                                X             Y             Z
Electronic contribution:      2.78920      -9.10771      -5.66475
Nuclear contribution   :     -3.72230       9.78546       5.57872
                        -----------------------------------------
Total Dipole Moment    :     -0.93310       0.67775      -0.08602
                        -----------------------------------------
Magnitude (a.u.)       :      1.15647
Magnitude (Debye)      :      2.93951

Rotational constants in cm-1:     0.192703     0.076176     0.069525
Rotational constants in MHz :  5777.081080  2283.698999  2084.312921

                             ****ORCA TERMINATED NORMALLY****
TOTAL RUN TIME: 0 days 0 hours 0 minutes 9 seconds 597 msec
