                         Program Version 5.0.0 -  RELEASE  -
|  1> !TPSS D3BJ RIJCOSX def2-SVPD def2/J TightSCF
|  2> *xyz 0 1
|  3> C          0.81607       -2.10149       -2.18655
|  4> H          1.69623       -2.36869       -1.60046
|  5> C          1.10055       -2.46749       -3.59927
|  6> C          0.51624       -0.61363       -2.03937
|  7> H         -0.02007       -2.71285       -1.84084
|  8> C         -0.86862       -0.19392       -2.54630
|  9> H          1.70061       -1.75723       -4.07838
| 10> H          0.29386       -2.35977       -4.25632
| 11> H          1.50132       -3.42848       -3.69491
| 12> H          1.29904       -0.05680       -2.55898
| 13> H          0.61239       -0.36558       -0.97917
| 14> H         -0.95781       -0.43872       -3.58410
| 15> H         -0.99113        0.86113       -2.41690
| 16> H         -1.62334       -0.71130       -1.99167
| 17> *
| 18> %MaxCore 64000
| 19>
| 20> %pal nprocs 4
| 21> end
| 22>
| 23> %scf
| 24>   MaxIter 150
| 25> end
| 26>
| 27>
| 28>                          ****END OF INPUT****

CARTESIAN COORDINATES (ANGSTROEM)
---------------------------------
  C      0.816070   -2.101490   -2.186550
  H      1.696230   -2.368690   -1.600460
  C      1.100550   -2.467490   -3.599270
  C      0.516240   -0.613630   -2.039370
  H     -0.020070   -2.712850   -1.840840
  C     -0.868620   -0.193920   -2.546300
  H      1.700610   -1.757230   -4.078380
  H      0.293860   -2.359770   -4.256320
  H      1.501320   -3.428480   -3.694910
  H      1.299040   -0.056800   -2.558980
  H      0.612390   -0.365580   -0.979170
  H     -0.957810   -0.438720   -3.584100
  H     -0.991130    0.861130   -2.416900
  H     -1.623340   -0.711300   -1.991670

 Total Charge           Charge          ....    0
 Multiplicity           Mult            ....    1
 Number of Electrons    NEL             ....   34
 Basis Dimension        Dim             ....  160

ORBITAL ENERGIES
----------------

  NO   OCC          E(Eh)            E(eV)
   0   2.0000      -9.990970      -271.8681
   1   2.0000      -9.988351      -271.7969
   2   2.0000      -9.983549      -271.6662
   3   2.0000      -9.969689      -271.2890
   4   2.0000      -0.736146       -20.0315
   5   2.0000      -0.667081       -18.1522
   6   2.0000      -0.588221       -16.0063
   7   2.0000      -0.520794       -14.1715
   8   2.0000      -0.420755       -11.4493
   9   2.0000      -0.415315       -11.3013
  10   2.0000      -0.382974       -10.4213
  11   2.0000      -0.357459        -9.7269
  12   2.0000      -0.345943        -9.4136
  13   2.0000      -0.318014        -8.6536
  14   2.0000      -0.292992        -7.9727
  15   2.0000      -0.286679        -7.8009
  16   2.0000      -0.280723        -7.6388
  17   0.0000       0.015717         0.4277
  18   0.0000       0.042327         1.1518
  19   0.0000       0.042738         1.1630
  20   0.0000       0.049732         1.3533
  21   0.0000       0.087001         2.3674

MULLIKEN ATOMIC CHARGES
-----------------------
   0 C :   -0.214666
   1 H :   -0.067947
   2 C :    0.817197
   3 C :   -0.357723
   4 H :   -0.043087
   5 C :    0.669025
   6 H :   -0.123500
   7 H :   -0.257835
   8 H :   -0.154422
   9 H :   -0.000278
  10 H :   -0.110867
  11 H :   -0.131260
  12 H :   -0.034178
  13 H :    0.009542
Sum of atomic charges:    0.0000000

LOEWDIN ATOMIC CHARGES
----------------------
   0 C :   -0.071305
   1 H :    0.017232
   2 C :    0.117329
   3 C :   -0.071938
   4 H :    0.019811
   5 C :    0.137971
   6 H :   -0.032805
   7 H :   -0.038817
   8 H :   -0.026166
   9 H :    0.013848
  10 H :    0.009987
  11 H :   -0.029954
  12 H :   -0.024192
  13 H :   -0.020999

  Mayer bond orders larger than 0.100000
B(  0-C ,  1-H ) :   0.9336 B(  0-C ,  2-C ) :   1.2542 B(  0-C ,  3-C ) :   1.1823
B(  0-C ,  4-H ) :   0.9212 B(  0-C ,  6-H ) :   0.1876 B(  0-C ,  7-H ) :   0.1938
B(  0-C ,  8-H ) :   0.2102 B(  0-C ,  9-H ) :   0.1018 B(  0-C , 10-H ) :   0.1315
B(  2-C ,  4-H ) :   0.1192 B(  2-C ,  6-H ) :   0.7028 B(  2-C ,  7-H ) :   0.7140
B(  2-C ,  8-H ) :   0.7681 B(  3-C ,  4-H ) :   0.1031 B(  3-C ,  5-C ) :   1.2612
B(  3-C ,  9-H ) :   0.9179 B(  3-C , 10-H ) :   0.9857 B(  3-C , 11-H ) :   0.1993
B(  3-C , 12-H ) :   0.1941 B(  3-C , 13-H ) :   0.1875 B(  5-C , 11-H ) :   0.8558
B(  5-C , 12-H ) :   0.7804 B(  5-C , 13-H ) :   0.8043 B(  6-H ,  7-H ) :   0.3326

Dispersion correction           -0.011393834
FINAL SINGLE POINT ENERGY      -158.372504224899

DIPOLE MOMENT
-------------
                                X             Y             Z
Electronic contribution:      0.31935      -0.06887       0.83413
Nuclear contribution   :     -0.30980       0.07990      -0.83209
                        -----------------------------------------
Total Dipole Moment    :      0.00955       0.01103       0.00204
                        -----------------------------------------
Magnitude (a.u.)       :      0.01473
Magnitude (Debye)      :      0.03745

Rotational constants in cm-1:     0.470198     0.157622     0.138278
Rotational constants in MHz : 14096.185772  4725.380109  4145.481686

                             ****ORCA TERMINATED NORMALLY****
TOTAL RUN TIME: 0 days 0 hours 0 minutes 7 seconds 340 msec
