                         Program Version 5.0.0 -  RELEASE  -
|  1> !TPSS D3BJ RIJCOSX def2-SVPD def2/J TightSCF
|  2> *xyz 0 1
|  3> C         -0.98480        1.28474       -2.92869
|  4> C         -0.10608        1.76991       -4.08984
|  5> H         -0.34774        2.82220       -4.26294
|  6> H          0.94968        1.74588       -3.80878
|  7> C         -0.25875        1.00432       -5.40983
|  8> C          0.39596       -0.37070       -5.33994
|  9> H          0.23915        1.56939       -6.20125
| 10> H         -1.30936        0.88869       -5.68245
| 11> O         -0.32633       -1.39040       -5.49128
| 12> F          1.61941       -0.40073       -5.03683
| 13> H         -2.01317        1.31546       -3.22263
| 14> H         -0.83724        1.91975       -2.08023
| 15> H         -0.71656        0.28077       -2.67373
| 16> *
| 17> %MaxCore 64000
| 18>
| 19> %pal nprocs 4
| 20> end
| 21>
| 22> %scf
| 23>   MaxIter 150
| 24> end
| 25>
| 26>
| 27>                          ****END OF INPUT****

CARTESIAN COORDINATES (ANGSTROEM)
---------------------------------
  C     -0.984800    1.284740   -2.928690
  C     -0.106080    1.769910   -4.089840
  H     -0.347740    2.822200   -4.262940
  H      0.949680    1.745880   -3.808780
  C     -0.258750    1.004320   -5.409830
  C      0.395960   -0.370700   -5.339940
  H      0.239150    1.569390   -6.201250
  H     -1.309360    0.888690   -5.682450
  O     -0.326330   -1.390400   -5.491280
  F      1.619410   -0.400730   -5.036830
  H     -2.013170    1.315460   -3.222630
  H     -0.837240    1.919750   -2.080230
  H     -0.716560    0.280770   -2.673730

 Total Charge           Charge          ....    0
 Multiplicity           Mult            ....    1
 Number of Electrons    NEL             ....   48
 Basis Dimension        Dim             ....  182

ORBITAL ENERGIES
----------------

  NO   OCC          E(Eh)            E(eV)
   0   2.0000     -24.494779      -666.5368
   1   2.0000     -18.905856      -514.4545
   2   2.0000     -10.169502      -276.7262
   3   2.0000     -10.032647      -273.0022
   4   2.0000     -10.021327      -272.6942
   5   2.0000      -9.999785      -272.1080
   6   2.0000      -1.221755       -33.2457
   7   2.0000      -0.951573       -25.8936
   8   2.0000      -0.753448       -20.5024
   9   2.0000      -0.671882       -18.2828
  10   2.0000      -0.600149       -16.3309
  11   2.0000      -0.562741       -15.3130
  12   2.0000      -0.497755       -13.5446
  13   2.0000      -0.485041       -13.1986
  14   2.0000      -0.444992       -12.1089
  15   2.0000      -0.423593       -11.5266
  16   2.0000      -0.417085       -11.3495
  17   2.0000      -0.383249       -10.4287
  18   2.0000      -0.355495        -9.6735
  19   2.0000      -0.340182        -9.2568
  20   2.0000      -0.324512        -8.8304
  21   2.0000      -0.322674        -8.7804
  22   2.0000      -0.310406        -8.4466
  23   2.0000      -0.245413        -6.6780
  24   0.0000      -0.064485        -1.7547
  25   0.0000       0.000901         0.0245
  26   0.0000       0.032005         0.8709
  27   0.0000       0.040055         1.0900
  28   0.0000       0.041410         1.1268

MULLIKEN ATOMIC CHARGES
-----------------------
   0 C :    0.617074
   1 C :   -0.450376
   2 H :   -0.080336
   3 H :   -0.003624
   4 C :    0.000461
   5 C :    0.822923
   6 H :    0.058002
   7 H :    0.025869
   8 O :   -0.513738
   9 F :   -0.403887
  10 H :    0.010106
  11 H :   -0.031564
  12 H :   -0.050909
Sum of atomic charges:   -0.0000000

LOEWDIN ATOMIC CHARGES
----------------------
   0 C :    0.145796
   1 C :   -0.060041
   2 H :    0.017336
   3 H :    0.015527
   4 C :    0.053521
   5 C :   -0.014259
   6 H :    0.031096
   7 H :    0.031963
   8 O :   -0.132942
   9 F :   -0.032802
  10 H :   -0.016656
  11 H :   -0.019113
  12 H :   -0.019426

  Mayer bond orders larger than 0.100000
B(  0-C ,  1-C ) :   1.3268 B(  0-C , 10-H ) :   0.8016 B(  0-C , 11-H ) :   0.7897
B(  0-C , 12-H ) :   0.8514 B(  1-C ,  2-H ) :   0.9828 B(  1-C ,  3-H ) :   0.9165
B(  1-C ,  4-C ) :   1.2312 B(  1-C ,  6-H ) :   0.1246 B(  1-C ,  7-H ) :   0.1095
B(  1-C , 10-H ) :   0.1983 B(  1-C , 11-H ) :   0.1973 B(  1-C , 12-H ) :   0.1985
B(  3-H ,  4-C ) :   0.1112 B(  4-C ,  5-C ) :   1.0325 B(  4-C ,  6-H ) :   0.8417
B(  4-C ,  7-H ) :   0.9379 B(  5-C ,  7-H ) :   0.1241 B(  5-C ,  8-O ) :   1.7425
B(  5-C ,  9-F ) :   0.6801 B(  8-O ,  9-F ) :   0.1073

Dispersion correction           -0.011508761
FINAL SINGLE POINT ENERGY      -331.537317520056

DIPOLE MOMENT
-------------
                                X             Y             Z
Electronic contribution:      6.04179      -7.42081      -4.89122
Nuclear contribution   :     -5.92016       8.66755       5.06539
                        -----------------------------------------
Total Dipole Moment    :      0.12163       1.24674       0.17417
                        -----------------------------------------
Magnitude (a.u.)       :      1.26471
Magnitude (Debye)      :      3.21463

Rotational constants in cm-1:     0.191324     0.076691     0.070269
Rotational constants in MHz :  5735.753800  2299.148675  2106.608556

                             ****ORCA TERMINATED NORMALLY****
TOTAL RUN TIME: 0 days 0 hours 0 minutes 9 seconds 615 msec
