                         Program Version 5.0.0 -  RELEASE  -
|  1> !wB97X-D3 RIJCOSX def2-SVPD def2/J TightSCF CPCM(Water)
|  2> *xyz -1 1
|  3> C          0.69721        3.22791       -0.52513
|  4> O          1.48929        2.37470        0.19919
|  5> H          0.26505        2.70007       -1.34946
|  6> H          1.28994        4.03943       -0.89255
|  7> H         -0.08148        3.61005        0.10138
|  8> *
|  9>
| 10> %MaxCore 64000
| 11> %pal nprocs 8
| 12> end
| 13>
| 14> %scf
| 15>   MaxIter 150
| 16> end
| 17>
| 18>
| 19>                          ****END OF INPUT****

CARTESIAN COORDINATES (ANGSTROEM)
---------------------------------
  C      0.697210    3.227910   -0.525130
  O      1.489290    2.374700    0.199190
  H      0.265050    2.700070   -1.349460
  H      1.289940    4.039430   -0.892550
  H     -0.081480    3.610050    0.101380

 Total Charge           Charge          ....   -1
 Multiplicity           Mult            ....    1
 Number of Electrons    NEL             ....   18
 Basis Dimension        Dim             ....   67

ORBITAL ENERGIES
----------------

  NO   OCC          E(Eh)            E(eV)
   0   2.0000     -19.113008      -520.0914
   1   2.0000     -10.270022      -279.4615
   2   2.0000      -0.981867       -26.7180
   3   2.0000      -0.700851       -19.0711
   4   2.0000      -0.495471       -13.4824
   5   2.0000      -0.495425       -13.4812
   6   2.0000      -0.418132       -11.3779
   7   2.0000      -0.266821        -7.2606
   8   2.0000      -0.266803        -7.2601
   9   0.0000       0.109322         2.9748
  10   0.0000       0.153962         4.1895
  11   0.0000       0.165428         4.5015
  12   0.0000       0.165505         4.5036
  13   0.0000       0.207866         5.6563

MULLIKEN ATOMIC CHARGES
-----------------------
   0 C :    0.709375
   1 O :   -1.087627
   2 H :   -0.207943
   3 H :   -0.207018
   4 H :   -0.206788
Sum of atomic charges:   -1.0000000

LOEWDIN ATOMIC CHARGES
----------------------
   0 C :   -0.099298
   1 O :   -0.740715
   2 H :   -0.053382
   3 H :   -0.053316
   4 H :   -0.053289

  Mayer bond orders larger than 0.100000
B(  0-C ,  1-O ) :   1.2799 B(  0-C ,  2-H ) :   0.9173 B(  0-C ,  3-H ) :   0.9174
B(  0-C ,  4-H ) :   0.9171

Dispersion correction           -0.000090821
FINAL SINGLE POINT ENERGY      -115.102955324863

DIPOLE MOMENT
-------------
                                X             Y             Z
Electronic contribution:      0.74088      -0.79809       0.67740
Nuclear contribution   :     -1.66672       1.79535      -1.52413
                        -----------------------------------------
Total Dipole Moment    :     -0.92584       0.99726      -0.84673
                        -----------------------------------------
Magnitude (a.u.)       :      1.60270
Magnitude (Debye)      :      4.07375

Rotational constants in cm-1:     5.477728     0.937442     0.937441
Rotational constants in MHz : 164218.159175 28103.818547 28103.787504

                             ****ORCA TERMINATED NORMALLY****
TOTAL RUN TIME: 0 days 0 hours 0 minutes 4 seconds 223 msec
