                         Program Version 5.0.0 -  RELEASE  -
|  1> !wB97X-D3 RIJCOSX def2-SVPD def2/J TightSCF CPCM(Water)
|  2> *xyz 1 1
|  3> C          3.95643        0.50147       -0.37910
|  4> N          3.80389        1.96157       -0.15675
|  5> H          4.20643        2.24441        0.74536
|  6> H          2.80827        2.21132       -0.09610
|  7> H          4.28076        2.50155       -0.89104
|  8> H          3.52890        0.23799       -1.32393
|  9> H          3.45469       -0.03240        0.40073
| 10> H          4.99562        0.24661       -0.37434
| 11> *
| 12>
| 13> %MaxCore 64000
| 14> %pal nprocs 8
| 15> end
| 16>
| 17> %scf
| 18>   MaxIter 150
| 19> end
| 20>
| 21>
| 22>                          ****END OF INPUT****

CARTESIAN COORDINATES (ANGSTROEM)
---------------------------------
  C      3.956430    0.501470   -0.379100
  N      3.803890    1.961570   -0.156750
  H      4.206430    2.244410    0.745360
  H      2.808270    2.211320   -0.096100
  H      4.280760    2.501550   -0.891040
  H      3.528900    0.237990   -1.323930
  H      3.454690   -0.032400    0.400730
  H      4.995620    0.246610   -0.374340

 Total Charge           Charge          ....    1
 Multiplicity           Mult            ....    1
 Number of Electrons    NEL             ....   18
 Basis Dimension        Dim             ....   88

ORBITAL ENERGIES
----------------

  NO   OCC          E(Eh)            E(eV)
   0   2.0000     -14.559379      -396.1808
   1   2.0000     -10.341974      -281.4194
   2   2.0000      -1.107968       -30.1494
   3   2.0000      -0.835070       -22.7234
   4   2.0000      -0.689734       -18.7686
   5   2.0000      -0.678797       -18.4710
   6   2.0000      -0.599961       -16.3258
   7   2.0000      -0.518105       -14.0984
   8   2.0000      -0.516176       -14.0459
   9   0.0000       0.084808         2.3077
  10   0.0000       0.122308         3.3282
  11   0.0000       0.158616         4.3162
  12   0.0000       0.158751         4.3198
  13   0.0000       0.195682         5.3248

MULLIKEN ATOMIC CHARGES
-----------------------
   0 C :    0.738648
   1 N :   -0.948089
   2 H :    0.419547
   3 H :    0.430850
   4 H :    0.430822
   5 H :   -0.024507
   6 H :   -0.022083
   7 H :   -0.025188
Sum of atomic charges:    1.0000000

LOEWDIN ATOMIC CHARGES
----------------------
   0 C :    0.265961
   1 N :    0.327553
   2 H :    0.116062
   3 H :    0.117753
   4 H :    0.119474
   5 H :    0.017539
   6 H :    0.018167
   7 H :    0.017490

  Mayer bond orders larger than 0.100000
B(  0-C ,  1-N ) :   0.7712 B(  0-C ,  5-H ) :   0.9237 B(  0-C ,  6-H ) :   0.9226
B(  0-C ,  7-H ) :   0.9261 B(  1-N ,  2-H ) :   0.7328 B(  1-N ,  3-H ) :   0.7128
B(  1-N ,  4-H ) :   0.7113

Dispersion correction           -0.000504075
FINAL SINGLE POINT ENERGY       -96.241362549736

DIPOLE MOMENT
-------------
                                X             Y             Z
Electronic contribution:     -0.13603       1.30804       0.18286
Nuclear contribution   :      0.02154      -0.23654       0.01355
                        -----------------------------------------
Total Dipole Moment    :     -0.11448       1.07150       0.19641
                        -----------------------------------------
Magnitude (a.u.)       :      1.09535
Magnitude (Debye)      :      2.78416

Rotational constants in cm-1:     2.873586     0.687737     0.684128
Rotational constants in MHz : 86147.950763 20617.847271 20509.632222

                             ****ORCA TERMINATED NORMALLY****
TOTAL RUN TIME: 0 days 0 hours 0 minutes 5 seconds 243 msec
