                         Program Version 5.0.0 -  RELEASE  -
|  1> !wB97X-D3 RIJCOSX def2-SVPD def2/J TightSCF CPCM(Water) xyzfile
|  2>
|  3> *xyzfile 0 1 B.xyz
|  4>
|  5> %MaxCore 64000
|  6>
|  7> %pal nprocs 18
|  8> end
|  9>
| 10> %scf
| 11>   MaxIter 150
| 12> end
| 13>
| 14>
| 15>                          ****END OF INPUT****

CARTESIAN COORDINATES (ANGSTROEM)
---------------------------------
  C      3.956426    0.501466   -0.379100
  H      3.168398    0.029201    0.207383
  N      3.803893    1.961572   -0.156747
  C      3.842322    0.148490   -1.854058
  H      4.923231    0.177982    0.009371
  H      4.620021    0.694502   -2.402150
  H      4.096015   -0.910930   -1.955103
  C      2.475619    0.412708   -2.485377
  H      2.174689    1.445076   -2.287971
  C      1.383931   -0.532740   -1.995203
  H      2.575613    0.318574   -3.571460
  H      1.264698   -0.412309   -0.915491
  H      1.705223   -1.566885   -2.164984
  C      0.031398   -0.317260   -2.677791
  C     -0.587292    1.060853   -2.436460
  H     -0.662815   -1.089530   -2.329985
  H      0.149465   -0.478040   -3.755648
  H      0.104376    1.828590   -2.793130
  C     -0.951213    1.334978   -0.972500
  H     -1.478832    1.161355   -3.062484
  H     -0.317007    0.741648   -0.311389
  H     -1.980916    1.012842   -0.788958
  C     -0.774550    2.788332   -0.543943
  H     -1.352609    3.459372   -1.192585
  H     -1.171014    2.902331    0.469968
  C      0.697208    3.227911   -0.525126
  O      1.489294    2.374703    0.199189
  H      0.715998    4.264030   -0.130774
  H      1.036148    3.330920   -1.583669
  H      4.206425    2.244406    0.745359
  H      2.808269    2.211323   -0.096097
  H      4.280757    2.501552   -0.891037

 Total Charge           Charge          ....    0
 Multiplicity           Mult            ....    1
 Number of Electrons    NEL             ....   90
 Basis Dimension        Dim             ....  391

ORBITAL ENERGIES
----------------

  NO   OCC          E(Eh)            E(eV)
   0   2.0000     -19.137694      -520.7631
   1   2.0000     -14.484384      -394.1401
   2   2.0000     -10.328863      -281.0626
   3   2.0000     -10.295561      -280.1564
   4   2.0000     -10.288461      -279.9632
   5   2.0000     -10.276133      -279.6278
   6   2.0000     -10.273097      -279.5452
   7   2.0000     -10.272148      -279.5194
   8   2.0000     -10.267954      -279.4052
   9   2.0000     -10.262588      -279.2592
  10   2.0000     -10.259523      -279.1758
  11   2.0000      -1.069139       -29.0927
  12   2.0000      -1.015849       -27.6426
  13   2.0000      -0.919760       -25.0279
  14   2.0000      -0.887976       -24.1631
  15   2.0000      -0.853975       -23.2378
  16   2.0000      -0.802990       -21.8505
  17   2.0000      -0.766609       -20.8605
  18   2.0000      -0.728954       -19.8359
  19   2.0000      -0.696079       -18.9413
  20   2.0000      -0.665399       -18.1064
  21   2.0000      -0.648266       -17.6402
  22   2.0000      -0.639477       -17.4010
  23   2.0000      -0.625354       -17.0168
  24   2.0000      -0.569525       -15.4976
  25   2.0000      -0.567237       -15.4353
  26   2.0000      -0.560553       -15.2534
  27   2.0000      -0.541025       -14.7221
  28   2.0000      -0.531104       -14.4521
  29   2.0000      -0.516162       -14.0455
  30   2.0000      -0.495384       -13.4801
  31   2.0000      -0.484738       -13.1904
  32   2.0000      -0.475648       -12.9430
  33   2.0000      -0.462741       -12.5918
  34   2.0000      -0.454232       -12.3603
  35   2.0000      -0.444240       -12.0884
  36   2.0000      -0.435409       -11.8481
  37   2.0000      -0.419869       -11.4252
  38   2.0000      -0.412658       -11.2290
  39   2.0000      -0.407785       -11.0964
  40   2.0000      -0.392818       -10.6891
  41   2.0000      -0.389234       -10.5916
  42   2.0000      -0.385929       -10.5017
  43   2.0000      -0.296265        -8.0618
  44   2.0000      -0.293765        -7.9937
  45   0.0000       0.093997         2.5578
  46   0.0000       0.104900         2.8545
  47   0.0000       0.109741         2.9862
  48   0.0000       0.111250         3.0273
  49   0.0000       0.128525         3.4973

MULLIKEN ATOMIC CHARGES
-----------------------
   0 C :    0.786800
   1 H :    0.026384
   2 N :   -0.139243
   3 C :    0.140179
   4 H :   -0.198105
   5 H :   -0.019050
   6 H :   -0.023900
   7 C :    0.405638
   8 H :   -0.538016
   9 C :   -0.080899
  10 H :   -0.060392
  11 H :   -0.073406
  12 H :   -0.121145
  13 C :    0.522637
  14 C :    0.103357
  15 H :   -0.179033
  16 H :    0.056557
  17 H :   -0.092030
  18 C :    0.091783
  19 H :   -0.198514
  20 H :   -0.086675
  21 H :   -0.116984
  22 C :    0.234580
  23 H :   -0.138258
  24 H :    0.034991
  25 C :    0.453566
  26 O :   -0.718348
  27 H :   -0.338286
  28 H :    0.054350
  29 H :    0.426055
  30 H :   -0.647548
  31 H :    0.432956
Sum of atomic charges:    0.0000000

LOEWDIN ATOMIC CHARGES
----------------------
   0 C :    0.095179
   1 H :    0.032836
   2 N :    0.328155
   3 C :   -0.013966
   4 H :    0.039606
   5 H :    0.031115
   6 H :    0.031560
   7 C :   -0.021034
   8 H :   -0.004680
   9 C :   -0.030989
  10 H :    0.030752
  11 H :   -0.002144
  12 H :    0.026995
  13 C :   -0.034736
  14 C :   -0.023794
  15 H :    0.022570
  16 H :    0.021951
  17 H :   -0.004988
  18 C :   -0.033256
  19 H :    0.019750
  20 H :   -0.014228
  21 H :    0.018149
  22 C :   -0.043298
  23 H :    0.020709
  24 H :    0.015382
  25 C :   -0.087534
  26 O :   -0.428377
  27 H :    0.002359
  28 H :    0.000485
  29 H :    0.103350
  30 H :   -0.200782
  31 H :    0.102903

  Mayer bond orders larger than 0.100000
B(  0-C ,  1-H ) :   0.7875 B(  0-C ,  2-N ) :   0.8072 B(  0-C ,  3-C ) :   1.1386
B(  0-C ,  4-H ) :   0.9267 B(  0-C ,  6-H ) :   0.1222 B(  1-H ,  2-N ) :   0.1158
B(  1-H ,  3-C ) :   0.1147 B(  1-H ,  4-H ) :  -0.1196 B(  2-N , 26-O ) :  -0.1177
B(  2-N , 29-H ) :   0.7480 B(  2-N , 30-H ) :   1.4836 B(  2-N , 31-H ) :   0.7310
B(  3-C ,  5-H ) :   0.7865 B(  3-C ,  6-H ) :   0.9023 B(  3-C ,  7-C ) :   1.1826
B(  5-H ,  7-C ) :   0.2129 B(  7-C ,  8-H ) :   0.8101 B(  7-C ,  9-C ) :   1.1633
B(  7-C , 10-H ) :   0.7018 B(  7-C , 11-H ) :   0.1124 B(  7-C , 12-H ) :   0.1501
B(  8-H ,  9-C ) :   0.2211 B(  8-H , 10-H ) :   0.1346 B(  9-C , 10-H ) :   0.1554
B(  9-C , 11-H ) :   0.8768 B(  9-C , 12-H ) :   0.8925 B(  9-C , 13-C ) :   1.1712
B(  9-C , 15-H ) :   0.2680 B(  9-C , 16-H ) :   0.1258 B( 11-H , 20-H ) :   0.1365
B( 13-C , 14-C ) :   1.1783 B( 13-C , 15-H ) :   0.7524 B( 13-C , 16-H ) :   0.7031
B( 13-C , 17-H ) :   0.1014 B( 14-C , 16-H ) :   0.2059 B( 14-C , 17-H ) :   0.8729
B( 14-C , 18-C ) :   1.2021 B( 14-C , 19-H ) :   0.8540 B( 14-C , 20-H ) :   0.1055
B( 14-C , 21-H ) :   0.2105 B( 15-H , 16-H ) :  -0.1210 B( 17-H , 18-C ) :   0.1129
B( 18-C , 19-H ) :   0.1913 B( 18-C , 20-H ) :   0.8495 B( 18-C , 21-H ) :   0.8116
B( 18-C , 22-C ) :   1.2298 B( 18-C , 23-H ) :   0.1125 B( 18-C , 24-H ) :   0.2058
B( 20-H , 22-C ) :   0.1237 B( 22-C , 23-H ) :   0.8517 B( 22-C , 24-H ) :   0.6886
B( 22-C , 25-C ) :   1.1693 B( 23-H , 25-C ) :   0.1635 B( 24-H , 25-C ) :   0.1142
B( 25-C , 26-O ) :   1.0128 B( 25-C , 27-H ) :   1.0078 B( 25-C , 28-H ) :   0.7974
B( 26-O , 30-H ) :   0.4238

Dispersion correction           -0.014836133
FINAL SINGLE POINT ENERGY      -485.135908032303

DIPOLE MOMENT
-------------
                                X             Y             Z
Electronic contribution:      2.82889       0.87888       2.18668
Nuclear contribution   :      0.61785      -1.47632      -2.91844
                        -----------------------------------------
Total Dipole Moment    :      3.44674      -0.59745      -0.73176
                        -----------------------------------------
Magnitude (a.u.)       :      3.57385
Magnitude (Debye)      :      9.08401

Rotational constants in cm-1:     0.040993     0.027400     0.018162
Rotational constants in MHz :  1228.944366   821.418004   544.476857

                             ****ORCA TERMINATED NORMALLY****
TOTAL RUN TIME: 0 days 0 hours 1 minutes 0 seconds 784 msec
