                         Program Version 5.0.0 -  RELEASE  -
|  1> !wB97X-D3 RIJCOSX def2-SVPD def2/J TightSCF CPCM(Water)
|  2> *xyz 0 1
|  3> C          0.69721        3.22791       -0.52513
|  4> F          1.48929        2.37470        0.19919
|  5> H          0.26505        2.70007       -1.34946
|  6> H          1.28994        4.03943       -0.89255
|  7> H         -0.08148        3.61005        0.10138
|  8> *
|  9>
| 10> %MaxCore 64000
| 11> %pal nprocs 8
| 12> end
| 13>
| 14> %scf
| 15>   MaxIter 150
| 16> end
| 17>
| 18>
| 19>                          ****END OF INPUT****

CARTESIAN COORDINATES (ANGSTROEM)
---------------------------------
  C      0.697210    3.227910   -0.525130
  F      1.489290    2.374700    0.199190
  H      0.265050    2.700070   -1.349460
  H      1.289940    4.039430   -0.892550
  H     -0.081480    3.610050    0.101380

 Total Charge           Charge          ....    0
 Multiplicity           Mult            ....    1
 Number of Electrons    NEL             ....   18
 Basis Dimension        Dim             ....   67

ORBITAL ENERGIES
----------------

  NO   OCC          E(Eh)            E(eV)
   0   2.0000     -24.791382      -674.6078
   1   2.0000     -10.350182      -281.6428
   2   2.0000      -1.302315       -35.4378
   3   2.0000      -0.808088       -21.9892
   4   2.0000      -0.601374       -16.3642
   5   2.0000      -0.592851       -16.1323
   6   2.0000      -0.592835       -16.1319
   7   2.0000      -0.448833       -12.2134
   8   2.0000      -0.448820       -12.2130
   9   0.0000       0.102580         2.7913
  10   0.0000       0.148818         4.0495
  11   0.0000       0.183848         5.0028
  12   0.0000       0.183859         5.0031
  13   0.0000       0.211647         5.7592

MULLIKEN ATOMIC CHARGES
-----------------------
   0 C :    0.734121
   1 F :   -0.521315
   2 H :   -0.071345
   3 H :   -0.070766
   4 H :   -0.070694
Sum of atomic charges:   -0.0000000

LOEWDIN ATOMIC CHARGES
----------------------
   0 C :    0.276445
   1 F :   -0.281977
   2 H :    0.001835
   3 H :    0.001856
   4 H :    0.001841

  Mayer bond orders larger than 0.100000
B(  0-C ,  1-F ) :   0.8113 B(  0-C ,  2-H ) :   0.9609 B(  0-C ,  3-H ) :   0.9608
B(  0-C ,  4-H ) :   0.9603

Dispersion correction           -0.000130378
FINAL SINGLE POINT ENERGY      -139.611115668186

DIPOLE MOMENT
-------------
                                X             Y             Z
Electronic contribution:      1.60185      -1.72551       1.46433
Nuclear contribution   :     -2.11402       2.27717      -1.93317
                        -----------------------------------------
Total Dipole Moment    :     -0.51217       0.55166      -0.46884
                        -----------------------------------------
Magnitude (a.u.)       :      0.88682
Magnitude (Debye)      :      2.25413

Rotational constants in cm-1:     5.477728     0.872600     0.872599
Rotational constants in MHz : 164218.159175 26159.886777 26159.859881

                             ****ORCA TERMINATED NORMALLY****
TOTAL RUN TIME: 0 days 0 hours 0 minutes 3 seconds 878 msec
