                         Program Version 5.0.0 -  RELEASE  -
|  1> !wB97X-D3 RIJCOSX def2-SVPD def2/J TightSCF CPCM(Water)
|  2> *xyz 0 1
|  3> C          3.95643        0.50147       -0.37910
|  4> C          3.80389        1.96157       -0.15675
|  5> H          4.20643        2.24441        0.74536
|  6> H          2.80827        2.21132       -0.09610
|  7> H          4.28076        2.50155       -0.89104
|  8> H          3.52890        0.23799       -1.32393
|  9> H          3.45469       -0.03240        0.40073
| 10> H          4.99562        0.24661       -0.37434
| 11> *
| 12>
| 13> %MaxCore 64000
| 14> %pal nprocs 8
| 15> end
| 16>
| 17> %scf
| 18>   MaxIter 150
| 19> end
| 20>
| 21>
| 22>                          ****END OF INPUT****

CARTESIAN COORDINATES (ANGSTROEM)
---------------------------------
  C      3.956430    0.501470   -0.379100
  C      3.803890    1.961570   -0.156750
  H      4.206430    2.244410    0.745360
  H      2.808270    2.211320   -0.096100
  H      4.280760    2.501550   -0.891040
  H      3.528900    0.237990   -1.323930
  H      3.454690   -0.032400    0.400730
  H      4.995620    0.246610   -0.374340

 Total Charge           Charge          ....    0
 Multiplicity           Mult            ....    1
 Number of Electrons    NEL             ....   18
 Basis Dimension        Dim             ....   88

ORBITAL ENERGIES
----------------

  NO   OCC          E(Eh)            E(eV)
   0   2.0000     -10.262026      -279.2439
   1   2.0000     -10.248091      -278.8647
   2   2.0000      -0.875745       -23.8302
   3   2.0000      -0.723472       -19.6867
   4   2.0000      -0.548759       -14.9325
   5   2.0000      -0.542194       -14.7539
   6   2.0000      -0.461749       -12.5648
   7   2.0000      -0.439312       -11.9543
   8   2.0000      -0.432857       -11.7786
   9   0.0000       0.102816         2.7978
  10   0.0000       0.130974         3.5640
  11   0.0000       0.185879         5.0580
  12   0.0000       0.187201         5.0940
  13   0.0000       0.206742         5.6257

MULLIKEN ATOMIC CHARGES
-----------------------
   0 C :    0.132069
   1 C :    0.428286
   2 H :   -0.152062
   3 H :   -0.144783
   4 H :   -0.145383
   5 H :   -0.042342
   6 H :   -0.035539
   7 H :   -0.040246
Sum of atomic charges:    0.0000000

LOEWDIN ATOMIC CHARGES
----------------------
   0 C :    0.068533
   1 C :    0.071732
   2 H :   -0.033854
   3 H :   -0.031663
   4 H :   -0.029868
   5 H :   -0.015186
   6 H :   -0.014438
   7 H :   -0.015255

  Mayer bond orders larger than 0.100000
B(  0-C ,  1-C ) :   1.4400 B(  0-C ,  2-H ) :   0.1487 B(  0-C ,  3-H ) :   0.1554
B(  0-C ,  4-H ) :   0.1534 B(  0-C ,  5-H ) :   0.8822 B(  0-C ,  6-H ) :   0.8828
B(  0-C ,  7-H ) :   0.8862 B(  1-C ,  2-H ) :   0.8094 B(  1-C ,  3-H ) :   0.8142
B(  1-C ,  4-H ) :   0.8233 B(  1-C ,  5-H ) :   0.1356 B(  1-C ,  6-H ) :   0.1364
B(  1-C ,  7-H ) :   0.1340 B(  2-H ,  3-H ) :   0.1089

Dispersion correction           -0.000493281
FINAL SINGLE POINT ENERGY       -79.737257032558

DIPOLE MOMENT
-------------
                                X             Y             Z
Electronic contribution:      0.00120       0.01705      -0.03196
Nuclear contribution   :     -0.00471       0.01526       0.05114
                        -----------------------------------------
Total Dipole Moment    :     -0.00351       0.03231       0.01918
                        -----------------------------------------
Magnitude (a.u.)       :      0.03774
Magnitude (Debye)      :      0.09593

Rotational constants in cm-1:     2.873610     0.717865     0.713933
Rotational constants in MHz : 86148.646881 21521.066032 21403.176468

                             ****ORCA TERMINATED NORMALLY****
TOTAL RUN TIME: 0 days 0 hours 0 minutes 5 seconds 26 msec
