                         Program Version 5.0.0 -  RELEASE  -
|  1> !PBE D3BJ RIJCOSX def2-SVP def2/J TightSCF
|  2>
|  3> *xyz -1 1
|  4> C          2.95263        1.86308       -3.57485
|  5> C          4.12921        0.89839       -3.41895
|  6> H          3.73369       -0.10060       -3.23763
|  7> H          4.71910        0.86256       -4.33901
|  8> C          5.01734        1.31521       -2.22130
|  9> O          4.73706        0.85411       -1.12283
| 10> O          5.92815        2.16811       -2.49136
| 11> H          2.35067        1.56005       -4.40594
| 12> H          3.32277        2.85258       -3.74453
| 13> H          2.36134        1.85149       -2.68315
| 14> *
| 15> %MaxCore 64000
| 16>
| 17> %pal nprocs 4
| 18> end
| 19>
| 20> %scf
| 21>   MaxIter 150
| 22> end
| 23>
| 24>
| 25>                          ****END OF INPUT****

CARTESIAN COORDINATES (ANGSTROEM)
---------------------------------
  C      2.952630    1.863080   -3.574850
  C      4.129210    0.898390   -3.418950
  H      3.733690   -0.100600   -3.237630
  H      4.719100    0.862560   -4.339010
  C      5.017340    1.315210   -2.221300
  O      4.737060    0.854110   -1.122830
  O      5.928150    2.168110   -2.491360
  H      2.350670    1.560050   -4.405940
  H      3.322770    2.852580   -3.744530
  H      2.361340    1.851490   -2.683150

 Total Charge           Charge          ....   -1
 Multiplicity           Mult            ....    1
 Number of Electrons    NEL             ....   40
 Basis Dimension        Dim             ....   95

ORBITAL ENERGIES
----------------

  NO   OCC          E(Eh)            E(eV)
   0   2.0000     -18.462882      -502.4006
   1   2.0000     -18.452027      -502.1052
   2   2.0000      -9.733420      -264.8598
   3   2.0000      -9.722215      -264.5549
   4   2.0000      -9.696708      -263.8608
   5   2.0000      -0.689182       -18.7536
   6   2.0000      -0.595697       -16.2097
   7   2.0000      -0.510455       -13.8902
   8   2.0000      -0.381906       -10.3922
   9   2.0000      -0.243914        -6.6372
  10   2.0000      -0.225536        -6.1371
  11   2.0000      -0.182352        -4.9620
  12   2.0000      -0.161421        -4.3925
  13   2.0000      -0.138749        -3.7756
  14   2.0000      -0.130477        -3.5505
  15   2.0000      -0.096953        -2.6382
  16   2.0000      -0.093725        -2.5504
  17   2.0000       0.028187         0.7670
  18   2.0000       0.041544         1.1305
  19   2.0000       0.059319         1.6142
  20   0.0000       0.197817         5.3829
  21   0.0000       0.244755         6.6601
  22   0.0000       0.255343         6.9482
  23   0.0000       0.259000         7.0477
  24   0.0000       0.273398         7.4395

MULLIKEN ATOMIC CHARGES
-----------------------
   0 C :    0.004670
   1 C :    0.011733
   2 H :   -0.066529
   3 H :   -0.057494
   4 C :   -0.043504
   5 O :   -0.352434
   6 O :   -0.426420
   7 H :   -0.042498
   8 H :   -0.013779
   9 H :   -0.013746
Sum of atomic charges:   -1.0000000

LOEWDIN ATOMIC CHARGES
----------------------
   0 C :   -0.066837
   1 C :   -0.101618
   2 H :   -0.010483
   3 H :   -0.006471
   4 C :   -0.098380
   5 O :   -0.331004
   6 O :   -0.396326
   7 H :   -0.006214
   8 H :    0.008249
   9 H :    0.009083

  Mayer bond orders larger than 0.100000
B(  0-C ,  1-C ) :   1.1250 B(  0-C ,  7-H ) :   0.9618 B(  0-C ,  8-H ) :   0.9587
B(  0-C ,  9-H ) :   0.9611 B(  1-C ,  2-H ) :   0.9145 B(  1-C ,  3-H ) :   0.9209
B(  1-C ,  4-C ) :   0.9010 B(  4-C ,  5-O ) :   1.9027 B(  4-C ,  6-O ) :   1.8215
B(  5-O ,  6-O ) :   0.1434

Dispersion correction           -0.006556637
FINAL SINGLE POINT ENERGY      -267.307403928298

DIPOLE MOMENT
-------------
                                X             Y             Z
Electronic contribution:      4.66031      -0.08771       4.16636
Nuclear contribution   :     -5.85873      -0.10793      -5.24103
                        -----------------------------------------
Total Dipole Moment    :     -1.19842      -0.19564      -1.07467
                        -----------------------------------------
Magnitude (a.u.)       :      1.62154
Magnitude (Debye)      :      4.12163

Rotational constants in cm-1:     0.292505     0.135951     0.110253
Rotational constants in MHz :  8769.065873  4075.717001  3305.311891

                             ****ORCA TERMINATED NORMALLY****
TOTAL RUN TIME: 0 days 0 hours 0 minutes 7 seconds 35 msec
