                         Program Version 5.0.0 -  RELEASE  -
|  1> !PBE D3BJ RIJCOSX def2-SVP def2/J TightSCF
|  2>
|  3> *xyz 1 1
|  4> C          3.34350        3.35457       -3.59200
|  5> C          2.95263        1.86308       -3.57485
|  6> C          4.25587        3.70385       -4.72605
|  7> N          3.73403        4.29378       -5.80077
|  8> N          5.51504        3.40725       -4.63718
|  9> H          6.14919        3.60120       -5.39905
| 10> H          5.81358        2.89950       -3.80879
| 11> H          2.74138        4.51311       -5.82470
| 12> H          4.28755        4.52126       -6.61434
| 13> H          3.86125        3.59725       -2.66298
| 14> H          2.44649        3.97346       -3.65656
| 15> H          2.44395        1.61721       -4.48352
| 16> H          2.30781        1.67290       -2.74242
| 17> H          3.83491        1.26414       -3.48670
| 18> *
| 19> %MaxCore 64000
| 20>
| 21> %pal nprocs 4
| 22> end
| 23>
| 24> %scf
| 25>   MaxIter 150
| 26> end
| 27>
| 28>
| 29>                          ****END OF INPUT****

CARTESIAN COORDINATES (ANGSTROEM)
---------------------------------
  C      3.343500    3.354570   -3.592000
  C      2.952630    1.863080   -3.574850
  C      4.255870    3.703850   -4.726050
  N      3.734030    4.293780   -5.800770
  N      5.515040    3.407250   -4.637180
  H      6.149190    3.601200   -5.399050
  H      5.813580    2.899500   -3.808790
  H      2.741380    4.513110   -5.824700
  H      4.287550    4.521260   -6.614340
  H      3.861250    3.597250   -2.662980
  H      2.446490    3.973460   -3.656560
  H      2.443950    1.617210   -4.483520
  H      2.307810    1.672900   -2.742420
  H      3.834910    1.264140   -3.486700

 Total Charge           Charge          ....    1
 Multiplicity           Mult            ....    1
 Number of Electrons    NEL             ....   40
 Basis Dimension        Dim             ....  115

ORBITAL ENERGIES
----------------

  NO   OCC          E(Eh)            E(eV)
   0   2.0000     -14.246067      -387.6552
   1   2.0000     -14.241776      -387.5384
   2   2.0000     -10.205572      -277.7077
   3   2.0000     -10.092479      -274.6303
   4   2.0000     -10.051709      -273.5209
   5   2.0000      -1.112868       -30.2827
   6   2.0000      -1.023682       -27.8558
   7   2.0000      -0.890416       -24.2294
   8   2.0000      -0.793174       -21.5834
   9   2.0000      -0.754187       -20.5225
  10   2.0000      -0.724749       -19.7214
  11   2.0000      -0.693518       -18.8716
  12   2.0000      -0.653954       -17.7950
  13   2.0000      -0.599904       -16.3242
  14   2.0000      -0.574954       -15.6453
  15   2.0000      -0.565711       -15.3938
  16   2.0000      -0.501837       -13.6557
  17   2.0000      -0.491431       -13.3725
  18   2.0000      -0.483223       -13.1492
  19   2.0000      -0.452528       -12.3139
  20   0.0000      -0.236411        -6.4331
  21   0.0000      -0.169098        -4.6014
  22   0.0000      -0.125254        -3.4083
  23   0.0000      -0.122928        -3.3450
  24   0.0000      -0.099573        -2.7095

MULLIKEN ATOMIC CHARGES
-----------------------
   0 C :   -0.030353
   1 C :    0.008837
   2 C :   -0.122853
   3 N :    0.035824
   4 N :    0.088628
   5 H :    0.168096
   6 H :    0.178972
   7 H :    0.179357
   8 H :    0.163652
   9 H :    0.083379
  10 H :    0.065086
  11 H :    0.052313
  12 H :    0.086002
  13 H :    0.043061
Sum of atomic charges:    1.0000000

LOEWDIN ATOMIC CHARGES
----------------------
   0 C :   -0.037349
   1 C :   -0.026441
   2 C :    0.117193
   3 N :    0.106387
   4 N :    0.128656
   5 H :    0.113038
   6 H :    0.123671
   7 H :    0.121040
   8 H :    0.108134
   9 H :    0.061505
  10 H :    0.056003
  11 H :    0.039286
  12 H :    0.055790
  13 H :    0.033088

  Mayer bond orders larger than 0.100000
B(  0-C ,  1-C ) :   1.0875 B(  0-C ,  2-C ) :   1.0424 B(  0-C ,  9-H ) :   0.9118
B(  0-C , 10-H ) :   0.9129 B(  1-C , 11-H ) :   0.9648 B(  1-C , 12-H ) :   0.9566
B(  1-C , 13-H ) :   0.9672 B(  2-C ,  3-N ) :   1.5039 B(  2-C ,  4-N ) :   1.5425
B(  3-N ,  7-H ) :   0.9178 B(  3-N ,  8-H ) :   0.9292 B(  4-N ,  5-H ) :   0.9244
B(  4-N ,  6-H ) :   0.9117

Dispersion correction           -0.010122729
FINAL SINGLE POINT ENERGY      -228.576241164223

DIPOLE MOMENT
-------------
                                X             Y             Z
Electronic contribution:      2.41225       2.59380      -2.33885
Nuclear contribution   :     -1.74195      -2.09431       1.58516
                        -----------------------------------------
Total Dipole Moment    :      0.67031       0.49950      -0.75369
                        -----------------------------------------
Magnitude (a.u.)       :      1.12555
Magnitude (Debye)      :      2.86092

Rotational constants in cm-1:     0.258965     0.126500     0.098780
Rotational constants in MHz :  7763.584551  3792.383135  2961.336502

                             ****ORCA TERMINATED NORMALLY****
TOTAL RUN TIME: 0 days 0 hours 0 minutes 8 seconds 134 msec
