                         Program Version 5.0.0 -  RELEASE  -
|  1> !PBE D3BJ RIJCOSX def2-TZVP def2/J TightSCF xyzfile
|  2>
|  3> *xyzfile 0 1 B.xyz
|  4>
|  5> %MaxCore 64000
|  6>
|  7> %pal nprocs 18
|  8> end
|  9>
| 10> %scf
| 11>   MaxIter 150
| 12> end
| 13>
| 14>
| 15>                          ****END OF INPUT****

CARTESIAN COORDINATES (ANGSTROEM)
---------------------------------
  C      3.343500    3.354571   -3.591998
  C      2.952633    1.863077   -3.574849
  C      4.129209    0.898394   -3.418950
  H      3.733687   -0.100605   -3.237633
  H      4.719095    0.862556   -4.339005
  C      5.017344    1.315212   -2.221305
  C      4.255868    3.703851   -4.726054
  N      3.734032    4.293783   -5.800770
  N      5.515039    3.407255   -4.637185
  H      6.149187    3.601203   -5.399053
  H      5.813584    2.899504   -3.808785
  H      2.741380    4.513109   -5.824701
  H      4.287548    4.521260   -6.614341
  H      2.278938    1.735250   -2.725496
  H      2.377466    1.625787   -4.475869
  O      4.737055    0.854112   -1.122825
  O      5.928146    2.168108   -2.491365
  H      3.861246    3.597252   -2.662979
  H      2.446493    3.973461   -3.656556

 Total Charge           Charge          ....    0
 Multiplicity           Mult            ....    1
 Number of Electrons    NEL             ....   70
 Basis Dimension        Dim             ....  339

ORBITAL ENERGIES
----------------

  NO   OCC          E(Eh)            E(eV)
   0   2.0000     -18.659297      -507.7453
   1   2.0000     -18.643187      -507.3069
   2   2.0000     -14.078650      -383.0995
   3   2.0000     -14.038905      -382.0180
   4   2.0000     -10.030245      -272.9368
   5   2.0000      -9.922787      -270.0128
   6   2.0000      -9.915820      -269.8232
   7   2.0000      -9.898748      -269.3586
   8   2.0000      -9.857026      -268.2233
   9   2.0000      -0.959146       -26.0997
  10   2.0000      -0.902341       -24.5539
  11   2.0000      -0.869740       -23.6668
  12   2.0000      -0.817976       -22.2583
  13   2.0000      -0.748352       -20.3637
  14   2.0000      -0.668194       -18.1825
  15   2.0000      -0.614779       -16.7290
  16   2.0000      -0.571639       -15.5551
  17   2.0000      -0.564718       -15.3668
  18   2.0000      -0.528923       -14.3927
  19   2.0000      -0.490034       -13.3345
  20   2.0000      -0.449728       -12.2377
  21   2.0000      -0.431561       -11.7434
  22   2.0000      -0.413054       -11.2398
  23   2.0000      -0.395402       -10.7594
  24   2.0000      -0.375599       -10.2206
  25   2.0000      -0.347921        -9.4674
  26   2.0000      -0.332960        -9.0603
  27   2.0000      -0.322409        -8.7732
  28   2.0000      -0.317745        -8.6463
  29   2.0000      -0.295134        -8.0310
  30   2.0000      -0.286300        -7.7906
  31   2.0000      -0.283043        -7.7020
  32   2.0000      -0.179580        -4.8866
  33   2.0000      -0.167203        -4.5498
  34   2.0000      -0.143737        -3.9113
  35   0.0000      -0.081435        -2.2160
  36   0.0000      -0.048810        -1.3282
  37   0.0000      -0.009969        -0.2713
  38   0.0000       0.012453         0.3389
  39   0.0000       0.029635         0.8064

MULLIKEN ATOMIC CHARGES
-----------------------
   0 C :   -0.232486
   1 C :   -0.164399
   2 C :   -0.227854
   3 H :    0.095302
   4 H :    0.075932
   5 C :    0.194225
   6 C :    0.217062
   7 N :   -0.338329
   8 N :   -0.256448
   9 H :    0.209379
  10 H :    0.270750
  11 H :    0.256331
  12 H :    0.238266
  13 H :    0.116133
  14 H :    0.081730
  15 O :   -0.351751
  16 O :   -0.466201
  17 H :    0.182050
  18 H :    0.100309
Sum of atomic charges:    0.0000000

LOEWDIN ATOMIC CHARGES
----------------------
   0 C :   -0.209101
   1 C :   -0.253115
   2 C :   -0.260198
   3 H :    0.143321
   4 H :    0.126203
   5 C :   -0.690414
   6 C :   -0.328240
   7 N :    0.065882
   8 N :    0.143426
   9 H :    0.171985
  10 H :    0.132694
  11 H :    0.189236
  12 H :    0.175722
  13 H :    0.153042
  14 H :    0.132185
  15 O :    0.036597
  16 O :   -0.049471
  17 H :    0.175060
  18 H :    0.145187

  Mayer bond orders larger than 0.100000
B(  0-C ,  1-C ) :   0.9843 B(  0-C ,  6-C ) :   1.0132 B(  0-C , 17-H ) :   0.9218
B(  0-C , 18-H ) :   0.9418 B(  1-C ,  2-C ) :   1.0446 B(  1-C , 13-H ) :   0.9309
B(  1-C , 14-H ) :   0.9386 B(  2-C ,  3-H ) :   0.9393 B(  2-C ,  4-H ) :   0.9263
B(  2-C ,  5-C ) :   0.9377 B(  5-C , 15-O ) :   2.0301 B(  5-C , 16-O ) :   1.5219
B(  6-C ,  7-N ) :   1.3576 B(  6-C ,  8-N ) :   1.6267 B(  7-N , 11-H ) :   0.8946
B(  7-N , 12-H ) :   0.8996 B(  8-N ,  9-H ) :   0.8992 B(  8-N , 10-H ) :   0.6869
B( 10-H , 16-O ) :   0.3179

Dispersion correction           -0.018873300
FINAL SINGLE POINT ENERGY      -456.170663126368

DIPOLE MOMENT
-------------
                                X             Y             Z
Electronic contribution:      3.99477      -0.03297       2.78080
Nuclear contribution   :     -5.42217       2.65262      -7.07590
                        -----------------------------------------
Total Dipole Moment    :     -1.42740       2.61965      -4.29511
                        -----------------------------------------
Magnitude (a.u.)       :      5.22953
Magnitude (Debye)      :     13.29241

Rotational constants in cm-1:     0.107541     0.035862     0.030371
Rotational constants in MHz :  3223.996852  1075.120464   910.508313

                             ****ORCA TERMINATED NORMALLY****
TOTAL RUN TIME: 0 days 0 hours 0 minutes 10 seconds 314 msec
