                         Program Version 5.0.0 -  RELEASE  -
|  1> !PBE D3BJ RIJCOSX def2-SVP def2/J TightSCF
|  2>
|  3> *xyz 0 1
|  4> C          2.95263        1.86308       -3.57485
|  5> C          4.12921        0.89839       -3.41895
|  6> H          3.73369       -0.10060       -3.23763
|  7> H          4.71910        0.86256       -4.33901
|  8> C          5.01734        1.31521       -2.22130
|  9> F          4.73706        0.85411       -1.12283
| 10> O          5.92815        2.16811       -2.49136
| 11> H          2.35067        1.56005       -4.40594
| 12> H          3.32277        2.85258       -3.74453
| 13> H          2.36134        1.85149       -2.68315
| 14> *
| 15> %MaxCore 64000
| 16>
| 17> %pal nprocs 4
| 18> end
| 19>
| 20> %scf
| 21>   MaxIter 150
| 22> end
| 23>
| 24>
| 25>                          ****END OF INPUT****

CARTESIAN COORDINATES (ANGSTROEM)
---------------------------------
  C      2.952630    1.863080   -3.574850
  C      4.129210    0.898390   -3.418950
  H      3.733690   -0.100600   -3.237630
  H      4.719100    0.862560   -4.339010
  C      5.017340    1.315210   -2.221300
  F      4.737060    0.854110   -1.122830
  O      5.928150    2.168110   -2.491360
  H      2.350670    1.560050   -4.405940
  H      3.322770    2.852580   -3.744530
  H      2.361340    1.851490   -2.683150

 Total Charge           Charge          ....    0
 Multiplicity           Mult            ....    1
 Number of Electrons    NEL             ....   40
 Basis Dimension        Dim             ....   95

ORBITAL ENERGIES
----------------

  NO   OCC          E(Eh)            E(eV)
   0   2.0000     -24.338313      -662.2792
   1   2.0000     -18.749399      -510.1971
   2   2.0000     -10.052884      -273.5529
   3   2.0000      -9.917737      -269.8754
   4   2.0000      -9.900886      -269.4168
   5   2.0000      -1.214772       -33.0556
   6   2.0000      -0.911483       -24.8027
   7   2.0000      -0.716547       -19.4982
   8   2.0000      -0.612405       -16.6644
   9   2.0000      -0.573331       -15.6011
  10   2.0000      -0.493313       -13.4237
  11   2.0000      -0.476877       -12.9765
  12   2.0000      -0.438071       -11.9205
  13   2.0000      -0.408607       -11.1188
  14   2.0000      -0.377158       -10.2630
  15   2.0000      -0.349660        -9.5147
  16   2.0000      -0.324918        -8.8415
  17   2.0000      -0.319015        -8.6808
  18   2.0000      -0.293478        -7.9860
  19   2.0000      -0.223095        -6.0707
  20   0.0000      -0.055335        -1.5057
  21   0.0000       0.040335         1.0976
  22   0.0000       0.084892         2.3100
  23   0.0000       0.086044         2.3414
  24   0.0000       0.109297         2.9741

MULLIKEN ATOMIC CHARGES
-----------------------
   0 C :   -0.021267
   1 C :   -0.070615
   2 H :    0.022464
   3 H :    0.053781
   4 C :    0.157642
   5 F :    0.003533
   6 O :   -0.248522
   7 H :    0.034987
   8 H :    0.042069
   9 H :    0.025929
Sum of atomic charges:    0.0000000

LOEWDIN ATOMIC CHARGES
----------------------
   0 C :   -0.046566
   1 C :   -0.076368
   2 H :    0.026745
   3 H :    0.045380
   4 C :    0.051206
   5 F :    0.106518
   6 O :   -0.194554
   7 H :    0.031074
   8 H :    0.030890
   9 H :    0.025675

  Mayer bond orders larger than 0.100000
B(  0-C ,  1-C ) :   1.1018 B(  0-C ,  7-H ) :   0.9643 B(  0-C ,  8-H ) :   0.9681
B(  0-C ,  9-H ) :   0.9699 B(  1-C ,  2-H ) :   0.9234 B(  1-C ,  3-H ) :   0.9368
B(  1-C ,  4-C ) :   0.9999 B(  4-C ,  5-F ) :   1.2655 B(  4-C ,  6-O ) :   2.0500

Dispersion correction           -0.006212636
FINAL SINGLE POINT ENERGY      -291.838843823640

DIPOLE MOMENT
-------------
                                X             Y             Z
Electronic contribution:      5.17498      -1.10276       6.62051
Nuclear contribution   :     -6.06116       0.51860      -6.80802
                        -----------------------------------------
Total Dipole Moment    :     -0.88618      -0.58416      -0.18751
                        -----------------------------------------
Magnitude (a.u.)       :      1.07783
Magnitude (Debye)      :      2.73961

Rotational constants in cm-1:     0.276196     0.132056     0.105465
Rotational constants in MHz :  8280.156449  3958.940601  3161.775929

                             ****ORCA TERMINATED NORMALLY****
TOTAL RUN TIME: 0 days 0 hours 0 minutes 6 seconds 365 msec
