                         Program Version 5.0.0 -  RELEASE  -
|  1> !PBE D3BJ RIJCOSX def2-SVP def2/J TightSCF
|  2>
|  3> *xyz 0 1
|  4> C          3.34350        3.35457       -3.59200
|  5> C          2.95263        1.86308       -3.57485
|  6> C          4.25587        3.70385       -4.72605
|  7> C          3.73403        4.29378       -5.80077
|  8> N          5.51504        3.40725       -4.63718
|  9> H          6.14919        3.60120       -5.39905
| 10> H          5.81358        2.89950       -3.80879
| 11> H          2.74138        4.51311       -5.82470
| 12> H          4.28755        4.52126       -6.61434
| 13> H          3.86125        3.59725       -2.66298
| 14> H          2.44649        3.97346       -3.65656
| 15> H          2.44395        1.61721       -4.48352
| 16> H          2.30781        1.67290       -2.74242
| 17> H          3.83491        1.26414       -3.48670
| 18> *
| 19> %MaxCore 64000
| 20>
| 21> %pal nprocs 4
| 22> end
| 23>
| 24> %scf
| 25>   MaxIter 150
| 26> end
| 27>
| 28>
| 29>                          ****END OF INPUT****

CARTESIAN COORDINATES (ANGSTROEM)
---------------------------------
  C      3.343500    3.354570   -3.592000
  C      2.952630    1.863080   -3.574850
  C      4.255870    3.703850   -4.726050
  C      3.734030    4.293780   -5.800770
  N      5.515040    3.407250   -4.637180
  H      6.149190    3.601200   -5.399050
  H      5.813580    2.899500   -3.808790
  H      2.741380    4.513110   -5.824700
  H      4.287550    4.521260   -6.614340
  H      3.861250    3.597250   -2.662980
  H      2.446490    3.973460   -3.656560
  H      2.443950    1.617210   -4.483520
  H      2.307810    1.672900   -2.742420
  H      3.834910    1.264140   -3.486700

 Total Charge           Charge          ....    0
 Multiplicity           Mult            ....    1
 Number of Electrons    NEL             ....   40
 Basis Dimension        Dim             ....  115

ORBITAL ENERGIES
----------------

  NO   OCC          E(Eh)            E(eV)
   0   2.0000     -13.996868      -380.8741
   1   2.0000      -9.903187      -269.4794
   2   2.0000      -9.890706      -269.1398
   3   2.0000      -9.880482      -268.8616
   4   2.0000      -9.821588      -267.2590
   5   2.0000      -0.841958       -22.9109
   6   2.0000      -0.694831       -18.9073
   7   2.0000      -0.631462       -17.1830
   8   2.0000      -0.563344       -15.3294
   9   2.0000      -0.506352       -13.7785
  10   2.0000      -0.474250       -12.9050
  11   2.0000      -0.421371       -11.4661
  12   2.0000      -0.385898       -10.5008
  13   2.0000      -0.368196       -10.0191
  14   2.0000      -0.341005        -9.2792
  15   2.0000      -0.330562        -8.9951
  16   2.0000      -0.306429        -8.3383
  17   2.0000      -0.286063        -7.7842
  18   2.0000      -0.282484        -7.6868
  19   2.0000      -0.146822        -3.9952
  20   0.0000       0.021806         0.5934
  21   0.0000       0.036353         0.9892
  22   0.0000       0.070415         1.9161
  23   0.0000       0.080410         2.1881
  24   0.0000       0.095565         2.6005

MULLIKEN ATOMIC CHARGES
-----------------------
   0 C :    0.020530
   1 C :    0.023522
   2 C :   -0.186005
   3 C :   -0.024477
   4 N :    0.003683
   5 H :    0.108395
   6 H :    0.101860
   7 H :   -0.042944
   8 H :   -0.059525
   9 H :   -0.000537
  10 H :    0.015012
  11 H :    0.019622
  12 H :    0.018775
  13 H :    0.002089
Sum of atomic charges:   -0.0000000

LOEWDIN ATOMIC CHARGES
----------------------
   0 C :   -0.033663
   1 C :   -0.052256
   2 C :   -0.019210
   3 C :   -0.180290
   4 N :    0.024518
   5 H :    0.077930
   6 H :    0.071574
   7 H :   -0.000176
   8 H :   -0.010256
   9 H :    0.019357
  10 H :    0.036055
  11 H :    0.026353
  12 H :    0.023598
  13 H :    0.016468

  Mayer bond orders larger than 0.100000
B(  0-C ,  1-C ) :   1.1056 B(  0-C ,  2-C ) :   1.0452 B(  0-C ,  9-H ) :   0.9168
B(  0-C , 10-H ) :   0.9217 B(  1-C , 11-H ) :   0.9651 B(  1-C , 12-H ) :   0.9624
B(  1-C , 13-H ) :   0.9658 B(  2-C ,  3-C ) :   1.8280 B(  2-C ,  4-N ) :   1.3182
B(  3-C ,  7-H ) :   0.9260 B(  3-C ,  8-H ) :   0.9404 B(  4-N ,  5-H ) :   0.9400
B(  4-N ,  6-H ) :   0.9403

Dispersion correction           -0.010495245
FINAL SINGLE POINT ENERGY      -212.119023951822

DIPOLE MOMENT
-------------
                                X             Y             Z
Electronic contribution:      2.43079       1.45983      -0.85300
Nuclear contribution   :     -1.79713      -1.86925       1.28073
                        -----------------------------------------
Total Dipole Moment    :      0.63366      -0.40941       0.42773
                        -----------------------------------------
Magnitude (a.u.)       :      0.86724
Magnitude (Debye)      :      2.20434

Rotational constants in cm-1:     0.269040     0.129645     0.102087
Rotational constants in MHz :  8065.609820  3886.645139  3060.489045

                             ****ORCA TERMINATED NORMALLY****
TOTAL RUN TIME: 0 days 0 hours 0 minutes 7 seconds 207 msec
