                         Program Version 5.0.0 -  RELEASE  -
|  1> !PBE D3BJ RIJCOSX def2-SVP def2/J TightSCF
|  2>
|  3> *xyz 0 1
|  4> C          2.95263        1.86308       -3.57485
|  5> C          4.12921        0.89839       -3.41895
|  6> H          3.73369       -0.10060       -3.23763
|  7> H          4.71910        0.86256       -4.33901
|  8> C          5.01734        1.31521       -2.22130
|  9> O          4.73706        0.85411       -1.12283
| 10> F          5.92815        2.16811       -2.49136
| 11> H          2.35067        1.56005       -4.40594
| 12> H          3.32277        2.85258       -3.74453
| 13> H          2.36134        1.85149       -2.68315
| 14> *
| 15> %MaxCore 64000
| 16>
| 17> %pal nprocs 4
| 18> end
| 19>
| 20> %scf
| 21>   MaxIter 150
| 22> end
| 23>
| 24>
| 25>                          ****END OF INPUT****

CARTESIAN COORDINATES (ANGSTROEM)
---------------------------------
  C      2.952630    1.863080   -3.574850
  C      4.129210    0.898390   -3.418950
  H      3.733690   -0.100600   -3.237630
  H      4.719100    0.862560   -4.339010
  C      5.017340    1.315210   -2.221300
  O      4.737060    0.854110   -1.122830
  F      5.928150    2.168110   -2.491360
  H      2.350670    1.560050   -4.405940
  H      3.322770    2.852580   -3.744530
  H      2.361340    1.851490   -2.683150

 Total Charge           Charge          ....    0
 Multiplicity           Mult            ....    1
 Number of Electrons    NEL             ....   40
 Basis Dimension        Dim             ....   95

ORBITAL ENERGIES
----------------

  NO   OCC          E(Eh)            E(eV)
   0   2.0000     -24.317390      -661.7098
   1   2.0000     -18.759227      -510.4645
   2   2.0000     -10.049517      -273.4613
   3   2.0000      -9.917573      -269.8709
   4   2.0000      -9.901446      -269.4320
   5   2.0000      -1.174459       -31.9587
   6   2.0000      -0.944198       -25.6929
   7   2.0000      -0.716708       -19.5026
   8   2.0000      -0.603206       -16.4141
   9   2.0000      -0.560201       -15.2438
  10   2.0000      -0.475684       -12.9440
  11   2.0000      -0.459120       -12.4933
  12   2.0000      -0.435685       -11.8556
  13   2.0000      -0.406264       -11.0550
  14   2.0000      -0.379345       -10.3225
  15   2.0000      -0.351163        -9.5556
  16   2.0000      -0.330899        -9.0042
  17   2.0000      -0.320656        -8.7255
  18   2.0000      -0.309816        -8.4305
  19   2.0000      -0.236386        -6.4324
  20   0.0000      -0.050764        -1.3813
  21   0.0000       0.040212         1.0942
  22   0.0000       0.083230         2.2648
  23   0.0000       0.087313         2.3759
  24   0.0000       0.108362         2.9487

MULLIKEN ATOMIC CHARGES
-----------------------
   0 C :   -0.023914
   1 C :   -0.072330
   2 H :    0.047638
   3 H :    0.030650
   4 C :    0.163993
   5 O :   -0.186472
   6 F :   -0.064450
   7 H :    0.035540
   8 H :    0.028896
   9 H :    0.040448
Sum of atomic charges:    0.0000000

LOEWDIN ATOMIC CHARGES
----------------------
   0 C :   -0.046800
   1 C :   -0.076830
   2 H :    0.042798
   3 H :    0.030683
   4 C :    0.060575
   5 O :   -0.138455
   6 F :    0.039852
   7 H :    0.031311
   8 H :    0.026047
   9 H :    0.030819

  Mayer bond orders larger than 0.100000
B(  0-C ,  1-C ) :   1.1022 B(  0-C ,  7-H ) :   0.9646 B(  0-C ,  8-H ) :   0.9705
B(  0-C ,  9-H ) :   0.9683 B(  1-C ,  2-H ) :   0.9367 B(  1-C ,  3-H ) :   0.9259
B(  1-C ,  4-C ) :   0.9983 B(  4-C ,  5-O ) :   2.1254 B(  4-C ,  6-F ) :   1.1935

Dispersion correction           -0.006212327
FINAL SINGLE POINT ENERGY      -291.854608039143

DIPOLE MOMENT
-------------
                                X             Y             Z
Electronic contribution:      7.10787       1.03736       4.37530
Nuclear contribution   :     -7.35982      -0.91407      -5.31589
                        -----------------------------------------
Total Dipole Moment    :     -0.25194       0.12329      -0.94059
                        -----------------------------------------
Magnitude (a.u.)       :      0.98152
Magnitude (Debye)      :      2.49484

Rotational constants in cm-1:     0.275433     0.132201     0.105422
Rotational constants in MHz :  8257.268192  3963.279062  3160.465566

                             ****ORCA TERMINATED NORMALLY****
TOTAL RUN TIME: 0 days 0 hours 0 minutes 7 seconds 200 msec
