                         Program Version 5.0.0 -  RELEASE  -
|  1> !PBE D3BJ RIJCOSX def2-SVP def2/J TightSCF
|  2>
|  3> *xyz 0 1
|  4> C          3.34350        3.35457       -3.59200
|  5> C          2.95263        1.86308       -3.57485
|  6> C          4.25587        3.70385       -4.72605
|  7> N          3.73403        4.29378       -5.80077
|  8> C          5.51504        3.40725       -4.63718
|  9> H          6.14919        3.60120       -5.39905
| 10> H          5.81358        2.89950       -3.80879
| 11> H          2.74138        4.51311       -5.82470
| 12> H          4.28755        4.52126       -6.61434
| 13> H          3.86125        3.59725       -2.66298
| 14> H          2.44649        3.97346       -3.65656
| 15> H          2.44395        1.61721       -4.48352
| 16> H          2.30781        1.67290       -2.74242
| 17> H          3.83491        1.26414       -3.48670
| 18> *
| 19> %MaxCore 64000
| 20>
| 21> %pal nprocs 4
| 22> end
| 23>
| 24> %scf
| 25>   MaxIter 150
| 26> end
| 27>
| 28>
| 29>                          ****END OF INPUT****

CARTESIAN COORDINATES (ANGSTROEM)
---------------------------------
  C      3.343500    3.354570   -3.592000
  C      2.952630    1.863080   -3.574850
  C      4.255870    3.703850   -4.726050
  N      3.734030    4.293780   -5.800770
  C      5.515040    3.407250   -4.637180
  H      6.149190    3.601200   -5.399050
  H      5.813580    2.899500   -3.808790
  H      2.741380    4.513110   -5.824700
  H      4.287550    4.521260   -6.614340
  H      3.861250    3.597250   -2.662980
  H      2.446490    3.973460   -3.656560
  H      2.443950    1.617210   -4.483520
  H      2.307810    1.672900   -2.742420
  H      3.834910    1.264140   -3.486700

 Total Charge           Charge          ....    0
 Multiplicity           Mult            ....    1
 Number of Electrons    NEL             ....   40
 Basis Dimension        Dim             ....  115

ORBITAL ENERGIES
----------------

  NO   OCC          E(Eh)            E(eV)
   0   2.0000     -13.992422      -380.7532
   1   2.0000      -9.901087      -269.4223
   2   2.0000      -9.890453      -269.1329
   3   2.0000      -9.878189      -268.7992
   4   2.0000      -9.819968      -267.2149
   5   2.0000      -0.827513       -22.5178
   6   2.0000      -0.696820       -18.9614
   7   2.0000      -0.634939       -17.2776
   8   2.0000      -0.564165       -15.3517
   9   2.0000      -0.500308       -13.6141
  10   2.0000      -0.462887       -12.5958
  11   2.0000      -0.424465       -11.5503
  12   2.0000      -0.387095       -10.5334
  13   2.0000      -0.360972        -9.8225
  14   2.0000      -0.341067        -9.2809
  15   2.0000      -0.332687        -9.0529
  16   2.0000      -0.302131        -8.2214
  17   2.0000      -0.290127        -7.8948
  18   2.0000      -0.277727        -7.5573
  19   2.0000      -0.149908        -4.0792
  20   0.0000       0.024975         0.6796
  21   0.0000       0.038086         1.0364
  22   0.0000       0.072151         1.9633
  23   0.0000       0.077145         2.0992
  24   0.0000       0.099266         2.7012

MULLIKEN ATOMIC CHARGES
-----------------------
   0 C :    0.021355
   1 C :    0.021041
   2 C :   -0.147601
   3 N :   -0.049157
   4 C :   -0.007048
   5 H :   -0.059281
   6 H :   -0.043100
   7 H :    0.100358
   8 H :    0.102944
   9 H :    0.024427
  10 H :   -0.011229
  11 H :    0.011591
  12 H :    0.015387
  13 H :    0.020312
Sum of atomic charges:    0.0000000

LOEWDIN ATOMIC CHARGES
----------------------
   0 C :   -0.034092
   1 C :   -0.048876
   2 C :   -0.011284
   3 N :    0.002677
   4 C :   -0.167417
   5 H :   -0.006374
   6 H :    0.002408
   7 H :    0.068115
   8 H :    0.072363
   9 H :    0.036454
  10 H :    0.017796
  11 H :    0.021721
  12 H :    0.021597
  13 H :    0.024912

  Mayer bond orders larger than 0.100000
B(  0-C ,  1-C ) :   1.1119 B(  0-C ,  2-C ) :   1.0285 B(  0-C ,  9-H ) :   0.9251
B(  0-C , 10-H ) :   0.9194 B(  1-C , 11-H ) :   0.9646 B(  1-C , 12-H ) :   0.9617
B(  1-C , 13-H ) :   0.9686 B(  2-C ,  3-N ) :   1.2757 B(  2-C ,  4-C ) :   1.8702
B(  3-N ,  7-H ) :   0.9453 B(  3-N ,  8-H ) :   0.9464 B(  4-C ,  5-H ) :   0.9376
B(  4-C ,  6-H ) :   0.9165

Dispersion correction           -0.010504787
FINAL SINGLE POINT ENERGY      -212.118288803525

DIPOLE MOMENT
-------------
                                X             Y             Z
Electronic contribution:      0.73209       2.32255      -1.94408
Nuclear contribution   :     -1.38463      -2.07457       1.55023
                        -----------------------------------------
Total Dipole Moment    :     -0.65254       0.24797      -0.39384
                        -----------------------------------------
Magnitude (a.u.)       :      0.80151
Magnitude (Debye)      :      2.03727

Rotational constants in cm-1:     0.272312     0.128195     0.101724
Rotational constants in MHz :  8163.717141  3843.180148  3049.598073

                             ****ORCA TERMINATED NORMALLY****
TOTAL RUN TIME: 0 days 0 hours 0 minutes 7 seconds 692 msec
