                         Program Version 5.0.0 -  RELEASE  -
|  1> !PBE D3BJ RIJCOSX def2-TZVP def2/J TightSCF xyzfile
|  2>
|  3> *xyzfile 0 1 D2.xyz
|  4>
|  5> %MaxCore 64000
|  6>
|  7> %pal nprocs 18
|  8> end
|  9>
| 10> %scf
| 11>   MaxIter 150
| 12> end
| 13>
| 14>
| 15>                          ****END OF INPUT****

CARTESIAN COORDINATES (ANGSTROEM)
---------------------------------
  C      3.343500    3.354571   -3.591998
  C      2.952633    1.863077   -3.574849
  C      4.129209    0.898394   -3.418950
  H      3.733687   -0.100605   -3.237633
  H      4.719095    0.862556   -4.339005
  C      5.017344    1.315212   -2.221305
  C      4.255868    3.703851   -4.726054
  N      3.734032    4.293783   -5.800770
  C      5.515039    3.407255   -4.637185
  H      6.149187    3.601203   -5.399053
  H      5.813584    2.899504   -3.808785
  H      2.741380    4.513109   -5.824701
  H      4.287548    4.521260   -6.614341
  H      2.278938    1.735250   -2.725496
  H      2.377466    1.625787   -4.475869
  F      4.737055    0.854112   -1.122825
  O      5.928146    2.168108   -2.491365
  H      3.861246    3.597252   -2.662979
  H      2.446493    3.973461   -3.656556

 Total Charge           Charge          ....    0
 Multiplicity           Mult            ....    1
 Number of Electrons    NEL             ....   70
 Basis Dimension        Dim             ....  339

ORBITAL ENERGIES
----------------

  NO   OCC          E(Eh)            E(eV)
   0   2.0000     -24.340217      -662.3310
   1   2.0000     -18.751274      -510.2481
   2   2.0000     -13.974180      -380.2568
   3   2.0000     -10.053343      -273.5654
   4   2.0000      -9.905289      -269.5366
   5   2.0000      -9.899119      -269.3687
   6   2.0000      -9.881806      -268.8976
   7   2.0000      -9.881574      -268.8913
   8   2.0000      -9.778824      -266.0953
   9   2.0000      -1.241352       -33.7789
  10   2.0000      -0.943953       -25.6863
  11   2.0000      -0.834422       -22.7058
  12   2.0000      -0.741656       -20.1815
  13   2.0000      -0.677379       -18.4324
  14   2.0000      -0.631491       -17.1837
  15   2.0000      -0.610814       -16.6211
  16   2.0000      -0.557911       -15.1815
  17   2.0000      -0.512882       -13.9562
  18   2.0000      -0.500628       -13.6228
  19   2.0000      -0.482737       -13.1359
  20   2.0000      -0.473700       -12.8900
  21   2.0000      -0.444840       -12.1047
  22   2.0000      -0.426460       -11.6046
  23   2.0000      -0.413687       -11.2570
  24   2.0000      -0.395682       -10.7671
  25   2.0000      -0.364982        -9.9317
  26   2.0000      -0.344635        -9.3780
  27   2.0000      -0.343788        -9.3550
  28   2.0000      -0.318530        -8.6676
  29   2.0000      -0.310494        -8.4490
  30   2.0000      -0.303713        -8.2644
  31   2.0000      -0.282173        -7.6783
  32   2.0000      -0.275323        -7.4919
  33   2.0000      -0.219558        -5.9745
  34   2.0000      -0.147130        -4.0036
  35   0.0000      -0.071444        -1.9441
  36   0.0000       0.004715         0.1283
  37   0.0000       0.023596         0.6421
  38   0.0000       0.033312         0.9065
  39   0.0000       0.047997         1.3061

MULLIKEN ATOMIC CHARGES
-----------------------
   0 C :   -0.230956
   1 C :   -0.178043
   2 C :   -0.232818
   3 H :    0.107218
   4 H :    0.147154
   5 C :    0.285532
   6 C :    0.192033
   7 N :   -0.422558
   8 C :   -0.473238
   9 H :    0.063413
  10 H :    0.192626
  11 H :    0.205881
  12 H :    0.213734
  13 H :    0.103894
  14 H :    0.101199
  15 F :   -0.027757
  16 O :   -0.267734
  17 H :    0.137597
  18 H :    0.082824
Sum of atomic charges:    0.0000000

LOEWDIN ATOMIC CHARGES
----------------------
   0 C :   -0.218386
   1 C :   -0.252320
   2 C :   -0.238816
   3 H :    0.141876
   4 H :    0.158311
   5 C :   -0.530420
   6 C :   -0.385959
   7 N :   -0.004932
   8 C :   -0.257004
   9 H :    0.095372
  10 H :    0.088041
  11 H :    0.160970
  12 H :    0.164619
  13 H :    0.139866
  14 H :    0.143201
  15 F :    0.400883
  16 O :    0.102199
  17 H :    0.154842
  18 H :    0.137659

  Mayer bond orders larger than 0.100000
B(  0-C ,  1-C ) :   0.9866 B(  0-C ,  6-C ) :   0.9816 B(  0-C , 17-H ) :   0.9695
B(  0-C , 18-H ) :   0.9442 B(  1-C ,  2-C ) :   1.0125 B(  1-C , 13-H ) :   0.9507
B(  1-C , 14-H ) :   0.9378 B(  2-C ,  3-H ) :   0.9343 B(  2-C ,  4-H ) :   0.9305
B(  2-C ,  5-C ) :   1.0127 B(  5-C , 15-F ) :   1.2320 B(  5-C , 16-O ) :   1.9616
B(  6-C ,  7-N ) :   1.1549 B(  6-C ,  8-C ) :   1.7424 B(  7-N , 11-H ) :   0.9201
B(  7-N , 12-H ) :   0.9153 B(  8-C ,  9-H ) :   0.9685 B(  8-C , 10-H ) :   0.9274
B( 10-H , 16-O ) :   0.1226

Dispersion correction           -0.018966248
FINAL SINGLE POINT ENERGY      -464.051951698319

DIPOLE MOMENT
-------------
                                X             Y             Z
Electronic contribution:      4.32402      -5.06156       9.54346
Nuclear contribution   :     -5.64491       4.57111      -9.93176
                        -----------------------------------------
Total Dipole Moment    :     -1.32089      -0.49045      -0.38830
                        -----------------------------------------
Magnitude (a.u.)       :      1.46153
Magnitude (Debye)      :      3.71490

Rotational constants in cm-1:     0.109825     0.034347     0.029470
Rotational constants in MHz :  3292.465653  1029.684117   883.494260

                             ****ORCA TERMINATED NORMALLY****
TOTAL RUN TIME: 0 days 0 hours 0 minutes 10 seconds 206 msec
