                         Program Version 5.0.0 -  RELEASE  -
|  1> !PBE D3BJ RIJCOSX def2-TZVP def2/J TightSCF xyzfile
|  2>
|  3> *xyzfile 0 1 D3.xyz
|  4>
|  5> %MaxCore 64000
|  6>
|  7> %pal nprocs 18
|  8> end
|  9>
| 10> %scf
| 11>   MaxIter 150
| 12> end
| 13>
| 14>
| 15>                          ****END OF INPUT****

CARTESIAN COORDINATES (ANGSTROEM)
---------------------------------
  C      3.343500    3.354571   -3.591998
  C      2.952633    1.863077   -3.574849
  C      4.129209    0.898394   -3.418950
  H      3.733687   -0.100605   -3.237633
  H      4.719095    0.862556   -4.339005
  C      5.017344    1.315212   -2.221305
  C      4.255868    3.703851   -4.726054
  C      3.734032    4.293783   -5.800770
  N      5.515039    3.407255   -4.637185
  H      6.149187    3.601203   -5.399053
  H      5.813584    2.899504   -3.808785
  H      2.741380    4.513109   -5.824701
  H      4.287548    4.521260   -6.614341
  H      2.278938    1.735250   -2.725496
  H      2.377466    1.625787   -4.475869
  O      4.737055    0.854112   -1.122825
  F      5.928146    2.168108   -2.491365
  H      3.861246    3.597252   -2.662979
  H      2.446493    3.973461   -3.656556

 Total Charge           Charge          ....    0
 Multiplicity           Mult            ....    1
 Number of Electrons    NEL             ....   70
 Basis Dimension        Dim             ....  339

ORBITAL ENERGIES
----------------

  NO   OCC          E(Eh)            E(eV)
   0   2.0000     -24.349270      -662.5773
   1   2.0000     -18.774018      -510.8670
   2   2.0000     -13.976799      -380.3280
   3   2.0000     -10.061880      -273.7977
   4   2.0000      -9.915176      -269.8057
   5   2.0000      -9.902400      -269.4580
   6   2.0000      -9.898856      -269.3616
   7   2.0000      -9.890668      -269.1388
   8   2.0000      -9.813323      -267.0341
   9   2.0000      -1.236569       -33.6487
  10   2.0000      -0.980275       -26.6746
  11   2.0000      -0.857201       -23.3256
  12   2.0000      -0.748836       -20.3769
  13   2.0000      -0.685756       -18.6604
  14   2.0000      -0.649752       -17.6807
  15   2.0000      -0.613752       -16.7010
  16   2.0000      -0.576703       -15.6929
  17   2.0000      -0.526969       -14.3396
  18   2.0000      -0.511481       -13.9181
  19   2.0000      -0.493643       -13.4327
  20   2.0000      -0.471946       -12.8423
  21   2.0000      -0.451480       -12.2854
  22   2.0000      -0.432879       -11.7792
  23   2.0000      -0.420056       -11.4303
  24   2.0000      -0.399206       -10.8630
  25   2.0000      -0.374477       -10.1900
  26   2.0000      -0.355924        -9.6852
  27   2.0000      -0.350382        -9.5344
  28   2.0000      -0.341151        -9.2832
  29   2.0000      -0.332307        -9.0425
  30   2.0000      -0.319100        -8.6832
  31   2.0000      -0.293543        -7.9877
  32   2.0000      -0.292330        -7.9547
  33   2.0000      -0.260627        -7.0920
  34   2.0000      -0.157723        -4.2919
  35   0.0000      -0.077885        -2.1194
  36   0.0000       0.004616         0.1256
  37   0.0000       0.016683         0.4540
  38   0.0000       0.036389         0.9902
  39   0.0000       0.043694         1.1890

MULLIKEN ATOMIC CHARGES
-----------------------
   0 C :   -0.249358
   1 C :   -0.156121
   2 C :   -0.246529
   3 H :    0.127193
   4 H :    0.132371
   5 C :    0.277219
   6 C :    0.174384
   7 C :   -0.420117
   8 N :   -0.400116
   9 H :    0.209377
  10 H :    0.231750
  11 H :    0.091532
  12 H :    0.082100
  13 H :    0.109954
  14 H :    0.106568
  15 O :   -0.229633
  16 F :   -0.076546
  17 H :    0.119552
  18 H :    0.116421
Sum of atomic charges:    0.0000000

LOEWDIN ATOMIC CHARGES
----------------------
   0 C :   -0.215924
   1 C :   -0.248313
   2 C :   -0.239328
   3 H :    0.154045
   4 H :    0.146307
   5 C :   -0.531211
   6 C :   -0.388515
   7 C :   -0.281222
   8 N :    0.026580
   9 H :    0.170092
  10 H :    0.138586
  11 H :    0.104657
  12 H :    0.094869
  13 H :    0.145102
  14 H :    0.145973
  15 O :    0.146058
  16 F :    0.334466
  17 H :    0.142970
  18 H :    0.154808

  Mayer bond orders larger than 0.100000
B(  0-C ,  1-C ) :   0.9956 B(  0-C ,  6-C ) :   0.9759 B(  0-C , 17-H ) :   0.9552
B(  0-C , 18-H ) :   0.9536 B(  1-C ,  2-C ) :   1.0128 B(  1-C , 13-H ) :   0.9416
B(  1-C , 14-H ) :   0.9368 B(  2-C ,  3-H ) :   0.9417 B(  2-C ,  4-H ) :   0.9199
B(  2-C ,  5-C ) :   0.9968 B(  5-C , 15-O ) :   2.1608 B(  5-C , 16-F ) :   1.0718
B(  6-C ,  7-C ) :   1.7378 B(  6-C ,  8-N ) :   1.2406 B(  7-C , 11-H ) :   0.9767
B(  7-C , 12-H ) :   0.9742 B(  8-N ,  9-H ) :   0.9124 B(  8-N , 10-H ) :   0.8737

Dispersion correction           -0.018696242
FINAL SINGLE POINT ENERGY      -464.081189465716

DIPOLE MOMENT
-------------
                                X             Y             Z
Electronic contribution:      7.50966      -3.58302       8.10572
Nuclear contribution   :     -7.21688       3.18902      -8.52197
                        -----------------------------------------
Total Dipole Moment    :      0.29278      -0.39399      -0.41626
                        -----------------------------------------
Magnitude (a.u.)       :      0.64360
Magnitude (Debye)      :      1.63590

Rotational constants in cm-1:     0.103917     0.036987     0.030872
Rotational constants in MHz :  3115.342573  1108.839114   925.506342

                             ****ORCA TERMINATED NORMALLY****
TOTAL RUN TIME: 0 days 0 hours 0 minutes 9 seconds 403 msec
