                         Program Version 5.0.0 -  RELEASE  -
|  1> !PBE D3BJ RIJCOSX def2-TZVP def2/J TightSCF xyzfile
|  2>
|  3> *xyzfile 0 1 D4.xyz
|  4>
|  5> %MaxCore 64000
|  6>
|  7> %pal nprocs 18
|  8> end
|  9>
| 10> %scf
| 11>   MaxIter 150
| 12> end
| 13>
| 14>
| 15>                          ****END OF INPUT****

CARTESIAN COORDINATES (ANGSTROEM)
---------------------------------
  C      3.343500    3.354571   -3.591998
  C      2.952633    1.863077   -3.574849
  C      4.129209    0.898394   -3.418950
  H      3.733687   -0.100605   -3.237633
  H      4.719095    0.862556   -4.339005
  C      5.017344    1.315212   -2.221305
  C      4.255868    3.703851   -4.726054
  N      3.734032    4.293783   -5.800770
  C      5.515039    3.407255   -4.637185
  H      6.149187    3.601203   -5.399053
  H      5.813584    2.899504   -3.808785
  H      2.741380    4.513109   -5.824701
  H      4.287548    4.521260   -6.614341
  H      2.278938    1.735250   -2.725496
  H      2.377466    1.625787   -4.475869
  O      4.737055    0.854112   -1.122825
  F      5.928146    2.168108   -2.491365
  H      3.861246    3.597252   -2.662979
  H      2.446493    3.973461   -3.656556

 Total Charge           Charge          ....    0
 Multiplicity           Mult            ....    1
 Number of Electrons    NEL             ....   70
 Basis Dimension        Dim             ....  339

ORBITAL ENERGIES
----------------

  NO   OCC          E(Eh)            E(eV)
   0   2.0000     -24.319977      -661.7802
   1   2.0000     -18.757858      -510.4273
   2   2.0000     -13.986623      -380.5954
   3   2.0000     -10.045210      -273.3441
   4   2.0000      -9.903084      -269.4766
   5   2.0000      -9.899640      -269.3829
   6   2.0000      -9.896746      -269.3041
   7   2.0000      -9.890623      -269.1375
   8   2.0000      -9.800468      -266.6843
   9   2.0000      -1.209309       -32.9070
  10   2.0000      -0.964542       -26.2465
  11   2.0000      -0.846936       -23.0463
  12   2.0000      -0.745094       -20.2750
  13   2.0000      -0.682965       -18.5844
  14   2.0000      -0.640716       -17.4348
  15   2.0000      -0.608532       -16.5590
  16   2.0000      -0.557573       -15.1723
  17   2.0000      -0.525765       -14.3068
  18   2.0000      -0.484441       -13.1823
  19   2.0000      -0.476968       -12.9790
  20   2.0000      -0.469998       -12.7893
  21   2.0000      -0.449680       -12.2364
  22   2.0000      -0.429739       -11.6938
  23   2.0000      -0.411531       -11.1983
  24   2.0000      -0.397259       -10.8100
  25   2.0000      -0.369321       -10.0497
  26   2.0000      -0.352261        -9.5855
  27   2.0000      -0.339281        -9.2323
  28   2.0000      -0.330712        -8.9991
  29   2.0000      -0.319844        -8.7034
  30   2.0000      -0.308285        -8.3889
  31   2.0000      -0.289709        -7.8834
  32   2.0000      -0.286178        -7.7873
  33   2.0000      -0.246173        -6.6987
  34   2.0000      -0.162180        -4.4131
  35   0.0000      -0.062304        -1.6954
  36   0.0000      -0.000427        -0.0116
  37   0.0000       0.013191         0.3589
  38   0.0000       0.034590         0.9412
  39   0.0000       0.043732         1.1900

MULLIKEN ATOMIC CHARGES
-----------------------
   0 C :   -0.244719
   1 C :   -0.159934
   2 C :   -0.232086
   3 H :    0.117729
   4 H :    0.139160
   5 C :    0.264702
   6 C :    0.206435
   7 N :   -0.417955
   8 C :   -0.462407
   9 H :    0.074273
  10 H :    0.143268
  11 H :    0.212389
  12 H :    0.216695
  13 H :    0.112677
  14 H :    0.095891
  15 O :   -0.242238
  16 F :   -0.050485
  17 H :    0.137493
  18 H :    0.089112
Sum of atomic charges:   -0.0000000

LOEWDIN ATOMIC CHARGES
----------------------
   0 C :   -0.216386
   1 C :   -0.249278
   2 C :   -0.236918
   3 H :    0.151244
   4 H :    0.149123
   5 C :   -0.530230
   6 C :   -0.380157
   7 N :    0.003008
   8 C :   -0.269353
   9 H :    0.098170
  10 H :    0.091623
  11 H :    0.164698
  12 H :    0.166569
  13 H :    0.145099
  14 H :    0.141762
  15 O :    0.134230
  16 F :    0.342258
  17 H :    0.154627
  18 H :    0.139912

  Mayer bond orders larger than 0.100000
B(  0-C ,  1-C ) :   0.9976 B(  0-C ,  6-C ) :   0.9759 B(  0-C , 17-H ) :   0.9701
B(  0-C , 18-H ) :   0.9454 B(  1-C ,  2-C ) :   1.0185 B(  1-C , 13-H ) :   0.9446
B(  1-C , 14-H ) :   0.9357 B(  2-C ,  3-H ) :   0.9405 B(  2-C ,  4-H ) :   0.9211
B(  2-C ,  5-C ) :   0.9965 B(  5-C , 15-O ) :   2.1487 B(  5-C , 16-F ) :   1.1247
B(  6-C ,  7-N ) :   1.1733 B(  6-C ,  8-C ) :   1.7330 B(  7-N , 11-H ) :   0.9182
B(  7-N , 12-H ) :   0.9147 B(  8-C ,  9-H ) :   0.9686 B(  8-C , 10-H ) :   0.9744

Dispersion correction           -0.018792496
FINAL SINGLE POINT ENERGY      -464.068034360817

DIPOLE MOMENT
-------------
                                X             Y             Z
Electronic contribution:      6.18365      -2.78025       7.11857
Nuclear contribution   :     -6.99695       3.07955      -8.37829
                        -----------------------------------------
Total Dipole Moment    :     -0.81330       0.29930      -1.25972
                        -----------------------------------------
Magnitude (a.u.)       :      1.52903
Magnitude (Debye)      :      3.88649

Rotational constants in cm-1:     0.106302     0.035771     0.030198
Rotational constants in MHz :  3186.860872  1072.397550   905.318354

                             ****ORCA TERMINATED NORMALLY****
TOTAL RUN TIME: 0 days 0 hours 0 minutes 9 seconds 261 msec
