                         Program Version 5.0.0 -  RELEASE  -
|  1> !BLYP D3BJ RIJCOSX def2-TZVP def2/J TightSCF
|  2> *xyz -1 1
|  3> C          4.90646       -3.10282       -5.95484
|  4> C          3.51177       -2.80621       -6.49228
|  5> H          2.73604       -3.37345       -5.97374
|  6> H          3.44490       -3.04083       -7.55528
|  7> S          3.00462       -1.09621       -6.38926
|  8> O          4.12886       -0.32965       -6.95372
|  9> O          1.78128       -1.00078       -7.13640
| 10> O          2.85155       -0.78368       -4.95679
| 11> H          5.62703       -2.52424       -6.49422
| 12> H          5.12164       -4.14387       -6.07654
| 13> H          4.95004       -2.84862       -4.91639
| 14> *
| 15>
| 16> %MaxCore 64000
| 17>
| 18> %pal nprocs 4
| 19> end
| 20>
| 21> %scf
| 22>   MaxIter 150
| 23> end
| 24>
| 25>
| 26>                          ****END OF INPUT****

CARTESIAN COORDINATES (ANGSTROEM)
---------------------------------
  C      4.906460   -3.102820   -5.954840
  C      3.511770   -2.806210   -6.492280
  H      2.736040   -3.373450   -5.973740
  H      3.444900   -3.040830   -7.555280
  S      3.004620   -1.096210   -6.389260
  O      4.128860   -0.329650   -6.953720
  O      1.781280   -1.000780   -7.136400
  O      2.851550   -0.783680   -4.956790
  H      5.627030   -2.524240   -6.494220
  H      5.121640   -4.143870   -6.076540
  H      4.950040   -2.848620   -4.916390

 Total Charge           Charge          ....   -1
 Multiplicity           Mult            ....    1
 Number of Electrons    NEL             ....   58
 Basis Dimension        Dim             ....  222

ORBITAL ENERGIES
----------------

  NO   OCC          E(Eh)            E(eV)
   0   2.0000     -88.069128     -2396.4828
   1   2.0000     -18.543547      -504.5956
   2   2.0000     -18.531917      -504.2791
   3   2.0000     -18.531336      -504.2633
   4   2.0000      -9.759463      -265.5685
   5   2.0000      -9.754472      -265.4327
   6   2.0000      -7.599823      -206.8017
   7   2.0000      -5.628328      -153.1546
   8   2.0000      -5.627595      -153.1346
   9   2.0000      -5.627306      -153.1268
  10   2.0000      -0.814744       -22.1703
  11   2.0000      -0.688301       -18.7296
  12   2.0000      -0.668849       -18.2003
  13   2.0000      -0.549691       -14.9579
  14   2.0000      -0.433974       -11.8090
  15   2.0000      -0.311072        -8.4647
  16   2.0000      -0.261249        -7.1090
  17   2.0000      -0.248206        -6.7540
  18   2.0000      -0.214183        -5.8282
  19   2.0000      -0.196400        -5.3443
  20   2.0000      -0.192662        -5.2426
  21   2.0000      -0.174079        -4.7369
  22   2.0000      -0.161030        -4.3818
  23   2.0000      -0.089021        -2.4224
  24   2.0000      -0.087461        -2.3799
  25   2.0000      -0.059115        -1.6086
  26   2.0000      -0.051725        -1.4075
  27   2.0000      -0.043045        -1.1713
  28   2.0000      -0.004871        -0.1325
  29   0.0000       0.154884         4.2146
  30   0.0000       0.196168         5.3380
  31   0.0000       0.210510         5.7283
  32   0.0000       0.216174         5.8824
  33   0.0000       0.242916         6.6101

MULLIKEN ATOMIC CHARGES
-----------------------
   0 C :   -0.272887
   1 C :   -0.170627
   2 H :    0.047812
   3 H :    0.049677
   4 S :    0.734155
   5 O :   -0.551750
   6 O :   -0.505479
   7 O :   -0.552896
   8 H :    0.093491
   9 H :    0.043444
  10 H :    0.085058
Sum of atomic charges:   -1.0000000

LOEWDIN ATOMIC CHARGES
----------------------
   0 C :   -0.337282
   1 C :   -0.434234
   2 H :    0.112238
   3 H :    0.113764
   4 S :    0.387619
   5 O :   -0.398745
   6 O :   -0.355101
   7 O :   -0.404208
   8 H :    0.111111
   9 H :    0.094940
  10 H :    0.109896

  Mayer bond orders larger than 0.100000
B(  0-C ,  1-C ) :   0.9398 B(  0-C ,  8-H ) :   0.9716 B(  0-C ,  9-H ) :   0.9552
B(  0-C , 10-H ) :   0.9735 B(  1-C ,  2-H ) :   0.9519 B(  1-C ,  3-H ) :   0.9501
B(  1-C ,  4-S ) :   0.8530 B(  4-S ,  5-O ) :   1.7540 B(  4-S ,  6-O ) :   1.8546
B(  4-S ,  7-O ) :   1.7780

Dispersion correction           -0.020546471
FINAL SINGLE POINT ENERGY      -703.241835306901

DIPOLE MOMENT
-------------
                                X             Y             Z
Electronic contribution:     -4.43167       6.55588      -0.66123
Nuclear contribution   :      5.05690      -8.21735       0.57889
                        -----------------------------------------
Total Dipole Moment    :      0.62523      -1.66147      -0.08233
                        -----------------------------------------
Magnitude (a.u.)       :      1.77713
Magnitude (Debye)      :      4.51710

Rotational constants in cm-1:     0.162547     0.083494     0.081672
Rotational constants in MHz :  4873.033504  2503.090885  2448.458543

                             ****ORCA TERMINATED NORMALLY****
TOTAL RUN TIME: 0 days 0 hours 0 minutes 6 seconds 836 msec
