                         Program Version 5.0.0 -  RELEASE  -
|  1> !BLYP D3BJ RIJCOSX def2-TZVP def2/J TightSCF
|  2> *xyz 1 1
|  3> C          4.49059        1.15590       -2.46929
|  4> N          4.30539        1.22276       -3.90832
|  5> C          4.63192        2.24637       -4.67096
|  6> N          4.54169        2.14399       -5.98714
|  7> N          5.08409        3.39358       -4.11855
|  8> H          4.92067        3.57050       -3.13587
|  9> H          5.25465        4.19739       -4.70696
| 10> H          3.82453        0.44911       -4.35093
| 11> H          4.34337        1.24932       -6.41665
| 12> H          4.67671        2.95662       -6.57411
| 13> C          5.94213        0.93950       -2.03689
| 14> H          3.86431        0.32853       -2.13661
| 15> H          4.07623        2.04999       -1.98901
| 16> H          6.32982        0.06401       -2.51451
| 17> H          5.98308        0.81426       -0.97504
| 18> H          6.52865        1.78889       -2.31873
| 19> *
| 20>
| 21> %MaxCore 64000
| 22>
| 23> %pal nprocs 4
| 24> end
| 25>
| 26> %scf
| 27>   MaxIter 150
| 28> end
| 29>
| 30>
| 31>                          ****END OF INPUT****

CARTESIAN COORDINATES (ANGSTROEM)
---------------------------------
  C      4.490590    1.155900   -2.469290
  N      4.305390    1.222760   -3.908320
  C      4.631920    2.246370   -4.670960
  N      4.541690    2.143990   -5.987140
  N      5.084090    3.393580   -4.118550
  H      4.920670    3.570500   -3.135870
  H      5.254650    4.197390   -4.706960
  H      3.824530    0.449110   -4.350930
  H      4.343370    1.249320   -6.416650
  H      4.676710    2.956620   -6.574110
  C      5.942130    0.939500   -2.036890
  H      3.864310    0.328530   -2.136610
  H      4.076230    2.049990   -1.989010
  H      6.329820    0.064010   -2.514510
  H      5.983080    0.814260   -0.975040
  H      6.528650    1.788890   -2.318730

 Total Charge           Charge          ....    1
 Multiplicity           Mult            ....    1
 Number of Electrons    NEL             ....   48
 Basis Dimension        Dim             ....  246

ORBITAL ENERGIES
----------------

  NO   OCC          E(Eh)            E(eV)
   0   2.0000     -14.226535      -387.1237
   1   2.0000     -14.225998      -387.1091
   2   2.0000     -14.223616      -387.0443
   3   2.0000     -10.227731      -278.3107
   4   2.0000     -10.109986      -275.1067
   5   2.0000     -10.037717      -273.1402
   6   2.0000      -1.121047       -30.5052
   7   2.0000      -1.019543       -27.7432
   8   2.0000      -1.005557       -27.3626
   9   2.0000      -0.853443       -23.2234
  10   2.0000      -0.777590       -21.1593
  11   2.0000      -0.736529       -20.0420
  12   2.0000      -0.725387       -19.7388
  13   2.0000      -0.683751       -18.6058
  14   2.0000      -0.638176       -17.3656
  15   2.0000      -0.636543       -17.3212
  16   2.0000      -0.605157       -16.4672
  17   2.0000      -0.570978       -15.5371
  18   2.0000      -0.551700       -15.0125
  19   2.0000      -0.508952       -13.8493
  20   2.0000      -0.484044       -13.1715
  21   2.0000      -0.466058       -12.6821
  22   2.0000      -0.429698       -11.6927
  23   2.0000      -0.407647       -11.0926
  24   0.0000      -0.193050        -5.2532
  25   0.0000      -0.178086        -4.8460
  26   0.0000      -0.144406        -3.9295
  27   0.0000      -0.137348        -3.7374
  28   0.0000      -0.118008        -3.2112

MULLIKEN ATOMIC CHARGES
-----------------------
   0 C :   -0.163477
   1 N :   -0.212538
   2 C :    0.415687
   3 N :   -0.350433
   4 N :   -0.364645
   5 H :    0.265005
   6 H :    0.253117
   7 H :    0.237032
   8 H :    0.263561
   9 H :    0.263669
  10 C :   -0.265526
  11 H :    0.144441
  12 H :    0.130569
  13 H :    0.121918
  14 H :    0.146350
  15 H :    0.115269
Sum of atomic charges:    1.0000000

LOEWDIN ATOMIC CHARGES
----------------------
   0 C :   -0.281170
   1 N :    0.182199
   2 C :   -0.414342
   3 N :    0.080763
   4 N :    0.066991
   5 H :    0.190716
   6 H :    0.190720
   7 H :    0.207872
   8 H :    0.195230
   9 H :    0.194784
  10 C :   -0.274901
  11 H :    0.149003
  12 H :    0.134737
  13 H :    0.125047
  14 H :    0.134371
  15 H :    0.117979

  Mayer bond orders larger than 0.100000
B(  0-C ,  1-N ) :   0.8897 B(  0-C , 10-C ) :   0.9468 B(  0-C , 11-H ) :   0.9488
B(  0-C , 12-H ) :   0.9729 B(  1-N ,  2-C ) :   1.3764 B(  1-N ,  7-H ) :   0.9106
B(  2-C ,  3-N ) :   1.3206 B(  2-C ,  4-N ) :   1.3022 B(  3-N ,  8-H ) :   0.9057
B(  3-N ,  9-H ) :   0.9029 B(  4-N ,  5-H ) :   0.8932 B(  4-N ,  6-H ) :   0.9093
B( 10-C , 13-H ) :   0.9619 B( 10-C , 14-H ) :   0.9640 B( 10-C , 15-H ) :   0.9676

Dispersion correction           -0.025127171
FINAL SINGLE POINT ENERGY      -284.407919854253

DIPOLE MOMENT
-------------
                                X             Y             Z
Electronic contribution:     -1.80663       1.57563      -4.47262
Nuclear contribution   :      1.34333      -1.11039       3.43667
                        -----------------------------------------
Total Dipole Moment    :     -0.46331       0.46524      -1.03595
                        -----------------------------------------
Magnitude (a.u.)       :      1.22650
Magnitude (Debye)      :      3.11751

Rotational constants in cm-1:     0.227161     0.075356     0.065003
Rotational constants in MHz :  6810.114531  2259.122204  1948.738523

                             ****ORCA TERMINATED NORMALLY****
TOTAL RUN TIME: 0 days 0 hours 0 minutes 8 seconds 132 msec
