                         Program Version 5.0.0 -  RELEASE  -
|  1> !BLYP D3BJ RIJCOSX def2-TZVP def2/J TightSCF xyzfile
|  2>
|  3> *xyzfile 0 1 B.xyz
|  4>
|  5> %MaxCore 64000
|  6>
|  7> %pal nprocs 18
|  8> end
|  9>
| 10> %scf
| 11>   MaxIter 150
| 12> end
| 13>
| 14>
| 15>                          ****END OF INPUT****

CARTESIAN COORDINATES (ANGSTROEM)
---------------------------------
  C      4.490588    1.155899   -2.469290
  N      4.305394    1.222762   -3.908317
  C      4.906458   -3.102816   -5.954844
  C      3.511771   -2.806215   -6.492283
  H      2.736044   -3.373445   -5.973736
  H      3.444904   -3.040831   -7.555281
  S      3.004618   -1.096206   -6.389259
  C      4.631918    2.246365   -4.670958
  N      4.541686    2.143990   -5.987139
  N      5.084086    3.393584   -4.118545
  H      4.920675    3.570501   -3.135870
  H      5.254652    4.197390   -4.706956
  H      3.824530    0.449113   -4.350926
  H      4.343373    1.249318   -6.416646
  H      4.676712    2.956624   -6.574113
  O      4.128856   -0.329647   -6.953717
  O      1.781285   -1.000779   -7.136399
  C      5.942129    0.939500   -2.036893
  H      3.864305    0.328532   -2.136611
  H      4.076233    2.049994   -1.989010
  C      6.462677   -3.117775   -3.944671
  C      5.024977   -3.025679   -4.437625
  H      4.423321   -3.818693   -3.977648
  H      4.579350   -2.087131   -4.108727
  H      5.201533   -4.100207   -6.296905
  H      5.605922   -2.397822   -6.413368
  C      6.559957   -0.356290   -2.559086
  H      5.967976    0.952567   -0.942444
  H      6.547184    1.788331   -2.368849
  C      6.006283   -1.615917   -1.899301
  H      7.642360   -0.318000   -2.402059
  H      6.414855   -0.403433   -3.642587
  C      6.608718   -2.917014   -2.435655
  H      6.190324   -1.561115   -0.820948
  H      4.919250   -1.651245   -2.016586
  H      7.066975   -2.374258   -4.475514
  H      6.887808   -4.089747   -4.215332
  H      6.135197   -3.755573   -1.915159
  H      7.671142   -2.955503   -2.172291
  O      2.851546   -0.783683   -4.956789

 Total Charge           Charge          ....    0
 Multiplicity           Mult            ....    1
 Number of Electrons    NEL             ....  144
 Basis Dimension        Dim             ....  671

ORBITAL ENERGIES
----------------

  NO   OCC          E(Eh)            E(eV)
   0   2.0000     -88.230821     -2400.8827
   1   2.0000     -18.707041      -509.0445
   2   2.0000     -18.706864      -509.0397
   3   2.0000     -18.692916      -508.6601
   4   2.0000     -14.076912      -383.0522
   5   2.0000     -14.045911      -382.2087
   6   2.0000     -14.043467      -382.1422
   7   2.0000     -10.062678      -273.8194
   8   2.0000      -9.967233      -271.2222
   9   2.0000      -9.922479      -270.0044
  10   2.0000      -9.906301      -269.5641
  11   2.0000      -9.899356      -269.3752
  12   2.0000      -9.894177      -269.2343
  13   2.0000      -9.890870      -269.1442
  14   2.0000      -9.886998      -269.0389
  15   2.0000      -9.883997      -268.9572
  16   2.0000      -9.877330      -268.7758
  17   2.0000      -7.762277      -211.2223
  18   2.0000      -5.791020      -157.5817
  19   2.0000      -5.790066      -157.5557
  20   2.0000      -5.789288      -157.5345
  21   2.0000      -0.981451       -26.7066
  22   2.0000      -0.956649       -26.0317
  23   2.0000      -0.858332       -23.3564
  24   2.0000      -0.851782       -23.1782
  25   2.0000      -0.846895       -23.0452
  26   2.0000      -0.840119       -22.8608
  27   2.0000      -0.741205       -20.1692
  28   2.0000      -0.716168       -19.4879
  29   2.0000      -0.691174       -18.8078
  30   2.0000      -0.658745       -17.9253
  31   2.0000      -0.626079       -17.0365
  32   2.0000      -0.606555       -16.5052
  33   2.0000      -0.578870       -15.7518
  34   2.0000      -0.563796       -15.3417
  35   2.0000      -0.551012       -14.9938
  36   2.0000      -0.528356       -14.3773
  37   2.0000      -0.514658       -14.0045
  38   2.0000      -0.488467       -13.2919
  39   2.0000      -0.484717       -13.1898
  40   2.0000      -0.480546       -13.0763
  41   2.0000      -0.456320       -12.4171
  42   2.0000      -0.445564       -12.1244
  43   2.0000      -0.430847       -11.7239
  44   2.0000      -0.422140       -11.4870
  45   2.0000      -0.408686       -11.1209
  46   2.0000      -0.401260       -10.9188
  47   2.0000      -0.393300       -10.7022
  48   2.0000      -0.380362       -10.3502
  49   2.0000      -0.375832       -10.2269
  50   2.0000      -0.367156        -9.9908
  51   2.0000      -0.363872        -9.9015
  52   2.0000      -0.350262        -9.5311
  53   2.0000      -0.346302        -9.4234
  54   2.0000      -0.337088        -9.1726
  55   2.0000      -0.330317        -8.9884
  56   2.0000      -0.318847        -8.6763
  57   2.0000      -0.310414        -8.4468
  58   2.0000      -0.301388        -8.2012
  59   2.0000      -0.289770        -7.8850
  60   2.0000      -0.279689        -7.6107
  61   2.0000      -0.275336        -7.4923
  62   2.0000      -0.269723        -7.3395
  63   2.0000      -0.266001        -7.2382
  64   2.0000      -0.264583        -7.1997
  65   2.0000      -0.257555        -7.0084
  66   2.0000      -0.249794        -6.7973
  67   2.0000      -0.242903        -6.6097
  68   2.0000      -0.219739        -5.9794
  69   2.0000      -0.212306        -5.7771
  70   2.0000      -0.206226        -5.6117
  71   2.0000      -0.176026        -4.7899
  72   0.0000      -0.040633        -1.1057
  73   0.0000      -0.033280        -0.9056
  74   0.0000      -0.008403        -0.2286
  75   0.0000       0.017427         0.4742
  76   0.0000       0.025916         0.7052

MULLIKEN ATOMIC CHARGES
-----------------------
   0 C :   -0.207476
   1 N :   -0.183825
   2 C :   -0.106498
   3 C :   -0.160693
   4 H :    0.085891
   5 H :    0.101260
   6 S :    0.786622
   7 C :    0.358514
   8 N :   -0.349014
   9 N :   -0.399888
  10 H :    0.239731
  11 H :    0.223289
  12 H :    0.255421
  13 H :    0.280000
  14 H :    0.210212
  15 O :   -0.566142
  16 O :   -0.450913
  17 C :   -0.083257
  18 H :    0.146453
  19 H :    0.101933
  20 C :   -0.136839
  21 C :   -0.249389
  22 H :    0.056657
  23 H :    0.115571
  24 H :    0.066455
  25 H :    0.083768
  26 C :   -0.187835
  27 H :    0.076764
  28 H :    0.084652
  29 C :   -0.195846
  30 H :    0.076924
  31 H :    0.114272
  32 C :   -0.095111
  33 H :    0.068217
  34 H :    0.101369
  35 H :    0.079149
  36 H :    0.069682
  37 H :    0.071755
  38 H :    0.069877
  39 O :   -0.551714
Sum of atomic charges:    0.0000000

LOEWDIN ATOMIC CHARGES
----------------------
   0 C :   -0.270072
   1 N :    0.187335
   2 C :   -0.282704
   3 C :   -0.377280
   4 H :    0.130557
   5 H :    0.132763
   6 S :    0.430753
   7 C :   -0.433955
   8 N :    0.073510
   9 N :    0.025727
  10 H :    0.176205
  11 H :    0.174239
  12 H :    0.168593
  13 H :    0.150963
  14 H :    0.172446
  15 O :   -0.355179
  16 O :   -0.301300
  17 C :   -0.263757
  18 H :    0.146125
  19 H :    0.123707
  20 C :   -0.265394
  21 C :   -0.268670
  22 H :    0.130643
  23 H :    0.133227
  24 H :    0.131444
  25 H :    0.136078
  26 C :   -0.259813
  27 H :    0.138055
  28 H :    0.130282
  29 C :   -0.264645
  30 H :    0.135179
  31 H :    0.138788
  32 C :   -0.260043
  33 H :    0.131089
  34 H :    0.132715
  35 H :    0.130166
  36 H :    0.130963
  37 H :    0.133428
  38 H :    0.130743
  39 O :   -0.352912

  Mayer bond orders larger than 0.100000
B(  0-C ,  1-N ) :   0.9190 B(  0-C , 17-C ) :   0.9270 B(  0-C , 18-H ) :   0.9688
B(  0-C , 19-H ) :   0.9734 B(  1-N ,  7-C ) :   1.4127 B(  1-N , 12-H ) :   0.7883
B(  2-C ,  3-C ) :   0.9536 B(  2-C , 21-C ) :   0.9854 B(  2-C , 24-H ) :   0.9460
B(  2-C , 25-H ) :   0.9497 B(  3-C ,  4-H ) :   0.9522 B(  3-C ,  5-H ) :   0.9536
B(  3-C ,  6-S ) :   0.8833 B(  6-S , 15-O ) :   1.5553 B(  6-S , 16-O ) :   1.9424
B(  6-S , 39-O ) :   1.5640 B(  7-C ,  8-N ) :   1.3870 B(  7-C ,  9-N ) :   1.2262
B(  8-N , 13-H ) :   0.7745 B(  8-N , 14-H ) :   0.9223 B(  9-N , 10-H ) :   0.9061
B(  9-N , 11-H ) :   0.9211 B( 12-H , 39-O ) :   0.1891 B( 13-H , 15-O ) :   0.1934
B( 17-C , 26-C ) :   0.9585 B( 17-C , 27-H ) :   0.9563 B( 17-C , 28-H ) :   0.9637
B( 20-C , 21-C ) :   0.9537 B( 20-C , 32-C ) :   0.9689 B( 20-C , 35-H ) :   0.9711
B( 20-C , 36-H ) :   0.9601 B( 21-C , 22-H ) :   0.9575 B( 21-C , 23-H ) :   0.9656
B( 26-C , 29-C ) :   0.9616 B( 26-C , 30-H ) :   0.9579 B( 26-C , 31-H ) :   0.9709
B( 29-C , 32-C ) :   0.9724 B( 29-C , 33-H ) :   0.9535 B( 29-C , 34-H ) :   0.9734
B( 32-C , 37-H ) :   0.9623 B( 32-C , 38-H ) :   0.9630

Dispersion correction           -0.097106760
FINAL SINGLE POINT ENERGY     -1183.168724568459

DIPOLE MOMENT
-------------
                                X             Y             Z
Electronic contribution:    -14.61046       8.38618     -15.41093
Nuclear contribution   :     16.79156      -5.47215      17.54258
                        -----------------------------------------
Total Dipole Moment    :      2.18110       2.91404       2.13165
                        -----------------------------------------
Magnitude (a.u.)       :      4.21814
Magnitude (Debye)      :     10.72167

Rotational constants in cm-1:     0.014207     0.012373     0.007472
Rotational constants in MHz :   425.900436   370.942493   224.006604

                             ****ORCA TERMINATED NORMALLY****
TOTAL RUN TIME: 0 days 0 hours 0 minutes 40 seconds 265 msec
