                         Program Version 5.0.0 -  RELEASE  -
|  1> !BLYP D3BJ RIJCOSX def2-TZVP def2/J TightSCF
|  2> *xyz 0 1
|  3> C          4.90646       -3.10282       -5.95484
|  4> C          3.51177       -2.80621       -6.49228
|  5> H          2.73604       -3.37345       -5.97374
|  6> H          3.44490       -3.04083       -7.55528
|  7> S          3.00462       -1.09621       -6.38926
|  8> F          4.12886       -0.32965       -6.95372
|  9> O          1.78128       -1.00078       -7.13640
| 10> O          2.85155       -0.78368       -4.95679
| 11> H          5.62703       -2.52424       -6.49422
| 12> H          5.12164       -4.14387       -6.07654
| 13> H          4.95004       -2.84862       -4.91639
| 14> *
| 15>
| 16> %MaxCore 64000
| 17>
| 18> %pal nprocs 4
| 19> end
| 20>
| 21> %scf
| 22>   MaxIter 150
| 23> end
| 24>
| 25>
| 26>                          ****END OF INPUT****

CARTESIAN COORDINATES (ANGSTROEM)
---------------------------------
  C      4.906460   -3.102820   -5.954840
  C      3.511770   -2.806210   -6.492280
  H      2.736040   -3.373450   -5.973740
  H      3.444900   -3.040830   -7.555280
  S      3.004620   -1.096210   -6.389260
  F      4.128860   -0.329650   -6.953720
  O      1.781280   -1.000780   -7.136400
  O      2.851550   -0.783680   -4.956790
  H      5.627030   -2.524240   -6.494220
  H      5.121640   -4.143870   -6.076540
  H      4.950040   -2.848620   -4.916390

 Total Charge           Charge          ....    0
 Multiplicity           Mult            ....    1
 Number of Electrons    NEL             ....   58
 Basis Dimension        Dim             ....  222

ORBITAL ENERGIES
----------------

  NO   OCC          E(Eh)            E(eV)
   0   2.0000     -88.331729     -2403.6285
   1   2.0000     -24.383163      -663.4996
   2   2.0000     -18.782114      -511.0873
   3   2.0000     -18.770662      -510.7757
   4   2.0000      -9.963594      -271.1232
   5   2.0000      -9.925662      -270.0910
   6   2.0000      -7.863164      -213.9676
   7   2.0000      -5.895518      -160.4252
   8   2.0000      -5.888627      -160.2377
   9   2.0000      -5.888466      -160.2333
  10   2.0000      -1.244173       -33.8557
  11   2.0000      -1.009120       -27.4595
  12   2.0000      -0.915690       -24.9172
  13   2.0000      -0.746915       -20.3246
  14   2.0000      -0.651016       -17.7151
  15   2.0000      -0.605695       -16.4818
  16   2.0000      -0.516552       -14.0561
  17   2.0000      -0.496936       -13.5223
  18   2.0000      -0.480750       -13.0819
  19   2.0000      -0.441454       -12.0126
  20   2.0000      -0.418432       -11.3861
  21   2.0000      -0.397714       -10.8223
  22   2.0000      -0.383057       -10.4235
  23   2.0000      -0.363097        -9.8804
  24   2.0000      -0.351833        -9.5739
  25   2.0000      -0.328957        -8.9514
  26   2.0000      -0.287897        -7.8341
  27   2.0000      -0.276294        -7.5183
  28   2.0000      -0.258992        -7.0475
  29   0.0000      -0.015560        -0.4234
  30   0.0000       0.017407         0.4737
  31   0.0000       0.035245         0.9591
  32   0.0000       0.043792         1.1916
  33   0.0000       0.049040         1.3344

MULLIKEN ATOMIC CHARGES
-----------------------
   0 C :   -0.308784
   1 C :   -0.193609
   2 H :    0.137941
   3 H :    0.121127
   4 S :    0.785180
   5 F :   -0.109634
   6 O :   -0.369834
   7 O :   -0.416911
   8 H :    0.109741
   9 H :    0.114408
  10 H :    0.130375
Sum of atomic charges:    0.0000000

LOEWDIN ATOMIC CHARGES
----------------------
   0 C :   -0.308554
   1 C :   -0.392753
   2 H :    0.146985
   3 H :    0.136109
   4 S :    0.509776
   5 F :    0.071602
   6 O :   -0.240299
   7 O :   -0.286554
   8 H :    0.117168
   9 H :    0.122874
  10 H :    0.123645

  Mayer bond orders larger than 0.100000
B(  0-C ,  1-C ) :   0.9440 B(  0-C ,  8-H ) :   0.9699 B(  0-C ,  9-H ) :   0.9588
B(  0-C , 10-H ) :   0.9675 B(  1-C ,  2-H ) :   0.9401 B(  1-C ,  3-H ) :   0.9374
B(  1-C ,  4-S ) :   0.8923 B(  4-S ,  5-F ) :   1.1047 B(  4-S ,  6-O ) :   1.9724
B(  4-S ,  7-O ) :   1.9053

Dispersion correction           -0.019523440
FINAL SINGLE POINT ENERGY      -727.783419319474

DIPOLE MOMENT
-------------
                                X             Y             Z
Electronic contribution:     -3.04332       8.25954      -1.72926
Nuclear contribution   :      4.18919      -9.36357       1.23251
                        -----------------------------------------
Total Dipole Moment    :      1.14587      -1.10403      -0.49675
                        -----------------------------------------
Magnitude (a.u.)       :      1.66693
Magnitude (Debye)      :      4.23700

Rotational constants in cm-1:     0.153152     0.082513     0.079874
Rotational constants in MHz :  4591.373714  2473.673397  2394.575279

                             ****ORCA TERMINATED NORMALLY****
TOTAL RUN TIME: 0 days 0 hours 0 minutes 6 seconds 864 msec
