                         Program Version 5.0.0 -  RELEASE  -
|  1> !BLYP D3BJ RIJCOSX def2-TZVP def2/J TightSCF
|  2> *xyz 0 1
|  3> C          4.49059        1.15590       -2.46929
|  4> C          4.30539        1.22276       -3.90832
|  5> C          4.63192        2.24637       -4.67096
|  6> N          4.54169        2.14399       -5.98714
|  7> N          5.08409        3.39358       -4.11855
|  8> H          4.92067        3.57050       -3.13587
|  9> H          5.25465        4.19739       -4.70696
| 10> H          3.82453        0.44911       -4.35093
| 11> H          4.34337        1.24932       -6.41665
| 12> H          4.67671        2.95662       -6.57411
| 13> C          5.94213        0.93950       -2.03689
| 14> H          3.86431        0.32853       -2.13661
| 15> H          4.07623        2.04999       -1.98901
| 16> H          6.32982        0.06401       -2.51451
| 17> H          5.98308        0.81426       -0.97504
| 18> H          6.52865        1.78889       -2.31873
| 19> *
| 20>
| 21> %MaxCore 64000
| 22>
| 23> %pal nprocs 4
| 24> end
| 25>
| 26> %scf
| 27>   MaxIter 150
| 28> end
| 29>
| 30>
| 31>                          ****END OF INPUT****

CARTESIAN COORDINATES (ANGSTROEM)
---------------------------------
  C      4.490590    1.155900   -2.469290
  C      4.305390    1.222760   -3.908320
  C      4.631920    2.246370   -4.670960
  N      4.541690    2.143990   -5.987140
  N      5.084090    3.393580   -4.118550
  H      4.920670    3.570500   -3.135870
  H      5.254650    4.197390   -4.706960
  H      3.824530    0.449110   -4.350930
  H      4.343370    1.249320   -6.416650
  H      4.676710    2.956620   -6.574110
  C      5.942130    0.939500   -2.036890
  H      3.864310    0.328530   -2.136610
  H      4.076230    2.049990   -1.989010
  H      6.329820    0.064010   -2.514510
  H      5.983080    0.814260   -0.975040
  H      6.528650    1.788890   -2.318730

 Total Charge           Charge          ....    0
 Multiplicity           Mult            ....    1
 Number of Electrons    NEL             ....   48
 Basis Dimension        Dim             ....  246

ORBITAL ENERGIES
----------------

  NO   OCC          E(Eh)            E(eV)
   0   2.0000     -14.003234      -381.0474
   1   2.0000     -14.000974      -380.9859
   2   2.0000      -9.938694      -270.4456
   3   2.0000      -9.874667      -268.7033
   4   2.0000      -9.863160      -268.3902
   5   2.0000      -9.821503      -267.2567
   6   2.0000      -0.867332       -23.6013
   7   2.0000      -0.785136       -21.3646
   8   2.0000      -0.688577       -18.7371
   9   2.0000      -0.617531       -16.8039
  10   2.0000      -0.549229       -14.9453
  11   2.0000      -0.513938       -13.9850
  12   2.0000      -0.483093       -13.1456
  13   2.0000      -0.449831       -12.2405
  14   2.0000      -0.421870       -11.4797
  15   2.0000      -0.382727       -10.4145
  16   2.0000      -0.365529        -9.9466
  17   2.0000      -0.338740        -9.2176
  18   2.0000      -0.328754        -8.9459
  19   2.0000      -0.300566        -8.1788
  20   2.0000      -0.280381        -7.6296
  21   2.0000      -0.270248        -7.3538
  22   2.0000      -0.215564        -5.8658
  23   2.0000      -0.122400        -3.3307
  24   0.0000      -0.003149        -0.0857
  25   0.0000       0.027241         0.7413
  26   0.0000       0.039773         1.0823
  27   0.0000       0.055037         1.4976
  28   0.0000       0.063074         1.7163

MULLIKEN ATOMIC CHARGES
-----------------------
   0 C :   -0.189490
   1 C :   -0.280915
   2 C :    0.336662
   3 N :   -0.415273
   4 N :   -0.436636
   5 H :    0.219316
   6 H :    0.187559
   7 H :    0.065128
   8 H :    0.216777
   9 H :    0.188346
  10 C :   -0.245456
  11 H :    0.064798
  12 H :    0.045301
  13 H :    0.080382
  14 H :    0.077070
  15 H :    0.086431
Sum of atomic charges:   -0.0000000

LOEWDIN ATOMIC CHARGES
----------------------
   0 C :   -0.303508
   1 C :   -0.279094
   2 C :   -0.455845
   3 N :   -0.000472
   4 N :   -0.010367
   5 H :    0.169031
   6 H :    0.155022
   7 H :    0.117011
   8 H :    0.173473
   9 H :    0.155494
  10 C :   -0.297847
  11 H :    0.136234
  12 H :    0.118287
  13 H :    0.110388
  14 H :    0.104026
  15 H :    0.108167

  Mayer bond orders larger than 0.100000
B(  0-C ,  1-C ) :   1.0383 B(  0-C , 10-C ) :   0.9401 B(  0-C , 11-H ) :   0.9702
B(  0-C , 12-H ) :   0.9631 B(  1-C ,  2-C ) :   1.6430 B(  1-C ,  7-H ) :   0.9802
B(  2-C ,  3-N ) :   1.1364 B(  2-C ,  4-N ) :   1.1158 B(  3-N ,  8-H ) :   0.9268
B(  3-N ,  9-H ) :   0.9290 B(  4-N ,  5-H ) :   0.9180 B(  4-N ,  6-H ) :   0.9349
B( 10-C , 13-H ) :   0.9773 B( 10-C , 14-H ) :   0.9703 B( 10-C , 15-H ) :   0.9767

Dispersion correction           -0.026253614
FINAL SINGLE POINT ENERGY      -267.911003719865

DIPOLE MOMENT
-------------
                                X             Y             Z
Electronic contribution:     -1.25758       2.03549      -4.21435
Nuclear contribution   :      1.23062      -1.24683       3.43056
                        -----------------------------------------
Total Dipole Moment    :     -0.02696       0.78866      -0.78379
                        -----------------------------------------
Magnitude (a.u.)       :      1.11222
Magnitude (Debye)      :      2.82705

Rotational constants in cm-1:     0.231477     0.075416     0.065327
Rotational constants in MHz :  6939.497385  2260.912204  1958.442932

                             ****ORCA TERMINATED NORMALLY****
TOTAL RUN TIME: 0 days 0 hours 0 minutes 9 seconds 404 msec
