                         Program Version 5.0.0 -  RELEASE  -
|  1> !BLYP D3BJ RIJCOSX def2-TZVP def2/J TightSCF
|  2> *xyz 0 1
|  3> C          4.90646       -3.10282       -5.95484
|  4> C          3.51177       -2.80621       -6.49228
|  5> H          2.73604       -3.37345       -5.97374
|  6> H          3.44490       -3.04083       -7.55528
|  7> S          3.00462       -1.09621       -6.38926
|  8> O          4.12886       -0.32965       -6.95372
|  9> F          1.78128       -1.00078       -7.13640
| 10> O          2.85155       -0.78368       -4.95679
| 11> H          5.62703       -2.52424       -6.49422
| 12> H          5.12164       -4.14387       -6.07654
| 13> H          4.95004       -2.84862       -4.91639
| 14> *
| 15>
| 16> %MaxCore 64000
| 17>
| 18> %pal nprocs 4
| 19> end
| 20>
| 21> %scf
| 22>   MaxIter 150
| 23> end
| 24>
| 25>
| 26>                          ****END OF INPUT****

CARTESIAN COORDINATES (ANGSTROEM)
---------------------------------
  C      4.906460   -3.102820   -5.954840
  C      3.511770   -2.806210   -6.492280
  H      2.736040   -3.373450   -5.973740
  H      3.444900   -3.040830   -7.555280
  S      3.004620   -1.096210   -6.389260
  O      4.128860   -0.329650   -6.953720
  F      1.781280   -1.000780   -7.136400
  O      2.851550   -0.783680   -4.956790
  H      5.627030   -2.524240   -6.494220
  H      5.121640   -4.143870   -6.076540
  H      4.950040   -2.848620   -4.916390

 Total Charge           Charge          ....    0
 Multiplicity           Mult            ....    1
 Number of Electrons    NEL             ....   58
 Basis Dimension        Dim             ....  222

ORBITAL ENERGIES
----------------

  NO   OCC          E(Eh)            E(eV)
   0   2.0000     -88.333658     -2403.6810
   1   2.0000     -24.401307      -663.9933
   2   2.0000     -18.770456      -510.7701
   3   2.0000     -18.770409      -510.7688
   4   2.0000      -9.964231      -271.1405
   5   2.0000      -9.921436      -269.9760
   6   2.0000      -7.864984      -214.0171
   7   2.0000      -5.897145      -160.4695
   8   2.0000      -5.890530      -160.2895
   9   2.0000      -5.890283      -160.2828
  10   2.0000      -1.273771       -34.6611
  11   2.0000      -0.995887       -27.0995
  12   2.0000      -0.902645       -24.5622
  13   2.0000      -0.743983       -20.2448
  14   2.0000      -0.664389       -18.0789
  15   2.0000      -0.607183       -16.5223
  16   2.0000      -0.520036       -14.1509
  17   2.0000      -0.518340       -14.1048
  18   2.0000      -0.491190       -13.3660
  19   2.0000      -0.441941       -12.0258
  20   2.0000      -0.420494       -11.4422
  21   2.0000      -0.383338       -10.4311
  22   2.0000      -0.379913       -10.3379
  23   2.0000      -0.360475        -9.8090
  24   2.0000      -0.343286        -9.3413
  25   2.0000      -0.323892        -8.8135
  26   2.0000      -0.277486        -7.5508
  27   2.0000      -0.272631        -7.4187
  28   2.0000      -0.247923        -6.7463
  29   0.0000      -0.006491        -0.1766
  30   0.0000       0.005739         0.1562
  31   0.0000       0.035251         0.9592
  32   0.0000       0.040170         1.0931
  33   0.0000       0.047563         1.2943

MULLIKEN ATOMIC CHARGES
-----------------------
   0 C :   -0.304693
   1 C :   -0.180079
   2 H :    0.117088
   3 H :    0.110343
   4 S :    0.780156
   5 O :   -0.409398
   6 F :   -0.076050
   7 O :   -0.409226
   8 H :    0.131793
   9 H :    0.112318
  10 H :    0.127749
Sum of atomic charges:    0.0000000

LOEWDIN ATOMIC CHARGES
----------------------
   0 C :   -0.293951
   1 C :   -0.399038
   2 H :    0.134157
   3 H :    0.132978
   4 S :    0.501972
   5 O :   -0.280285
   6 F :    0.114518
   7 O :   -0.283874
   8 H :    0.125365
   9 H :    0.122944
  10 H :    0.125215

  Mayer bond orders larger than 0.100000
B(  0-C ,  1-C ) :   0.9619 B(  0-C ,  8-H ) :   0.9676 B(  0-C ,  9-H ) :   0.9545
B(  0-C , 10-H ) :   0.9694 B(  1-C ,  2-H ) :   0.9312 B(  1-C ,  3-H ) :   0.9295
B(  1-C ,  4-S ) :   0.8991 B(  4-S ,  5-O ) :   1.8978 B(  4-S ,  6-F ) :   1.1545
B(  4-S ,  7-O ) :   1.9126

Dispersion correction           -0.019640129
FINAL SINGLE POINT ENERGY      -727.768724634039

DIPOLE MOMENT
-------------
                                X             Y             Z
Electronic contribution:     -6.96369       7.15815      -2.03436
Nuclear contribution   :      6.63544      -8.66423       1.42287
                        -----------------------------------------
Total Dipole Moment    :     -0.32825      -1.50608      -0.61149
                        -----------------------------------------
Magnitude (a.u.)       :      1.65830
Magnitude (Debye)      :      4.21506

Rotational constants in cm-1:     0.158118     0.080978     0.078216
Rotational constants in MHz :  4740.271775  2427.649826  2344.849020

                             ****ORCA TERMINATED NORMALLY****
TOTAL RUN TIME: 0 days 0 hours 0 minutes 7 seconds 49 msec
