                         Program Version 5.0.0 -  RELEASE  -
|  1> !BLYP D3BJ RIJCOSX def2-TZVP def2/J TightSCF
|  2> *xyz 0 1
|  3> C          4.49059        1.15590       -2.46929
|  4> N          4.30539        1.22276       -3.90832
|  5> C          4.63192        2.24637       -4.67096
|  6> C          4.54169        2.14399       -5.98714
|  7> N          5.08409        3.39358       -4.11855
|  8> H          4.92067        3.57050       -3.13587
|  9> H          5.25465        4.19739       -4.70696
| 10> H          3.82453        0.44911       -4.35093
| 11> H          4.34337        1.24932       -6.41665
| 12> H          4.67671        2.95662       -6.57411
| 13> C          5.94213        0.93950       -2.03689
| 14> H          3.86431        0.32853       -2.13661
| 15> H          4.07623        2.04999       -1.98901
| 16> H          6.32982        0.06401       -2.51451
| 17> H          5.98308        0.81426       -0.97504
| 18> H          6.52865        1.78889       -2.31873
| 19> *
| 20>
| 21> %MaxCore 64000
| 22>
| 23> %pal nprocs 4
| 24> end
| 25>
| 26> %scf
| 27>   MaxIter 150
| 28> end
| 29>
| 30>
| 31>                          ****END OF INPUT****

CARTESIAN COORDINATES (ANGSTROEM)
---------------------------------
  C      4.490590    1.155900   -2.469290
  N      4.305390    1.222760   -3.908320
  C      4.631920    2.246370   -4.670960
  C      4.541690    2.143990   -5.987140
  N      5.084090    3.393580   -4.118550
  H      4.920670    3.570500   -3.135870
  H      5.254650    4.197390   -4.706960
  H      3.824530    0.449110   -4.350930
  H      4.343370    1.249320   -6.416650
  H      4.676710    2.956620   -6.574110
  C      5.942130    0.939500   -2.036890
  H      3.864310    0.328530   -2.136610
  H      4.076230    2.049990   -1.989010
  H      6.329820    0.064010   -2.514510
  H      5.983080    0.814260   -0.975040
  H      6.528650    1.788890   -2.318730

 Total Charge           Charge          ....    0
 Multiplicity           Mult            ....    1
 Number of Electrons    NEL             ....   48
 Basis Dimension        Dim             ....  246

ORBITAL ENERGIES
----------------

  NO   OCC          E(Eh)            E(eV)
   0   2.0000     -14.003571      -381.0565
   1   2.0000     -14.001444      -380.9987
   2   2.0000      -9.942663      -270.5536
   3   2.0000      -9.940667      -270.4993
   4   2.0000      -9.890454      -269.1329
   5   2.0000      -9.813118      -267.0285
   6   2.0000      -0.875470       -23.8228
   7   2.0000      -0.795839       -21.6559
   8   2.0000      -0.691455       -18.8154
   9   2.0000      -0.625513       -17.0211
  10   2.0000      -0.562170       -15.2974
  11   2.0000      -0.534866       -14.5544
  12   2.0000      -0.476656       -12.9705
  13   2.0000      -0.441404       -12.0112
  14   2.0000      -0.427413       -11.6305
  15   2.0000      -0.394728       -10.7411
  16   2.0000      -0.371064       -10.0972
  17   2.0000      -0.350888        -9.5482
  18   2.0000      -0.332085        -9.0365
  19   2.0000      -0.326373        -8.8810
  20   2.0000      -0.312097        -8.4926
  21   2.0000      -0.304684        -8.2909
  22   2.0000      -0.207582        -5.6486
  23   2.0000      -0.125000        -3.4014
  24   0.0000      -0.000747        -0.0203
  25   0.0000       0.023229         0.6321
  26   0.0000       0.036909         1.0043
  27   0.0000       0.050697         1.3795
  28   0.0000       0.065901         1.7933

MULLIKEN ATOMIC CHARGES
-----------------------
   0 C :   -0.137931
   1 N :   -0.262312
   2 C :    0.404916
   3 C :   -0.521828
   4 N :   -0.441407
   5 H :    0.199875
   6 H :    0.211102
   7 H :    0.195937
   8 H :    0.068065
   9 H :    0.063155
  10 C :   -0.222257
  11 H :    0.090226
  12 H :    0.081235
  13 H :    0.086691
  14 H :    0.085769
  15 H :    0.098764
Sum of atomic charges:    0.0000000

LOEWDIN ATOMIC CHARGES
----------------------
   0 C :   -0.314675
   1 N :    0.131493
   2 C :   -0.460413
   3 C :   -0.336868
   4 N :   -0.009101
   5 H :    0.155281
   6 H :    0.170610
   7 H :    0.190444
   8 H :    0.093961
   9 H :    0.093252
  10 C :   -0.298140
  11 H :    0.128959
  12 H :    0.117202
  13 H :    0.113525
  14 H :    0.111928
  15 H :    0.112541

  Mayer bond orders larger than 0.100000
B(  0-C ,  1-N ) :   0.9891 B(  0-C , 10-C ) :   0.9269 B(  0-C , 11-H ) :   0.9675
B(  0-C , 12-H ) :   0.9757 B(  1-N ,  2-C ) :   1.1948 B(  1-N ,  7-H ) :   0.9327
B(  2-C ,  3-C ) :   1.5657 B(  2-C ,  4-N ) :   1.1180 B(  3-C ,  8-H ) :   1.0147
B(  3-C ,  9-H ) :   0.9990 B(  4-N ,  5-H ) :   0.9225 B(  4-N ,  6-H ) :   0.9305
B( 10-C , 13-H ) :   0.9689 B( 10-C , 14-H ) :   0.9616 B( 10-C , 15-H ) :   0.9718

Dispersion correction           -0.025952557
FINAL SINGLE POINT ENERGY      -267.905211435808

DIPOLE MOMENT
-------------
                                X             Y             Z
Electronic contribution:     -1.42653       1.09729      -1.96358
Nuclear contribution   :      1.28075      -1.05140       2.98955
                        -----------------------------------------
Total Dipole Moment    :     -0.14579       0.04589       1.02598
                        -----------------------------------------
Magnitude (a.u.)       :      1.03730
Magnitude (Debye)      :      2.63661

Rotational constants in cm-1:     0.229858     0.078444     0.067377
Rotational constants in MHz :  6890.979812  2351.691803  2019.910665

                             ****ORCA TERMINATED NORMALLY****
TOTAL RUN TIME: 0 days 0 hours 0 minutes 8 seconds 737 msec
