                         Program Version 5.0.0 -  RELEASE  -
|  1> !BLYP D3BJ RIJCOSX def2-TZVP def2/J TightSCF
|  2> *xyz 0 1
|  3> C          4.90646       -3.10282       -5.95484
|  4> C          3.51177       -2.80621       -6.49228
|  5> H          2.73604       -3.37345       -5.97374
|  6> H          3.44490       -3.04083       -7.55528
|  7> S          3.00462       -1.09621       -6.38926
|  8> O          4.12886       -0.32965       -6.95372
|  9> O          1.78128       -1.00078       -7.13640
| 10> F          2.85155       -0.78368       -4.95679
| 11> H          5.62703       -2.52424       -6.49422
| 12> H          5.12164       -4.14387       -6.07654
| 13> H          4.95004       -2.84862       -4.91639
| 14> *
| 15>
| 16> %MaxCore 64000
| 17>
| 18> %pal nprocs 4
| 19> end
| 20>
| 21> %scf
| 22>   MaxIter 150
| 23> end
| 24>
| 25>
| 26>                          ****END OF INPUT****

CARTESIAN COORDINATES (ANGSTROEM)
---------------------------------
  C      4.906460   -3.102820   -5.954840
  C      3.511770   -2.806210   -6.492280
  H      2.736040   -3.373450   -5.973740
  H      3.444900   -3.040830   -7.555280
  S      3.004620   -1.096210   -6.389260
  O      4.128860   -0.329650   -6.953720
  O      1.781280   -1.000780   -7.136400
  F      2.851550   -0.783680   -4.956790
  H      5.627030   -2.524240   -6.494220
  H      5.121640   -4.143870   -6.076540
  H      4.950040   -2.848620   -4.916390

 Total Charge           Charge          ....    0
 Multiplicity           Mult            ....    1
 Number of Electrons    NEL             ....   58
 Basis Dimension        Dim             ....  222

ORBITAL ENERGIES
----------------

  NO   OCC          E(Eh)            E(eV)
   0   2.0000     -88.331809     -2403.6307
   1   2.0000     -24.382888      -663.4921
   2   2.0000     -18.782339      -511.0934
   3   2.0000     -18.771095      -510.7875
   4   2.0000      -9.963434      -271.1188
   5   2.0000      -9.922667      -270.0095
   6   2.0000      -7.863243      -213.9697
   7   2.0000      -5.895564      -160.4264
   8   2.0000      -5.888776      -160.2417
   9   2.0000      -5.888508      -160.2345
  10   2.0000      -1.243293       -33.8317
  11   2.0000      -1.009342       -27.4656
  12   2.0000      -0.917316       -24.9614
  13   2.0000      -0.744711       -20.2646
  14   2.0000      -0.650401       -17.6983
  15   2.0000      -0.604588       -16.4517
  16   2.0000      -0.513945       -13.9852
  17   2.0000      -0.495807       -13.4916
  18   2.0000      -0.482509       -13.1297
  19   2.0000      -0.440170       -11.9776
  20   2.0000      -0.420817       -11.4510
  21   2.0000      -0.397800       -10.8247
  22   2.0000      -0.380159       -10.3447
  23   2.0000      -0.358981        -9.7684
  24   2.0000      -0.351937        -9.5767
  25   2.0000      -0.327385        -8.9086
  26   2.0000      -0.287787        -7.8311
  27   2.0000      -0.277095        -7.5401
  28   2.0000      -0.260648        -7.0926
  29   0.0000      -0.014873        -0.4047
  30   0.0000       0.014250         0.3878
  31   0.0000       0.033258         0.9050
  32   0.0000       0.045285         1.2323
  33   0.0000       0.053971         1.4686

MULLIKEN ATOMIC CHARGES
-----------------------
   0 C :   -0.300063
   1 C :   -0.199380
   2 H :    0.116990
   3 H :    0.138073
   4 S :    0.786591
   5 O :   -0.416998
   6 O :   -0.371360
   7 F :   -0.108333
   8 H :    0.136437
   9 H :    0.112039
  10 H :    0.106004
Sum of atomic charges:    0.0000000

LOEWDIN ATOMIC CHARGES
----------------------
   0 C :   -0.306960
   1 C :   -0.394696
   2 H :    0.133527
   3 H :    0.148077
   4 S :    0.510494
   5 O :   -0.282437
   6 O :   -0.240849
   7 F :    0.068435
   8 H :    0.124769
   9 H :    0.121925
  10 H :    0.117716

  Mayer bond orders larger than 0.100000
B(  0-C ,  1-C ) :   0.9451 B(  0-C ,  8-H ) :   0.9663 B(  0-C ,  9-H ) :   0.9571
B(  0-C , 10-H ) :   0.9703 B(  1-C ,  2-H ) :   0.9388 B(  1-C ,  3-H ) :   0.9390
B(  1-C ,  4-S ) :   0.8942 B(  4-S ,  5-O ) :   1.8915 B(  4-S ,  6-O ) :   1.9707
B(  4-S ,  7-F ) :   1.1103

Dispersion correction           -0.019560807
FINAL SINGLE POINT ENERGY      -727.783779743840

DIPOLE MOMENT
-------------
                                X             Y             Z
Electronic contribution:     -5.18359       7.51542       1.61403
Nuclear contribution   :      5.52019      -8.89046      -0.84835
                        -----------------------------------------
Total Dipole Moment    :      0.33660      -1.37503       0.76568
                        -----------------------------------------
Magnitude (a.u.)       :      1.60944
Magnitude (Debye)      :      4.09086

Rotational constants in cm-1:     0.153332     0.082132     0.079755
Rotational constants in MHz :  4596.775407  2462.251277  2391.008596

                             ****ORCA TERMINATED NORMALLY****
TOTAL RUN TIME: 0 days 0 hours 0 minutes 6 seconds 827 msec
