                         Program Version 5.0.0 -  RELEASE  -
|  1> !BLYP D3BJ RIJCOSX def2-TZVP def2/J TightSCF
|  2> *xyz 0 1
|  3> C          4.49059        1.15590       -2.46929
|  4> N          4.30539        1.22276       -3.90832
|  5> C          4.63192        2.24637       -4.67096
|  6> N          4.54169        2.14399       -5.98714
|  7> C          5.08409        3.39358       -4.11855
|  8> H          4.92067        3.57050       -3.13587
|  9> H          5.25465        4.19739       -4.70696
| 10> H          3.82453        0.44911       -4.35093
| 11> H          4.34337        1.24932       -6.41665
| 12> H          4.67671        2.95662       -6.57411
| 13> C          5.94213        0.93950       -2.03689
| 14> H          3.86431        0.32853       -2.13661
| 15> H          4.07623        2.04999       -1.98901
| 16> H          6.32982        0.06401       -2.51451
| 17> H          5.98308        0.81426       -0.97504
| 18> H          6.52865        1.78889       -2.31873
| 19> *
| 20>
| 21> %MaxCore 64000
| 22>
| 23> %pal nprocs 4
| 24> end
| 25>
| 26> %scf
| 27>   MaxIter 150
| 28> end
| 29>
| 30>
| 31>                          ****END OF INPUT****

CARTESIAN COORDINATES (ANGSTROEM)
---------------------------------
  C      4.490590    1.155900   -2.469290
  N      4.305390    1.222760   -3.908320
  C      4.631920    2.246370   -4.670960
  N      4.541690    2.143990   -5.987140
  C      5.084090    3.393580   -4.118550
  H      4.920670    3.570500   -3.135870
  H      5.254650    4.197390   -4.706960
  H      3.824530    0.449110   -4.350930
  H      4.343370    1.249320   -6.416650
  H      4.676710    2.956620   -6.574110
  C      5.942130    0.939500   -2.036890
  H      3.864310    0.328530   -2.136610
  H      4.076230    2.049990   -1.989010
  H      6.329820    0.064010   -2.514510
  H      5.983080    0.814260   -0.975040
  H      6.528650    1.788890   -2.318730

 Total Charge           Charge          ....    0
 Multiplicity           Mult            ....    1
 Number of Electrons    NEL             ....   48
 Basis Dimension        Dim             ....  246

ORBITAL ENERGIES
----------------

  NO   OCC          E(Eh)            E(eV)
   0   2.0000     -14.006637      -381.1400
   1   2.0000     -14.003335      -381.0501
   2   2.0000      -9.942670      -270.5538
   3   2.0000      -9.934300      -270.3260
   4   2.0000      -9.880212      -268.8542
   5   2.0000      -9.813033      -267.0262
   6   2.0000      -0.878774       -23.9127
   7   2.0000      -0.801797       -21.8180
   8   2.0000      -0.673767       -18.3341
   9   2.0000      -0.629366       -17.1259
  10   2.0000      -0.570806       -15.5324
  11   2.0000      -0.499878       -13.6024
  12   2.0000      -0.493314       -13.4238
  13   2.0000      -0.464200       -12.6315
  14   2.0000      -0.415676       -11.3111
  15   2.0000      -0.386024       -10.5042
  16   2.0000      -0.359591        -9.7850
  17   2.0000      -0.343873        -9.3573
  18   2.0000      -0.331403        -9.0179
  19   2.0000      -0.315647        -8.5892
  20   2.0000      -0.310436        -8.4474
  21   2.0000      -0.299049        -8.1375
  22   2.0000      -0.203775        -5.5450
  23   2.0000      -0.125691        -3.4202
  24   0.0000      -0.001921        -0.0523
  25   0.0000       0.026571         0.7230
  26   0.0000       0.038213         1.0398
  27   0.0000       0.051968         1.4141
  28   0.0000       0.067741         1.8433

MULLIKEN ATOMIC CHARGES
-----------------------
   0 C :   -0.081393
   1 N :   -0.272561
   2 C :    0.364181
   3 N :   -0.418992
   4 C :   -0.506553
   5 H :    0.076192
   6 H :    0.052243
   7 H :    0.166226
   8 H :    0.188092
   9 H :    0.220387
  10 C :   -0.250780
  11 H :    0.081653
  12 H :    0.091512
  13 H :    0.074269
  14 H :    0.087308
  15 H :    0.128217
Sum of atomic charges:    0.0000000

LOEWDIN ATOMIC CHARGES
----------------------
   0 C :   -0.296977
   1 N :    0.128833
   2 C :   -0.469619
   3 N :    0.002923
   4 C :   -0.350467
   5 H :    0.094704
   6 H :    0.089878
   7 H :    0.172661
   8 H :    0.155529
   9 H :    0.174340
  10 C :   -0.296022
  11 H :    0.125503
  12 H :    0.125824
  13 H :    0.109736
  14 H :    0.112632
  15 H :    0.120522

  Mayer bond orders larger than 0.100000
B(  0-C ,  1-N ) :   0.9782 B(  0-C , 10-C ) :   0.9464 B(  0-C , 11-H ) :   0.9646
B(  0-C , 12-H ) :   0.9669 B(  1-N ,  2-C ) :   1.1781 B(  1-N ,  7-H ) :   0.9344
B(  2-C ,  3-N ) :   1.1359 B(  2-C ,  4-C ) :   1.5847 B(  3-N ,  8-H ) :   0.9306
B(  3-N ,  9-H ) :   0.9256 B(  4-C ,  5-H ) :   0.9953 B(  4-C ,  6-H ) :   0.9979
B( 10-C , 13-H ) :   0.9696 B( 10-C , 14-H ) :   0.9658 B( 10-C , 15-H ) :   0.9732

Dispersion correction           -0.026154205
FINAL SINGLE POINT ENERGY      -267.904200638442

DIPOLE MOMENT
-------------
                                X             Y             Z
Electronic contribution:     -1.91080      -0.16025      -3.89700
Nuclear contribution   :      1.39581      -0.78630       3.38596
                        -----------------------------------------
Total Dipole Moment    :     -0.51499      -0.94655      -0.51104
                        -----------------------------------------
Magnitude (a.u.)       :      1.19262
Magnitude (Debye)      :      3.03139

Rotational constants in cm-1:     0.239249     0.075811     0.066261
Rotational constants in MHz :  7172.504830  2272.756282  1986.457543

                             ****ORCA TERMINATED NORMALLY****
TOTAL RUN TIME: 0 days 0 hours 0 minutes 9 seconds 737 msec
