                         Program Version 5.0.0 -  RELEASE  -
|  1> !BLYP D3BJ RIJCOSX def2-TZVP def2/J TightSCF xyzfile
|  2>
|  3> *xyzfile 0 1 D2.xyz
|  4>
|  5> %MaxCore 64000
|  6>
|  7> %pal nprocs 18
|  8> end
|  9>
| 10> %scf
| 11>   MaxIter 150
| 12> end
| 13>
| 14>
| 15>                          ****END OF INPUT****

CARTESIAN COORDINATES (ANGSTROEM)
---------------------------------
  C      4.490588    1.155899   -2.469290
  N      4.305394    1.222762   -3.908317
  C      4.906458   -3.102816   -5.954844
  C      3.511771   -2.806215   -6.492283
  H      2.736044   -3.373445   -5.973736
  H      3.444904   -3.040831   -7.555281
  S      3.004618   -1.096206   -6.389259
  C      4.631918    2.246365   -4.670958
  C      4.541686    2.143990   -5.987139
  N      5.084086    3.393584   -4.118545
  H      4.920675    3.570501   -3.135870
  H      5.254652    4.197390   -4.706956
  H      3.824530    0.449113   -4.350926
  H      4.343373    1.249318   -6.416646
  H      4.676712    2.956624   -6.574113
  F      4.128856   -0.329647   -6.953717
  O      1.781285   -1.000779   -7.136399
  C      5.942129    0.939500   -2.036893
  H      3.864305    0.328532   -2.136611
  H      4.076233    2.049994   -1.989010
  C      6.462677   -3.117775   -3.944671
  C      5.024977   -3.025679   -4.437625
  H      4.423321   -3.818693   -3.977648
  H      4.579350   -2.087131   -4.108727
  H      5.201533   -4.100207   -6.296905
  H      5.605922   -2.397822   -6.413368
  C      6.559957   -0.356290   -2.559086
  H      5.967976    0.952567   -0.942444
  H      6.547184    1.788331   -2.368849
  C      6.006283   -1.615917   -1.899301
  H      7.642360   -0.318000   -2.402059
  H      6.414855   -0.403433   -3.642587
  C      6.608718   -2.917014   -2.435655
  H      6.190324   -1.561115   -0.820948
  H      4.919250   -1.651245   -2.016586
  H      7.066975   -2.374258   -4.475514
  H      6.887808   -4.089747   -4.215332
  H      6.135197   -3.755573   -1.915159
  H      7.671142   -2.955503   -2.172291
  O      2.851546   -0.783683   -4.956789

 Total Charge           Charge          ....    0
 Multiplicity           Mult            ....    1
 Number of Electrons    NEL             ....  144
 Basis Dimension        Dim             ....  671

ORBITAL ENERGIES
----------------

  NO   OCC          E(Eh)            E(eV)
   0   2.0000     -88.343891     -2403.9595
   1   2.0000     -24.389251      -663.6653
   2   2.0000     -18.790800      -511.3237
   3   2.0000     -18.788981      -511.2742
   4   2.0000     -13.989580      -380.6758
   5   2.0000     -13.975315      -380.2876
   6   2.0000      -9.966236      -271.1951
   7   2.0000      -9.934091      -270.3203
   8   2.0000      -9.927165      -270.1319
   9   2.0000      -9.925595      -270.0892
  10   2.0000      -9.908634      -269.6276
  11   2.0000      -9.904478      -269.5145
  12   2.0000      -9.900524      -269.4070
  13   2.0000      -9.895716      -269.2761
  14   2.0000      -9.891998      -269.1750
  15   2.0000      -9.891540      -269.1625
  16   2.0000      -9.797641      -266.6074
  17   2.0000      -7.875432      -214.3014
  18   2.0000      -5.907682      -160.7562
  19   2.0000      -5.901201      -160.5798
  20   2.0000      -5.900532      -160.5616
  21   2.0000      -1.254203       -34.1286
  22   2.0000      -1.022318       -27.8187
  23   2.0000      -0.934100       -25.4182
  24   2.0000      -0.858607       -23.3639
  25   2.0000      -0.781246       -21.2588
  26   2.0000      -0.763814       -20.7844
  27   2.0000      -0.731402       -19.9025
  28   2.0000      -0.704281       -19.1645
  29   2.0000      -0.672549       -18.3010
  30   2.0000      -0.652173       -17.7465
  31   2.0000      -0.627354       -17.0712
  32   2.0000      -0.606021       -16.4907
  33   2.0000      -0.577432       -15.7127
  34   2.0000      -0.556915       -15.1544
  35   2.0000      -0.535461       -14.5706
  36   2.0000      -0.524428       -14.2704
  37   2.0000      -0.515802       -14.0357
  38   2.0000      -0.512545       -13.9471
  39   2.0000      -0.494233       -13.4488
  40   2.0000      -0.491487       -13.3740
  41   2.0000      -0.459159       -12.4943
  42   2.0000      -0.443741       -12.0748
  43   2.0000      -0.435418       -11.8483
  44   2.0000      -0.426515       -11.6061
  45   2.0000      -0.424316       -11.5462
  46   2.0000      -0.414181       -11.2704
  47   2.0000      -0.409149       -11.1335
  48   2.0000      -0.404228       -10.9996
  49   2.0000      -0.389243       -10.5918
  50   2.0000      -0.384485       -10.4624
  51   2.0000      -0.380394       -10.3510
  52   2.0000      -0.369316       -10.0496
  53   2.0000      -0.347456        -9.4548
  54   2.0000      -0.345024        -9.3886
  55   2.0000      -0.342426        -9.3179
  56   2.0000      -0.334112        -9.0916
  57   2.0000      -0.323538        -8.8039
  58   2.0000      -0.321195        -8.7402
  59   2.0000      -0.315304        -8.5799
  60   2.0000      -0.309405        -8.4193
  61   2.0000      -0.302135        -8.2215
  62   2.0000      -0.299209        -8.1419
  63   2.0000      -0.292330        -7.9547
  64   2.0000      -0.288312        -7.8454
  65   2.0000      -0.281036        -7.6474
  66   2.0000      -0.277936        -7.5630
  67   2.0000      -0.270994        -7.3741
  68   2.0000      -0.269070        -7.3218
  69   2.0000      -0.265917        -7.2360
  70   2.0000      -0.191995        -5.2244
  71   2.0000      -0.113204        -3.0804
  72   0.0000      -0.021217        -0.5773
  73   0.0000       0.006808         0.1853
  74   0.0000       0.012194         0.3318
  75   0.0000       0.019601         0.5334
  76   0.0000       0.022667         0.6168

MULLIKEN ATOMIC CHARGES
-----------------------
   0 C :   -0.202569
   1 N :   -0.260158
   2 C :   -0.162613
   3 C :   -0.184454
   4 H :    0.133716
   5 H :    0.138542
   6 S :    0.820812
   7 C :    0.408068
   8 C :   -0.579657
   9 N :   -0.445651
  10 H :    0.199034
  11 H :    0.205446
  12 H :    0.213828
  13 H :    0.087801
  14 H :    0.059965
  15 F :   -0.095738
  16 O :   -0.364806
  17 C :   -0.030641
  18 H :    0.107810
  19 H :    0.087757
  20 C :   -0.148639
  21 C :   -0.248329
  22 H :    0.071385
  23 H :    0.131690
  24 H :    0.096151
  25 H :    0.104008
  26 C :   -0.186541
  27 H :    0.051799
  28 H :    0.080196
  29 C :   -0.193538
  30 H :    0.070834
  31 H :    0.097856
  32 C :   -0.097399
  33 H :    0.071208
  34 H :    0.092590
  35 H :    0.091473
  36 H :    0.074009
  37 H :    0.071271
  38 H :    0.075461
  39 O :   -0.441979
Sum of atomic charges:   -0.0000000

LOEWDIN ATOMIC CHARGES
----------------------
   0 C :   -0.292775
   1 N :    0.132382
   2 C :   -0.278686
   3 C :   -0.359492
   4 H :    0.149474
   5 H :    0.141250
   6 S :    0.538303
   7 C :   -0.463857
   8 C :   -0.364466
   9 N :   -0.010326
  10 H :    0.154298
  11 H :    0.167523
  12 H :    0.159641
  13 H :    0.079288
  14 H :    0.090563
  15 F :    0.100516
  16 O :   -0.226558
  17 C :   -0.265312
  18 H :    0.131731
  19 H :    0.119091
  20 C :   -0.263205
  21 C :   -0.267744
  22 H :    0.134183
  23 H :    0.136802
  24 H :    0.142150
  25 H :    0.138394
  26 C :   -0.262039
  27 H :    0.130282
  28 H :    0.132158
  29 C :   -0.264696
  30 H :    0.132938
  31 H :    0.134765
  32 C :   -0.259307
  33 H :    0.132569
  34 H :    0.129755
  35 H :    0.133523
  36 H :    0.131602
  37 H :    0.132328
  38 H :    0.133421
  39 O :   -0.260468

  Mayer bond orders larger than 0.100000
B(  0-C ,  1-N ) :   0.9734 B(  0-C , 17-C ) :   0.9162 B(  0-C , 18-H ) :   0.9799
B(  0-C , 19-H ) :   0.9760 B(  1-N ,  7-C ) :   1.2077 B(  1-N , 12-H ) :   0.8738
B(  2-C ,  3-C ) :   0.9412 B(  2-C , 21-C ) :   0.9515 B(  2-C , 24-H ) :   0.9473
B(  2-C , 25-H ) :   0.9680 B(  3-C ,  4-H ) :   0.9409 B(  3-C ,  5-H ) :   0.9495
B(  3-C ,  6-S ) :   0.9029 B(  6-S , 15-F ) :   1.1004 B(  6-S , 16-O ) :   1.9983
B(  6-S , 39-O ) :   1.7548 B(  7-C ,  8-C ) :   1.5308 B(  7-C ,  9-N ) :   1.1184
B(  8-C , 13-H ) :   1.0294 B(  8-C , 14-H ) :   0.9917 B(  9-N , 10-H ) :   0.9236
B(  9-N , 11-H ) :   0.9314 B( 12-H , 39-O ) :   0.1054 B( 17-C , 26-C ) :   0.9657
B( 17-C , 27-H ) :   0.9498 B( 17-C , 28-H ) :   0.9542 B( 20-C , 21-C ) :   0.9610
B( 20-C , 32-C ) :   0.9735 B( 20-C , 35-H ) :   0.9691 B( 20-C , 36-H ) :   0.9604
B( 21-C , 22-H ) :   0.9567 B( 21-C , 23-H ) :   0.9683 B( 26-C , 29-C ) :   0.9603
B( 26-C , 30-H ) :   0.9588 B( 26-C , 31-H ) :   0.9668 B( 29-C , 32-C ) :   0.9651
B( 29-C , 33-H ) :   0.9554 B( 29-C , 34-H ) :   0.9764 B( 32-C , 37-H ) :   0.9646
B( 32-C , 38-H ) :   0.9614

Dispersion correction           -0.096707951
FINAL SINGLE POINT ENERGY     -1191.020129215277

DIPOLE MOMENT
-------------
                                X             Y             Z
Electronic contribution:    -16.44558       4.04301     -19.63995
Nuclear contribution   :     17.27667      -5.32157      20.03034
                        -----------------------------------------
Total Dipole Moment    :      0.83109      -1.27856       0.39038
                        -----------------------------------------
Magnitude (a.u.)       :      1.57411
Magnitude (Debye)      :      4.00107

Rotational constants in cm-1:     0.014355     0.012269     0.007481
Rotational constants in MHz :   430.360270   367.823451   224.273399

                             ****ORCA TERMINATED NORMALLY****
TOTAL RUN TIME: 0 days 0 hours 0 minutes 33 seconds 604 msec
