                         Program Version 5.0.0 -  RELEASE  -
|  1> !BLYP D3BJ RIJCOSX def2-TZVP def2/J TightSCF xyzfile
|  2>
|  3> *xyzfile 0 1 D3.xyz
|  4>
|  5> %MaxCore 64000
|  6>
|  7> %pal nprocs 18
|  8> end
|  9>
| 10> %scf
| 11>   MaxIter 150
| 12> end
| 13>
| 14>
| 15>                          ****END OF INPUT****

CARTESIAN COORDINATES (ANGSTROEM)
---------------------------------
  C      4.490588    1.155899   -2.469290
  N      4.305394    1.222762   -3.908317
  C      4.906458   -3.102816   -5.954844
  C      3.511771   -2.806215   -6.492283
  H      2.736044   -3.373445   -5.973736
  H      3.444904   -3.040831   -7.555281
  S      3.004618   -1.096206   -6.389259
  C      4.631918    2.246365   -4.670958
  N      4.541686    2.143990   -5.987139
  C      5.084086    3.393584   -4.118545
  H      4.920675    3.570501   -3.135870
  H      5.254652    4.197390   -4.706956
  H      3.824530    0.449113   -4.350926
  H      4.343373    1.249318   -6.416646
  H      4.676712    2.956624   -6.574113
  F      4.128856   -0.329647   -6.953717
  O      1.781285   -1.000779   -7.136399
  C      5.942129    0.939500   -2.036893
  H      3.864305    0.328532   -2.136611
  H      4.076233    2.049994   -1.989010
  C      6.462677   -3.117775   -3.944671
  C      5.024977   -3.025679   -4.437625
  H      4.423321   -3.818693   -3.977648
  H      4.579350   -2.087131   -4.108727
  H      5.201533   -4.100207   -6.296905
  H      5.605922   -2.397822   -6.413368
  C      6.559957   -0.356290   -2.559086
  H      5.967976    0.952567   -0.942444
  H      6.547184    1.788331   -2.368849
  C      6.006283   -1.615917   -1.899301
  H      7.642360   -0.318000   -2.402059
  H      6.414855   -0.403433   -3.642587
  C      6.608718   -2.917014   -2.435655
  H      6.190324   -1.561115   -0.820948
  H      4.919250   -1.651245   -2.016586
  H      7.066975   -2.374258   -4.475514
  H      6.887808   -4.089747   -4.215332
  H      6.135197   -3.755573   -1.915159
  H      7.671142   -2.955503   -2.172291
  O      2.851546   -0.783683   -4.956789

 Total Charge           Charge          ....    0
 Multiplicity           Mult            ....    1
 Number of Electrons    NEL             ....  144
 Basis Dimension        Dim             ....  671

ORBITAL ENERGIES
----------------

  NO   OCC          E(Eh)            E(eV)
   0   2.0000     -88.359706     -2404.3898
   1   2.0000     -24.417801      -664.4421
   2   2.0000     -18.807096      -511.7671
   3   2.0000     -18.803827      -511.6781
   4   2.0000     -13.987551      -380.6206
   5   2.0000     -13.976758      -380.3269
   6   2.0000      -9.978503      -271.5289
   7   2.0000      -9.942811      -270.5577
   8   2.0000      -9.926465      -270.1129
   9   2.0000      -9.917224      -269.8614
  10   2.0000      -9.914095      -269.7762
  11   2.0000      -9.907515      -269.5972
  12   2.0000      -9.900863      -269.4162
  13   2.0000      -9.893641      -269.2196
  14   2.0000      -9.887712      -269.0583
  15   2.0000      -9.881750      -268.8961
  16   2.0000      -9.799228      -266.6506
  17   2.0000      -7.891639      -214.7424
  18   2.0000      -5.924143      -161.2041
  19   2.0000      -5.917218      -161.0157
  20   2.0000      -5.916504      -160.9963
  21   2.0000      -1.281567       -34.8732
  22   2.0000      -1.038791       -28.2669
  23   2.0000      -0.949402       -25.8345
  24   2.0000      -0.861155       -23.4332
  25   2.0000      -0.786473       -21.4010
  26   2.0000      -0.773968       -21.0607
  27   2.0000      -0.733973       -19.9724
  28   2.0000      -0.703137       -19.1333
  29   2.0000      -0.680519       -18.5179
  30   2.0000      -0.654248       -17.8030
  31   2.0000      -0.625940       -17.0327
  32   2.0000      -0.613241       -16.6871
  33   2.0000      -0.587525       -15.9874
  34   2.0000      -0.563273       -15.3275
  35   2.0000      -0.548665       -14.9299
  36   2.0000      -0.538014       -14.6401
  37   2.0000      -0.528488       -14.3809
  38   2.0000      -0.516272       -14.0485
  39   2.0000      -0.499399       -13.5893
  40   2.0000      -0.479673       -13.0526
  41   2.0000      -0.468216       -12.7408
  42   2.0000      -0.460395       -12.5280
  43   2.0000      -0.446077       -12.1384
  44   2.0000      -0.440752       -11.9935
  45   2.0000      -0.425872       -11.5886
  46   2.0000      -0.419503       -11.4152
  47   2.0000      -0.412248       -11.2178
  48   2.0000      -0.403888       -10.9903
  49   2.0000      -0.393733       -10.7140
  50   2.0000      -0.384922       -10.4742
  51   2.0000      -0.381142       -10.3714
  52   2.0000      -0.368596       -10.0300
  53   2.0000      -0.357645        -9.7320
  54   2.0000      -0.346312        -9.4236
  55   2.0000      -0.341553        -9.2941
  56   2.0000      -0.336419        -9.1544
  57   2.0000      -0.329052        -8.9539
  58   2.0000      -0.319779        -8.7016
  59   2.0000      -0.318362        -8.6631
  60   2.0000      -0.310912        -8.4604
  61   2.0000      -0.304661        -8.2903
  62   2.0000      -0.303490        -8.2584
  63   2.0000      -0.298730        -8.1289
  64   2.0000      -0.290783        -7.9126
  65   2.0000      -0.284893        -7.7523
  66   2.0000      -0.284636        -7.7453
  67   2.0000      -0.270908        -7.3718
  68   2.0000      -0.269812        -7.3420
  69   2.0000      -0.261176        -7.1070
  70   2.0000      -0.187255        -5.0955
  71   2.0000      -0.111875        -3.0443
  72   0.0000      -0.039779        -1.0824
  73   0.0000      -0.003445        -0.0937
  74   0.0000       0.007673         0.2088
  75   0.0000       0.015652         0.4259
  76   0.0000       0.017110         0.4656

MULLIKEN ATOMIC CHARGES
-----------------------
   0 C :   -0.142647
   1 N :   -0.273355
   2 C :   -0.167596
   3 C :   -0.178785
   4 H :    0.140192
   5 H :    0.141726
   6 S :    0.803911
   7 C :    0.352892
   8 N :   -0.447367
   9 C :   -0.514177
  10 H :    0.075946
  11 H :    0.046528
  12 H :    0.187276
  13 H :    0.195971
  14 H :    0.212616
  15 F :   -0.122154
  16 O :   -0.355351
  17 C :   -0.044128
  18 H :    0.099535
  19 H :    0.093903
  20 C :   -0.146263
  21 C :   -0.251091
  22 H :    0.073983
  23 H :    0.133473
  24 H :    0.100848
  25 H :    0.100203
  26 C :   -0.179453
  27 H :    0.053850
  28 H :    0.100620
  29 C :   -0.195473
  30 H :    0.070759
  31 H :    0.077681
  32 C :   -0.097974
  33 H :    0.072018
  34 H :    0.091427
  35 H :    0.090177
  36 H :    0.074586
  37 H :    0.070929
  38 H :    0.076324
  39 O :   -0.421560
Sum of atomic charges:   -0.0000000

LOEWDIN ATOMIC CHARGES
----------------------
   0 C :   -0.274757
   1 N :    0.128226
   2 C :   -0.278674
   3 C :   -0.357180
   4 H :    0.152041
   5 H :    0.142112
   6 S :    0.529393
   7 C :   -0.473753
   8 N :   -0.010343
   9 C :   -0.358519
  10 H :    0.093673
  11 H :    0.087032
  12 H :    0.149105
  13 H :    0.132054
  14 H :    0.170804
  15 F :    0.085839
  16 O :   -0.221207
  17 C :   -0.259811
  18 H :    0.128061
  19 H :    0.127746
  20 C :   -0.263150
  21 C :   -0.267897
  22 H :    0.134950
  23 H :    0.137113
  24 H :    0.143710
  25 H :    0.136848
  26 C :   -0.263465
  27 H :    0.131316
  28 H :    0.140601
  29 C :   -0.265081
  30 H :    0.132600
  31 H :    0.129236
  32 C :   -0.259445
  33 H :    0.133194
  34 H :    0.128986
  35 H :    0.133231
  36 H :    0.131603
  37 H :    0.132034
  38 H :    0.133852
  39 O :   -0.252077

  Mayer bond orders larger than 0.100000
B(  0-C ,  1-N ) :   0.9683 B(  0-C , 17-C ) :   0.9459 B(  0-C , 18-H ) :   0.9787
B(  0-C , 19-H ) :   0.9602 B(  1-N ,  7-C ) :   1.1881 B(  1-N , 12-H ) :   0.8798
B(  2-C ,  3-C ) :   0.9399 B(  2-C , 21-C ) :   0.9458 B(  2-C , 24-H ) :   0.9469
B(  2-C , 25-H ) :   0.9704 B(  3-C ,  4-H ) :   0.9384 B(  3-C ,  5-H ) :   0.9487
B(  3-C ,  6-S ) :   0.8995 B(  6-S , 15-F ) :   1.0586 B(  6-S , 16-O ) :   2.0034
B(  6-S , 39-O ) :   1.7775 B(  7-C ,  8-N ) :   1.1311 B(  7-C ,  9-C ) :   1.5935
B(  8-N , 13-H ) :   0.9076 B(  8-N , 14-H ) :   0.9282 B(  9-C , 10-H ) :   0.9989
B(  9-C , 11-H ) :   0.9947 B( 17-C , 26-C ) :   0.9728 B( 17-C , 27-H ) :   0.9574
B( 17-C , 28-H ) :   0.9485 B( 20-C , 21-C ) :   0.9614 B( 20-C , 32-C ) :   0.9746
B( 20-C , 35-H ) :   0.9681 B( 20-C , 36-H ) :   0.9604 B( 21-C , 22-H ) :   0.9565
B( 21-C , 23-H ) :   0.9692 B( 26-C , 29-C ) :   0.9583 B( 26-C , 30-H ) :   0.9599
B( 26-C , 31-H ) :   0.9634 B( 29-C , 32-C ) :   0.9625 B( 29-C , 33-H ) :   0.9561
B( 29-C , 34-H ) :   0.9770 B( 32-C , 37-H ) :   0.9648 B( 32-C , 38-H ) :   0.9610

Dispersion correction           -0.096580061
FINAL SINGLE POINT ENERGY     -1191.021730323521

DIPOLE MOMENT
-------------
                                X             Y             Z
Electronic contribution:    -16.95369       2.75070     -21.37048
Nuclear contribution   :     17.35766      -5.13497      20.30937
                        -----------------------------------------
Total Dipole Moment    :      0.40397      -2.38427      -1.06111
                        -----------------------------------------
Magnitude (a.u.)       :      2.64081
Magnitude (Debye)      :      6.71240

Rotational constants in cm-1:     0.014431     0.012329     0.007535
Rotational constants in MHz :   432.628327   369.619539   225.898827

                             ****ORCA TERMINATED NORMALLY****
TOTAL RUN TIME: 0 days 0 hours 0 minutes 37 seconds 859 msec
