                         Program Version 5.0.0 -  RELEASE  -
|  1> !BLYP D3BJ RIJCOSX def2-TZVP def2/J TightSCF xyzfile
|  2>
|  3> *xyzfile 0 1 D4.xyz
|  4>
|  5> %MaxCore 64000
|  6>
|  7> %pal nprocs 18
|  8> end
|  9>
| 10> %scf
| 11>   MaxIter 150
| 12> end
| 13>
| 14>
| 15>                          ****END OF INPUT****

CARTESIAN COORDINATES (ANGSTROEM)
---------------------------------
  C      4.490588    1.155899   -2.469290
  C      4.305394    1.222762   -3.908317
  C      4.906458   -3.102816   -5.954844
  C      3.511771   -2.806215   -6.492283
  H      2.736044   -3.373445   -5.973736
  H      3.444904   -3.040831   -7.555281
  S      3.004618   -1.096206   -6.389259
  C      4.631918    2.246365   -4.670958
  N      4.541686    2.143990   -5.987139
  N      5.084086    3.393584   -4.118545
  H      4.920675    3.570501   -3.135870
  H      5.254652    4.197390   -4.706956
  H      3.824530    0.449113   -4.350926
  H      4.343373    1.249318   -6.416646
  H      4.676712    2.956624   -6.574113
  O      4.128856   -0.329647   -6.953717
  F      1.781285   -1.000779   -7.136399
  C      5.942129    0.939500   -2.036893
  H      3.864305    0.328532   -2.136611
  H      4.076233    2.049994   -1.989010
  C      6.462677   -3.117775   -3.944671
  C      5.024977   -3.025679   -4.437625
  H      4.423321   -3.818693   -3.977648
  H      4.579350   -2.087131   -4.108727
  H      5.201533   -4.100207   -6.296905
  H      5.605922   -2.397822   -6.413368
  C      6.559957   -0.356290   -2.559086
  H      5.967976    0.952567   -0.942444
  H      6.547184    1.788331   -2.368849
  C      6.006283   -1.615917   -1.899301
  H      7.642360   -0.318000   -2.402059
  H      6.414855   -0.403433   -3.642587
  C      6.608718   -2.917014   -2.435655
  H      6.190324   -1.561115   -0.820948
  H      4.919250   -1.651245   -2.016586
  H      7.066975   -2.374258   -4.475514
  H      6.887808   -4.089747   -4.215332
  H      6.135197   -3.755573   -1.915159
  H      7.671142   -2.955503   -2.172291
  O      2.851546   -0.783683   -4.956789

 Total Charge           Charge          ....    0
 Multiplicity           Mult            ....    1
 Number of Electrons    NEL             ....  144
 Basis Dimension        Dim             ....  671

ORBITAL ENERGIES
----------------

  NO   OCC          E(Eh)            E(eV)
   0   2.0000     -88.348530     -2404.0857
   1   2.0000     -24.412363      -664.2942
   2   2.0000     -18.791727      -511.3489
   3   2.0000     -18.782816      -511.1064
   4   2.0000     -13.979790      -380.4094
   5   2.0000     -13.960574      -379.8865
   6   2.0000      -9.967863      -271.2393
   7   2.0000      -9.928797      -270.1763
   8   2.0000      -9.910074      -269.6668
   9   2.0000      -9.897967      -269.3374
  10   2.0000      -9.892724      -269.1947
  11   2.0000      -9.886482      -269.0249
  12   2.0000      -9.876473      -268.7525
  13   2.0000      -9.867473      -268.5076
  14   2.0000      -9.861606      -268.3479
  15   2.0000      -9.854500      -268.1546
  16   2.0000      -9.784141      -266.2400
  17   2.0000      -7.880141      -214.4295
  18   2.0000      -5.912289      -160.8816
  19   2.0000      -5.905868      -160.7068
  20   2.0000      -5.905240      -160.6897
  21   2.0000      -1.285020       -34.9672
  22   2.0000      -1.016557       -27.6619
  23   2.0000      -0.924030       -25.1441
  24   2.0000      -0.838669       -22.8213
  25   2.0000      -0.760123       -20.6840
  26   2.0000      -0.755302       -20.5528
  27   2.0000      -0.719952       -19.5909
  28   2.0000      -0.692733       -18.8502
  29   2.0000      -0.674575       -18.3561
  30   2.0000      -0.647679       -17.6242
  31   2.0000      -0.622179       -16.9304
  32   2.0000      -0.591532       -16.0964
  33   2.0000      -0.565256       -15.3814
  34   2.0000      -0.544213       -14.8088
  35   2.0000      -0.532027       -14.4772
  36   2.0000      -0.521976       -14.2037
  37   2.0000      -0.518863       -14.1190
  38   2.0000      -0.503934       -13.7128
  39   2.0000      -0.487476       -13.2649
  40   2.0000      -0.472527       -12.8581
  41   2.0000      -0.459236       -12.4964
  42   2.0000      -0.443481       -12.0677
  43   2.0000      -0.438251       -11.9254
  44   2.0000      -0.422726       -11.5030
  45   2.0000      -0.410571       -11.1722
  46   2.0000      -0.410191       -11.1619
  47   2.0000      -0.397707       -10.8222
  48   2.0000      -0.390970       -10.6388
  49   2.0000      -0.378576       -10.3016
  50   2.0000      -0.371137       -10.0992
  51   2.0000      -0.359828        -9.7914
  52   2.0000      -0.358079        -9.7438
  53   2.0000      -0.350238        -9.5305
  54   2.0000      -0.332190        -9.0394
  55   2.0000      -0.327070        -8.9000
  56   2.0000      -0.323829        -8.8118
  57   2.0000      -0.317330        -8.6350
  58   2.0000      -0.301813        -8.2127
  59   2.0000      -0.299066        -8.1380
  60   2.0000      -0.295730        -8.0472
  61   2.0000      -0.288088        -7.8393
  62   2.0000      -0.281161        -7.6508
  63   2.0000      -0.274190        -7.4611
  64   2.0000      -0.270388        -7.3576
  65   2.0000      -0.269373        -7.3300
  66   2.0000      -0.257716        -7.0128
  67   2.0000      -0.250651        -6.8206
  68   2.0000      -0.242075        -6.5872
  69   2.0000      -0.226573        -6.1654
  70   2.0000      -0.188088        -5.1181
  71   2.0000      -0.095459        -2.5976
  72   0.0000      -0.018590        -0.5059
  73   0.0000      -0.000206        -0.0056
  74   0.0000       0.018600         0.5061
  75   0.0000       0.022123         0.6020
  76   0.0000       0.026573         0.7231

MULLIKEN ATOMIC CHARGES
-----------------------
   0 C :   -0.259405
   1 C :   -0.330543
   2 C :   -0.139818
   3 C :   -0.171785
   4 H :    0.118415
   5 H :    0.124498
   6 S :    0.806103
   7 C :    0.297459
   8 N :   -0.433758
   9 N :   -0.437712
  10 H :    0.212282
  11 H :    0.179457
  12 H :    0.173784
  13 H :    0.241240
  14 H :    0.168093
  15 O :   -0.435095
  16 F :   -0.074373
  17 C :   -0.038808
  18 H :    0.067068
  19 H :    0.043345
  20 C :   -0.147002
  21 C :   -0.265388
  22 H :    0.062698
  23 H :    0.161188
  24 H :    0.093342
  25 H :    0.115541
  26 C :   -0.137606
  27 H :    0.033450
  28 H :    0.062699
  29 C :   -0.199430
  30 H :    0.053817
  31 H :    0.096372
  32 C :   -0.091504
  33 H :    0.063803
  34 H :    0.092634
  35 H :    0.091181
  36 H :    0.066265
  37 H :    0.063837
  38 H :    0.069431
  39 O :   -0.395774
Sum of atomic charges:    0.0000000

LOEWDIN ATOMIC CHARGES
----------------------
   0 C :   -0.284597
   1 C :   -0.282694
   2 C :   -0.266943
   3 C :   -0.365797
   4 H :    0.139169
   5 H :    0.136358
   6 S :    0.527040
   7 C :   -0.465216
   8 N :   -0.009847
   9 N :   -0.017564
  10 H :    0.165132
  11 H :    0.150212
  12 H :    0.109980
  13 H :    0.142678
  14 H :    0.146901
  15 O :   -0.257309
  16 F :    0.120398
  17 C :   -0.258711
  18 H :    0.136057
  19 H :    0.118446
  20 C :   -0.262921
  21 C :   -0.264372
  22 H :    0.131734
  23 H :    0.143698
  24 H :    0.142856
  25 H :    0.145903
  26 C :   -0.261614
  27 H :    0.121697
  28 H :    0.128382
  29 C :   -0.264009
  30 H :    0.127750
  31 H :    0.134917
  32 C :   -0.261057
  33 H :    0.130800
  34 H :    0.130378
  35 H :    0.134555
  36 H :    0.129122
  37 H :    0.129924
  38 H :    0.131852
  39 O :   -0.233288

  Mayer bond orders larger than 0.100000
B(  0-C ,  1-C ) :   1.0124 B(  0-C , 17-C ) :   0.9441 B(  0-C , 18-H ) :   0.9931
B(  0-C , 19-H ) :   0.9563 B(  1-C ,  7-C ) :   1.6165 B(  1-C , 12-H ) :   0.9563
B(  2-C ,  3-C ) :   0.9560 B(  2-C , 21-C ) :   0.9758 B(  2-C , 24-H ) :   0.9441
B(  2-C , 25-H ) :   0.9557 B(  3-C ,  4-H ) :   0.9325 B(  3-C ,  5-H ) :   0.9356
B(  3-C ,  6-S ) :   0.9061 B(  6-S , 15-O ) :   1.7821 B(  6-S , 16-F ) :   1.1607
B(  6-S , 39-O ) :   1.8625 B(  7-C ,  8-N ) :   1.1789 B(  7-C ,  9-N ) :   1.1119
B(  8-N , 13-H ) :   0.8598 B(  8-N , 14-H ) :   0.9358 B(  9-N , 10-H ) :   0.9208
B(  9-N , 11-H ) :   0.9369 B( 13-H , 15-O ) :   0.1073 B( 17-C , 26-C ) :   0.9860
B( 17-C , 27-H ) :   0.9506 B( 17-C , 28-H ) :   0.9522 B( 20-C , 21-C ) :   0.9713
B( 20-C , 32-C ) :   0.9779 B( 20-C , 35-H ) :   0.9670 B( 20-C , 36-H ) :   0.9594
B( 21-C , 22-H ) :   0.9562 B( 21-C , 23-H ) :   0.9612 B( 26-C , 29-C ) :   0.9624
B( 26-C , 30-H ) :   0.9585 B( 26-C , 31-H ) :   0.9613 B( 29-C , 32-C ) :   0.9617
B( 29-C , 33-H ) :   0.9556 B( 29-C , 34-H ) :   0.9780 B( 32-C , 37-H ) :   0.9638
B( 32-C , 38-H ) :   0.9593

Dispersion correction           -0.097893601
FINAL SINGLE POINT ENERGY     -1191.009739590387

DIPOLE MOMENT
-------------
                                X             Y             Z
Electronic contribution:    -20.59607       3.68214     -22.06261
Nuclear contribution   :     19.99734      -4.67125      20.55522
                        -----------------------------------------
Total Dipole Moment    :     -0.59873      -0.98910      -1.50739
                        -----------------------------------------
Magnitude (a.u.)       :      1.89974
Magnitude (Debye)      :      4.82876

Rotational constants in cm-1:     0.014213     0.012058     0.007367
Rotational constants in MHz :   426.102180   361.491761   220.844824

                             ****ORCA TERMINATED NORMALLY****
TOTAL RUN TIME: 0 days 0 hours 0 minutes 31 seconds 867 msec
