                         Program Version 5.0.0 -  RELEASE  -
|  1> !BLYP D3BJ RIJCOSX def2-TZVP def2/J TightSCF xyzfile
|  2>
|  3> *xyzfile 0 1 D6.xyz
|  4>
|  5> %MaxCore 64000
|  6>
|  7> %pal nprocs 18
|  8> end
|  9>
| 10> %scf
| 11>   MaxIter 150
| 12> end
| 13>
| 14>
| 15>                          ****END OF INPUT****

CARTESIAN COORDINATES (ANGSTROEM)
---------------------------------
  C      4.490588    1.155899   -2.469290
  N      4.305394    1.222762   -3.908317
  C      4.906458   -3.102816   -5.954844
  C      3.511771   -2.806215   -6.492283
  H      2.736044   -3.373445   -5.973736
  H      3.444904   -3.040831   -7.555281
  S      3.004618   -1.096206   -6.389259
  C      4.631918    2.246365   -4.670958
  N      4.541686    2.143990   -5.987139
  C      5.084086    3.393584   -4.118545
  H      4.920675    3.570501   -3.135870
  H      5.254652    4.197390   -4.706956
  H      3.824530    0.449113   -4.350926
  H      4.343373    1.249318   -6.416646
  H      4.676712    2.956624   -6.574113
  O      4.128856   -0.329647   -6.953717
  F      1.781285   -1.000779   -7.136399
  C      5.942129    0.939500   -2.036893
  H      3.864305    0.328532   -2.136611
  H      4.076233    2.049994   -1.989010
  C      6.462677   -3.117775   -3.944671
  C      5.024977   -3.025679   -4.437625
  H      4.423321   -3.818693   -3.977648
  H      4.579350   -2.087131   -4.108727
  H      5.201533   -4.100207   -6.296905
  H      5.605922   -2.397822   -6.413368
  C      6.559957   -0.356290   -2.559086
  H      5.967976    0.952567   -0.942444
  H      6.547184    1.788331   -2.368849
  C      6.006283   -1.615917   -1.899301
  H      7.642360   -0.318000   -2.402059
  H      6.414855   -0.403433   -3.642587
  C      6.608718   -2.917014   -2.435655
  H      6.190324   -1.561115   -0.820948
  H      4.919250   -1.651245   -2.016586
  H      7.066975   -2.374258   -4.475514
  H      6.887808   -4.089747   -4.215332
  H      6.135197   -3.755573   -1.915159
  H      7.671142   -2.955503   -2.172291
  O      2.851546   -0.783683   -4.956789

 Total Charge           Charge          ....    0
 Multiplicity           Mult            ....    1
 Number of Electrons    NEL             ....  144
 Basis Dimension        Dim             ....  671

ORBITAL ENERGIES
----------------

  NO   OCC          E(Eh)            E(eV)
   0   2.0000     -88.367943     -2404.6140
   1   2.0000     -24.428703      -664.7388
   2   2.0000     -18.807605      -511.7810
   3   2.0000     -18.807330      -511.7735
   4   2.0000     -13.966034      -380.0351
   5   2.0000     -13.960401      -379.8818
   6   2.0000      -9.982621      -271.6409
   7   2.0000      -9.941489      -270.5217
   8   2.0000      -9.911736      -269.7121
   9   2.0000      -9.911338      -269.7012
  10   2.0000      -9.909480      -269.6507
  11   2.0000      -9.903669      -269.4925
  12   2.0000      -9.897019      -269.3116
  13   2.0000      -9.888907      -269.0908
  14   2.0000      -9.880923      -268.8736
  15   2.0000      -9.874487      -268.6985
  16   2.0000      -9.785805      -266.2853
  17   2.0000      -7.899523      -214.9570
  18   2.0000      -5.931600      -161.4071
  19   2.0000      -5.925469      -161.2402
  20   2.0000      -5.924495      -161.2137
  21   2.0000      -1.301221       -35.4080
  22   2.0000      -1.036453       -28.2033
  23   2.0000      -0.944490       -25.7009
  24   2.0000      -0.844931       -22.9917
  25   2.0000      -0.773588       -21.0504
  26   2.0000      -0.768328       -20.9073
  27   2.0000      -0.731648       -19.9092
  28   2.0000      -0.703332       -19.1386
  29   2.0000      -0.679080       -18.4787
  30   2.0000      -0.652690       -17.7606
  31   2.0000      -0.618724       -16.8363
  32   2.0000      -0.602044       -16.3824
  33   2.0000      -0.584092       -15.8939
  34   2.0000      -0.560521       -15.2526
  35   2.0000      -0.548690       -14.9306
  36   2.0000      -0.536487       -14.5986
  37   2.0000      -0.526802       -14.3350
  38   2.0000      -0.521184       -14.1821
  39   2.0000      -0.493023       -13.4158
  40   2.0000      -0.474550       -12.9132
  41   2.0000      -0.463230       -12.6051
  42   2.0000      -0.457514       -12.4496
  43   2.0000      -0.446572       -12.1518
  44   2.0000      -0.436480       -11.8772
  45   2.0000      -0.423591       -11.5265
  46   2.0000      -0.416654       -11.3377
  47   2.0000      -0.408013       -11.1026
  48   2.0000      -0.398948       -10.8559
  49   2.0000      -0.384813       -10.4713
  50   2.0000      -0.378954       -10.3119
  51   2.0000      -0.375292       -10.2122
  52   2.0000      -0.364299        -9.9131
  53   2.0000      -0.354481        -9.6459
  54   2.0000      -0.341521        -9.2933
  55   2.0000      -0.336264        -9.1502
  56   2.0000      -0.333633        -9.0786
  57   2.0000      -0.322151        -8.7662
  58   2.0000      -0.316542        -8.6135
  59   2.0000      -0.309419        -8.4197
  60   2.0000      -0.302269        -8.2252
  61   2.0000      -0.298428        -8.1206
  62   2.0000      -0.296229        -8.0608
  63   2.0000      -0.290845        -7.9143
  64   2.0000      -0.284171        -7.7327
  65   2.0000      -0.281601        -7.6628
  66   2.0000      -0.277000        -7.5376
  67   2.0000      -0.265112        -7.2141
  68   2.0000      -0.263409        -7.1677
  69   2.0000      -0.254972        -6.9381
  70   2.0000      -0.170972        -4.6524
  71   2.0000      -0.098215        -2.6726
  72   0.0000      -0.035895        -0.9767
  73   0.0000      -0.012326        -0.3354
  74   0.0000       0.005259         0.1431
  75   0.0000       0.010688         0.2908
  76   0.0000       0.018100         0.4925

MULLIKEN ATOMIC CHARGES
-----------------------
   0 C :   -0.140393
   1 N :   -0.273059
   2 C :   -0.146884
   3 C :   -0.170736
   4 H :    0.123713
   5 H :    0.132656
   6 S :    0.821836
   7 C :    0.338314
   8 N :   -0.448682
   9 C :   -0.522419
  10 H :    0.069353
  11 H :    0.041869
  12 H :    0.207243
  13 H :    0.225486
  14 H :    0.199183
  15 O :   -0.425154
  16 F :   -0.068055
  17 C :   -0.039687
  18 H :    0.092381
  19 H :    0.088900
  20 C :   -0.151524
  21 C :   -0.257607
  22 H :    0.068637
  23 H :    0.136751
  24 H :    0.099548
  25 H :    0.121190
  26 C :   -0.187874
  27 H :    0.048765
  28 H :    0.099967
  29 C :   -0.194229
  30 H :    0.068029
  31 H :    0.093999
  32 C :   -0.095705
  33 H :    0.070144
  34 H :    0.088149
  35 H :    0.095846
  36 H :    0.071900
  37 H :    0.068123
  38 H :    0.075485
  39 O :   -0.425457
Sum of atomic charges:   -0.0000000

LOEWDIN ATOMIC CHARGES
----------------------
   0 C :   -0.277637
   1 N :    0.129353
   2 C :   -0.265589
   3 C :   -0.362833
   4 H :    0.140638
   5 H :    0.139513
   6 S :    0.533254
   7 C :   -0.473065
   8 N :   -0.007424
   9 C :   -0.370545
  10 H :    0.091091
  11 H :    0.085654
  12 H :    0.153073
  13 H :    0.131821
  14 H :    0.165350
  15 O :   -0.252166
  16 F :    0.127050
  17 C :   -0.260288
  18 H :    0.125743
  19 H :    0.126264
  20 C :   -0.262077
  21 C :   -0.265249
  22 H :    0.133123
  23 H :    0.138882
  24 H :    0.145274
  25 H :    0.147035
  26 C :   -0.263400
  27 H :    0.129791
  28 H :    0.140743
  29 C :   -0.265643
  30 H :    0.132047
  31 H :    0.132664
  32 C :   -0.259827
  33 H :    0.132512
  34 H :    0.128101
  35 H :    0.135360
  36 H :    0.130953
  37 H :    0.131063
  38 H :    0.133748
  39 O :   -0.254356

  Mayer bond orders larger than 0.100000
B(  0-C ,  1-N ) :   0.9761 B(  0-C , 17-C ) :   0.9464 B(  0-C , 18-H ) :   0.9794
B(  0-C , 19-H ) :   0.9581 B(  1-N ,  7-C ) :   1.1888 B(  1-N , 12-H ) :   0.8798
B(  2-C ,  3-C ) :   0.9541 B(  2-C , 21-C ) :   0.9737 B(  2-C , 24-H ) :   0.9433
B(  2-C , 25-H ) :   0.9564 B(  3-C ,  4-H ) :   0.9305 B(  3-C ,  5-H ) :   0.9360
B(  3-C ,  6-S ) :   0.9088 B(  6-S , 15-O ) :   1.7947 B(  6-S , 16-F ) :   1.1739
B(  6-S , 39-O ) :   1.7972 B(  7-C ,  8-N ) :   1.1594 B(  7-C ,  9-C ) :   1.5804
B(  8-N , 13-H ) :   0.8674 B(  8-N , 14-H ) :   0.9339 B(  9-C , 10-H ) :   0.9970
B(  9-C , 11-H ) :   0.9948 B( 17-C , 26-C ) :   0.9725 B( 17-C , 27-H ) :   0.9558
B( 17-C , 28-H ) :   0.9473 B( 20-C , 21-C ) :   0.9697 B( 20-C , 32-C ) :   0.9744
B( 20-C , 35-H ) :   0.9685 B( 20-C , 36-H ) :   0.9595 B( 21-C , 22-H ) :   0.9562
B( 21-C , 23-H ) :   0.9645 B( 26-C , 29-C ) :   0.9579 B( 26-C , 30-H ) :   0.9591
B( 26-C , 31-H ) :   0.9640 B( 29-C , 32-C ) :   0.9630 B( 29-C , 33-H ) :   0.9563
B( 29-C , 34-H ) :   0.9768 B( 32-C , 37-H ) :   0.9645 B( 32-C , 38-H ) :   0.9606

Dispersion correction           -0.097191065
FINAL SINGLE POINT ENERGY     -1191.017114745025

DIPOLE MOMENT
-------------
                                X             Y             Z
Electronic contribution:    -21.15532       1.39462     -21.92259
Nuclear contribution   :     20.11362      -4.34709      20.52383
                        -----------------------------------------
Total Dipole Moment    :     -1.04170      -2.95246      -1.39876
                        -----------------------------------------
Magnitude (a.u.)       :      3.42910
Magnitude (Debye)      :      8.71608

Rotational constants in cm-1:     0.014449     0.012108     0.007447
Rotational constants in MHz :   433.168496   362.988632   223.260798

                             ****ORCA TERMINATED NORMALLY****
TOTAL RUN TIME: 0 days 0 hours 0 minutes 34 seconds 313 msec
