                         Program Version 5.0.0 -  RELEASE  -
|  1> !wB97X-D3 RIJCOSX def2-SVPD def2/J TightSCF CPCM(Water)
|  2> *xyz -1 1
|  3> C          3.90595        2.81985       -3.75292
|  4> C          3.80351        1.37472       -3.26081
|  5> C          3.93993        0.32036       -4.36773
|  6> H          4.10504       -0.65508       -3.90773
|  7> H          3.02280        0.28052       -4.95712
|  8> C          5.10585        0.66802       -5.30546
|  9> H          4.57483        1.21516       -2.50044
| 10> H          2.84351        1.26085       -2.75146
| 11> O          4.80913        1.15019       -6.41436
| 12> O          6.26737        0.56500       -4.81948
| 13> H          3.15892        2.99660       -4.49832
| 14> H          4.87575        2.98549       -4.17357
| 15> H          3.75481        3.48808       -2.93101
| 16> *
| 17>
| 18> %MaxCore 64000
| 19>
| 20> %pal nprocs 18
| 21> end
| 22>
| 23> %scf
| 24>   MaxIter 150
| 25> end
| 26>
| 27>
| 28>                          ****END OF INPUT****

CARTESIAN COORDINATES (ANGSTROEM)
---------------------------------
  C      3.905950    2.819850   -3.752920
  C      3.803510    1.374720   -3.260810
  C      3.939930    0.320360   -4.367730
  H      4.105040   -0.655080   -3.907730
  H      3.022800    0.280520   -4.957120
  C      5.105850    0.668020   -5.305460
  H      4.574830    1.215160   -2.500440
  H      2.843510    1.260850   -2.751460
  O      4.809130    1.150190   -6.414360
  O      6.267370    0.565000   -4.819480
  H      3.158920    2.996600   -4.498320
  H      4.875750    2.985490   -4.173570
  H      3.754810    3.488080   -2.931010

 Total Charge           Charge          ....   -1
 Multiplicity           Mult            ....    1
 Number of Electrons    NEL             ....   48
 Basis Dimension        Dim             ....  182

ORBITAL ENERGIES
----------------

  NO   OCC          E(Eh)            E(eV)
   0   2.0000     -19.180189      -521.9195
   1   2.0000     -19.176950      -521.8313
   2   2.0000     -10.366133      -282.0768
   3   2.0000     -10.277638      -279.6688
   4   2.0000     -10.267560      -279.3945
   5   2.0000     -10.261362      -279.2259
   6   2.0000      -1.125038       -30.6139
   7   2.0000      -1.030452       -28.0400
   8   2.0000      -0.887695       -24.1554
   9   2.0000      -0.792567       -21.5668
  10   2.0000      -0.691059       -18.8047
  11   2.0000      -0.588216       -16.0062
  12   2.0000      -0.551508       -15.0073
  13   2.0000      -0.548965       -14.9381
  14   2.0000      -0.520151       -14.1540
  15   2.0000      -0.507500       -13.8098
  16   2.0000      -0.475035       -12.9264
  17   2.0000      -0.471935       -12.8420
  18   2.0000      -0.436171       -11.8688
  19   2.0000      -0.419112       -11.4046
  20   2.0000      -0.413376       -11.2485
  21   2.0000      -0.344754        -9.3812
  22   2.0000      -0.326315        -8.8795
  23   2.0000      -0.324989        -8.8434
  24   0.0000       0.095457         2.5975
  25   0.0000       0.115759         3.1500
  26   0.0000       0.124472         3.3871
  27   0.0000       0.134049         3.6477
  28   0.0000       0.147104         4.0029

MULLIKEN ATOMIC CHARGES
-----------------------
   0 C :    0.614346
   1 C :   -0.430816
   2 C :    0.197460
   3 H :   -0.018734
   4 H :    0.008473
   5 C :    0.342059
   6 H :   -0.019105
   7 H :   -0.124952
   8 O :   -0.676565
   9 O :   -0.744491
  10 H :   -0.044519
  11 H :   -0.025935
  12 H :   -0.077220
Sum of atomic charges:   -1.0000000

LOEWDIN ATOMIC CHARGES
----------------------
   0 C :    0.113610
   1 C :   -0.074020
   2 C :    0.003727
   3 H :    0.017625
   4 H :    0.013208
   5 C :   -0.332221
   6 H :    0.018164
   7 H :    0.016424
   8 O :   -0.350380
   9 O :   -0.367697
  10 H :   -0.014163
  11 H :   -0.025915
  12 H :   -0.018363

  Mayer bond orders larger than 0.100000
B(  0-C ,  1-C ) :   1.3168 B(  0-C ,  7-H ) :   0.1026 B(  0-C , 10-H ) :   0.7901
B(  0-C , 11-H ) :   0.8269 B(  0-C , 12-H ) :   0.8029 B(  1-C ,  2-C ) :   1.1732
B(  1-C ,  3-H ) :   0.1345 B(  1-C ,  4-H ) :   0.1446 B(  1-C ,  6-H ) :   0.9372
B(  1-C ,  7-H ) :   0.9837 B(  1-C , 10-H ) :   0.1967 B(  1-C , 11-H ) :   0.2000
B(  1-C , 12-H ) :   0.1956 B(  2-C ,  3-H ) :   0.8502 B(  2-C ,  4-H ) :   0.8637
B(  2-C ,  5-C ) :   1.0421 B(  3-H ,  5-C ) :   0.1177 B(  4-H ,  5-C ) :   0.1557
B(  5-C ,  8-O ) :   1.5204 B(  5-C ,  9-O ) :   1.4830 B(  8-O ,  9-O ) :   0.1293

Dispersion correction           -0.003543483
FINAL SINGLE POINT ENERGY      -306.969721635689

DIPOLE MOMENT
-------------
                                X             Y             Z
Electronic contribution:      3.51559      -2.81137      -4.22754
Nuclear contribution   :     -5.80393       3.20473       6.46101
                        -----------------------------------------
Total Dipole Moment    :     -2.28834       0.39336       2.23347
                        -----------------------------------------
Magnitude (a.u.)       :      3.22174
Magnitude (Debye)      :      8.18902

Rotational constants in cm-1:     0.184459     0.088019     0.082330
Rotational constants in MHz :  5529.929668  2638.753248  2468.201746

                             ****ORCA TERMINATED NORMALLY****
TOTAL RUN TIME: 0 days 0 hours 0 minutes 10 seconds 911 msec
