                         Program Version 5.0.0 -  RELEASE  -
|  1> !wB97X-D3 RIJCOSX def2-SVPD def2/J TightSCF CPCM(Water)
|  2> *xyz 1 1
|  3> C          3.90595        2.81985       -3.75292
|  4> N          5.29562        3.13151       -4.10533
|  5> C          3.80351        1.37472       -3.26081
|  6> C          3.93993        0.32036       -4.36773
|  7> C          5.70862        3.46889       -5.32419
|  8> N          6.90470        3.03895       -5.71708
|  9> N          4.98188        4.29357       -6.09746
| 10> H          5.00055        4.10131       -7.08776
| 11> H          4.08469        4.59690       -5.73965
| 12> H          5.96336        2.52611       -3.64239
| 13> H          7.04716        2.06686       -5.47360
| 14> H          7.19815        3.30799       -6.64523
| 15> H          3.28202        2.94919       -4.64026
| 16> H          3.56525        3.51457       -2.98252
| 17> H          4.57483        1.21516       -2.50044
| 18> H          2.84351        1.26085       -2.75146
| 19> H          3.18417        0.48061       -5.10803
| 20> H          3.82485       -0.65632       -3.94614
| 21> H          4.90589        0.40174       -4.82073
| 22> *
| 23>
| 24> %MaxCore 64000
| 25>
| 26> %pal nprocs 18
| 27> end
| 28>
| 29> %scf
| 30>   MaxIter 150
| 31> end
| 32>
| 33>
| 34>                          ****END OF INPUT****

CARTESIAN COORDINATES (ANGSTROEM)
---------------------------------
  C      3.905950    2.819850   -3.752920
  N      5.295620    3.131510   -4.105330
  C      3.803510    1.374720   -3.260810
  C      3.939930    0.320360   -4.367730
  C      5.708620    3.468890   -5.324190
  N      6.904700    3.038950   -5.717080
  N      4.981880    4.293570   -6.097460
  H      5.000550    4.101310   -7.087760
  H      4.084690    4.596900   -5.739650
  H      5.963360    2.526110   -3.642390
  H      7.047160    2.066860   -5.473600
  H      7.198150    3.307990   -6.645230
  H      3.282020    2.949190   -4.640260
  H      3.565250    3.514570   -2.982520
  H      4.574830    1.215160   -2.500440
  H      2.843510    1.260850   -2.751460
  H      3.184170    0.480610   -5.108030
  H      3.824850   -0.656320   -3.946140
  H      4.905890    0.401740   -4.820730

 Total Charge           Charge          ....    1
 Multiplicity           Mult            ....    1
 Number of Electrons    NEL             ....   56
 Basis Dimension        Dim             ....  236

ORBITAL ENERGIES
----------------

  NO   OCC          E(Eh)            E(eV)
   0   2.0000     -14.493497      -394.3881
   1   2.0000     -14.488584      -394.2544
   2   2.0000     -14.485913      -394.1817
   3   2.0000     -10.458300      -284.5848
   4   2.0000     -10.339049      -281.3398
   5   2.0000     -10.295813      -280.1633
   6   2.0000     -10.274766      -279.5906
   7   2.0000      -1.159300       -31.5462
   8   2.0000      -1.046342       -28.4724
   9   2.0000      -1.031812       -28.0770
  10   2.0000      -0.903342       -24.5812
  11   2.0000      -0.820228       -22.3195
  12   2.0000      -0.755549       -20.5595
  13   2.0000      -0.723896       -19.6982
  14   2.0000      -0.704145       -19.1608
  15   2.0000      -0.674251       -18.3473
  16   2.0000      -0.627883       -17.0856
  17   2.0000      -0.613264       -16.6878
  18   2.0000      -0.585880       -15.9426
  19   2.0000      -0.573760       -15.6128
  20   2.0000      -0.536907       -14.6100
  21   2.0000      -0.526218       -14.3191
  22   2.0000      -0.505166       -13.7463
  23   2.0000      -0.462519       -12.5858
  24   2.0000      -0.443978       -12.0812
  25   2.0000      -0.441551       -12.0152
  26   2.0000      -0.411927       -11.2091
  27   2.0000      -0.384826       -10.4717
  28   0.0000       0.059012         1.6058
  29   0.0000       0.086371         2.3503
  30   0.0000       0.112930         3.0730
  31   0.0000       0.116670         3.1747
  32   0.0000       0.127215         3.4617

MULLIKEN ATOMIC CHARGES
-----------------------
   0 C :    0.675872
   1 N :   -0.450690
   2 C :   -0.416014
   3 C :    0.708799
   4 C :    0.851346
   5 N :   -0.061209
   6 N :   -0.087202
   7 H :    0.047027
   8 H :    0.080176
   9 H :   -0.020043
  10 H :    0.042021
  11 H :    0.083281
  12 H :    0.018526
  13 H :   -0.261757
  14 H :    0.002668
  15 H :   -0.052542
  16 H :    0.059023
  17 H :   -0.006761
  18 H :   -0.212522
Sum of atomic charges:    1.0000000

LOEWDIN ATOMIC CHARGES
----------------------
   0 C :    0.075046
   1 N :    0.053516
   2 C :   -0.053887
   3 C :    0.133105
   4 C :   -0.044699
   5 N :    0.269629
   6 N :    0.278900
   7 H :    0.047660
   8 H :    0.029094
   9 H :    0.051693
  10 H :    0.041803
  11 H :    0.044156
  12 H :    0.031302
  13 H :    0.032469
  14 H :    0.028129
  15 H :    0.029360
  16 H :   -0.011602
  17 H :   -0.012754
  18 H :   -0.022920

  Mayer bond orders larger than 0.100000
B(  0-C ,  1-N ) :   0.8290 B(  0-C ,  2-C ) :   1.1352 B(  0-C , 12-H ) :   0.7878
B(  0-C , 13-H ) :   0.9880 B(  0-C , 15-H ) :   0.1348 B(  1-N ,  2-C ) :   0.1007
B(  1-N ,  4-C ) :   1.1596 B(  1-N ,  5-N ) :   0.1818 B(  1-N ,  9-H ) :   1.1071
B(  1-N , 12-H ) :   0.1167 B(  1-N , 13-H ) :   0.1063 B(  2-C ,  3-C ) :   1.2232
B(  2-C , 14-H ) :   0.9447 B(  2-C , 15-H ) :   0.9919 B(  2-C , 16-H ) :   0.1846
B(  2-C , 17-H ) :   0.1949 B(  2-C , 18-H ) :   0.2181 B(  3-C , 16-H ) :   0.7653
B(  3-C , 17-H ) :   0.7798 B(  3-C , 18-H ) :   0.8431 B(  4-C ,  5-N ) :   1.0142
B(  4-C ,  6-N ) :   1.0015 B(  4-C ,  9-H ) :  -0.1379 B(  5-N ,  6-N ) :   0.1118
B(  5-N , 10-H ) :   0.9918 B(  5-N , 11-H ) :   0.9571 B(  6-N ,  7-H ) :   1.1087
B(  6-N ,  8-H ) :   0.9176 B(  7-H ,  8-H ) :  -0.1072 B( 16-H , 18-H ) :   0.1071

Dispersion correction           -0.005480949
FINAL SINGLE POINT ENERGY      -323.505096441059

DIPOLE MOMENT
-------------
                                X             Y             Z
Electronic contribution:      4.20713       5.77545      -2.38689
Nuclear contribution   :     -3.60155      -5.39511       0.90505
                        -----------------------------------------
Total Dipole Moment    :      0.60559       0.38034      -1.48184
                        -----------------------------------------
Magnitude (a.u.)       :      1.64537
Magnitude (Debye)      :      4.18221

Rotational constants in cm-1:     0.145371     0.050507     0.045444
Rotational constants in MHz :  4358.114605  1514.164418  1362.368391

                             ****ORCA TERMINATED NORMALLY****
TOTAL RUN TIME: 0 days 0 hours 0 minutes 18 seconds 340 msec
