                         Program Version 5.0.0 -  RELEASE  -
|  1> !wB97X-D3 RIJCOSX def2-SVPD def2/J TightSCF CPCM(Water)
|  2> *xyz 0 1
|  3> C          3.90595        2.81985       -3.75292
|  4> C          3.80351        1.37472       -3.26081
|  5> C          3.93993        0.32036       -4.36773
|  6> H          4.10504       -0.65508       -3.90773
|  7> H          3.02280        0.28052       -4.95712
|  8> C          5.10585        0.66802       -5.30546
|  9> H          4.57483        1.21516       -2.50044
| 10> H          2.84351        1.26085       -2.75146
| 11> F          4.80913        1.15019       -6.41436
| 12> O          6.26737        0.56500       -4.81948
| 13> H          3.15892        2.99660       -4.49832
| 14> H          4.87575        2.98549       -4.17357
| 15> H          3.75481        3.48808       -2.93101
| 16> *
| 17>
| 18> %MaxCore 64000
| 19>
| 20> %pal nprocs 18
| 21> end
| 22>
| 23> %scf
| 24>   MaxIter 150
| 25> end
| 26>
| 27>
| 28>                          ****END OF INPUT****

CARTESIAN COORDINATES (ANGSTROEM)
---------------------------------
  C      3.905950    2.819850   -3.752920
  C      3.803510    1.374720   -3.260810
  C      3.939930    0.320360   -4.367730
  H      4.105040   -0.655080   -3.907730
  H      3.022800    0.280520   -4.957120
  C      5.105850    0.668020   -5.305460
  H      4.574830    1.215160   -2.500440
  H      2.843510    1.260850   -2.751460
  F      4.809130    1.150190   -6.414360
  O      6.267370    0.565000   -4.819480
  H      3.158920    2.996600   -4.498320
  H      4.875750    2.985490   -4.173570
  H      3.754810    3.488080   -2.931010

 Total Charge           Charge          ....    0
 Multiplicity           Mult            ....    1
 Number of Electrons    NEL             ....   48
 Basis Dimension        Dim             ....  182

ORBITAL ENERGIES
----------------

  NO   OCC          E(Eh)            E(eV)
   0   2.0000     -24.881914      -677.0713
   1   2.0000     -19.263232      -524.1792
   2   2.0000     -10.482793      -285.2513
   3   2.0000     -10.309288      -280.5300
   4   2.0000     -10.295735      -280.1612
   5   2.0000     -10.272673      -279.5337
   6   2.0000      -1.435034       -39.0493
   7   2.0000      -1.147553       -31.2265
   8   2.0000      -0.917514       -24.9668
   9   2.0000      -0.830668       -22.6036
  10   2.0000      -0.775113       -21.0919
  11   2.0000      -0.713060       -19.4034
  12   2.0000      -0.664235       -18.0748
  13   2.0000      -0.642270       -17.4771
  14   2.0000      -0.615181       -16.7399
  15   2.0000      -0.562160       -15.2971
  16   2.0000      -0.551381       -15.0038
  17   2.0000      -0.507437       -13.8081
  18   2.0000      -0.504219       -13.7205
  19   2.0000      -0.471643       -12.8340
  20   2.0000      -0.444854       -12.1051
  21   2.0000      -0.438260       -11.9256
  22   2.0000      -0.431814       -11.7503
  23   2.0000      -0.397845       -10.8259
  24   0.0000       0.046392         1.2624
  25   0.0000       0.091050         2.4776
  26   0.0000       0.120980         3.2920
  27   0.0000       0.125581         3.4172
  28   0.0000       0.134882         3.6703

MULLIKEN ATOMIC CHARGES
-----------------------
   0 C :    0.550968
   1 C :   -0.417481
   2 C :    0.038032
   3 H :    0.056021
   4 H :    0.091428
   5 C :    0.792161
   6 H :    0.006376
   7 H :   -0.085921
   8 F :   -0.365371
   9 O :   -0.579308
  10 H :   -0.022935
  11 H :   -0.016700
  12 H :   -0.047270
Sum of atomic charges:    0.0000000

LOEWDIN ATOMIC CHARGES
----------------------
   0 C :    0.123404
   1 C :   -0.057533
   2 C :    0.051011
   3 H :    0.042458
   4 H :    0.034621
   5 C :   -0.006096
   6 H :    0.028895
   7 H :    0.028532
   8 F :   -0.020214
   9 O :   -0.186546
  10 H :   -0.007687
  11 H :   -0.019916
  12 H :   -0.010930

  Mayer bond orders larger than 0.100000
B(  0-C ,  1-C ) :   1.3322 B(  0-C ,  7-H ) :   0.1033 B(  0-C , 10-H ) :   0.8137
B(  0-C , 11-H ) :   0.8416 B(  0-C , 12-H ) :   0.8094 B(  1-C ,  2-C ) :   1.1872
B(  1-C ,  3-H ) :   0.1283 B(  1-C ,  4-H ) :   0.1292 B(  1-C ,  6-H ) :   0.9452
B(  1-C ,  7-H ) :   0.9922 B(  1-C , 10-H ) :   0.1784 B(  1-C , 11-H ) :   0.1812
B(  1-C , 12-H ) :   0.1889 B(  2-C ,  3-H ) :   0.8699 B(  2-C ,  4-H ) :   0.8849
B(  2-C ,  5-C ) :   1.0847 B(  5-C ,  8-F ) :   0.7252 B(  5-C ,  9-O ) :   1.7630

Dispersion correction           -0.003458981
FINAL SINGLE POINT ENERGY      -331.397770542971

DIPOLE MOMENT
-------------
                                X             Y             Z
Electronic contribution:      4.40854      -3.22091      -8.25663
Nuclear contribution   :     -5.98367       3.22001       8.44002
                        -----------------------------------------
Total Dipole Moment    :     -1.57513      -0.00090       0.18339
                        -----------------------------------------
Magnitude (a.u.)       :      1.58577
Magnitude (Debye)      :      4.03071

Rotational constants in cm-1:     0.177409     0.085514     0.078973
Rotational constants in MHz :  5318.577687  2563.657993  2367.557452

                             ****ORCA TERMINATED NORMALLY****
TOTAL RUN TIME: 0 days 0 hours 0 minutes 12 seconds 571 msec
