                         Program Version 5.0.0 -  RELEASE  -
|  1> !wB97X-D3 RIJCOSX def2-SVPD def2/J TightSCF CPCM(Water)
|  2> *xyz 0 1
|  3> C          3.90595        2.81985       -3.75292
|  4> C          5.29562        3.13151       -4.10533
|  5> C          3.80351        1.37472       -3.26081
|  6> C          3.93993        0.32036       -4.36773
|  7> C          5.70862        3.46889       -5.32419
|  8> N          6.90470        3.03895       -5.71708
|  9> N          4.98188        4.29357       -6.09746
| 10> H          5.00055        4.10131       -7.08776
| 11> H          4.08469        4.59690       -5.73965
| 12> H          5.96336        2.52611       -3.64239
| 13> H          7.04716        2.06686       -5.47360
| 14> H          7.19815        3.30799       -6.64523
| 15> H          3.28202        2.94919       -4.64026
| 16> H          3.56525        3.51457       -2.98252
| 17> H          4.57483        1.21516       -2.50044
| 18> H          2.84351        1.26085       -2.75146
| 19> H          3.18417        0.48061       -5.10803
| 20> H          3.82485       -0.65632       -3.94614
| 21> H          4.90589        0.40174       -4.82073
| 22> *
| 23>
| 24> %MaxCore 64000
| 25>
| 26> %pal nprocs 18
| 27> end
| 28>
| 29> %scf
| 30>   MaxIter 150
| 31> end
| 32>
| 33>
| 34>                          ****END OF INPUT****

CARTESIAN COORDINATES (ANGSTROEM)
---------------------------------
  C      3.905950    2.819850   -3.752920
  C      5.295620    3.131510   -4.105330
  C      3.803510    1.374720   -3.260810
  C      3.939930    0.320360   -4.367730
  C      5.708620    3.468890   -5.324190
  N      6.904700    3.038950   -5.717080
  N      4.981880    4.293570   -6.097460
  H      5.000550    4.101310   -7.087760
  H      4.084690    4.596900   -5.739650
  H      5.963360    2.526110   -3.642390
  H      7.047160    2.066860   -5.473600
  H      7.198150    3.307990   -6.645230
  H      3.282020    2.949190   -4.640260
  H      3.565250    3.514570   -2.982520
  H      4.574830    1.215160   -2.500440
  H      2.843510    1.260850   -2.751460
  H      3.184170    0.480610   -5.108030
  H      3.824850   -0.656320   -3.946140
  H      4.905890    0.401740   -4.820730

 Total Charge           Charge          ....    0
 Multiplicity           Mult            ....    1
 Number of Electrons    NEL             ....   56
 Basis Dimension        Dim             ....  236

ORBITAL ENERGIES
----------------

  NO   OCC          E(Eh)            E(eV)
   0   2.0000     -14.434806      -392.7910
   1   2.0000     -14.431512      -392.7014
   2   2.0000     -10.336443      -281.2689
   3   2.0000     -10.273469      -279.5553
   4   2.0000     -10.267563      -279.3946
   5   2.0000     -10.263673      -279.2887
   6   2.0000     -10.216015      -277.9919
   7   2.0000      -1.072222       -29.1766
   8   2.0000      -0.978201       -26.6182
   9   2.0000      -0.902310       -24.5531
  10   2.0000      -0.832361       -22.6497
  11   2.0000      -0.767209       -20.8768
  12   2.0000      -0.694734       -18.9047
  13   2.0000      -0.671593       -18.2750
  14   2.0000      -0.631741       -17.1906
  15   2.0000      -0.611340       -16.6354
  16   2.0000      -0.572315       -15.5735
  17   2.0000      -0.545663       -14.8483
  18   2.0000      -0.539090       -14.6694
  19   2.0000      -0.513896       -13.9838
  20   2.0000      -0.482003       -13.1160
  21   2.0000      -0.470011       -12.7896
  22   2.0000      -0.447236       -12.1699
  23   2.0000      -0.427937       -11.6448
  24   2.0000      -0.413343       -11.2476
  25   2.0000      -0.408514       -11.1162
  26   2.0000      -0.367804       -10.0084
  27   2.0000      -0.261045        -7.1034
  28   0.0000       0.096143         2.6162
  29   0.0000       0.112287         3.0555
  30   0.0000       0.117923         3.2089
  31   0.0000       0.124689         3.3930
  32   0.0000       0.137191         3.7332

MULLIKEN ATOMIC CHARGES
-----------------------
   0 C :    0.285910
   1 C :    0.008625
   2 C :   -0.258912
   3 C :    0.777214
   4 C :    0.151434
   5 N :    0.025550
   6 N :   -0.068517
   7 H :   -0.016226
   8 H :    0.076305
   9 H :   -0.259310
  10 H :    0.037790
  11 H :   -0.031157
  12 H :   -0.156559
  13 H :   -0.191213
  14 H :   -0.052135
  15 H :   -0.110326
  16 H :    0.033404
  17 H :   -0.004782
  18 H :   -0.247097
Sum of atomic charges:    0.0000000

LOEWDIN ATOMIC CHARGES
----------------------
   0 C :   -0.075040
   1 C :   -0.047730
   2 C :   -0.081726
   3 C :    0.125422
   4 C :   -0.249813
   5 N :    0.186431
   6 N :    0.197771
   7 H :    0.008815
   8 H :    0.002323
   9 H :   -0.063011
  10 H :    0.009906
  11 H :    0.005983
  12 H :    0.008854
  13 H :    0.004779
  14 H :    0.017791
  15 H :    0.013115
  16 H :   -0.016612
  17 H :   -0.019797
  18 H :   -0.027460

  Mayer bond orders larger than 0.100000
B(  0-C ,  1-C ) :   0.9714 B(  0-C ,  2-C ) :   1.1635 B(  0-C ,  9-H ) :   0.2066
B(  0-C , 12-H ) :   0.8111 B(  0-C , 13-H ) :   0.8837 B(  0-C , 14-H ) :   0.1342
B(  0-C , 15-H ) :   0.1734 B(  1-C ,  4-C ) :   1.9136 B(  1-C ,  5-N ) :   0.2682
B(  1-C ,  6-N ) :   0.1564 B(  1-C ,  9-H ) :   0.5510 B(  1-C , 12-H ) :   0.1200
B(  1-C , 13-H ) :   0.1366 B(  2-C ,  3-C ) :   1.2100 B(  2-C , 14-H ) :   0.9335
B(  2-C , 15-H ) :   0.9346 B(  2-C , 16-H ) :   0.1927 B(  2-C , 17-H ) :   0.1874
B(  2-C , 18-H ) :   0.2339 B(  3-C , 16-H ) :   0.7583 B(  3-C , 17-H ) :   0.7586
B(  3-C , 18-H ) :   0.8403 B(  4-C ,  5-N ) :   1.0245 B(  4-C ,  6-N ) :   1.0229
B(  4-C ,  9-H ) :   0.3518 B(  5-N , 10-H ) :   0.9647 B(  5-N , 11-H ) :   0.9188
B(  6-N ,  7-H ) :   1.0614 B(  6-N ,  8-H ) :   0.9281 B( 16-H , 18-H ) :   0.1060

Dispersion correction           -0.005455308
FINAL SINGLE POINT ENERGY      -306.953139796297

DIPOLE MOMENT
-------------
                                X             Y             Z
Electronic contribution:      3.32186       4.71568      -2.61629
Nuclear contribution   :     -3.52450      -5.28471       1.03374
                        -----------------------------------------
Total Dipole Moment    :     -0.20265      -0.56903      -1.58254
                        -----------------------------------------
Magnitude (a.u.)       :      1.69390
Magnitude (Debye)      :      4.30556

Rotational constants in cm-1:     0.147126     0.050704     0.045476
Rotational constants in MHz :  4410.719889  1520.080198  1363.327077

                             ****ORCA TERMINATED NORMALLY****
TOTAL RUN TIME: 0 days 0 hours 0 minutes 20 seconds 659 msec
