                         Program Version 5.0.0 -  RELEASE  -
|  1> !wB97X-D3 RIJCOSX def2-SVPD def2/J TightSCF CPCM(Water)
|  2> *xyz 0 1
|  3> C          3.90595        2.81985       -3.75292
|  4> C          3.80351        1.37472       -3.26081
|  5> C          3.93993        0.32036       -4.36773
|  6> H          4.10504       -0.65508       -3.90773
|  7> H          3.02280        0.28052       -4.95712
|  8> C          5.10585        0.66802       -5.30546
|  9> H          4.57483        1.21516       -2.50044
| 10> H          2.84351        1.26085       -2.75146
| 11> O          4.80913        1.15019       -6.41436
| 12> F          6.26737        0.56500       -4.81948
| 13> H          3.15892        2.99660       -4.49832
| 14> H          4.87575        2.98549       -4.17357
| 15> H          3.75481        3.48808       -2.93101
| 16> *
| 17>
| 18> %MaxCore 64000
| 19>
| 20> %pal nprocs 18
| 21> end
| 22>
| 23> %scf
| 24>   MaxIter 150
| 25> end
| 26>
| 27>
| 28>                          ****END OF INPUT****

CARTESIAN COORDINATES (ANGSTROEM)
---------------------------------
  C      3.905950    2.819850   -3.752920
  C      3.803510    1.374720   -3.260810
  C      3.939930    0.320360   -4.367730
  H      4.105040   -0.655080   -3.907730
  H      3.022800    0.280520   -4.957120
  C      5.105850    0.668020   -5.305460
  H      4.574830    1.215160   -2.500440
  H      2.843510    1.260850   -2.751460
  O      4.809130    1.150190   -6.414360
  F      6.267370    0.565000   -4.819480
  H      3.158920    2.996600   -4.498320
  H      4.875750    2.985490   -4.173570
  H      3.754810    3.488080   -2.931010

 Total Charge           Charge          ....    0
 Multiplicity           Mult            ....    1
 Number of Electrons    NEL             ....   48
 Basis Dimension        Dim             ....  182

ORBITAL ENERGIES
----------------

  NO   OCC          E(Eh)            E(eV)
   0   2.0000     -24.875418      -676.8945
   1   2.0000     -19.265808      -524.2493
   2   2.0000     -10.480487      -285.1886
   3   2.0000     -10.308873      -280.5187
   4   2.0000     -10.295793      -280.1628
   5   2.0000     -10.272254      -279.5223
   6   2.0000      -1.421547       -38.6823
   7   2.0000      -1.158314       -31.5193
   8   2.0000      -0.917984       -24.9796
   9   2.0000      -0.828899       -22.5555
  10   2.0000      -0.767749       -20.8915
  11   2.0000      -0.711849       -19.3704
  12   2.0000      -0.657868       -17.9015
  13   2.0000      -0.642562       -17.4850
  14   2.0000      -0.607122       -16.5206
  15   2.0000      -0.564439       -15.3592
  16   2.0000      -0.550918       -14.9912
  17   2.0000      -0.517007       -14.0685
  18   2.0000      -0.493938       -13.4407
  19   2.0000      -0.474174       -12.9029
  20   2.0000      -0.454520       -12.3681
  21   2.0000      -0.441936       -12.0257
  22   2.0000      -0.430147       -11.7049
  23   2.0000      -0.396068       -10.7776
  24   0.0000       0.050639         1.3780
  25   0.0000       0.089945         2.4475
  26   0.0000       0.121719         3.3121
  27   0.0000       0.125275         3.4089
  28   0.0000       0.134714         3.6657

MULLIKEN ATOMIC CHARGES
-----------------------
   0 C :    0.577751
   1 C :   -0.459443
   2 C :    0.061664
   3 H :    0.062692
   4 H :    0.065515
   5 C :    0.792726
   6 H :    0.006252
   7 H :   -0.082407
   8 O :   -0.521318
   9 F :   -0.417651
  10 H :   -0.018570
  11 H :   -0.005146
  12 H :   -0.062066
Sum of atomic charges:    0.0000000

LOEWDIN ATOMIC CHARGES
----------------------
   0 C :    0.122386
   1 C :   -0.059111
   2 C :    0.052683
   3 H :    0.039098
   4 H :    0.038866
   5 C :   -0.007165
   6 H :    0.028937
   7 H :    0.028812
   8 O :   -0.173386
   9 F :   -0.032786
  10 H :   -0.007604
  11 H :   -0.019137
  12 H :   -0.011594

  Mayer bond orders larger than 0.100000
B(  0-C ,  1-C ) :   1.3314 B(  0-C ,  7-H ) :   0.1019 B(  0-C , 10-H ) :   0.8062
B(  0-C , 11-H ) :   0.8344 B(  0-C , 12-H ) :   0.8047 B(  1-C ,  2-C ) :   1.1708
B(  1-C ,  3-H ) :   0.1266 B(  1-C ,  4-H ) :   0.1305 B(  1-C ,  6-H ) :   0.9482
B(  1-C ,  7-H ) :   0.9875 B(  1-C , 10-H ) :   0.1860 B(  1-C , 11-H ) :   0.1822
B(  1-C , 12-H ) :   0.1950 B(  2-C ,  3-H ) :   0.8702 B(  2-C ,  4-H ) :   0.9067
B(  2-C ,  5-C ) :   1.0558 B(  4-H ,  5-C ) :   0.1059 B(  5-C ,  8-O ) :   1.8047
B(  5-C ,  9-F ) :   0.6810 B(  8-O ,  9-F ) :   0.1047

Dispersion correction           -0.003455041
FINAL SINGLE POINT ENERGY      -331.402711349761

DIPOLE MOMENT
-------------
                                X             Y             Z
Electronic contribution:      7.20312      -4.34541      -5.19764
Nuclear contribution   :     -7.63086       3.88103       6.63849
                        -----------------------------------------
Total Dipole Moment    :     -0.42774      -0.46438       1.44085
                        -----------------------------------------
Magnitude (a.u.)       :      1.57310
Magnitude (Debye)      :      3.99851

Rotational constants in cm-1:     0.177064     0.085023     0.079676
Rotational constants in MHz :  5308.232158  2548.918275  2388.614336

                             ****ORCA TERMINATED NORMALLY****
TOTAL RUN TIME: 0 days 0 hours 0 minutes 12 seconds 973 msec
