                         Program Version 5.0.0 -  RELEASE  -
|  1> !wB97X-D3 RIJCOSX def2-SVPD def2/J TightSCF CPCM(Water)
|  2> *xyz 0 1
|  3> C          3.90595        2.81985       -3.75292
|  4> N          5.29562        3.13151       -4.10533
|  5> C          3.80351        1.37472       -3.26081
|  6> C          3.93993        0.32036       -4.36773
|  7> C          5.70862        3.46889       -5.32419
|  8> C          6.90470        3.03895       -5.71708
|  9> N          4.98188        4.29357       -6.09746
| 10> H          5.00055        4.10131       -7.08776
| 11> H          4.08469        4.59690       -5.73965
| 12> H          5.96336        2.52611       -3.64239
| 13> H          7.04716        2.06686       -5.47360
| 14> H          7.19815        3.30799       -6.64523
| 15> H          3.28202        2.94919       -4.64026
| 16> H          3.56525        3.51457       -2.98252
| 17> H          4.57483        1.21516       -2.50044
| 18> H          2.84351        1.26085       -2.75146
| 19> H          3.18417        0.48061       -5.10803
| 20> H          3.82485       -0.65632       -3.94614
| 21> H          4.90589        0.40174       -4.82073
| 22> *
| 23>
| 24> %MaxCore 64000
| 25>
| 26> %pal nprocs 18
| 27> end
| 28>
| 29> %scf
| 30>   MaxIter 150
| 31> end
| 32>
| 33>
| 34>                          ****END OF INPUT****

CARTESIAN COORDINATES (ANGSTROEM)
---------------------------------
  C      3.905950    2.819850   -3.752920
  N      5.295620    3.131510   -4.105330
  C      3.803510    1.374720   -3.260810
  C      3.939930    0.320360   -4.367730
  C      5.708620    3.468890   -5.324190
  C      6.904700    3.038950   -5.717080
  N      4.981880    4.293570   -6.097460
  H      5.000550    4.101310   -7.087760
  H      4.084690    4.596900   -5.739650
  H      5.963360    2.526110   -3.642390
  H      7.047160    2.066860   -5.473600
  H      7.198150    3.307990   -6.645230
  H      3.282020    2.949190   -4.640260
  H      3.565250    3.514570   -2.982520
  H      4.574830    1.215160   -2.500440
  H      2.843510    1.260850   -2.751460
  H      3.184170    0.480610   -5.108030
  H      3.824850   -0.656320   -3.946140
  H      4.905890    0.401740   -4.820730

 Total Charge           Charge          ....    0
 Multiplicity           Mult            ....    1
 Number of Electrons    NEL             ....   56
 Basis Dimension        Dim             ....  236

ORBITAL ENERGIES
----------------

  NO   OCC          E(Eh)            E(eV)
   0   2.0000     -14.439245      -392.9118
   1   2.0000     -14.438783      -392.8993
   2   2.0000     -10.348715      -281.6028
   3   2.0000     -10.316586      -280.7286
   4   2.0000     -10.285509      -279.8829
   5   2.0000     -10.269281      -279.4413
   6   2.0000     -10.209424      -277.8125
   7   2.0000      -1.082513       -29.4567
   8   2.0000      -0.994964       -27.0744
   9   2.0000      -0.893122       -24.3031
  10   2.0000      -0.837366       -22.7859
  11   2.0000      -0.778123       -21.1738
  12   2.0000      -0.701849       -19.0983
  13   2.0000      -0.695823       -18.9343
  14   2.0000      -0.636303       -17.3147
  15   2.0000      -0.596176       -16.2228
  16   2.0000      -0.573637       -15.6095
  17   2.0000      -0.557853       -15.1800
  18   2.0000      -0.537444       -14.6246
  19   2.0000      -0.502186       -13.6652
  20   2.0000      -0.496872       -13.5206
  21   2.0000      -0.485165       -13.2020
  22   2.0000      -0.459073       -12.4920
  23   2.0000      -0.441289       -12.0081
  24   2.0000      -0.432988       -11.7822
  25   2.0000      -0.426541       -11.6068
  26   2.0000      -0.354994        -9.6599
  27   2.0000      -0.273876        -7.4526
  28   0.0000       0.094073         2.5599
  29   0.0000       0.111241         3.0270
  30   0.0000       0.118672         3.2292
  31   0.0000       0.119686         3.2568
  32   0.0000       0.136723         3.7204

MULLIKEN ATOMIC CHARGES
-----------------------
   0 C :    0.676450
   1 N :   -0.439643
   2 C :   -0.397916
   3 C :    0.744868
   4 C :    0.122073
   5 C :    0.522747
   6 N :   -0.011081
   7 H :    0.029481
   8 H :   -0.002784
   9 H :    0.000476
  10 H :   -0.301372
  11 H :   -0.333655
  12 H :   -0.017158
  13 H :   -0.295617
  14 H :   -0.015715
  15 H :   -0.083228
  16 H :    0.055904
  17 H :   -0.009388
  18 H :   -0.244441
Sum of atomic charges:   -0.0000000

LOEWDIN ATOMIC CHARGES
----------------------
   0 C :    0.050754
   1 N :   -0.006922
   2 C :   -0.063804
   3 C :    0.128904
   4 C :   -0.255278
   5 C :    0.101957
   6 N :    0.205595
   7 H :    0.018879
   8 H :   -0.002218
   9 H :    0.023698
  10 H :   -0.114758
  11 H :   -0.114055
  12 H :    0.021027
  13 H :    0.017680
  14 H :    0.023132
  15 H :    0.022028
  16 H :   -0.014157
  17 H :   -0.016114
  18 H :   -0.026349

  Mayer bond orders larger than 0.100000
B(  0-C ,  1-N ) :   0.8643 B(  0-C ,  2-C ) :   1.1347 B(  0-C , 12-H ) :   0.7766
B(  0-C , 13-H ) :   0.9614 B(  0-C , 15-H ) :   0.1379 B(  1-N ,  4-C ) :   1.1673
B(  1-N ,  5-C ) :   0.2066 B(  1-N ,  9-H ) :   1.0444 B(  1-N , 12-H ) :   0.1279
B(  1-N , 13-H ) :   0.1004 B(  2-C ,  3-C ) :   1.2269 B(  2-C , 14-H ) :   0.9345
B(  2-C , 15-H ) :   0.9890 B(  2-C , 16-H ) :   0.1903 B(  2-C , 17-H ) :   0.1996
B(  2-C , 18-H ) :   0.2308 B(  3-C , 16-H ) :   0.7405 B(  3-C , 17-H ) :   0.7620
B(  3-C , 18-H ) :   0.8485 B(  4-C ,  5-C ) :   1.8871 B(  4-C ,  6-N ) :   0.9980
B(  4-C ,  9-H ) :  -0.1212 B(  4-C , 10-H ) :   0.2252 B(  4-C , 11-H ) :   0.3484
B(  5-C ,  6-N ) :   0.2159 B(  5-C , 10-H ) :   0.8160 B(  5-C , 11-H ) :   0.5493
B(  6-N ,  7-H ) :   1.0567 B(  6-N ,  8-H ) :   0.8816 B(  6-N , 11-H ) :   0.1080
B(  7-H ,  8-H ) :  -0.1088 B( 10-H , 11-H ) :   0.1434 B( 16-H , 18-H ) :   0.1416

Dispersion correction           -0.005520942
FINAL SINGLE POINT ENERGY      -306.942185955347

DIPOLE MOMENT
-------------
                                X             Y             Z
Electronic contribution:      1.17309       4.75265      -0.57972
Nuclear contribution   :     -3.17203      -5.30499       0.68068
                        -----------------------------------------
Total Dipole Moment    :     -1.99894      -0.55234       0.10096
                        -----------------------------------------
Magnitude (a.u.)       :      2.07630
Magnitude (Debye)      :      5.27754

Rotational constants in cm-1:     0.149640     0.051631     0.046708
Rotational constants in MHz :  4486.107270  1547.846261  1400.277765

                             ****ORCA TERMINATED NORMALLY****
TOTAL RUN TIME: 0 days 0 hours 0 minutes 20 seconds 880 msec
