                         Program Version 5.0.0 -  RELEASE  -
|  1> !wB97X-D3 RIJCOSX def2-SVPD def2/J TightSCF CPCM(Water)
|  2> *xyz 0 1
|  3> C          3.90595        2.81985       -3.75292
|  4> N          5.29562        3.13151       -4.10533
|  5> C          3.80351        1.37472       -3.26081
|  6> C          3.93993        0.32036       -4.36773
|  7> C          5.70862        3.46889       -5.32419
|  8> N          6.90470        3.03895       -5.71708
|  9> C          4.98188        4.29357       -6.09746
| 10> H          5.00055        4.10131       -7.08776
| 11> H          4.08469        4.59690       -5.73965
| 12> H          5.96336        2.52611       -3.64239
| 13> H          7.04716        2.06686       -5.47360
| 14> H          7.19815        3.30799       -6.64523
| 15> H          3.28202        2.94919       -4.64026
| 16> H          3.56525        3.51457       -2.98252
| 17> H          4.57483        1.21516       -2.50044
| 18> H          2.84351        1.26085       -2.75146
| 19> H          3.18417        0.48061       -5.10803
| 20> H          3.82485       -0.65632       -3.94614
| 21> H          4.90589        0.40174       -4.82073
| 22> *
| 23>
| 24> %MaxCore 64000
| 25>
| 26> %pal nprocs 18
| 27> end
| 28>
| 29> %scf
| 30>   MaxIter 150
| 31> end
| 32>
| 33>
| 34>                          ****END OF INPUT****

CARTESIAN COORDINATES (ANGSTROEM)
---------------------------------
  C      3.905950    2.819850   -3.752920
  N      5.295620    3.131510   -4.105330
  C      3.803510    1.374720   -3.260810
  C      3.939930    0.320360   -4.367730
  C      5.708620    3.468890   -5.324190
  N      6.904700    3.038950   -5.717080
  C      4.981880    4.293570   -6.097460
  H      5.000550    4.101310   -7.087760
  H      4.084690    4.596900   -5.739650
  H      5.963360    2.526110   -3.642390
  H      7.047160    2.066860   -5.473600
  H      7.198150    3.307990   -6.645230
  H      3.282020    2.949190   -4.640260
  H      3.565250    3.514570   -2.982520
  H      4.574830    1.215160   -2.500440
  H      2.843510    1.260850   -2.751460
  H      3.184170    0.480610   -5.108030
  H      3.824850   -0.656320   -3.946140
  H      4.905890    0.401740   -4.820730

 Total Charge           Charge          ....    0
 Multiplicity           Mult            ....    1
 Number of Electrons    NEL             ....   56
 Basis Dimension        Dim             ....  236

ORBITAL ENERGIES
----------------

  NO   OCC          E(Eh)            E(eV)
   0   2.0000     -14.439747      -392.9255
   1   2.0000     -14.436424      -392.8351
   2   2.0000     -10.346850      -281.5521
   3   2.0000     -10.315845      -280.7084
   4   2.0000     -10.284758      -279.8625
   5   2.0000     -10.269130      -279.4372
   6   2.0000     -10.213812      -277.9320
   7   2.0000      -1.086375       -29.5618
   8   2.0000      -0.996485       -27.1157
   9   2.0000      -0.887114       -24.1396
  10   2.0000      -0.827303       -22.5121
  11   2.0000      -0.794569       -21.6213
  12   2.0000      -0.706192       -19.2164
  13   2.0000      -0.669773       -18.2254
  14   2.0000      -0.636613       -17.3231
  15   2.0000      -0.616912       -16.7870
  16   2.0000      -0.569134       -15.4869
  17   2.0000      -0.559779       -15.2323
  18   2.0000      -0.524762       -14.2795
  19   2.0000      -0.510192       -13.8830
  20   2.0000      -0.497976       -13.5506
  21   2.0000      -0.479732       -13.0542
  22   2.0000      -0.460464       -12.5299
  23   2.0000      -0.442727       -12.0472
  24   2.0000      -0.432008       -11.7555
  25   2.0000      -0.426420       -11.6035
  26   2.0000      -0.352195        -9.5837
  27   2.0000      -0.275878        -7.5070
  28   0.0000       0.094813         2.5800
  29   0.0000       0.111571         3.0360
  30   0.0000       0.120203         3.2709
  31   0.0000       0.123403         3.3580
  32   0.0000       0.134678         3.6648

MULLIKEN ATOMIC CHARGES
-----------------------
   0 C :    0.688703
   1 N :   -0.351136
   2 C :   -0.347372
   3 C :    0.738774
   4 C :    0.019697
   5 N :   -0.053068
   6 C :    0.456964
   7 H :   -0.368729
   8 H :   -0.118111
   9 H :   -0.113180
  10 H :    0.004323
  11 H :    0.083802
  12 H :    0.007495
  13 H :   -0.347898
  14 H :   -0.035806
  15 H :   -0.068215
  16 H :    0.039893
  17 H :   -0.008827
  18 H :   -0.227310
Sum of atomic charges:   -0.0000000

LOEWDIN ATOMIC CHARGES
----------------------
   0 C :    0.054851
   1 N :   -0.004797
   2 C :   -0.064250
   3 C :    0.128248
   4 C :   -0.266412
   5 N :    0.193701
   6 C :    0.120359
   7 H :   -0.111548
   8 H :   -0.119797
   9 H :    0.023144
  10 H :    0.007902
  11 H :    0.013959
  12 H :    0.017374
  13 H :    0.019646
  14 H :    0.021840
  15 H :    0.022262
  16 H :   -0.014690
  17 H :   -0.016298
  18 H :   -0.025493

  Mayer bond orders larger than 0.100000
B(  0-C ,  1-N ) :   0.8947 B(  0-C ,  2-C ) :   1.1276 B(  0-C , 12-H ) :   0.7952
B(  0-C , 13-H ) :   0.9798 B(  0-C , 15-H ) :   0.1473 B(  1-N ,  4-C ) :   1.1696
B(  1-N ,  5-N ) :   0.1519 B(  1-N ,  6-C ) :   0.1859 B(  1-N ,  9-H ) :   1.0077
B(  1-N , 12-H ) :   0.1226 B(  2-C ,  3-C ) :   1.2216 B(  2-C , 14-H ) :   0.9383
B(  2-C , 15-H ) :   0.9738 B(  2-C , 16-H ) :   0.1910 B(  2-C , 17-H ) :   0.1963
B(  2-C , 18-H ) :   0.2224 B(  3-C , 16-H ) :   0.7615 B(  3-C , 17-H ) :   0.7684
B(  3-C , 18-H ) :   0.8444 B(  4-C ,  5-N ) :   1.0697 B(  4-C ,  6-C ) :   1.9461
B(  4-C ,  7-H ) :   0.2264 B(  4-C ,  8-H ) :   0.2907 B(  5-N ,  6-C ) :   0.1321
B(  5-N , 10-H ) :   0.9045 B(  5-N , 11-H ) :   0.9526 B(  6-C ,  7-H ) :   0.8174
B(  6-C ,  8-H ) :   0.5275 B(  7-H ,  8-H ) :   0.2824 B( 16-H , 18-H ) :   0.1133

Dispersion correction           -0.005502046
FINAL SINGLE POINT ENERGY      -306.946539794672

DIPOLE MOMENT
-------------
                                X             Y             Z
Electronic contribution:      3.72174       3.11012      -0.13300
Nuclear contribution   :     -3.59323      -5.03016       0.59736
                        -----------------------------------------
Total Dipole Moment    :      0.12850      -1.92004       0.46436
                        -----------------------------------------
Magnitude (a.u.)       :      1.97957
Magnitude (Debye)      :      5.03167

Rotational constants in cm-1:     0.148888     0.051791     0.046487
Rotational constants in MHz :  4463.542717  1552.665696  1393.643356

                             ****ORCA TERMINATED NORMALLY****
TOTAL RUN TIME: 0 days 0 hours 0 minutes 20 seconds 983 msec
