                         Program Version 5.0.0 -  RELEASE  -
|  1> !wB97X-D3 RIJCOSX def2-SVPD def2/J TightSCF CPCM(Water) xyzfile
|  2>
|  3> *xyzfile 0 1 D5.xyz
|  4>
|  5> %MaxCore 64000
|  6>
|  7> %pal nprocs 18
|  8> end
|  9>
| 10> %scf
| 11>   MaxIter 150
| 12> end
| 13>
| 14>
| 15>                          ****END OF INPUT****

CARTESIAN COORDINATES (ANGSTROEM)
---------------------------------
  C      3.905947    2.819855   -3.752920
  N      5.295615    3.131515   -4.105334
  C      3.803511    1.374716   -3.260807
  C      3.939934    0.320362   -4.367729
  H      4.105043   -0.655085   -3.907733
  H      3.022801    0.280517   -4.957117
  C      5.105846    0.668022   -5.305463
  C      5.708619    3.468885   -5.324190
  C      6.904696    3.038954   -5.717084
  N      4.981884    4.293570   -6.097457
  H      5.000546    4.101311   -7.087761
  H      4.084693    4.596899   -5.739652
  H      5.963358    2.526112   -3.642391
  H      7.047164    2.066861   -5.473604
  H      7.198145    3.307994   -6.645225
  H      3.282025    2.949187   -4.640259
  H      3.565254    3.514574   -2.982523
  H      4.574833    1.215157   -2.500443
  H      2.843514    1.260845   -2.751465
  O      4.809132    1.150187   -6.414361
  F      6.267366    0.564999   -4.819481

 Total Charge           Charge          ....    0
 Multiplicity           Mult            ....    1
 Number of Electrons    NEL             ....   78
 Basis Dimension        Dim             ....  294

ORBITAL ENERGIES
----------------

  NO   OCC          E(Eh)            E(eV)
   0   2.0000     -24.877101      -676.9403
   1   2.0000     -19.262807      -524.1676
   2   2.0000     -14.445585      -393.0843
   3   2.0000     -14.437934      -392.8761
   4   2.0000     -10.479913      -285.1729
   5   2.0000     -10.347034      -281.5571
   6   2.0000     -10.324480      -280.9434
   7   2.0000     -10.312252      -280.6106
   8   2.0000     -10.302999      -280.3589
   9   2.0000     -10.202819      -277.6328
  10   2.0000      -1.426610       -38.8200
  11   2.0000      -1.157908       -31.5083
  12   2.0000      -1.086183       -29.5565
  13   2.0000      -0.998648       -27.1746
  14   2.0000      -0.919518       -25.0213
  15   2.0000      -0.851218       -23.1628
  16   2.0000      -0.811488       -22.0817
  17   2.0000      -0.767292       -20.8791
  18   2.0000      -0.719801       -19.5868
  19   2.0000      -0.706925       -19.2364
  20   2.0000      -0.665218       -18.1015
  21   2.0000      -0.658647       -17.9227
  22   2.0000      -0.627134       -17.0652
  23   2.0000      -0.611697       -16.6451
  24   2.0000      -0.599817       -16.3219
  25   2.0000      -0.582883       -15.8611
  26   2.0000      -0.561118       -15.2688
  27   2.0000      -0.536725       -14.6050
  28   2.0000      -0.518670       -14.1137
  29   2.0000      -0.502484       -13.6733
  30   2.0000      -0.492666       -13.4061
  31   2.0000      -0.483198       -13.1485
  32   2.0000      -0.465599       -12.6696
  33   2.0000      -0.462133       -12.5753
  34   2.0000      -0.446492       -12.1497
  35   2.0000      -0.427110       -11.6222
  36   2.0000      -0.395382       -10.7589
  37   2.0000      -0.359161        -9.7733
  38   2.0000      -0.270727        -7.3669
  39   0.0000       0.049848         1.3564
  40   0.0000       0.091112         2.4793
  41   0.0000       0.106892         2.9087
  42   0.0000       0.114887         3.1262
  43   0.0000       0.116677         3.1749

MULLIKEN ATOMIC CHARGES
-----------------------
   0 C :    0.735951
   1 N :   -0.384641
   2 C :   -0.011286
   3 C :    0.148349
   4 H :    0.014081
   5 H :    0.072944
   6 C :    0.637832
   7 C :   -0.056631
   8 C :    0.840038
   9 N :   -0.030574
  10 H :    0.040083
  11 H :    0.053829
  12 H :   -0.024452
  13 H :   -0.539006
  14 H :   -0.241822
  15 H :    0.020248
  16 H :   -0.286715
  17 H :    0.065457
  18 H :   -0.079266
  19 O :   -0.479720
  20 F :   -0.494698
Sum of atomic charges:   -0.0000000

LOEWDIN ATOMIC CHARGES
----------------------
   0 C :    0.070452
   1 N :    0.004863
   2 C :    0.000052
   3 C :    0.072533
   4 H :    0.043178
   5 H :    0.041565
   6 C :    0.003063
   7 C :   -0.266556
   8 C :    0.110609
   9 N :    0.216538
  10 H :    0.018314
  11 H :    0.000344
  12 H :    0.018744
  13 H :   -0.147793
  14 H :   -0.100369
  15 H :    0.027342
  16 H :    0.023830
  17 H :    0.035431
  18 H :    0.035135
  19 O :   -0.157898
  20 F :   -0.049375

  Mayer bond orders larger than 0.100000
B(  0-C ,  1-N ) :   0.8097 B(  0-C ,  2-C ) :   1.1676 B(  0-C , 15-H ) :   0.7480
B(  0-C , 16-H ) :   0.9083 B(  0-C , 18-H ) :   0.1658 B(  1-N ,  2-C ) :   0.1474
B(  1-N ,  7-C ) :   1.1426 B(  1-N ,  8-C ) :   0.1611 B(  1-N , 12-H ) :   1.0423
B(  1-N , 15-H ) :   0.1316 B(  2-C ,  3-C ) :   1.1921 B(  2-C ,  4-H ) :   0.1716
B(  2-C ,  5-H ) :   0.1049 B(  2-C , 17-H ) :   0.8601 B(  2-C , 18-H ) :   0.9519
B(  3-C ,  4-H ) :   0.8378 B(  3-C ,  5-H ) :   0.8670 B(  3-C ,  6-C ) :   1.1311
B(  4-H ,  6-C ) :   0.1095 B(  5-H ,  6-C ) :   0.1825 B(  6-C , 19-O ) :   1.7984
B(  6-C , 20-F ) :   0.6104 B(  7-C ,  8-C ) :   1.9691 B(  7-C ,  9-N ) :   0.9587
B(  7-C , 11-H ) :   0.1761 B(  7-C , 12-H ) :  -0.1194 B(  7-C , 13-H ) :   0.2215
B(  7-C , 14-H ) :   0.4586 B(  8-C ,  9-N ) :   0.2474 B(  8-C , 13-H ) :   0.4195
B(  8-C , 14-H ) :   0.3534 B(  9-N , 10-H ) :   1.0143 B(  9-N , 11-H ) :   0.8175
B( 10-H , 11-H ) :  -0.1144 B( 13-H , 14-H ) :   0.1670 B( 13-H , 20-F ) :   0.2232

Dispersion correction           -0.008992253
FINAL SINGLE POINT ENERGY      -519.299497756425

DIPOLE MOMENT
-------------
                                X             Y             Z
Electronic contribution:      3.67329      -4.95599      -2.17262
Nuclear contribution   :     -6.05797       3.87976       3.55209
                        -----------------------------------------
Total Dipole Moment    :     -2.38467      -1.07623       1.37946
                        -----------------------------------------
Magnitude (a.u.)       :      2.95767
Magnitude (Debye)      :      7.51781

Rotational constants in cm-1:     0.061282     0.043164     0.033679
Rotational constants in MHz :  1837.191639  1294.028651  1009.659886

                             ****ORCA TERMINATED NORMALLY****
TOTAL RUN TIME: 0 days 0 hours 0 minutes 31 seconds 890 msec
