                         Program Version 5.0.0 -  RELEASE  -
|  1> !wB97X-D3 RIJCOSX def2-SVPD def2/J TightSCF CPCM(Water) xyzfile
|  2>
|  3> *xyzfile 0 1 D6.xyz
|  4>
|  5> %MaxCore 64000
|  6>
|  7> %pal nprocs 18
|  8> end
|  9>
| 10> %scf
| 11>   MaxIter 150
| 12> end
| 13>
| 14>
| 15>                          ****END OF INPUT****

CARTESIAN COORDINATES (ANGSTROEM)
---------------------------------
  C      3.905947    2.819855   -3.752920
  N      5.295615    3.131515   -4.105334
  C      3.803511    1.374716   -3.260807
  C      3.939934    0.320362   -4.367729
  H      4.105043   -0.655085   -3.907733
  H      3.022801    0.280517   -4.957117
  C      5.105846    0.668022   -5.305463
  C      5.708619    3.468885   -5.324190
  N      6.904696    3.038954   -5.717084
  C      4.981884    4.293570   -6.097457
  H      5.000546    4.101311   -7.087761
  H      4.084693    4.596899   -5.739652
  H      5.963358    2.526112   -3.642391
  H      7.047164    2.066861   -5.473604
  H      7.198145    3.307994   -6.645225
  H      3.282025    2.949187   -4.640259
  H      3.565254    3.514574   -2.982523
  H      4.574833    1.215157   -2.500443
  H      2.843514    1.260845   -2.751465
  O      4.809132    1.150187   -6.414361
  F      6.267366    0.564999   -4.819481

 Total Charge           Charge          ....    0
 Multiplicity           Mult            ....    1
 Number of Electrons    NEL             ....   78
 Basis Dimension        Dim             ....  294

ORBITAL ENERGIES
----------------

  NO   OCC          E(Eh)            E(eV)
   0   2.0000     -24.887818      -677.2320
   1   2.0000     -19.268348      -524.3184
   2   2.0000     -14.447606      -393.1394
   3   2.0000     -14.432569      -392.7302
   4   2.0000     -10.484154      -285.2883
   5   2.0000     -10.347726      -281.5759
   6   2.0000     -10.324613      -280.9470
   7   2.0000     -10.313876      -280.6548
   8   2.0000     -10.303135      -280.3625
   9   2.0000     -10.213308      -277.9183
  10   2.0000      -1.436728       -39.0953
  11   2.0000      -1.162971       -31.6461
  12   2.0000      -1.091252       -29.6945
  13   2.0000      -1.002054       -27.2673
  14   2.0000      -0.916200       -24.9311
  15   2.0000      -0.842956       -22.9380
  16   2.0000      -0.819699       -22.3051
  17   2.0000      -0.780526       -21.2392
  18   2.0000      -0.732021       -19.9193
  19   2.0000      -0.683841       -18.6083
  20   2.0000      -0.675805       -18.3896
  21   2.0000      -0.666009       -18.1230
  22   2.0000      -0.630011       -17.1435
  23   2.0000      -0.612749       -16.6737
  24   2.0000      -0.608006       -16.5447
  25   2.0000      -0.578806       -15.7501
  26   2.0000      -0.573461       -15.6047
  27   2.0000      -0.527939       -14.3659
  28   2.0000      -0.520781       -14.1712
  29   2.0000      -0.505719       -13.7613
  30   2.0000      -0.492565       -13.4034
  31   2.0000      -0.488069       -13.2810
  32   2.0000      -0.471302       -12.8248
  33   2.0000      -0.466853       -12.7037
  34   2.0000      -0.444907       -12.1065
  35   2.0000      -0.434073       -11.8117
  36   2.0000      -0.398218       -10.8361
  37   2.0000      -0.355791        -9.6816
  38   2.0000      -0.276371        -7.5204
  39   0.0000       0.046115         1.2549
  40   0.0000       0.092339         2.5127
  41   0.0000       0.108397         2.9496
  42   0.0000       0.115892         3.1536
  43   0.0000       0.118946         3.2367

MULLIKEN ATOMIC CHARGES
-----------------------
   0 C :    0.764168
   1 N :   -0.321728
   2 C :    0.031599
   3 C :    0.179128
   4 H :    0.014692
   5 H :    0.069297
   6 C :    0.663798
   7 C :    0.006556
   8 N :    0.083666
   9 C :    0.442776
  10 H :   -0.387674
  11 H :   -0.161323
  12 H :   -0.131239
  13 H :   -0.106364
  14 H :    0.131695
  15 H :    0.026030
  16 H :   -0.360169
  17 H :    0.063260
  18 H :   -0.071901
  19 O :   -0.474073
  20 F :   -0.462193
Sum of atomic charges:   -0.0000000

LOEWDIN ATOMIC CHARGES
----------------------
   0 C :    0.076797
   1 N :    0.005877
   2 C :    0.000569
   3 C :    0.074086
   4 H :    0.043901
   5 H :    0.042621
   6 C :    0.004763
   7 C :   -0.282320
   8 N :    0.214339
   9 C :    0.124032
  10 H :   -0.105754
  11 H :   -0.116052
  12 H :    0.017225
  13 H :   -0.051601
  14 H :    0.022952
  15 H :    0.025479
  16 H :    0.026176
  17 H :    0.034750
  18 H :    0.035970
  19 O :   -0.154085
  20 F :   -0.039725

  Mayer bond orders larger than 0.100000
B(  0-C ,  1-N ) :   0.8255 B(  0-C ,  2-C ) :   1.1430 B(  0-C , 15-H ) :   0.7701
B(  0-C , 16-H ) :   0.9509 B(  0-C , 18-H ) :   0.1755 B(  1-N ,  2-C ) :   0.1619
B(  1-N ,  7-C ) :   1.1992 B(  1-N ,  9-C ) :   0.2079 B(  1-N , 12-H ) :   0.9928
B(  1-N , 15-H ) :   0.1336 B(  2-C ,  3-C ) :   1.1859 B(  2-C ,  4-H ) :   0.1704
B(  2-C ,  5-H ) :   0.1038 B(  2-C , 17-H ) :   0.8560 B(  2-C , 18-H ) :   0.9386
B(  3-C ,  4-H ) :   0.8333 B(  3-C ,  5-H ) :   0.8588 B(  3-C ,  6-C ) :   1.1254
B(  4-H ,  6-C ) :   0.1085 B(  5-H ,  6-C ) :   0.1985 B(  6-C , 19-O ) :   1.7963
B(  6-C , 20-F ) :   0.5936 B(  7-C ,  8-N ) :   1.0426 B(  7-C ,  9-C ) :   2.0263
B(  7-C , 10-H ) :   0.2458 B(  7-C , 11-H ) :   0.3013 B(  7-C , 12-H ) :  -0.1195
B(  7-C , 13-H ) :   0.1276 B(  7-C , 14-H ) :   0.1089 B(  8-N ,  9-C ) :   0.1344
B(  8-N , 13-H ) :   0.8275 B(  8-N , 14-H ) :   0.8708 B(  9-C , 10-H ) :   0.7909
B(  9-C , 11-H ) :   0.5610 B( 10-H , 11-H ) :   0.1859

Dispersion correction           -0.009056826
FINAL SINGLE POINT ENERGY      -519.308653737541

DIPOLE MOMENT
-------------
                                X             Y             Z
Electronic contribution:      5.94312      -6.42715      -1.74796
Nuclear contribution   :     -6.29470       4.03423       3.50525
                        -----------------------------------------
Total Dipole Moment    :     -0.35158      -2.39292       1.75729
                        -----------------------------------------
Magnitude (a.u.)       :      2.98960
Magnitude (Debye)      :      7.59897

Rotational constants in cm-1:     0.061094     0.043661     0.033867
Rotational constants in MHz :  1831.559881  1308.929520  1015.295167

                             ****ORCA TERMINATED NORMALLY****
TOTAL RUN TIME: 0 days 0 hours 0 minutes 33 seconds 197 msec
