                         Program Version 5.0.0 -  RELEASE  -
|  1> !B3LYP D3BJ RIJCOSX def2-SVP def2/J TightSCF
|  2> *xyz -1 1
|  3> C          4.08422        1.74208       -2.11472
|  4> C          4.26524        2.50052       -0.79589
|  5> H          4.86853        3.39267       -0.98113
|  6> H          3.30764        2.82457       -0.38781
|  7> C          4.98224        1.65026        0.24742
|  8> O          4.36806        1.38927        1.31371
|  9> O          6.12892        1.23351       -0.04562
| 10> H          3.57911        2.36849       -2.81997
| 11> H          3.50424        0.85965       -1.94198
| 12> H          5.04288        1.46841       -2.50327
| 13> *
| 14> %MaxCore 64000
| 15> %pal nprocs 8
| 16> end
| 17> %scf
| 18>   MaxIter 150
| 19> end
| 20>
| 21>
| 22>                          ****END OF INPUT****

CARTESIAN COORDINATES (ANGSTROEM)
---------------------------------
  C      4.084220    1.742080   -2.114720
  C      4.265240    2.500520   -0.795890
  H      4.868530    3.392670   -0.981130
  H      3.307640    2.824570   -0.387810
  C      4.982240    1.650260    0.247420
  O      4.368060    1.389270    1.313710
  O      6.128920    1.233510   -0.045620
  H      3.579110    2.368490   -2.819970
  H      3.504240    0.859650   -1.941980
  H      5.042880    1.468410   -2.503270

 Total Charge           Charge          ....   -1
 Multiplicity           Mult            ....    1
 Number of Electrons    NEL             ....   40
 Basis Dimension        Dim             ....   95

ORBITAL ENERGIES
----------------

  NO   OCC          E(Eh)            E(eV)
   0   2.0000     -18.830047      -512.3916
   1   2.0000     -18.828964      -512.3622
   2   2.0000     -10.031216      -272.9633
   3   2.0000     -10.011727      -272.4330
   4   2.0000      -9.989350      -271.8240
   5   2.0000      -0.771093       -20.9825
   6   2.0000      -0.677326       -18.4310
   7   2.0000      -0.582882       -15.8610
   8   2.0000      -0.451464       -12.2850
   9   2.0000      -0.297799        -8.1035
  10   2.0000      -0.277141        -7.5414
  11   2.0000      -0.234013        -6.3678
  12   2.0000      -0.208892        -5.6842
  13   2.0000      -0.192748        -5.2449
  14   2.0000      -0.180043        -4.8992
  15   2.0000      -0.147202        -4.0056
  16   2.0000      -0.133198        -3.6245
  17   2.0000      -0.009184        -0.2499
  18   2.0000      -0.006077        -0.1654
  19   2.0000       0.011251         0.3062
  20   0.0000       0.216527         5.8920
  21   0.0000       0.266231         7.2445
  22   0.0000       0.280693         7.6380
  23   0.0000       0.283145         7.7048
  24   0.0000       0.289486         7.8773

MULLIKEN ATOMIC CHARGES
-----------------------
   0 C :    0.046299
   1 C :    0.059211
   2 H :   -0.060742
   3 H :   -0.075036
   4 C :    0.003595
   5 O :   -0.428370
   6 O :   -0.434769
   7 H :   -0.063271
   8 H :   -0.026958
   9 H :   -0.019960
Sum of atomic charges:   -1.0000000

LOEWDIN ATOMIC CHARGES
----------------------
   0 C :   -0.053398
   1 C :   -0.082377
   2 H :   -0.002469
   3 H :   -0.010584
   4 C :   -0.057629
   5 O :   -0.395531
   6 O :   -0.398480
   7 H :   -0.011802
   8 H :    0.006098
   9 H :    0.006173

  Mayer bond orders larger than 0.100000
B(  0-C ,  1-C ) :   1.1017 B(  0-C ,  7-H ) :   0.9585 B(  0-C ,  8-H ) :   0.9695
B(  0-C ,  9-H ) :   0.9589 B(  1-C ,  2-H ) :   0.9240 B(  1-C ,  3-H ) :   0.9247
B(  1-C ,  4-C ) :   0.9223 B(  4-C ,  5-O ) :   1.8718 B(  4-C ,  6-O ) :   1.8332
B(  5-O ,  6-O ) :   0.1172

Dispersion correction           -0.010991650
FINAL SINGLE POINT ENERGY      -267.478961832239

DIPOLE MOMENT
-------------
                                X             Y             Z
Electronic contribution:      2.54152      -1.59636       5.30170
Nuclear contribution   :     -3.31311       2.28398      -6.76358
                        -----------------------------------------
Total Dipole Moment    :     -0.77159       0.68762      -1.46188
                        -----------------------------------------
Magnitude (a.u.)       :      1.79033
Magnitude (Debye)      :      4.55066

Rotational constants in cm-1:     0.309287     0.135287     0.107346
Rotational constants in MHz :  9272.201029  4055.789113  3218.155789

                             ****ORCA TERMINATED NORMALLY****
TOTAL RUN TIME: 0 days 0 hours 0 minutes 9 seconds 899 msec
