                         Program Version 5.0.0 -  RELEASE  -
|  1> !B3LYP D3BJ RIJCOSX def2-SVP def2/J TightSCF
|  2> *xyz 1 1
|  3> C          3.91385       -1.65829        3.01513
|  4> N          5.03927       -0.90115        2.49282
|  5> C          6.21038       -1.41726        2.17824
|  6> N          6.53591       -2.67712        2.55608
|  7> N          7.07675       -0.70082        1.47891
|  8> H          7.95464       -1.12155        1.20755
|  9> H          6.75616        0.10664        0.96028
| 10> H          4.84217        0.01761        2.11519
| 11> H          5.99388       -3.12692        3.28278
| 12> C          3.13916       -2.37657        1.91061
| 13> H          3.26723       -0.93940        3.52069
| 14> H          4.24720       -2.35509        3.79006
| 15> H          7.49844       -2.97548        2.46878
| 16> H          2.82969       -1.66654        1.17238
| 17> H          2.27790       -2.85264        2.33072
| 18> H          3.76754       -3.11338        1.45548
| 19> *
| 20> %MaxCore 64000
| 21> %pal nprocs 8
| 22> end
| 23> %scf
| 24>   MaxIter 150
| 25> end
| 26>
| 27>
| 28>                          ****END OF INPUT****

CARTESIAN COORDINATES (ANGSTROEM)
---------------------------------
  C      3.913850   -1.658290    3.015130
  N      5.039270   -0.901150    2.492820
  C      6.210380   -1.417260    2.178240
  N      6.535910   -2.677120    2.556080
  N      7.076750   -0.700820    1.478910
  H      7.954640   -1.121550    1.207550
  H      6.756160    0.106640    0.960280
  H      4.842170    0.017610    2.115190
  H      5.993880   -3.126920    3.282780
  C      3.139160   -2.376570    1.910610
  H      3.267230   -0.939400    3.520690
  H      4.247200   -2.355090    3.790060
  H      7.498440   -2.975480    2.468780
  H      2.829690   -1.666540    1.172380
  H      2.277900   -2.852640    2.330720
  H      3.767540   -3.113380    1.455480

 Total Charge           Charge          ....    1
 Multiplicity           Mult            ....    1
 Number of Electrons    NEL             ....   48
 Basis Dimension        Dim             ....  134

ORBITAL ENERGIES
----------------

  NO   OCC          E(Eh)            E(eV)
   0   2.0000     -14.551216      -395.9587
   1   2.0000     -14.550024      -395.9263
   2   2.0000     -14.547863      -395.8675
   3   2.0000     -10.515025      -286.1284
   4   2.0000     -10.389831      -282.7217
   5   2.0000     -10.318546      -280.7819
   6   2.0000      -1.205290       -32.7976
   7   2.0000      -1.096751       -29.8441
   8   2.0000      -1.079598       -29.3773
   9   2.0000      -0.922583       -25.1048
  10   2.0000      -0.835164       -22.7260
  11   2.0000      -0.796725       -21.6800
  12   2.0000      -0.783809       -21.3285
  13   2.0000      -0.740819       -20.1587
  14   2.0000      -0.691415       -18.8144
  15   2.0000      -0.685216       -18.6457
  16   2.0000      -0.652910       -17.7666
  17   2.0000      -0.627125       -17.0649
  18   2.0000      -0.599420       -16.3110
  19   2.0000      -0.559540       -15.2258
  20   2.0000      -0.529804       -14.4167
  21   2.0000      -0.511095       -13.9076
  22   2.0000      -0.474496       -12.9117
  23   2.0000      -0.448205       -12.1963
  24   0.0000      -0.159437        -4.3385
  25   0.0000      -0.138230        -3.7614
  26   0.0000      -0.106765        -2.9052
  27   0.0000      -0.096123        -2.6156
  28   0.0000      -0.076617        -2.0849

MULLIKEN ATOMIC CHARGES
-----------------------
   0 C :    0.033220
   1 N :   -0.089220
   2 C :    0.014081
   3 N :   -0.036876
   4 N :    0.006528
   5 H :    0.165714
   6 H :    0.167533
   7 H :    0.157088
   8 H :    0.160920
   9 C :    0.038206
  10 H :    0.061589
  11 H :    0.043244
  12 H :    0.163217
  13 H :    0.032051
  14 H :    0.057881
  15 H :    0.024827
Sum of atomic charges:    1.0000000

LOEWDIN ATOMIC CHARGES
----------------------
   0 C :    0.045186
   1 N :    0.041464
   2 C :    0.142062
   3 N :    0.036847
   4 N :    0.054649
   5 H :    0.109930
   6 H :    0.110478
   7 H :    0.106080
   8 H :    0.103454
   9 C :   -0.040154
  10 H :    0.047640
  11 H :    0.030939
  12 H :    0.108071
  13 H :    0.031335
  14 H :    0.046173
  15 H :    0.025843

  Mayer bond orders larger than 0.100000
B(  0-C ,  1-N ) :   0.9458 B(  0-C ,  9-C ) :   1.0996 B(  0-C , 10-H ) :   0.9446
B(  0-C , 11-H ) :   0.9484 B(  1-N ,  2-C ) :   1.3908 B(  1-N ,  7-H ) :   0.9102
B(  2-C ,  3-N ) :   1.3677 B(  2-C ,  4-N ) :   1.3997 B(  3-N ,  8-H ) :   0.9258
B(  3-N , 12-H ) :   0.9272 B(  4-N ,  5-H ) :   0.9271 B(  4-N ,  6-H ) :   0.9261
B(  9-C , 13-H ) :   0.9676 B(  9-C , 14-H ) :   0.9619 B(  9-C , 15-H ) :   0.9664

Dispersion correction           -0.020359108
FINAL SINGLE POINT ENERGY      -284.034174658282

DIPOLE MOMENT
-------------
                                X             Y             Z
Electronic contribution:      4.79266       1.92662       0.05958
Nuclear contribution   :     -3.67981      -1.62355      -0.28562
                        -----------------------------------------
Total Dipole Moment    :      1.11285       0.30307      -0.22603
                        -----------------------------------------
Magnitude (a.u.)       :      1.17532
Magnitude (Debye)      :      2.98743

Rotational constants in cm-1:     0.222027     0.074735     0.065694
Rotational constants in MHz :  6656.200457  2240.503315  1969.451902

                             ****ORCA TERMINATED NORMALLY****
TOTAL RUN TIME: 0 days 0 hours 0 minutes 15 seconds 577 msec
