                         Program Version 5.0.0 -  RELEASE  -
|  1> !B3LYP D3BJ RIJCOSX def2-TZVP def2/J TightSCF xyzfile
|  2>
|  3> *xyzfile 0 1 B.xyz
|  4>
|  5> %MaxCore 64000
|  6>
|  7> %pal nprocs 18
|  8> end
|  9>
| 10> %scf
| 11>   MaxIter 150
| 12> end
| 13>
| 14>
| 15>                          ****END OF INPUT****

CARTESIAN COORDINATES (ANGSTROEM)
---------------------------------
  C      3.913853   -1.658291    3.015134
  N      5.039266   -0.901154    2.492821
  C      4.084215    1.742081   -2.114724
  C      4.265245    2.500518   -0.795890
  H      4.868534    3.392674   -0.981134
  H      3.307640    2.824571   -0.387809
  C      4.982240    1.650257    0.247422
  C      6.210384   -1.417261    2.178244
  N      6.535913   -2.677122    2.556078
  N      7.076754   -0.700820    1.478906
  H      7.954643   -1.121554    1.207554
  H      6.756161    0.106637    0.960278
  H      4.842168    0.017609    2.115191
  H      5.993876   -3.126918    3.282784
  H      7.498441   -2.975482    2.468776
  O      4.368065    1.389270    1.313706
  O      6.128919    1.233512   -0.045620
  C      3.139159   -2.376572    1.910609
  H      3.267235   -0.939401    3.520693
  H      4.247195   -2.355095    3.790065
  C      1.997274    0.430918   -1.399218
  C      3.412746    0.376886   -1.965497
  H      4.047407   -0.246590   -1.326706
  H      3.390774   -0.118719   -2.942839
  H      5.068475    1.598504   -2.565728
  H      3.503356    2.363939   -2.804565
  C      2.399946   -1.389579    1.009490
  H      2.440750   -3.087118    2.362976
  H      3.844475   -2.970462    1.318677
  C      2.070177   -1.936705   -0.372401
  H      1.481611   -1.061542    1.509912
  H      3.008628   -0.490001    0.897451
  C      1.322238   -0.935775   -1.256413
  H      1.472747   -2.850902   -0.283997
  H      3.003539   -2.234041   -0.862535
  H      1.376444    1.058920   -2.047420
  H      2.015341    0.929780   -0.426535
  H      0.316648   -0.787213   -0.848278
  H      1.185611   -1.379252   -2.248613

 Total Charge           Charge          ....    0
 Multiplicity           Mult            ....    1
 Number of Electrons    NEL             ....  126
 Basis Dimension        Dim             ....  634

ORBITAL ENERGIES
----------------

  NO   OCC          E(Eh)            E(eV)
   0   2.0000     -19.041669      -518.1502
   1   2.0000     -19.040431      -518.1165
   2   2.0000     -14.379213      -391.2783
   3   2.0000     -14.344544      -390.3349
   4   2.0000     -14.339017      -390.1845
   5   2.0000     -10.325113      -280.9606
   6   2.0000     -10.224945      -278.2349
   7   2.0000     -10.224810      -278.2312
   8   2.0000     -10.174526      -276.8629
   9   2.0000     -10.152441      -276.2620
  10   2.0000     -10.151788      -276.2442
  11   2.0000     -10.148174      -276.1458
  12   2.0000     -10.139064      -275.8980
  13   2.0000     -10.137487      -275.8551
  14   2.0000     -10.136578      -275.8303
  15   2.0000     -10.127771      -275.5907
  16   2.0000      -1.039684       -28.2912
  17   2.0000      -1.005999       -27.3746
  18   2.0000      -0.933664       -25.4063
  19   2.0000      -0.920342       -25.0438
  20   2.0000      -0.909565       -24.7505
  21   2.0000      -0.809021       -22.0146
  22   2.0000      -0.784572       -21.3493
  23   2.0000      -0.755835       -20.5673
  24   2.0000      -0.716562       -19.4986
  25   2.0000      -0.678705       -18.4685
  26   2.0000      -0.661517       -18.0008
  27   2.0000      -0.630903       -17.1677
  28   2.0000      -0.613961       -16.7067
  29   2.0000      -0.601913       -16.3789
  30   2.0000      -0.573971       -15.6186
  31   2.0000      -0.568464       -15.4687
  32   2.0000      -0.537344       -14.6219
  33   2.0000      -0.524194       -14.2640
  34   2.0000      -0.517277       -14.0758
  35   2.0000      -0.496067       -13.4987
  36   2.0000      -0.468682       -12.7535
  37   2.0000      -0.463567       -12.6143
  38   2.0000      -0.456474       -12.4213
  39   2.0000      -0.453012       -12.3271
  40   2.0000      -0.438690       -11.9374
  41   2.0000      -0.421277       -11.4635
  42   2.0000      -0.419032       -11.4024
  43   2.0000      -0.414270       -11.2729
  44   2.0000      -0.406439       -11.0598
  45   2.0000      -0.396414       -10.7870
  46   2.0000      -0.381654       -10.3853
  47   2.0000      -0.368808       -10.0358
  48   2.0000      -0.365133        -9.9358
  49   2.0000      -0.353298        -9.6137
  50   2.0000      -0.346930        -9.4404
  51   2.0000      -0.339653        -9.2424
  52   2.0000      -0.326560        -8.8862
  53   2.0000      -0.318952        -8.6791
  54   2.0000      -0.313635        -8.5345
  55   2.0000      -0.308165        -8.3856
  56   2.0000      -0.299095        -8.1388
  57   2.0000      -0.294194        -8.0054
  58   2.0000      -0.287676        -7.8281
  59   2.0000      -0.275029        -7.4839
  60   2.0000      -0.231804        -6.3077
  61   2.0000      -0.221302        -6.0219
  62   2.0000      -0.215234        -5.8568
  63   0.0000      -0.012529        -0.3409
  64   0.0000       0.004226         0.1150
  65   0.0000       0.020167         0.5488
  66   0.0000       0.043451         1.1824
  67   0.0000       0.056136         1.5275

MULLIKEN ATOMIC CHARGES
-----------------------
   0 C :   -0.137568
   1 N :   -0.226491
   2 C :   -0.121297
   3 C :   -0.142847
   4 H :    0.082075
   5 H :    0.087024
   6 C :    0.327809
   7 C :    0.380671
   8 N :   -0.432964
   9 N :   -0.378719
  10 H :    0.216332
  11 H :    0.285677
  12 H :    0.267026
  13 H :    0.244862
  14 H :    0.235464
  15 O :   -0.539769
  16 O :   -0.534020
  17 C :   -0.112443
  18 H :    0.130019
  19 H :    0.092183
  20 C :   -0.215460
  21 C :   -0.196921
  22 H :    0.097864
  23 H :    0.068347
  24 H :    0.081849
  25 H :    0.069704
  26 C :   -0.279936
  27 H :    0.089806
  28 H :    0.089970
  29 C :   -0.164762
  30 H :    0.076431
  31 H :    0.157781
  32 C :   -0.129059
  33 H :    0.078534
  34 H :    0.090832
  35 H :    0.076696
  36 H :    0.125977
  37 H :    0.079608
  38 H :    0.079716
Sum of atomic charges:   -0.0000000

LOEWDIN ATOMIC CHARGES
----------------------
   0 C :   -0.268636
   1 N :    0.180372
   2 C :   -0.260087
   3 C :   -0.234406
   4 H :    0.139381
   5 H :    0.132426
   6 C :   -0.630856
   7 C :   -0.421812
   8 N :    0.007739
   9 N :    0.061875
  10 H :    0.171996
  11 H :    0.150733
  12 H :    0.171542
  13 H :    0.175550
  14 H :    0.175702
  15 O :   -0.058654
  16 O :   -0.046046
  17 C :   -0.261978
  18 H :    0.146152
  19 H :    0.120256
  20 C :   -0.264922
  21 C :   -0.263583
  22 H :    0.135488
  23 H :    0.129794
  24 H :    0.136495
  25 H :    0.128535
  26 C :   -0.264573
  27 H :    0.133610
  28 H :    0.135059
  29 C :   -0.268647
  30 H :    0.134355
  31 H :    0.146092
  32 C :   -0.263437
  33 H :    0.129518
  34 H :    0.131608
  35 H :    0.131633
  36 H :    0.138811
  37 H :    0.131624
  38 H :    0.131294

  Mayer bond orders larger than 0.100000
B(  0-C ,  1-N ) :   0.9373 B(  0-C , 17-C ) :   0.9256 B(  0-C , 18-H ) :   0.9676
B(  0-C , 19-H ) :   0.9870 B(  1-N ,  7-C ) :   1.4420 B(  1-N , 12-H ) :   0.7678
B(  2-C ,  3-C ) :   0.9609 B(  2-C , 21-C ) :   0.9852 B(  2-C , 24-H ) :   0.9577
B(  2-C , 25-H ) :   0.9628 B(  3-C ,  4-H ) :   0.9504 B(  3-C ,  5-H ) :   0.9823
B(  3-C ,  6-C ) :   0.9498 B(  6-C , 15-O ) :   1.6312 B(  6-C , 16-O ) :   1.6497
B(  7-C ,  8-N ) :   1.2181 B(  7-C ,  9-N ) :   1.4026 B(  8-N , 13-H ) :   0.9049
B(  8-N , 14-H ) :   0.9172 B(  9-N , 10-H ) :   0.9235 B(  9-N , 11-H ) :   0.7490
B( 11-H , 16-O ) :   0.2298 B( 12-H , 15-O ) :   0.2186 B( 17-C , 26-C ) :   0.9456
B( 17-C , 27-H ) :   0.9609 B( 17-C , 28-H ) :   0.9727 B( 20-C , 21-C ) :   0.9529
B( 20-C , 32-C ) :   0.9584 B( 20-C , 35-H ) :   0.9639 B( 20-C , 36-H ) :   0.9768
B( 21-C , 22-H ) :   0.9720 B( 21-C , 23-H ) :   0.9664 B( 26-C , 29-C ) :   0.9561
B( 26-C , 30-H ) :   0.9621 B( 26-C , 31-H ) :   0.9874 B( 29-C , 32-C ) :   0.9806
B( 29-C , 33-H ) :   0.9711 B( 29-C , 34-H ) :   0.9696 B( 32-C , 37-H ) :   0.9739
B( 32-C , 38-H ) :   0.9703

Dispersion correction           -0.072499165
FINAL SINGLE POINT ENERGY      -747.683189427680

DIPOLE MOMENT
-------------
                                X             Y             Z
Electronic contribution:     12.34158       3.30463       7.69095
Nuclear contribution   :    -11.44764      -6.21818      -6.18483
                        -----------------------------------------
Total Dipole Moment    :      0.89395      -2.91355       1.50612
                        -----------------------------------------
Magnitude (a.u.)       :      3.39946
Magnitude (Debye)      :      8.64073

Rotational constants in cm-1:     0.020281     0.013510     0.009451
Rotational constants in MHz :   608.005987   405.034308   283.324538

                             ****ORCA TERMINATED NORMALLY****
TOTAL RUN TIME: 0 days 0 hours 1 minutes 23 seconds 325 msec
