                         Program Version 5.0.0 -  RELEASE  -
|  1> !B3LYP D3BJ RIJCOSX def2-SVP def2/J TightSCF
|  2> *xyz 0 1
|  3> C          4.08422        1.74208       -2.11472
|  4> C          4.26524        2.50052       -0.79589
|  5> H          4.86853        3.39267       -0.98113
|  6> H          3.30764        2.82457       -0.38781
|  7> C          4.98224        1.65026        0.24742
|  8> F          4.36806        1.38927        1.31371
|  9> O          6.12892        1.23351       -0.04562
| 10> H          3.57911        2.36849       -2.81997
| 11> H          3.50424        0.85965       -1.94198
| 12> H          5.04288        1.46841       -2.50327
| 13> *
| 14> %MaxCore 64000
| 15> %pal nprocs 8
| 16> end
| 17> %scf
| 18>   MaxIter 150
| 19> end
| 20>
| 21>
| 22>                          ****END OF INPUT****

CARTESIAN COORDINATES (ANGSTROEM)
---------------------------------
  C      4.084220    1.742080   -2.114720
  C      4.265240    2.500520   -0.795890
  H      4.868530    3.392670   -0.981130
  H      3.307640    2.824570   -0.387810
  C      4.982240    1.650260    0.247420
  F      4.368060    1.389270    1.313710
  O      6.128920    1.233510   -0.045620
  H      3.579110    2.368490   -2.819970
  H      3.504240    0.859650   -1.941980
  H      5.042880    1.468410   -2.503270

 Total Charge           Charge          ....    0
 Multiplicity           Mult            ....    1
 Number of Electrons    NEL             ....   40
 Basis Dimension        Dim             ....   95

ORBITAL ENERGIES
----------------

  NO   OCC          E(Eh)            E(eV)
   0   2.0000     -24.749196      -673.4599
   1   2.0000     -19.131553      -520.5960
   2   2.0000     -10.351825      -281.6875
   3   2.0000     -10.210123      -277.8316
   4   2.0000     -10.188157      -277.2338
   5   2.0000      -1.291516       -35.1439
   6   2.0000      -1.013813       -27.5873
   7   2.0000      -0.789642       -21.4873
   8   2.0000      -0.677503       -18.4358
   9   2.0000      -0.628310       -17.0972
  10   2.0000      -0.540200       -14.6996
  11   2.0000      -0.525909       -14.3107
  12   2.0000      -0.497193       -13.5293
  13   2.0000      -0.460677       -12.5357
  14   2.0000      -0.427734       -11.6392
  15   2.0000      -0.395719       -10.7681
  16   2.0000      -0.374962       -10.2032
  17   2.0000      -0.371111       -10.0984
  18   2.0000      -0.339638        -9.2420
  19   2.0000      -0.284138        -7.7318
  20   0.0000      -0.022430        -0.6104
  21   0.0000       0.062092         1.6896
  22   0.0000       0.104576         2.8456
  23   0.0000       0.108578         2.9546
  24   0.0000       0.127626         3.4729

MULLIKEN ATOMIC CHARGES
-----------------------
   0 C :    0.028186
   1 C :   -0.030997
   2 H :    0.045656
   3 H :    0.009565
   4 C :    0.213324
   5 F :   -0.072030
   6 O :   -0.255277
   7 H :    0.014530
   8 H :    0.012775
   9 H :    0.034267
Sum of atomic charges:    0.0000000

LOEWDIN ATOMIC CHARGES
----------------------
   0 C :   -0.029286
   1 C :   -0.063360
   2 H :    0.047154
   3 H :    0.023235
   4 C :    0.099799
   5 F :    0.041788
   6 O :   -0.195791
   7 H :    0.024828
   8 H :    0.022686
   9 H :    0.028947

  Mayer bond orders larger than 0.100000
B(  0-C ,  1-C ) :   1.0985 B(  0-C ,  7-H ) :   0.9667 B(  0-C ,  8-H ) :   0.9755
B(  0-C ,  9-H ) :   0.9695 B(  1-C ,  2-H ) :   0.9292 B(  1-C ,  3-H ) :   0.9338
B(  1-C ,  4-C ) :   1.0010 B(  4-C ,  5-F ) :   1.2049 B(  4-C ,  6-O ) :   2.0723

Dispersion correction           -0.010420681
FINAL SINGLE POINT ENERGY      -292.034830222362

DIPOLE MOMENT
-------------
                                X             Y             Z
Electronic contribution:      1.98760      -2.08776       8.18584
Nuclear contribution   :     -2.87511       2.61564      -8.50037
                        -----------------------------------------
Total Dipole Moment    :     -0.88750       0.52788      -0.31452
                        -----------------------------------------
Magnitude (a.u.)       :      1.07946
Magnitude (Debye)      :      2.74377

Rotational constants in cm-1:     0.297822     0.128965     0.102219
Rotational constants in MHz :  8928.481997  3866.271686  3064.463504

                             ****ORCA TERMINATED NORMALLY****
TOTAL RUN TIME: 0 days 0 hours 0 minutes 9 seconds 924 msec
