                         Program Version 5.0.0 -  RELEASE  -
|  1> !B3LYP D3BJ RIJCOSX def2-SVP def2/J TightSCF
|  2> *xyz 0 1
|  3> C          3.91385       -1.65829        3.01513
|  4> C          5.03927       -0.90115        2.49282
|  5> C          6.21038       -1.41726        2.17824
|  6> N          6.53591       -2.67712        2.55608
|  7> N          7.07675       -0.70082        1.47891
|  8> H          7.95464       -1.12155        1.20755
|  9> H          6.75616        0.10664        0.96028
| 10> H          4.84217        0.01761        2.11519
| 11> H          5.99388       -3.12692        3.28278
| 12> C          3.13916       -2.37657        1.91061
| 13> H          3.26723       -0.93940        3.52069
| 14> H          4.24720       -2.35509        3.79006
| 15> H          7.49844       -2.97548        2.46878
| 16> H          2.82969       -1.66654        1.17238
| 17> H          2.27790       -2.85264        2.33072
| 18> H          3.76754       -3.11338        1.45548
| 19> *
| 20> %MaxCore 64000
| 21> %pal nprocs 8
| 22> end
| 23> %scf
| 24>   MaxIter 150
| 25> end
| 26>
| 27>
| 28>                          ****END OF INPUT****

CARTESIAN COORDINATES (ANGSTROEM)
---------------------------------
  C      3.913850   -1.658290    3.015130
  C      5.039270   -0.901150    2.492820
  C      6.210380   -1.417260    2.178240
  N      6.535910   -2.677120    2.556080
  N      7.076750   -0.700820    1.478910
  H      7.954640   -1.121550    1.207550
  H      6.756160    0.106640    0.960280
  H      4.842170    0.017610    2.115190
  H      5.993880   -3.126920    3.282780
  C      3.139160   -2.376570    1.910610
  H      3.267230   -0.939400    3.520690
  H      4.247200   -2.355090    3.790060
  H      7.498440   -2.975480    2.468780
  H      2.829690   -1.666540    1.172380
  H      2.277900   -2.852640    2.330720
  H      3.767540   -3.113380    1.455480

 Total Charge           Charge          ....    0
 Multiplicity           Mult            ....    1
 Number of Electrons    NEL             ....   48
 Basis Dimension        Dim             ....  134

ORBITAL ENERGIES
----------------

  NO   OCC          E(Eh)            E(eV)
   0   2.0000     -14.319496      -389.6533
   1   2.0000     -14.318179      -389.6175
   2   2.0000     -10.215058      -277.9659
   3   2.0000     -10.150750      -276.2159
   4   2.0000     -10.142597      -275.9941
   5   2.0000     -10.092856      -274.6406
   6   2.0000      -0.940321       -25.5874
   7   2.0000      -0.850874       -23.1535
   8   2.0000      -0.757076       -20.6011
   9   2.0000      -0.678175       -18.4541
  10   2.0000      -0.603324       -16.4173
  11   2.0000      -0.565252       -15.3813
  12   2.0000      -0.530257       -14.4290
  13   2.0000      -0.499932       -13.6038
  14   2.0000      -0.465133       -12.6569
  15   2.0000      -0.429535       -11.6882
  16   2.0000      -0.409480       -11.1425
  17   2.0000      -0.377914       -10.2836
  18   2.0000      -0.373152       -10.1540
  19   2.0000      -0.345903        -9.4125
  20   2.0000      -0.320529        -8.7220
  21   2.0000      -0.312345        -8.4993
  22   2.0000      -0.254524        -6.9260
  23   2.0000      -0.147563        -4.0154
  24   0.0000       0.044453         1.2096
  25   0.0000       0.076664         2.0861
  26   0.0000       0.084855         2.3090
  27   0.0000       0.108080         2.9410
  28   0.0000       0.108569         2.9543

MULLIKEN ATOMIC CHARGES
-----------------------
   0 C :    0.076260
   1 C :   -0.155036
   2 C :   -0.070922
   3 N :   -0.070400
   4 N :   -0.033225
   5 H :    0.090013
   6 H :    0.114393
   7 H :   -0.119256
   8 H :    0.109085
   9 C :    0.086831
  10 H :   -0.027533
  11 H :   -0.042343
  12 H :    0.092389
  13 H :   -0.017413
  14 H :   -0.020591
  15 H :   -0.012253
Sum of atomic charges:    0.0000000

LOEWDIN ATOMIC CHARGES
----------------------
   0 C :   -0.032257
   1 C :   -0.212480
   2 C :    0.022728
   3 N :   -0.032228
   4 N :   -0.016332
   5 H :    0.061607
   6 H :    0.080576
   7 H :   -0.013570
   8 H :    0.074303
   9 C :   -0.046978
  10 H :    0.018289
  11 H :    0.002889
  12 H :    0.061432
  13 H :    0.013499
  14 H :    0.006693
  15 H :    0.011830

  Mayer bond orders larger than 0.100000
B(  0-C ,  1-C ) :   1.0829 B(  0-C ,  9-C ) :   1.0939 B(  0-C , 10-H ) :   0.9120
B(  0-C , 11-H ) :   0.9263 B(  1-C ,  2-C ) :   1.7058 B(  1-C ,  7-H ) :   0.9331
B(  2-C ,  3-N ) :   1.2380 B(  2-C ,  4-N ) :   1.2375 B(  3-N ,  8-H ) :   0.9414
B(  3-N , 12-H ) :   0.9477 B(  4-N ,  5-H ) :   0.9497 B(  4-N ,  6-H ) :   0.9406
B(  9-C , 13-H ) :   0.9632 B(  9-C , 14-H ) :   0.9583 B(  9-C , 15-H ) :   0.9696

Dispersion correction           -0.021288829
FINAL SINGLE POINT ENERGY      -267.559467878096

DIPOLE MOMENT
-------------
                                X             Y             Z
Electronic contribution:      4.80817       1.19210      -0.07053
Nuclear contribution   :     -3.74303      -1.46908      -0.23637
                        -----------------------------------------
Total Dipole Moment    :      1.06514      -0.27698      -0.30690
                        -----------------------------------------
Magnitude (a.u.)       :      1.14256
Magnitude (Debye)      :      2.90415

Rotational constants in cm-1:     0.225937     0.074877     0.065953
Rotational constants in MHz :  6773.424301  2244.750632  1977.214101

                             ****ORCA TERMINATED NORMALLY****
TOTAL RUN TIME: 0 days 0 hours 0 minutes 14 seconds 529 msec
