                         Program Version 5.0.0 -  RELEASE  -
|  1> !B3LYP D3BJ RIJCOSX def2-SVP def2/J TightSCF
|  2> *xyz 0 1
|  3> C          4.08422        1.74208       -2.11472
|  4> C          4.26524        2.50052       -0.79589
|  5> H          4.86853        3.39267       -0.98113
|  6> H          3.30764        2.82457       -0.38781
|  7> C          4.98224        1.65026        0.24742
|  8> O          4.36806        1.38927        1.31371
|  9> F          6.12892        1.23351       -0.04562
| 10> H          3.57911        2.36849       -2.81997
| 11> H          3.50424        0.85965       -1.94198
| 12> H          5.04288        1.46841       -2.50327
| 13> *
| 14> %MaxCore 64000
| 15> %pal nprocs 8
| 16> end
| 17> %scf
| 18>   MaxIter 150
| 19> end
| 20>
| 21>
| 22>                          ****END OF INPUT****

CARTESIAN COORDINATES (ANGSTROEM)
---------------------------------
  C      4.084220    1.742080   -2.114720
  C      4.265240    2.500520   -0.795890
  H      4.868530    3.392670   -0.981130
  H      3.307640    2.824570   -0.387810
  C      4.982240    1.650260    0.247420
  O      4.368060    1.389270    1.313710
  F      6.128920    1.233510   -0.045620
  H      3.579110    2.368490   -2.819970
  H      3.504240    0.859650   -1.941980
  H      5.042880    1.468410   -2.503270

 Total Charge           Charge          ....    0
 Multiplicity           Mult            ....    1
 Number of Electrons    NEL             ....   40
 Basis Dimension        Dim             ....   95

ORBITAL ENERGIES
----------------

  NO   OCC          E(Eh)            E(eV)
   0   2.0000     -24.751024      -673.5096
   1   2.0000     -19.130352      -520.5633
   2   2.0000     -10.351054      -281.6665
   3   2.0000     -10.209487      -277.8143
   4   2.0000     -10.192608      -277.3550
   5   2.0000      -1.294584       -35.2274
   6   2.0000      -1.010161       -27.4879
   7   2.0000      -0.793558       -21.5938
   8   2.0000      -0.675218       -18.3736
   9   2.0000      -0.633491       -17.2382
  10   2.0000      -0.543494       -14.7892
  11   2.0000      -0.531375       -14.4594
  12   2.0000      -0.491325       -13.3696
  13   2.0000      -0.460313       -12.5258
  14   2.0000      -0.429924       -11.6988
  15   2.0000      -0.398186       -10.8352
  16   2.0000      -0.378523       -10.3001
  17   2.0000      -0.374225       -10.1832
  18   2.0000      -0.342168        -9.3109
  19   2.0000      -0.279153        -7.5961
  20   0.0000      -0.018842        -0.5127
  21   0.0000       0.057849         1.5742
  22   0.0000       0.101688         2.7671
  23   0.0000       0.110178         2.9981
  24   0.0000       0.130710         3.5568

MULLIKEN ATOMIC CHARGES
-----------------------
   0 C :    0.007720
   1 C :   -0.022815
   2 H :    0.028711
   3 H :    0.036095
   4 C :    0.210399
   5 O :   -0.249642
   6 F :   -0.074288
   7 H :    0.020324
   8 H :    0.024209
   9 H :    0.019288
Sum of atomic charges:   -0.0000000

LOEWDIN ATOMIC CHARGES
----------------------
   0 C :   -0.037788
   1 C :   -0.059660
   2 H :    0.036204
   3 H :    0.040116
   4 C :    0.097745
   5 O :   -0.194626
   6 F :    0.043353
   7 H :    0.027351
   8 H :    0.025288
   9 H :    0.022018

  Mayer bond orders larger than 0.100000
B(  0-C ,  1-C ) :   1.0820 B(  0-C ,  7-H ) :   0.9665 B(  0-C ,  8-H ) :   0.9758
B(  0-C ,  9-H ) :   0.9720 B(  1-C ,  2-H ) :   0.9253 B(  1-C ,  3-H ) :   0.9463
B(  1-C ,  4-C ) :   1.0118 B(  4-C ,  5-O ) :   2.0906 B(  4-C ,  6-F ) :   1.1930

Dispersion correction           -0.010353172
FINAL SINGLE POINT ENERGY      -292.033877963129

DIPOLE MOMENT
-------------
                                X             Y             Z
Electronic contribution:      4.86532      -2.34151       5.94290
Nuclear contribution   :     -4.79499       2.78546      -7.01827
                        -----------------------------------------
Total Dipole Moment    :      0.07033       0.44395      -1.07538
                        -----------------------------------------
Magnitude (a.u.)       :      1.16554
Magnitude (Debye)      :      2.96256

Rotational constants in cm-1:     0.286098     0.133492     0.103343
Rotational constants in MHz :  8577.003657  4001.981591  3098.148068

                             ****ORCA TERMINATED NORMALLY****
TOTAL RUN TIME: 0 days 0 hours 0 minutes 9 seconds 830 msec
