                         Program Version 5.0.0 -  RELEASE  -
|  1> !B3LYP D3BJ RIJCOSX def2-SVP def2/J TightSCF
|  2> *xyz 0 1
|  3> C          3.91385       -1.65829        3.01513
|  4> N          5.03927       -0.90115        2.49282
|  5> C          6.21038       -1.41726        2.17824
|  6> C          6.53591       -2.67712        2.55608
|  7> N          7.07675       -0.70082        1.47891
|  8> H          7.95464       -1.12155        1.20755
|  9> H          6.75616        0.10664        0.96028
| 10> H          4.84217        0.01761        2.11519
| 11> H          5.99388       -3.12692        3.28278
| 12> C          3.13916       -2.37657        1.91061
| 13> H          3.26723       -0.93940        3.52069
| 14> H          4.24720       -2.35509        3.79006
| 15> H          7.49844       -2.97548        2.46878
| 16> H          2.82969       -1.66654        1.17238
| 17> H          2.27790       -2.85264        2.33072
| 18> H          3.76754       -3.11338        1.45548
| 19> *
| 20> %MaxCore 64000
| 21> %pal nprocs 8
| 22> end
| 23> %scf
| 24>   MaxIter 150
| 25> end
| 26>
| 27>
| 28>                          ****END OF INPUT****

CARTESIAN COORDINATES (ANGSTROEM)
---------------------------------
  C      3.913850   -1.658290    3.015130
  N      5.039270   -0.901150    2.492820
  C      6.210380   -1.417260    2.178240
  C      6.535910   -2.677120    2.556080
  N      7.076750   -0.700820    1.478910
  H      7.954640   -1.121550    1.207550
  H      6.756160    0.106640    0.960280
  H      4.842170    0.017610    2.115190
  H      5.993880   -3.126920    3.282780
  C      3.139160   -2.376570    1.910610
  H      3.267230   -0.939400    3.520690
  H      4.247200   -2.355090    3.790060
  H      7.498440   -2.975480    2.468780
  H      2.829690   -1.666540    1.172380
  H      2.277900   -2.852640    2.330720
  H      3.767540   -3.113380    1.455480

 Total Charge           Charge          ....    0
 Multiplicity           Mult            ....    1
 Number of Electrons    NEL             ....   48
 Basis Dimension        Dim             ....  134

ORBITAL ENERGIES
----------------

  NO   OCC          E(Eh)            E(eV)
   0   2.0000     -14.322966      -389.7477
   1   2.0000     -14.321961      -389.7204
   2   2.0000     -10.221142      -278.1314
   3   2.0000     -10.211242      -277.8620
   4   2.0000     -10.162284      -276.5298
   5   2.0000     -10.085764      -274.4476
   6   2.0000      -0.955254       -25.9938
   7   2.0000      -0.872048       -23.7296
   8   2.0000      -0.740902       -20.1610
   9   2.0000      -0.689427       -18.7603
  10   2.0000      -0.630514       -17.1571
  11   2.0000      -0.553931       -15.0732
  12   2.0000      -0.542758       -14.7692
  13   2.0000      -0.511390       -13.9156
  14   2.0000      -0.460259       -12.5243
  15   2.0000      -0.433684       -11.8011
  16   2.0000      -0.410668       -11.1748
  17   2.0000      -0.390804       -10.6343
  18   2.0000      -0.372643       -10.1401
  19   2.0000      -0.358685        -9.7603
  20   2.0000      -0.354418        -9.6442
  21   2.0000      -0.340609        -9.2684
  22   2.0000      -0.242530        -6.5996
  23   2.0000      -0.150954        -4.1077
  24   0.0000       0.043702         1.1892
  25   0.0000       0.074601         2.0300
  26   0.0000       0.088700         2.4136
  27   0.0000       0.099249         2.7007
  28   0.0000       0.115894         3.1536

MULLIKEN ATOMIC CHARGES
-----------------------
   0 C :    0.100583
   1 N :   -0.129192
   2 C :   -0.064952
   3 C :   -0.074342
   4 N :   -0.045517
   5 H :    0.116400
   6 H :    0.090997
   7 H :    0.088185
   8 H :   -0.067912
   9 C :    0.051308
  10 H :   -0.008483
  11 H :    0.021099
  12 H :   -0.080937
  13 H :   -0.013651
  14 H :   -0.002955
  15 H :    0.019367
Sum of atomic charges:    0.0000000

LOEWDIN ATOMIC CHARGES
----------------------
   0 C :    0.048032
   1 N :   -0.018020
   2 C :    0.032819
   3 C :   -0.271162
   4 N :   -0.012884
   5 H :    0.082614
   6 H :    0.060721
   7 H :    0.062615
   8 H :   -0.013370
   9 C :   -0.054329
  10 H :    0.015987
  11 H :    0.025881
  12 H :   -0.015067
  13 H :    0.012294
  14 H :    0.018651
  15 H :    0.025217

  Mayer bond orders larger than 0.100000
B(  0-C ,  1-N ) :   1.0140 B(  0-C ,  9-C ) :   1.1101 B(  0-C , 10-H ) :   0.9513
B(  0-C , 11-H ) :   0.9408 B(  1-N ,  2-C ) :   1.2029 B(  1-N ,  7-H ) :   0.9347
B(  2-C ,  3-C ) :   1.7227 B(  2-C ,  4-N ) :   1.2486 B(  3-C ,  8-H ) :   0.9324
B(  3-C , 12-H ) :   0.9317 B(  4-N ,  5-H ) :   0.9434 B(  4-N ,  6-H ) :   0.9487
B(  9-C , 13-H ) :   0.9648 B(  9-C , 14-H ) :   0.9604 B(  9-C , 15-H ) :   0.9635

Dispersion correction           -0.021191851
FINAL SINGLE POINT ENERGY      -267.552003720407

DIPOLE MOMENT
-------------
                                X             Y             Z
Electronic contribution:      3.12481       2.91179      -0.26285
Nuclear contribution   :     -3.42552      -1.84584      -0.22295
                        -----------------------------------------
Total Dipole Moment    :     -0.30072       1.06595      -0.48581
                        -----------------------------------------
Magnitude (a.u.)       :      1.20942
Magnitude (Debye)      :      3.07409

Rotational constants in cm-1:     0.233526     0.075277     0.067092
Rotational constants in MHz :  7000.931279  2256.752901  2011.361214

                             ****ORCA TERMINATED NORMALLY****
TOTAL RUN TIME: 0 days 0 hours 0 minutes 14 seconds 909 msec
