                         Program Version 5.0.0 -  RELEASE  -
|  1> !B3LYP D3BJ RIJCOSX def2-SVP def2/J TightSCF
|  2> *xyz 0 1
|  3> C          3.91385       -1.65829        3.01513
|  4> N          5.03927       -0.90115        2.49282
|  5> C          6.21038       -1.41726        2.17824
|  6> N          6.53591       -2.67712        2.55608
|  7> C          7.07675       -0.70082        1.47891
|  8> H          7.95464       -1.12155        1.20755
|  9> H          6.75616        0.10664        0.96028
| 10> H          4.84217        0.01761        2.11519
| 11> H          5.99388       -3.12692        3.28278
| 12> C          3.13916       -2.37657        1.91061
| 13> H          3.26723       -0.93940        3.52069
| 14> H          4.24720       -2.35509        3.79006
| 15> H          7.49844       -2.97548        2.46878
| 16> H          2.82969       -1.66654        1.17238
| 17> H          2.27790       -2.85264        2.33072
| 18> H          3.76754       -3.11338        1.45548
| 19> *
| 20> %MaxCore 64000
| 21> %pal nprocs 8
| 22> end
| 23> %scf
| 24>   MaxIter 150
| 25> end
| 26>
| 27>
| 28>                          ****END OF INPUT****

CARTESIAN COORDINATES (ANGSTROEM)
---------------------------------
  C      3.913850   -1.658290    3.015130
  N      5.039270   -0.901150    2.492820
  C      6.210380   -1.417260    2.178240
  N      6.535910   -2.677120    2.556080
  C      7.076750   -0.700820    1.478910
  H      7.954640   -1.121550    1.207550
  H      6.756160    0.106640    0.960280
  H      4.842170    0.017610    2.115190
  H      5.993880   -3.126920    3.282780
  C      3.139160   -2.376570    1.910610
  H      3.267230   -0.939400    3.520690
  H      4.247200   -2.355090    3.790060
  H      7.498440   -2.975480    2.468780
  H      2.829690   -1.666540    1.172380
  H      2.277900   -2.852640    2.330720
  H      3.767540   -3.113380    1.455480

 Total Charge           Charge          ....    0
 Multiplicity           Mult            ....    1
 Number of Electrons    NEL             ....   48
 Basis Dimension        Dim             ....  134

ORBITAL ENERGIES
----------------

  NO   OCC          E(Eh)            E(eV)
   0   2.0000     -14.319757      -389.6604
   1   2.0000     -14.319373      -389.6499
   2   2.0000     -10.220743      -278.1206
   3   2.0000     -10.218285      -278.0537
   4   2.0000     -10.170840      -276.7626
   5   2.0000     -10.086548      -274.4689
   6   2.0000      -0.950741       -25.8710
   7   2.0000      -0.864846       -23.5336
   8   2.0000      -0.758500       -20.6398
   9   2.0000      -0.687615       -18.7110
  10   2.0000      -0.618824       -16.8391
  11   2.0000      -0.589813       -16.0496
  12   2.0000      -0.526779       -14.3344
  13   2.0000      -0.490056       -13.3351
  14   2.0000      -0.471515       -12.8306
  15   2.0000      -0.435258       -11.8440
  16   2.0000      -0.424353       -11.5472
  17   2.0000      -0.398484       -10.8433
  18   2.0000      -0.374184       -10.1821
  19   2.0000      -0.365728        -9.9520
  20   2.0000      -0.355251        -9.6669
  21   2.0000      -0.349645        -9.5143
  22   2.0000      -0.245164        -6.6713
  23   2.0000      -0.152121        -4.1394
  24   0.0000       0.044383         1.2077
  25   0.0000       0.069617         1.8944
  26   0.0000       0.084595         2.3020
  27   0.0000       0.101908         2.7730
  28   0.0000       0.108401         2.9497

MULLIKEN ATOMIC CHARGES
-----------------------
   0 C :    0.072665
   1 N :   -0.112992
   2 C :   -0.046902
   3 N :   -0.081817
   4 C :   -0.055745
   5 H :   -0.078517
   6 H :   -0.073972
   7 H :    0.110214
   8 H :    0.090957
   9 C :    0.058322
  10 H :   -0.000625
  11 H :   -0.002967
  12 H :    0.114604
  13 H :    0.000622
  14 H :   -0.003836
  15 H :    0.009988
Sum of atomic charges:    0.0000000

LOEWDIN ATOMIC CHARGES
----------------------
   0 C :    0.034590
   1 N :   -0.018037
   2 C :    0.036272
   3 N :   -0.029645
   4 C :   -0.251028
   5 H :   -0.013237
   6 H :   -0.012850
   7 H :    0.082391
   8 H :    0.058083
   9 C :   -0.056660
  10 H :    0.019938
  11 H :    0.012602
  12 H :    0.080866
  13 H :    0.018611
  14 H :    0.017578
  15 H :    0.020525

  Mayer bond orders larger than 0.100000
B(  0-C ,  1-N ) :   1.0324 B(  0-C ,  9-C ) :   1.0891 B(  0-C , 10-H ) :   0.9493
B(  0-C , 11-H ) :   0.9466 B(  1-N ,  2-C ) :   1.2155 B(  1-N ,  7-H ) :   0.9262
B(  2-C ,  3-N ) :   1.2129 B(  2-C ,  4-C ) :   1.7568 B(  3-N ,  8-H ) :   0.9499
B(  3-N , 12-H ) :   0.9437 B(  4-C ,  5-H ) :   0.9285 B(  4-C ,  6-H ) :   0.9317
B(  9-C , 13-H ) :   0.9662 B(  9-C , 14-H ) :   0.9579 B(  9-C , 15-H ) :   0.9649

Dispersion correction           -0.021046516
FINAL SINGLE POINT ENERGY      -267.552735610351

DIPOLE MOMENT
-------------
                                X             Y             Z
Electronic contribution:      2.57378       0.89696       1.00983
Nuclear contribution   :     -3.31079      -1.42658      -0.45147
                        -----------------------------------------
Total Dipole Moment    :     -0.73701      -0.52962       0.55836
                        -----------------------------------------
Magnitude (a.u.)       :      1.06557
Magnitude (Debye)      :      2.70846

Rotational constants in cm-1:     0.225507     0.077571     0.068070
Rotational constants in MHz :  6760.542142  2325.533779  2040.680522

                             ****ORCA TERMINATED NORMALLY****
TOTAL RUN TIME: 0 days 0 hours 0 minutes 14 seconds 797 msec
