                         Program Version 5.0.0 -  RELEASE  -
|  1> !B3LYP D3BJ RIJCOSX def2-TZVP def2/J TightSCF xyzfile
|  2>
|  3> *xyzfile 0 1 D3.xyz
|  4>
|  5> %MaxCore 64000
|  6>
|  7> %pal nprocs 18
|  8> end
|  9>
| 10> %scf
| 11>   MaxIter 150
| 12> end
| 13>
| 14>
| 15>                          ****END OF INPUT****

CARTESIAN COORDINATES (ANGSTROEM)
---------------------------------
  C      3.913853   -1.658291    3.015134
  N      5.039266   -0.901154    2.492821
  C      4.084215    1.742081   -2.114724
  C      4.265245    2.500518   -0.795890
  H      4.868534    3.392674   -0.981134
  H      3.307640    2.824571   -0.387809
  C      4.982240    1.650257    0.247422
  C      6.210384   -1.417261    2.178244
  N      6.535913   -2.677122    2.556078
  C      7.076754   -0.700820    1.478906
  H      7.954643   -1.121554    1.207554
  H      6.756161    0.106637    0.960278
  H      4.842168    0.017609    2.115191
  H      5.993876   -3.126918    3.282784
  H      7.498441   -2.975482    2.468776
  F      4.368065    1.389270    1.313706
  O      6.128919    1.233512   -0.045620
  C      3.139159   -2.376572    1.910609
  H      3.267235   -0.939401    3.520693
  H      4.247195   -2.355095    3.790065
  C      1.997274    0.430918   -1.399218
  C      3.412746    0.376886   -1.965497
  H      4.047407   -0.246590   -1.326706
  H      3.390774   -0.118719   -2.942839
  H      5.068475    1.598504   -2.565728
  H      3.503356    2.363939   -2.804565
  C      2.399946   -1.389579    1.009490
  H      2.440750   -3.087118    2.362976
  H      3.844475   -2.970462    1.318677
  C      2.070177   -1.936705   -0.372401
  H      1.481611   -1.061542    1.509912
  H      3.008628   -0.490001    0.897451
  C      1.322238   -0.935775   -1.256413
  H      1.472747   -2.850902   -0.283997
  H      3.003539   -2.234041   -0.862535
  H      1.376444    1.058920   -2.047420
  H      2.015341    0.929780   -0.426535
  H      0.316648   -0.787213   -0.848278
  H      1.185611   -1.379252   -2.248613

 Total Charge           Charge          ....    0
 Multiplicity           Mult            ....    1
 Number of Electrons    NEL             ....  126
 Basis Dimension        Dim             ....  634

ORBITAL ENERGIES
----------------

  NO   OCC          E(Eh)            E(eV)
   0   2.0000     -24.773233      -674.1139
   1   2.0000     -19.137413      -520.7555
   2   2.0000     -14.293673      -388.9506
   3   2.0000     -14.290631      -388.8678
   4   2.0000     -10.357430      -281.8400
   5   2.0000     -10.203054      -277.6392
   6   2.0000     -10.195198      -277.4254
   7   2.0000     -10.187480      -277.2154
   8   2.0000     -10.184156      -277.1250
   9   2.0000     -10.171092      -276.7695
  10   2.0000     -10.168943      -276.7110
  11   2.0000     -10.165464      -276.6163
  12   2.0000     -10.161725      -276.5146
  13   2.0000     -10.161496      -276.5084
  14   2.0000     -10.157911      -276.4108
  15   2.0000     -10.040220      -273.2083
  16   2.0000      -1.344292       -36.5801
  17   2.0000      -1.048304       -28.5258
  18   2.0000      -0.947990       -25.7961
  19   2.0000      -0.864786       -23.5320
  20   2.0000      -0.831535       -22.6272
  21   2.0000      -0.806234       -21.9387
  22   2.0000      -0.776993       -21.1431
  23   2.0000      -0.740125       -20.1398
  24   2.0000      -0.714484       -19.4421
  25   2.0000      -0.690244       -18.7825
  26   2.0000      -0.666047       -18.1241
  27   2.0000      -0.643265       -17.5041
  28   2.0000      -0.608925       -16.5697
  29   2.0000      -0.598627       -16.2895
  30   2.0000      -0.581087       -15.8122
  31   2.0000      -0.569973       -15.5098
  32   2.0000      -0.561557       -15.2807
  33   2.0000      -0.546237       -14.8639
  34   2.0000      -0.529270       -14.4022
  35   2.0000      -0.507544       -13.8110
  36   2.0000      -0.488054       -13.2806
  37   2.0000      -0.481384       -13.0991
  38   2.0000      -0.472163       -12.8482
  39   2.0000      -0.460802       -12.5391
  40   2.0000      -0.457179       -12.4405
  41   2.0000      -0.441682       -12.0188
  42   2.0000      -0.431094       -11.7307
  43   2.0000      -0.427425       -11.6308
  44   2.0000      -0.416835       -11.3427
  45   2.0000      -0.401485       -10.9250
  46   2.0000      -0.395501       -10.7621
  47   2.0000      -0.389104       -10.5880
  48   2.0000      -0.375758       -10.2249
  49   2.0000      -0.369342       -10.0503
  50   2.0000      -0.364828        -9.9275
  51   2.0000      -0.364156        -9.9092
  52   2.0000      -0.354565        -9.6482
  53   2.0000      -0.348163        -9.4740
  54   2.0000      -0.342174        -9.3110
  55   2.0000      -0.337272        -9.1776
  56   2.0000      -0.330092        -8.9823
  57   2.0000      -0.318998        -8.6804
  58   2.0000      -0.316956        -8.6248
  59   2.0000      -0.313125        -8.5206
  60   2.0000      -0.270107        -7.3500
  61   2.0000      -0.237046        -6.4504
  62   2.0000      -0.138459        -3.7676
  63   0.0000      -0.044735        -1.2173
  64   0.0000       0.026304         0.7158
  65   0.0000       0.036298         0.9877
  66   0.0000       0.041868         1.1393
  67   0.0000       0.046216         1.2576

MULLIKEN ATOMIC CHARGES
-----------------------
   0 C :   -0.156197
   1 N :   -0.299165
   2 C :   -0.132737
   3 C :   -0.198285
   4 H :    0.131965
   5 H :    0.116341
   6 C :    0.383649
   7 C :    0.341481
   8 N :   -0.472946
   9 C :   -0.526944
  10 H :    0.049425
  11 H :    0.127125
  12 H :    0.225300
  13 H :    0.199749
  14 H :    0.224080
  15 F :   -0.144109
  16 O :   -0.306838
  17 C :   -0.055267
  18 H :    0.099367
  19 H :    0.095271
  20 C :   -0.206419
  21 C :   -0.253629
  22 H :    0.139630
  23 H :    0.091603
  24 H :    0.113936
  25 H :    0.094665
  26 C :   -0.244358
  27 H :    0.074369
  28 H :    0.097016
  29 C :   -0.176598
  30 H :    0.080141
  31 H :    0.061804
  32 C :   -0.132256
  33 H :    0.089255
  34 H :    0.106509
  35 H :    0.088726
  36 H :    0.099374
  37 H :    0.086330
  38 H :    0.088637
Sum of atomic charges:    0.0000000

LOEWDIN ATOMIC CHARGES
----------------------
   0 C :   -0.290923
   1 N :    0.120278
   2 C :   -0.248522
   3 C :   -0.226698
   4 H :    0.157221
   5 H :    0.138298
   6 C :   -0.487050
   7 C :   -0.465780
   8 N :   -0.030142
   9 C :   -0.342173
  10 H :    0.089499
  11 H :    0.085399
  12 H :    0.172715
  13 H :    0.151595
  14 H :    0.170916
  15 F :    0.329164
  16 O :    0.116382
  17 C :   -0.263164
  18 H :    0.130946
  19 H :    0.122841
  20 C :   -0.267218
  21 C :   -0.261882
  22 H :    0.141716
  23 H :    0.138493
  24 H :    0.144794
  25 H :    0.137934
  26 C :   -0.268529
  27 H :    0.129149
  28 H :    0.140078
  29 C :   -0.265525
  30 H :    0.132536
  31 H :    0.128339
  32 C :   -0.261678
  33 H :    0.134175
  34 H :    0.135484
  35 H :    0.134154
  36 H :    0.129421
  37 H :    0.133785
  38 H :    0.133970

  Mayer bond orders larger than 0.100000
B(  0-C ,  1-N ) :   0.9894 B(  0-C , 17-C ) :   0.8992 B(  0-C , 18-H ) :   0.9834
B(  0-C , 19-H ) :   0.9882 B(  1-N ,  7-C ) :   1.2100 B(  1-N , 12-H ) :   0.9083
B(  2-C ,  3-C ) :   0.9538 B(  2-C , 21-C ) :   0.9726 B(  2-C , 24-H ) :   0.9614
B(  2-C , 25-H ) :   0.9633 B(  3-C ,  4-H ) :   0.9493 B(  3-C ,  5-H ) :   0.9688
B(  3-C ,  6-C ) :   0.9732 B(  6-C , 15-F ) :   1.0584 B(  6-C , 16-O ) :   1.9907
B(  7-C ,  8-N ) :   1.1034 B(  7-C ,  9-C ) :   1.6317 B(  8-N , 13-H ) :   0.9222
B(  8-N , 14-H ) :   0.9270 B(  9-C , 10-H ) :   1.0060 B(  9-C , 11-H ) :   1.0097
B( 17-C , 26-C ) :   0.9731 B( 17-C , 27-H ) :   0.9557 B( 17-C , 28-H ) :   0.9671
B( 20-C , 21-C ) :   0.9397 B( 20-C , 32-C ) :   0.9660 B( 20-C , 35-H ) :   0.9647
B( 20-C , 36-H ) :   0.9767 B( 21-C , 22-H ) :   0.9729 B( 21-C , 23-H ) :   0.9670
B( 26-C , 29-C ) :   0.9664 B( 26-C , 30-H ) :   0.9573 B( 26-C , 31-H ) :   0.9890
B( 29-C , 32-C ) :   0.9677 B( 29-C , 33-H ) :   0.9721 B( 29-C , 34-H ) :   0.9744
B( 32-C , 37-H ) :   0.9741 B( 32-C , 38-H ) :   0.9716

Dispersion correction           -0.072045341
FINAL SINGLE POINT ENERGY      -755.534217021321

DIPOLE MOMENT
-------------
                                X             Y             Z
Electronic contribution:      9.50500       8.64554       6.72536
Nuclear contribution   :    -11.12616      -8.32792      -6.96231
                        -----------------------------------------
Total Dipole Moment    :     -1.62116       0.31762      -0.23696
                        -----------------------------------------
Magnitude (a.u.)       :      1.66889
Magnitude (Debye)      :      4.24198

Rotational constants in cm-1:     0.020226     0.013574     0.009520
Rotational constants in MHz :   606.360011   406.923773   285.390769

                             ****ORCA TERMINATED NORMALLY****
TOTAL RUN TIME: 0 days 0 hours 1 minutes 18 seconds 915 msec
