                         Program Version 5.0.0 -  RELEASE  -
|  1> !B3LYP D3BJ RIJCOSX def2-TZVP def2/J TightSCF xyzfile
|  2>
|  3> *xyzfile 0 1 D5.xyz
|  4>
|  5> %MaxCore 64000
|  6>
|  7> %pal nprocs 18
|  8> end
|  9>
| 10> %scf
| 11>   MaxIter 150
| 12> end
| 13>
| 14>
| 15>                          ****END OF INPUT****

CARTESIAN COORDINATES (ANGSTROEM)
---------------------------------
  C      3.913853   -1.658291    3.015134
  N      5.039266   -0.901154    2.492821
  C      4.084215    1.742081   -2.114724
  C      4.265245    2.500518   -0.795890
  H      4.868534    3.392674   -0.981134
  H      3.307640    2.824571   -0.387809
  C      4.982240    1.650257    0.247422
  C      6.210384   -1.417261    2.178244
  C      6.535913   -2.677122    2.556078
  N      7.076754   -0.700820    1.478906
  H      7.954643   -1.121554    1.207554
  H      6.756161    0.106637    0.960278
  H      4.842168    0.017609    2.115191
  H      5.993876   -3.126918    3.282784
  H      7.498441   -2.975482    2.468776
  O      4.368065    1.389270    1.313706
  F      6.128919    1.233512   -0.045620
  C      3.139159   -2.376572    1.910609
  H      3.267235   -0.939401    3.520693
  H      4.247195   -2.355095    3.790065
  C      1.997274    0.430918   -1.399218
  C      3.412746    0.376886   -1.965497
  H      4.047407   -0.246590   -1.326706
  H      3.390774   -0.118719   -2.942839
  H      5.068475    1.598504   -2.565728
  H      3.503356    2.363939   -2.804565
  C      2.399946   -1.389579    1.009490
  H      2.440750   -3.087118    2.362976
  H      3.844475   -2.970462    1.318677
  C      2.070177   -1.936705   -0.372401
  H      1.481611   -1.061542    1.509912
  H      3.008628   -0.490001    0.897451
  C      1.322238   -0.935775   -1.256413
  H      1.472747   -2.850902   -0.283997
  H      3.003539   -2.234041   -0.862535
  H      1.376444    1.058920   -2.047420
  H      2.015341    0.929780   -0.426535
  H      0.316648   -0.787213   -0.848278
  H      1.185611   -1.379252   -2.248613

 Total Charge           Charge          ....    0
 Multiplicity           Mult            ....    1
 Number of Electrons    NEL             ....  126
 Basis Dimension        Dim             ....  634

ORBITAL ENERGIES
----------------

  NO   OCC          E(Eh)            E(eV)
   0   2.0000     -24.794039      -674.6801
   1   2.0000     -19.168125      -521.5912
   2   2.0000     -14.289198      -388.8288
   3   2.0000     -14.279839      -388.5742
   4   2.0000     -10.382673      -282.5269
   5   2.0000     -10.218178      -278.0508
   6   2.0000     -10.199341      -277.5382
   7   2.0000     -10.191597      -277.3274
   8   2.0000     -10.181533      -277.0536
   9   2.0000     -10.178440      -276.9694
  10   2.0000     -10.170838      -276.7626
  11   2.0000     -10.164122      -276.5798
  12   2.0000     -10.156450      -276.3711
  13   2.0000     -10.149425      -276.1799
  14   2.0000     -10.144391      -276.0429
  15   2.0000     -10.057770      -273.6858
  16   2.0000      -1.366081       -37.1730
  17   2.0000      -1.075368       -29.2622
  18   2.0000      -0.946881       -25.7659
  19   2.0000      -0.866251       -23.5719
  20   2.0000      -0.843854       -22.9624
  21   2.0000      -0.807380       -21.9699
  22   2.0000      -0.771740       -21.0001
  23   2.0000      -0.742431       -20.2026
  24   2.0000      -0.708829       -19.2882
  25   2.0000      -0.693594       -18.8736
  26   2.0000      -0.679550       -18.4915
  27   2.0000      -0.649860       -17.6836
  28   2.0000      -0.618708       -16.8359
  29   2.0000      -0.593591       -16.1524
  30   2.0000      -0.590913       -16.0796
  31   2.0000      -0.589486       -16.0407
  32   2.0000      -0.556249       -15.1363
  33   2.0000      -0.551451       -15.0057
  34   2.0000      -0.534071       -14.5328
  35   2.0000      -0.506686       -13.7876
  36   2.0000      -0.500650       -13.6234
  37   2.0000      -0.489957       -13.3324
  38   2.0000      -0.485938       -13.2231
  39   2.0000      -0.466061       -12.6822
  40   2.0000      -0.450262       -12.2523
  41   2.0000      -0.444386       -12.0924
  42   2.0000      -0.431728       -11.7479
  43   2.0000      -0.421059       -11.4576
  44   2.0000      -0.415011       -11.2930
  45   2.0000      -0.412588       -11.2271
  46   2.0000      -0.401618       -10.9286
  47   2.0000      -0.391092       -10.6422
  48   2.0000      -0.386971       -10.5300
  49   2.0000      -0.377210       -10.2644
  50   2.0000      -0.367542       -10.0013
  51   2.0000      -0.360945        -9.8218
  52   2.0000      -0.355660        -9.6780
  53   2.0000      -0.348820        -9.4919
  54   2.0000      -0.342496        -9.3198
  55   2.0000      -0.338621        -9.2143
  56   2.0000      -0.325545        -8.8585
  57   2.0000      -0.316921        -8.6239
  58   2.0000      -0.313087        -8.5195
  59   2.0000      -0.309126        -8.4117
  60   2.0000      -0.303611        -8.2617
  61   2.0000      -0.226339        -6.1590
  62   2.0000      -0.142476        -3.8770
  63   0.0000      -0.065021        -1.7693
  64   0.0000       0.014183         0.3859
  65   0.0000       0.040282         1.0961
  66   0.0000       0.040912         1.1133
  67   0.0000       0.047911         1.3037

MULLIKEN ATOMIC CHARGES
-----------------------
   0 C :   -0.101052
   1 N :   -0.310203
   2 C :   -0.172947
   3 C :   -0.188274
   4 H :    0.130062
   5 H :    0.141481
   6 C :    0.406026
   7 C :    0.322329
   8 C :   -0.516933
   9 N :   -0.469066
  10 H :    0.223914
  11 H :    0.213576
  12 H :    0.223959
  13 H :    0.066965
  14 H :    0.058287
  15 O :   -0.365109
  16 F :   -0.126629
  17 C :   -0.070452
  18 H :    0.093239
  19 H :    0.107393
  20 C :   -0.209463
  21 C :   -0.225890
  22 H :    0.117192
  23 H :    0.096600
  24 H :    0.111191
  25 H :    0.105112
  26 C :   -0.275331
  27 H :    0.075236
  28 H :    0.104736
  29 C :   -0.171877
  30 H :    0.071694
  31 H :    0.102105
  32 C :   -0.135700
  33 H :    0.089728
  34 H :    0.097561
  35 H :    0.087923
  36 H :    0.118516
  37 H :    0.087459
  38 H :    0.086642
Sum of atomic charges:   -0.0000000

LOEWDIN ATOMIC CHARGES
----------------------
   0 C :   -0.271096
   1 N :    0.124687
   2 C :   -0.255826
   3 C :   -0.219319
   4 H :    0.152681
   5 H :    0.154022
   6 C :   -0.479311
   7 C :   -0.466382
   8 C :   -0.374494
   9 N :   -0.016698
  10 H :    0.171996
  11 H :    0.140481
  12 H :    0.155192
  13 H :    0.091620
  14 H :    0.087601
  15 O :    0.085155
  16 F :    0.346083
  17 C :   -0.260575
  18 H :    0.130383
  19 H :    0.131725
  20 C :   -0.265395
  21 C :   -0.261128
  22 H :    0.137587
  23 H :    0.139449
  24 H :    0.138951
  25 H :    0.141525
  26 C :   -0.270263
  27 H :    0.129775
  28 H :    0.142242
  29 C :   -0.266822
  30 H :    0.131373
  31 H :    0.132728
  32 C :   -0.261783
  33 H :    0.134286
  34 H :    0.132708
  35 H :    0.133816
  36 H :    0.135550
  37 H :    0.134776
  38 H :    0.132700

  Mayer bond orders larger than 0.100000
B(  0-C ,  1-N ) :   0.9812 B(  0-C , 17-C ) :   0.9354 B(  0-C , 18-H ) :   0.9794
B(  0-C , 19-H ) :   0.9726 B(  1-N ,  7-C ) :   1.2300 B(  1-N , 12-H ) :   0.8721
B(  2-C ,  3-C ) :   0.9365 B(  2-C , 21-C ) :   0.9532 B(  2-C , 24-H ) :   0.9744
B(  2-C , 25-H ) :   0.9615 B(  3-C ,  4-H ) :   0.9455 B(  3-C ,  5-H ) :   0.9769
B(  3-C ,  6-C ) :   0.9801 B(  6-C , 15-O ) :   1.9201 B(  6-C , 16-F ) :   1.0760
B(  7-C ,  8-C ) :   1.6096 B(  7-C ,  9-N ) :   1.1541 B(  8-C , 13-H ) :   1.0059
B(  8-C , 14-H ) :   0.9942 B(  9-N , 10-H ) :   0.9286 B(  9-N , 11-H ) :   0.9035
B( 17-C , 26-C ) :   0.9701 B( 17-C , 27-H ) :   0.9624 B( 17-C , 28-H ) :   0.9619
B( 20-C , 21-C ) :   0.9419 B( 20-C , 32-C ) :   0.9668 B( 20-C , 35-H ) :   0.9630
B( 20-C , 36-H ) :   0.9739 B( 21-C , 22-H ) :   0.9754 B( 21-C , 23-H ) :   0.9667
B( 26-C , 29-C ) :   0.9580 B( 26-C , 30-H ) :   0.9578 B( 26-C , 31-H ) :   0.9915
B( 29-C , 32-C ) :   0.9663 B( 29-C , 33-H ) :   0.9726 B( 29-C , 34-H ) :   0.9764
B( 32-C , 37-H ) :   0.9724 B( 32-C , 38-H ) :   0.9733

Dispersion correction           -0.072173780
FINAL SINGLE POINT ENERGY      -755.554131399240

DIPOLE MOMENT
-------------
                                X             Y             Z
Electronic contribution:     12.80718      10.39276       3.24287
Nuclear contribution   :    -13.35170      -8.48261      -5.12969
                        -----------------------------------------
Total Dipole Moment    :     -0.54452       1.91014      -1.88682
                        -----------------------------------------
Magnitude (a.u.)       :      2.73957
Magnitude (Debye)      :      6.96343

Rotational constants in cm-1:     0.019886     0.013843     0.009504
Rotational constants in MHz :   596.157485   415.004628   284.931121

                             ****ORCA TERMINATED NORMALLY****
TOTAL RUN TIME: 0 days 0 hours 1 minutes 36 seconds 737 msec
