                         Program Version 5.0.0 -  RELEASE  -
|  1> !B3LYP D3BJ RIJCOSX def2-TZVP def2/J TightSCF xyzfile
|  2>
|  3> *xyzfile 0 1 D6.xyz
|  4>
|  5> %MaxCore 64000
|  6>
|  7> %pal nprocs 18
|  8> end
|  9>
| 10> %scf
| 11>   MaxIter 150
| 12> end
| 13>
| 14>
| 15>                          ****END OF INPUT****

CARTESIAN COORDINATES (ANGSTROEM)
---------------------------------
  C      3.913853   -1.658291    3.015134
  N      5.039266   -0.901154    2.492821
  C      4.084215    1.742081   -2.114724
  C      4.265245    2.500518   -0.795890
  H      4.868534    3.392674   -0.981134
  H      3.307640    2.824571   -0.387809
  C      4.982240    1.650257    0.247422
  C      6.210384   -1.417261    2.178244
  N      6.535913   -2.677122    2.556078
  C      7.076754   -0.700820    1.478906
  H      7.954643   -1.121554    1.207554
  H      6.756161    0.106637    0.960278
  H      4.842168    0.017609    2.115191
  H      5.993876   -3.126918    3.282784
  H      7.498441   -2.975482    2.468776
  O      4.368065    1.389270    1.313706
  F      6.128919    1.233512   -0.045620
  C      3.139159   -2.376572    1.910609
  H      3.267235   -0.939401    3.520693
  H      4.247195   -2.355095    3.790065
  C      1.997274    0.430918   -1.399218
  C      3.412746    0.376886   -1.965497
  H      4.047407   -0.246590   -1.326706
  H      3.390774   -0.118719   -2.942839
  H      5.068475    1.598504   -2.565728
  H      3.503356    2.363939   -2.804565
  C      2.399946   -1.389579    1.009490
  H      2.440750   -3.087118    2.362976
  H      3.844475   -2.970462    1.318677
  C      2.070177   -1.936705   -0.372401
  H      1.481611   -1.061542    1.509912
  H      3.008628   -0.490001    0.897451
  C      1.322238   -0.935775   -1.256413
  H      1.472747   -2.850902   -0.283997
  H      3.003539   -2.234041   -0.862535
  H      1.376444    1.058920   -2.047420
  H      2.015341    0.929780   -0.426535
  H      0.316648   -0.787213   -0.848278
  H      1.185611   -1.379252   -2.248613

 Total Charge           Charge          ....    0
 Multiplicity           Mult            ....    1
 Number of Electrons    NEL             ....  126
 Basis Dimension        Dim             ....  634

ORBITAL ENERGIES
----------------

  NO   OCC          E(Eh)            E(eV)
   0   2.0000     -24.763044      -673.8367
   1   2.0000     -19.151428      -521.1368
   2   2.0000     -14.294394      -388.9702
   3   2.0000     -14.276749      -388.4901
   4   2.0000     -10.366711      -282.0925
   5   2.0000     -10.206183      -277.7244
   6   2.0000     -10.190096      -277.2866
   7   2.0000     -10.190073      -277.2860
   8   2.0000     -10.186400      -277.1860
   9   2.0000     -10.174204      -276.8542
  10   2.0000     -10.166217      -276.6368
  11   2.0000     -10.162219      -276.5280
  12   2.0000     -10.156674      -276.3772
  13   2.0000     -10.151435      -276.2346
  14   2.0000     -10.151077      -276.2248
  15   2.0000     -10.050491      -273.4878
  16   2.0000      -1.336767       -36.3753
  17   2.0000      -1.059090       -28.8193
  18   2.0000      -0.942590       -25.6492
  19   2.0000      -0.860561       -23.4171
  20   2.0000      -0.834675       -22.7127
  21   2.0000      -0.803790       -21.8722
  22   2.0000      -0.773371       -21.0445
  23   2.0000      -0.737619       -20.0716
  24   2.0000      -0.712383       -19.3849
  25   2.0000      -0.678474       -18.4622
  26   2.0000      -0.671644       -18.2764
  27   2.0000      -0.638321       -17.3696
  28   2.0000      -0.609596       -16.5880
  29   2.0000      -0.593214       -16.1422
  30   2.0000      -0.572826       -15.5874
  31   2.0000      -0.566898       -15.4261
  32   2.0000      -0.562607       -15.3093
  33   2.0000      -0.550963       -14.9925
  34   2.0000      -0.523075       -14.2336
  35   2.0000      -0.507512       -13.8101
  36   2.0000      -0.485029       -13.1983
  37   2.0000      -0.482774       -13.1369
  38   2.0000      -0.473174       -12.8757
  39   2.0000      -0.461434       -12.5563
  40   2.0000      -0.454172       -12.3586
  41   2.0000      -0.435571       -11.8525
  42   2.0000      -0.430800       -11.7227
  43   2.0000      -0.421746       -11.4763
  44   2.0000      -0.416328       -11.3288
  45   2.0000      -0.409601       -11.1458
  46   2.0000      -0.394027       -10.7220
  47   2.0000      -0.385255       -10.4833
  48   2.0000      -0.380701       -10.3594
  49   2.0000      -0.375300       -10.2124
  50   2.0000      -0.366218        -9.9653
  51   2.0000      -0.354737        -9.6529
  52   2.0000      -0.352678        -9.5968
  53   2.0000      -0.343007        -9.3337
  54   2.0000      -0.339995        -9.2517
  55   2.0000      -0.334247        -9.0953
  56   2.0000      -0.325756        -8.8643
  57   2.0000      -0.314433        -8.5562
  58   2.0000      -0.313037        -8.5182
  59   2.0000      -0.308250        -8.3879
  60   2.0000      -0.299657        -8.1541
  61   2.0000      -0.231883        -6.3099
  62   2.0000      -0.141498        -3.8504
  63   0.0000      -0.048836        -1.3289
  64   0.0000       0.024938         0.6786
  65   0.0000       0.038944         1.0597
  66   0.0000       0.043815         1.1923
  67   0.0000       0.047464         1.2916

MULLIKEN ATOMIC CHARGES
-----------------------
   0 C :   -0.145989
   1 N :   -0.294057
   2 C :   -0.168749
   3 C :   -0.190125
   4 H :    0.127122
   5 H :    0.134854
   6 C :    0.414371
   7 C :    0.336967
   8 N :   -0.471300
   9 C :   -0.521308
  10 H :    0.054603
  11 H :    0.076621
  12 H :    0.247394
  13 H :    0.204524
  14 H :    0.221894
  15 O :   -0.384174
  16 F :   -0.094153
  17 C :   -0.063064
  18 H :    0.099967
  19 H :    0.088424
  20 C :   -0.210648
  21 C :   -0.230322
  22 H :    0.127077
  23 H :    0.092670
  24 H :    0.111482
  25 H :    0.100506
  26 C :   -0.264970
  27 H :    0.071612
  28 H :    0.090784
  29 C :   -0.173792
  30 H :    0.074647
  31 H :    0.108561
  32 C :   -0.135063
  33 H :    0.086774
  34 H :    0.099736
  35 H :    0.086364
  36 H :    0.118604
  37 H :    0.086213
  38 H :    0.085940
Sum of atomic charges:   -0.0000000

LOEWDIN ATOMIC CHARGES
----------------------
   0 C :   -0.289641
   1 N :    0.127463
   2 C :   -0.255720
   3 C :   -0.220108
   4 H :    0.151827
   5 H :    0.151491
   6 C :   -0.471196
   7 C :   -0.460164
   8 N :   -0.027254
   9 C :   -0.366890
  10 H :    0.089595
  11 H :    0.085337
  12 H :    0.166389
  13 H :    0.153991
  14 H :    0.169892
  15 O :    0.075924
  16 F :    0.358713
  17 C :   -0.264431
  18 H :    0.133125
  19 H :    0.120131
  20 C :   -0.265478
  21 C :   -0.261147
  22 H :    0.139706
  23 H :    0.138280
  24 H :    0.139939
  25 H :    0.139883
  26 C :   -0.267331
  27 H :    0.127880
  28 H :    0.137880
  29 C :   -0.267059
  30 H :    0.132256
  31 H :    0.136139
  32 C :   -0.261893
  33 H :    0.133124
  34 H :    0.133318
  35 H :    0.133441
  36 H :    0.135728
  37 H :    0.134202
  38 H :    0.132660

  Mayer bond orders larger than 0.100000
B(  0-C ,  1-N ) :   0.9930 B(  0-C , 17-C ) :   0.9056 B(  0-C , 18-H ) :   0.9804
B(  0-C , 19-H ) :   0.9886 B(  1-N ,  7-C ) :   1.2419 B(  1-N , 12-H ) :   0.8641
B(  2-C ,  3-C ) :   0.9398 B(  2-C , 21-C ) :   0.9577 B(  2-C , 24-H ) :   0.9720
B(  2-C , 25-H ) :   0.9622 B(  3-C ,  4-H ) :   0.9469 B(  3-C ,  5-H ) :   0.9778
B(  3-C ,  6-C ) :   0.9793 B(  6-C , 15-O ) :   1.8970 B(  6-C , 16-F ) :   1.1298
B(  7-C ,  8-N ) :   1.1160 B(  7-C ,  9-C ) :   1.6212 B(  8-N , 13-H ) :   0.9217
B(  8-N , 14-H ) :   0.9279 B(  9-C , 10-H ) :   1.0019 B(  9-C , 11-H ) :   1.0258
B( 12-H , 15-O ) :   0.1074 B( 17-C , 26-C ) :   0.9675 B( 17-C , 27-H ) :   0.9561
B( 17-C , 28-H ) :   0.9670 B( 20-C , 21-C ) :   0.9415 B( 20-C , 32-C ) :   0.9662
B( 20-C , 35-H ) :   0.9632 B( 20-C , 36-H ) :   0.9745 B( 21-C , 22-H ) :   0.9743
B( 21-C , 23-H ) :   0.9667 B( 26-C , 29-C ) :   0.9583 B( 26-C , 30-H ) :   0.9602
B( 26-C , 31-H ) :   0.9914 B( 29-C , 32-C ) :   0.9694 B( 29-C , 33-H ) :   0.9721
B( 29-C , 34-H ) :   0.9752 B( 32-C , 37-H ) :   0.9729 B( 32-C , 38-H ) :   0.9727

Dispersion correction           -0.072239955
FINAL SINGLE POINT ENERGY      -755.547732950973

DIPOLE MOMENT
-------------
                                X             Y             Z
Electronic contribution:     12.41921       8.52004       4.41070
Nuclear contribution   :    -13.25777      -8.13937      -5.31678
                        -----------------------------------------
Total Dipole Moment    :     -0.83855       0.38067      -0.90607
                        -----------------------------------------
Magnitude (a.u.)       :      1.29192
Magnitude (Debye)      :      3.28379

Rotational constants in cm-1:     0.020021     0.013636     0.009443
Rotational constants in MHz :   600.208195   408.782966   283.102361

                             ****ORCA TERMINATED NORMALLY****
TOTAL RUN TIME: 0 days 0 hours 1 minutes 27 seconds 130 msec
