                         Program Version 5.0.0 -  RELEASE  -
|  1> !BLYP D3BJ RIJCOSX def2-SVPD def2/J TightSCF
|  2> *xyz -1 1
|  3> C         -1.36353       -1.98134       -2.29361
|  4> O         -0.35039       -2.74969       -1.79601
|  5> H         -2.22523       -2.59288       -2.46214
|  6> H         -1.05452       -1.53818       -3.21720
|  7> H         -1.60477       -1.21086       -1.59143
|  8> *
|  9>
| 10> %MaxCore 64000
| 11> %pal nprocs 4
| 12> end
| 13>
| 14> %scf
| 15>   MaxIter 150
| 16> end
| 17>
| 18>
| 19>                          ****END OF INPUT****

CARTESIAN COORDINATES (ANGSTROEM)
---------------------------------
  C     -1.363530   -1.981340   -2.293610
  O     -0.350390   -2.749690   -1.796010
  H     -2.225230   -2.592880   -2.462140
  H     -1.054520   -1.538180   -3.217200
  H     -1.604770   -1.210860   -1.591430

 Total Charge           Charge          ....   -1
 Multiplicity           Mult            ....    1
 Number of Electrons    NEL             ....   18
 Basis Dimension        Dim             ....   67

ORBITAL ENERGIES
----------------

  NO   OCC          E(Eh)            E(eV)
   0   2.0000     -18.443933      -501.8849
   1   2.0000      -9.710860      -264.2459
   2   2.0000      -0.564937       -15.3727
   3   2.0000      -0.322754        -8.7826
   4   2.0000      -0.146380        -3.9832
   5   2.0000      -0.146380        -3.9832
   6   2.0000      -0.052381        -1.4254
   7   2.0000       0.093663         2.5487
   8   2.0000       0.093663         2.5487
   9   0.0000       0.181424         4.9368
  10   0.0000       0.249922         6.8007
  11   0.0000       0.249924         6.8008
  12   0.0000       0.257769         7.0142
  13   0.0000       0.295590         8.0434

MULLIKEN ATOMIC CHARGES
-----------------------
   0 C :    1.158366
   1 O :   -0.982729
   2 H :   -0.391849
   3 H :   -0.391906
   4 H :   -0.391883
Sum of atomic charges:   -1.0000000

LOEWDIN ATOMIC CHARGES
----------------------
   0 C :   -0.116869
   1 O :   -0.615092
   2 H :   -0.089343
   3 H :   -0.089349
   4 H :   -0.089348

  Mayer bond orders larger than 0.100000
B(  0-C ,  1-O ) :   1.1727 B(  0-C ,  2-H ) :   0.8313 B(  0-C ,  3-H ) :   0.8313
B(  0-C ,  4-H ) :   0.8313

Dispersion correction           -0.003032154
FINAL SINGLE POINT ENERGY      -114.985301281666

DIPOLE MOMENT
-------------
                                X             Y             Z
Electronic contribution:      1.41939      -1.07644       0.69713
Nuclear contribution   :     -2.13467       1.61890      -1.04844
                        -----------------------------------------
Total Dipole Moment    :     -0.71528       0.54246      -0.35131
                        -----------------------------------------
Magnitude (a.u.)       :      0.96401
Magnitude (Debye)      :      2.45031

Rotational constants in cm-1:     5.477725     0.944113     0.944112
Rotational constants in MHz : 164218.064700 28303.798445 28303.757130

                             ****ORCA TERMINATED NORMALLY****
TOTAL RUN TIME: 0 days 0 hours 0 minutes 2 seconds 231 msec
