                         Program Version 5.0.0 -  RELEASE  -
|  1> !BLYP D3BJ RIJCOSX def2-SVPD def2/J TightSCF
|  2> *xyz 1 1
|  3> C          2.20996       -2.81239       -3.66571
|  4> C          2.48901       -1.66851       -2.73754
|  5> N          3.59631       -0.94761       -2.95225
|  6> N          1.66394       -1.41369       -1.77781
|  7> H          0.81164       -1.96318       -1.70275
|  8> H          1.84550       -0.63508       -1.15875
|  9> H          4.20535       -1.17600       -3.73383
| 10> H          3.81723       -0.12585       -2.40604
| 11> H          2.99011       -2.87840       -4.39503
| 12> H          1.27381       -2.65174       -4.15838
| 13> H          2.16680       -3.72339       -3.10614
| 14> *
| 15>
| 16> %MaxCore 64000
| 17> %pal nprocs 4
| 18> end
| 19>
| 20> %scf
| 21>   MaxIter 150
| 22> end
| 23>
| 24>
| 25>                          ****END OF INPUT****

CARTESIAN COORDINATES (ANGSTROEM)
---------------------------------
  C      2.209960   -2.812390   -3.665710
  C      2.489010   -1.668510   -2.737540
  N      3.596310   -0.947610   -2.952250
  N      1.663940   -1.413690   -1.777810
  H      0.811640   -1.963180   -1.702750
  H      1.845500   -0.635080   -1.158750
  H      4.205350   -1.176000   -3.733830
  H      3.817230   -0.125850   -2.406040
  H      2.990110   -2.878400   -4.395030
  H      1.273810   -2.651740   -4.158380
  H      2.166800   -3.723390   -3.106140

 Total Charge           Charge          ....    1
 Multiplicity           Mult            ....    1
 Number of Electrons    NEL             ....   32
 Basis Dimension        Dim             ....  136

ORBITAL ENERGIES
----------------

  NO   OCC          E(Eh)            E(eV)
   0   2.0000     -14.279780      -388.5726
   1   2.0000     -14.274582      -388.4311
   2   2.0000     -10.246941      -278.8335
   3   2.0000     -10.121686      -275.4251
   4   2.0000      -1.113610       -30.3029
   5   2.0000      -1.025018       -27.8922
   6   2.0000      -0.874399       -23.7936
   7   2.0000      -0.779510       -21.2115
   8   2.0000      -0.728096       -19.8125
   9   2.0000      -0.713363       -19.4116
  10   2.0000      -0.660229       -17.9657
  11   2.0000      -0.609925       -16.5969
  12   2.0000      -0.569521       -15.4974
  13   2.0000      -0.553376       -15.0581
  14   2.0000      -0.531166       -14.4538
  15   2.0000      -0.459468       -12.5027
  16   0.0000      -0.247089        -6.7236
  17   0.0000      -0.190245        -5.1768
  18   0.0000      -0.144834        -3.9411
  19   0.0000      -0.143166        -3.8957
  20   0.0000      -0.118861        -3.2344

MULLIKEN ATOMIC CHARGES
-----------------------
   0 C :    0.997165
   1 C :    0.155517
   2 N :    0.212667
   3 N :    0.474154
   4 H :   -0.038345
   5 H :   -0.218816
   6 H :   -0.011719
   7 H :   -0.206547
   8 H :   -0.128822
   9 H :   -0.120693
  10 H :   -0.114562
Sum of atomic charges:    1.0000000

LOEWDIN ATOMIC CHARGES
----------------------
   0 C :    0.246710
   1 C :   -0.084179
   2 N :    0.301175
   3 N :    0.299781
   4 H :    0.063992
   5 H :    0.050165
   6 H :    0.046050
   7 H :    0.039850
   8 H :    0.000342
   9 H :    0.017980
  10 H :    0.018134

  Mayer bond orders larger than 0.100000
B(  0-C ,  1-C ) :   1.2692 B(  0-C ,  2-N ) :   0.1010 B(  0-C ,  8-H ) :   0.6901
B(  0-C ,  9-H ) :   0.6840 B(  0-C , 10-H ) :   0.6612 B(  1-C ,  2-N ) :   1.0642
B(  1-C ,  3-N ) :   1.3408 B(  1-C ,  5-H ) :  -0.1405 B(  1-C ,  7-H ) :  -0.2617
B(  1-C ,  8-H ) :   0.3323 B(  1-C ,  9-H ) :   0.2043 B(  1-C , 10-H ) :   0.2250
B(  2-N ,  3-N ) :   0.1712 B(  2-N ,  6-H ) :   1.0816 B(  2-N ,  7-H ) :   1.3520
B(  3-N ,  4-H ) :   1.1188 B(  3-N ,  5-H ) :   1.2061 B(  4-H ,  5-H ) :  -0.1556
B(  6-H ,  7-H ) :  -0.1932 B(  9-H , 10-H ) :   0.1167

Dispersion correction           -0.014120650
FINAL SINGLE POINT ENERGY      -189.520613709662

DIPOLE MOMENT
-------------
                                X             Y             Z
Electronic contribution:      0.32644       1.63039       1.45120
Nuclear contribution   :     -0.32363      -1.20411      -1.15396
                        -----------------------------------------
Total Dipole Moment    :      0.00281       0.42628       0.29724
                        -----------------------------------------
Magnitude (a.u.)       :      0.51968
Magnitude (Debye)      :      1.32093

Rotational constants in cm-1:     0.327805     0.304052     0.162439
Rotational constants in MHz :  9827.347355  9115.244333  4869.808750

                             ****ORCA TERMINATED NORMALLY****
TOTAL RUN TIME: 0 days 0 hours 0 minutes 4 seconds 577 msec
