                         Program Version 5.0.0 -  RELEASE  -
|  1> !BLYP D3BJ RIJCOSX def2-SVPD def2/J TightSCF
|  2> *xyz 0 1
|  3> C         -1.36353       -1.98134       -2.29361
|  4> F         -0.35039       -2.74969       -1.79601
|  5> H         -2.22523       -2.59288       -2.46214
|  6> H         -1.05452       -1.53818       -3.21720
|  7> H         -1.60477       -1.21086       -1.59143
|  8> *
|  9>
| 10> %MaxCore 64000
| 11> %pal nprocs 4
| 12> end
| 13>
| 14> %scf
| 15>   MaxIter 150
| 16> end
| 17>
| 18>
| 19>                          ****END OF INPUT****

CARTESIAN COORDINATES (ANGSTROEM)
---------------------------------
  C     -1.363530   -1.981340   -2.293610
  F     -0.350390   -2.749690   -1.796010
  H     -2.225230   -2.592880   -2.462140
  H     -1.054520   -1.538180   -3.217200
  H     -1.604770   -1.210860   -1.591430

 Total Charge           Charge          ....    0
 Multiplicity           Mult            ....    1
 Number of Electrons    NEL             ....   18
 Basis Dimension        Dim             ....   67

ORBITAL ENERGIES
----------------

  NO   OCC          E(Eh)            E(eV)
   0   2.0000     -24.290884      -660.9886
   1   2.0000      -9.993627      -271.9404
   2   2.0000      -1.078454       -29.3462
   3   2.0000      -0.628473       -17.1016
   4   2.0000      -0.444318       -12.0905
   5   2.0000      -0.432379       -11.7656
   6   2.0000      -0.432379       -11.7656
   7   2.0000      -0.296285        -8.0623
   8   2.0000      -0.296284        -8.0623
   9   0.0000       0.006602         0.1797
  10   0.0000       0.034182         0.9301
  11   0.0000       0.078602         2.1389
  12   0.0000       0.078604         2.1389
  13   0.0000       0.125377         3.4117

MULLIKEN ATOMIC CHARGES
-----------------------
   0 C :    1.213859
   1 F :   -0.439992
   2 H :   -0.257930
   3 H :   -0.257980
   4 H :   -0.257957
Sum of atomic charges:    0.0000000

LOEWDIN ATOMIC CHARGES
----------------------
   0 C :    0.262311
   1 F :   -0.227238
   2 H :   -0.011688
   3 H :   -0.011692
   4 H :   -0.011692

  Mayer bond orders larger than 0.100000
B(  0-C ,  1-F ) :   0.9076 B(  0-C ,  2-H ) :   0.8692 B(  0-C ,  3-H ) :   0.8692
B(  0-C ,  4-H ) :   0.8692

Dispersion correction           -0.002647616
FINAL SINGLE POINT ENERGY      -139.610745400020

DIPOLE MOMENT
-------------
                                X             Y             Z
Electronic contribution:      2.19450      -1.66426       1.07782
Nuclear contribution   :     -2.70693       2.05289      -1.32950
                        -----------------------------------------
Total Dipole Moment    :     -0.51243       0.38863      -0.25168
                        -----------------------------------------
Magnitude (a.u.)       :      0.69062
Magnitude (Debye)      :      1.75542

Rotational constants in cm-1:     5.477725     0.878859     0.878857
Rotational constants in MHz : 164218.064700 26347.517988 26347.482187

                             ****ORCA TERMINATED NORMALLY****
TOTAL RUN TIME: 0 days 0 hours 0 minutes 2 seconds 95 msec
