                         Program Version 5.0.0 -  RELEASE  -
|  1> !BLYP D3BJ RIJCOSX def2-SVPD def2/J TightSCF
|  2> *xyz 0 1
|  3> C          2.20996       -2.81239       -3.66571
|  4> C          2.48901       -1.66851       -2.73754
|  5> C          3.59631       -0.94761       -2.95225
|  6> N          1.66394       -1.41369       -1.77781
|  7> H          0.81164       -1.96318       -1.70275
|  8> H          1.84550       -0.63508       -1.15875
|  9> H          4.20535       -1.17600       -3.73383
| 10> H          3.81723       -0.12585       -2.40604
| 11> H          2.99011       -2.87840       -4.39503
| 12> H          1.27381       -2.65174       -4.15838
| 13> H          2.16680       -3.72339       -3.10614
| 14> *
| 15>
| 16> %MaxCore 64000
| 17> %pal nprocs 4
| 18> end
| 19>
| 20> %scf
| 21>   MaxIter 150
| 22> end
| 23>
| 24>
| 25>                          ****END OF INPUT****

CARTESIAN COORDINATES (ANGSTROEM)
---------------------------------
  C      2.209960   -2.812390   -3.665710
  C      2.489010   -1.668510   -2.737540
  C      3.596310   -0.947610   -2.952250
  N      1.663940   -1.413690   -1.777810
  H      0.811640   -1.963180   -1.702750
  H      1.845500   -0.635080   -1.158750
  H      4.205350   -1.176000   -3.733830
  H      3.817230   -0.125850   -2.406040
  H      2.990110   -2.878400   -4.395030
  H      1.273810   -2.651740   -4.158380
  H      2.166800   -3.723390   -3.106140

 Total Charge           Charge          ....    0
 Multiplicity           Mult            ....    1
 Number of Electrons    NEL             ....   32
 Basis Dimension        Dim             ....  136

ORBITAL ENERGIES
----------------

  NO   OCC          E(Eh)            E(eV)
   0   2.0000     -14.030833      -381.7984
   1   2.0000      -9.940455      -270.4935
   2   2.0000      -9.912404      -269.7302
   3   2.0000      -9.855623      -268.1851
   4   2.0000      -0.844094       -22.9690
   5   2.0000      -0.671699       -18.2779
   6   2.0000      -0.606566       -16.5055
   7   2.0000      -0.514494       -14.0001
   8   2.0000      -0.479004       -13.0344
   9   2.0000      -0.416857       -11.3433
  10   2.0000      -0.381546       -10.3824
  11   2.0000      -0.348631        -9.4867
  12   2.0000      -0.342125        -9.3097
  13   2.0000      -0.303555        -8.2602
  14   2.0000      -0.292764        -7.9665
  15   2.0000      -0.152955        -4.1621
  16   0.0000      -0.003306        -0.0900
  17   0.0000       0.021533         0.5859
  18   0.0000       0.034469         0.9379
  19   0.0000       0.043508         1.1839
  20   0.0000       0.067285         1.8309

MULLIKEN ATOMIC CHARGES
-----------------------
   0 C :    1.271845
   1 C :   -0.667982
   2 C :    0.706904
   3 N :    0.627005
   4 H :   -0.248764
   5 H :   -0.257069
   6 H :   -0.262201
   7 H :   -0.676668
   8 H :   -0.117286
   9 H :   -0.192669
  10 H :   -0.183115
Sum of atomic charges:    0.0000000

LOEWDIN ATOMIC CHARGES
----------------------
   0 C :    0.175625
   1 C :   -0.304113
   2 C :    0.186233
   3 N :    0.184907
   4 H :    0.004889
   5 H :    0.008115
   6 H :   -0.095260
   7 H :   -0.100598
   8 H :   -0.021128
   9 H :   -0.019166
  10 H :   -0.019502

  Mayer bond orders larger than 0.100000
B(  0-C ,  1-C ) :   1.2182 B(  0-C ,  2-C ) :   0.1351 B(  0-C ,  3-N ) :   0.1027
B(  0-C ,  8-H ) :   0.7093 B(  0-C ,  9-H ) :   0.5220 B(  0-C , 10-H ) :   0.5343
B(  1-C ,  2-C ) :   1.5142 B(  1-C ,  3-N ) :   1.3741 B(  1-C ,  7-H ) :   0.1595
B(  1-C ,  8-H ) :   0.3058 B(  1-C ,  9-H ) :   0.3602 B(  1-C , 10-H ) :   0.3551
B(  2-C ,  3-N ) :   0.2935 B(  2-C ,  5-H ) :  -0.1079 B(  2-C ,  6-H ) :   0.8854
B(  2-C ,  7-H ) :   0.6151 B(  3-N ,  4-H ) :   1.1164 B(  3-N ,  5-H ) :   1.1446
B(  4-H ,  5-H ) :  -0.1206 B(  8-H ,  9-H ) :   0.1009 B(  8-H , 10-H ) :   0.1022

Dispersion correction           -0.014898659
FINAL SINGLE POINT ENERGY      -173.055707348371

DIPOLE MOMENT
-------------
                                X             Y             Z
Electronic contribution:     -0.64946       0.88211       1.54682
Nuclear contribution   :     -0.07639      -1.03653      -1.19368
                        -----------------------------------------
Total Dipole Moment    :     -0.72584      -0.15442       0.35314
                        -----------------------------------------
Magnitude (a.u.)       :      0.82183
Magnitude (Debye)      :      2.08892

Rotational constants in cm-1:     0.347569     0.308531     0.168494
Rotational constants in MHz : 10419.863808  9249.512495  5051.317883

                             ****ORCA TERMINATED NORMALLY****
TOTAL RUN TIME: 0 days 0 hours 0 minutes 4 seconds 788 msec
