                         Program Version 5.0.0 -  RELEASE  -
|  1> !BLYP D3BJ RIJCOSX def2-SVPD def2/J TightSCF
|  2> *xyz 0 1
|  3> C          2.20996       -2.81239       -3.66571
|  4> C          2.48901       -1.66851       -2.73754
|  5> N          3.59631       -0.94761       -2.95225
|  6> C          1.66394       -1.41369       -1.77781
|  7> H          0.81164       -1.96318       -1.70275
|  8> H          1.84550       -0.63508       -1.15875
|  9> H          4.20535       -1.17600       -3.73383
| 10> H          3.81723       -0.12585       -2.40604
| 11> H          2.99011       -2.87840       -4.39503
| 12> H          1.27381       -2.65174       -4.15838
| 13> H          2.16680       -3.72339       -3.10614
| 14> *
| 15>
| 16> %MaxCore 64000
| 17> %pal nprocs 4
| 18> end
| 19>
| 20> %scf
| 21>   MaxIter 150
| 22> end
| 23>
| 24>
| 25>                          ****END OF INPUT****

CARTESIAN COORDINATES (ANGSTROEM)
---------------------------------
  C      2.209960   -2.812390   -3.665710
  C      2.489010   -1.668510   -2.737540
  N      3.596310   -0.947610   -2.952250
  C      1.663940   -1.413690   -1.777810
  H      0.811640   -1.963180   -1.702750
  H      1.845500   -0.635080   -1.158750
  H      4.205350   -1.176000   -3.733830
  H      3.817230   -0.125850   -2.406040
  H      2.990110   -2.878400   -4.395030
  H      1.273810   -2.651740   -4.158380
  H      2.166800   -3.723390   -3.106140

 Total Charge           Charge          ....    0
 Multiplicity           Mult            ....    1
 Number of Electrons    NEL             ....   32
 Basis Dimension        Dim             ....  136

ORBITAL ENERGIES
----------------

  NO   OCC          E(Eh)            E(eV)
   0   2.0000     -14.025988      -381.6665
   1   2.0000      -9.937160      -270.4039
   2   2.0000      -9.912626      -269.7363
   3   2.0000      -9.852789      -268.1080
   4   2.0000      -0.826725       -22.4963
   5   2.0000      -0.676342       -18.4042
   6   2.0000      -0.611944       -16.6518
   7   2.0000      -0.507295       -13.8042
   8   2.0000      -0.466893       -12.7048
   9   2.0000      -0.418566       -11.3898
  10   2.0000      -0.378498       -10.2995
  11   2.0000      -0.349999        -9.5240
  12   2.0000      -0.345354        -9.3976
  13   2.0000      -0.307204        -8.3594
  14   2.0000      -0.285510        -7.7691
  15   2.0000      -0.156911        -4.2698
  16   0.0000      -0.001831        -0.0498
  17   0.0000       0.021066         0.5732
  18   0.0000       0.035139         0.9562
  19   0.0000       0.043488         1.1834
  20   0.0000       0.067167         1.8277

MULLIKEN ATOMIC CHARGES
-----------------------
   0 C :    1.215227
   1 C :   -0.345607
   2 N :    0.365202
   3 C :    0.575387
   4 H :   -0.322158
   5 H :   -0.516248
   6 H :   -0.180464
   7 H :   -0.260069
   8 H :   -0.297931
   9 H :   -0.115722
  10 H :   -0.117616
Sum of atomic charges:   -0.0000000

LOEWDIN ATOMIC CHARGES
----------------------
   0 C :    0.177916
   1 C :   -0.291427
   2 N :    0.189454
   3 C :    0.165962
   4 H :   -0.075107
   5 H :   -0.088153
   6 H :   -0.014215
   7 H :   -0.004594
   8 H :   -0.035642
   9 H :   -0.012166
  10 H :   -0.012029

  Mayer bond orders larger than 0.100000
B(  0-C ,  1-C ) :   1.0536 B(  0-C ,  2-N ) :   0.1452 B(  0-C ,  3-C ) :   0.1302
B(  0-C ,  8-H ) :   0.5715 B(  0-C ,  9-H ) :   0.6471 B(  0-C , 10-H ) :   0.6357
B(  1-C ,  2-N ) :   1.1108 B(  1-C ,  3-C ) :   1.6561 B(  1-C ,  4-H ) :   0.1216
B(  1-C ,  5-H ) :   0.3286 B(  1-C ,  7-H ) :  -0.1527 B(  1-C ,  8-H ) :   0.3525
B(  1-C ,  9-H ) :   0.2270 B(  1-C , 10-H ) :   0.2417 B(  2-N ,  3-C ) :   0.2884
B(  2-N ,  6-H ) :   1.0989 B(  2-N ,  7-H ) :   1.2991 B(  3-C ,  4-H ) :   0.7266
B(  3-C ,  5-H ) :   0.5533 B(  6-H ,  7-H ) :  -0.1731

Dispersion correction           -0.014898888
FINAL SINGLE POINT ENERGY      -173.055156736276

DIPOLE MOMENT
-------------
                                X             Y             Z
Electronic contribution:      1.04995       1.26667       0.48657
Nuclear contribution   :     -0.50975      -1.14105      -0.93029
                        -----------------------------------------
Total Dipole Moment    :      0.54019       0.12562      -0.44372
                        -----------------------------------------
Magnitude (a.u.)       :      0.71027
Magnitude (Debye)      :      1.80536

Rotational constants in cm-1:     0.350603     0.305690     0.168346
Rotational constants in MHz : 10510.799277  9164.357607  5046.873498

                             ****ORCA TERMINATED NORMALLY****
TOTAL RUN TIME: 0 days 0 hours 0 minutes 4 seconds 586 msec
