                         Program Version 5.0.0 -  RELEASE  -
|  1> !CAM-B3LYP RIJCOSX def2-TZVP def2/J TightSCF
|  2> *xyz -1 1
|  3> C          0.70466        1.44313       -4.50363
|  4> C          1.72854        1.42432       -5.63944
|  5> H          2.64672        1.95379       -5.38105
|  6> H          1.29992        1.93061       -6.50361
|  7> S          2.25263       -0.18811       -6.27184
|  8> O          3.56261       -0.44446       -5.63155
|  9> O          2.34494       -0.03374       -7.69650
| 10> O          1.26606       -1.15918       -5.80536
| 11> H         -0.17385        0.91270       -4.80656
| 12> H          0.44778        2.45562       -4.27173
| 13> H          1.12367        0.97423       -3.63791
| 14> *
| 15>
| 16> %MaxCore 64000
| 17>
| 18> %pal nprocs 4
| 19> end
| 20>
| 21> %scf
| 22>   MaxIter 150
| 23> end
| 24>
| 25>
| 26>                          ****END OF INPUT****

CARTESIAN COORDINATES (ANGSTROEM)
---------------------------------
  C      0.704660    1.443130   -4.503630
  C      1.728540    1.424320   -5.639440
  H      2.646720    1.953790   -5.381050
  H      1.299920    1.930610   -6.503610
  S      2.252630   -0.188110   -6.271840
  O      3.562610   -0.444460   -5.631550
  O      2.344940   -0.033740   -7.696500
  O      1.266060   -1.159180   -5.805360
  H     -0.173850    0.912700   -4.806560
  H      0.447780    2.455620   -4.271730
  H      1.123670    0.974230   -3.637910

 Total Charge           Charge          ....   -1
 Multiplicity           Mult            ....    1
 Number of Electrons    NEL             ....   58
 Basis Dimension        Dim             ....  222

ORBITAL ENERGIES
----------------

  NO   OCC          E(Eh)            E(eV)
   0   2.0000     -88.911240     -2419.3978
   1   2.0000     -18.973132      -516.2852
   2   2.0000     -18.966181      -516.0960
   3   2.0000     -18.956474      -515.8319
   4   2.0000     -10.102269      -274.8967
   5   2.0000     -10.099001      -274.8078
   6   2.0000      -7.954345      -216.4487
   7   2.0000      -5.919020      -161.0647
   8   2.0000      -5.917771      -161.0307
   9   2.0000      -5.917520      -161.0239
  10   2.0000      -1.000946       -27.2371
  11   2.0000      -0.867812       -23.6144
  12   2.0000      -0.844438       -22.9783
  13   2.0000      -0.713229       -19.4079
  14   2.0000      -0.584454       -15.9038
  15   2.0000      -0.451083       -12.2746
  16   2.0000      -0.387794       -10.5524
  17   2.0000      -0.381163       -10.3720
  18   2.0000      -0.341025        -9.2798
  19   2.0000      -0.323490        -8.8026
  20   2.0000      -0.322036        -8.7630
  21   2.0000      -0.290759        -7.9119
  22   2.0000      -0.283059        -7.7024
  23   2.0000      -0.213498        -5.8096
  24   2.0000      -0.212291        -5.7767
  25   2.0000      -0.175982        -4.7887
  26   2.0000      -0.168652        -4.5893
  27   2.0000      -0.158787        -4.3208
  28   2.0000      -0.122827        -3.3423
  29   0.0000       0.206630         5.6227
  30   0.0000       0.254458         6.9242
  31   0.0000       0.268501         7.3063
  32   0.0000       0.273581         7.4445
  33   0.0000       0.296951         8.0805

MULLIKEN ATOMIC CHARGES
-----------------------
   0 C :   -0.319189
   1 C :   -0.253323
   2 H :    0.091447
   3 H :    0.085552
   4 S :    0.832714
   5 O :   -0.598592
   6 O :   -0.547553
   7 O :   -0.573278
   8 H :    0.112533
   9 H :    0.067514
  10 H :    0.102174
Sum of atomic charges:   -1.0000000

LOEWDIN ATOMIC CHARGES
----------------------
   0 C :   -0.342146
   1 C :   -0.425079
   2 H :    0.118213
   3 H :    0.117162
   4 S :    0.426462
   5 O :   -0.439159
   6 O :   -0.377832
   7 O :   -0.403625
   8 H :    0.114113
   9 H :    0.099002
  10 H :    0.112889

  Mayer bond orders larger than 0.100000
B(  0-C ,  1-C ) :   0.9382 B(  0-C ,  8-H ) :   0.9771 B(  0-C ,  9-H ) :   0.9678
B(  0-C , 10-H ) :   0.9801 B(  1-C ,  2-H ) :   0.9681 B(  1-C ,  3-H ) :   0.9630
B(  1-C ,  4-S ) :   0.8816 B(  4-S ,  5-O ) :   1.7677 B(  4-S ,  6-O ) :   1.8243
B(  4-S ,  7-O ) :   1.7758

FINAL SINGLE POINT ENERGY      -703.197566658130

DIPOLE MOMENT
-------------
                                X             Y             Z
Electronic contribution:      3.65710      -5.62486      -4.31065
Nuclear contribution   :     -4.50297       7.24642       5.01775
                        -----------------------------------------
Total Dipole Moment    :     -0.84587       1.62156       0.70710
                        -----------------------------------------
Magnitude (a.u.)       :      1.96085
Magnitude (Debye)      :      4.98410

Rotational constants in cm-1:     0.162459     0.081286     0.079601
Rotational constants in MHz :  4870.394399  2436.893583  2386.374948

                             ****ORCA TERMINATED NORMALLY****
TOTAL RUN TIME: 0 days 0 hours 0 minutes 39 seconds 957 msec
