                         Program Version 5.0.0 -  RELEASE  -
|  1> !CAM-B3LYP RIJCOSX def2-TZVP def2/J TightSCF
|  2> *xyz 1 1
|  3> C          2.91632       -1.24259       -1.54313
|  4> C          3.46659       -1.59097       -2.88908
|  5> N          4.65227       -1.14316       -3.25969
|  6> N          2.75226       -2.29204       -3.72803
|  7> H          1.77836       -2.48960       -3.51274
|  8> H          2.94861       -2.20854       -4.71681
|  9> H          5.14672       -0.51251       -2.63385
| 10> H          4.78303       -1.00720       -4.25350
| 11> C          2.80408        0.29070       -1.35924
| 12> H          1.94047       -1.71653       -1.44116
| 13> H          3.55857       -1.66343       -0.76637
| 14> H          2.17393        0.69633       -2.12297
| 15> H          3.77707        0.73043       -1.42880
| 16> H          2.38369        0.50492       -0.39889
| 17> *
| 18>
| 19> %MaxCore 64000
| 20>
| 21> %pal nprocs 4
| 22> end
| 23>
| 24> %scf
| 25>   MaxIter 150
| 26> end
| 27>
| 28>
| 29>                          ****END OF INPUT****

CARTESIAN COORDINATES (ANGSTROEM)
---------------------------------
  C      2.916320   -1.242590   -1.543130
  C      3.466590   -1.590970   -2.889080
  N      4.652270   -1.143160   -3.259690
  N      2.752260   -2.292040   -3.728030
  H      1.778360   -2.489600   -3.512740
  H      2.948610   -2.208540   -4.716810
  H      5.146720   -0.512510   -2.633850
  H      4.783030   -1.007200   -4.253500
  C      2.804080    0.290700   -1.359240
  H      1.940470   -1.716530   -1.441160
  H      3.558570   -1.663430   -0.766370
  H      2.173930    0.696330   -2.122970
  H      3.777070    0.730430   -1.428800
  H      2.383690    0.504920   -0.398890

 Total Charge           Charge          ....    1
 Multiplicity           Mult            ....    1
 Number of Electrons    NEL             ....   40
 Basis Dimension        Dim             ....  209

ORBITAL ENERGIES
----------------

  NO   OCC          E(Eh)            E(eV)
   0   2.0000     -14.638414      -398.3315
   1   2.0000     -14.632860      -398.1804
   2   2.0000     -10.572221      -287.6848
   3   2.0000     -10.446279      -284.2577
   4   2.0000     -10.405024      -283.1351
   5   2.0000      -1.296444       -35.2780
   6   2.0000      -1.194808       -32.5124
   7   2.0000      -1.055126       -28.7114
   8   2.0000      -0.943345       -25.6697
   9   2.0000      -0.894386       -24.3375
  10   2.0000      -0.842428       -22.9236
  11   2.0000      -0.827252       -22.5107
  12   2.0000      -0.768972       -20.9248
  13   2.0000      -0.737433       -20.0666
  14   2.0000      -0.696549       -18.9541
  15   2.0000      -0.670201       -18.2371
  16   2.0000      -0.620059       -16.8727
  17   2.0000      -0.610354       -16.6086
  18   2.0000      -0.597614       -16.2619
  19   2.0000      -0.563677       -15.3384
  20   0.0000      -0.172066        -4.6822
  21   0.0000      -0.122840        -3.3426
  22   0.0000      -0.079067        -2.1515
  23   0.0000      -0.076585        -2.0840
  24   0.0000      -0.038646        -1.0516

MULLIKEN ATOMIC CHARGES
-----------------------
   0 C :   -0.255676
   1 C :    0.317979
   2 N :   -0.316846
   3 N :   -0.312306
   4 H :    0.295988
   5 H :    0.272868
   6 H :    0.292817
   7 H :    0.273746
   8 C :   -0.346812
   9 H :    0.143215
  10 H :    0.189088
  11 H :    0.147111
  12 H :    0.120932
  13 H :    0.177897
Sum of atomic charges:    1.0000000

LOEWDIN ATOMIC CHARGES
----------------------
   0 C :   -0.214739
   1 C :   -0.286842
   2 N :    0.104655
   3 N :    0.117729
   4 H :    0.210619
   5 H :    0.200511
   6 H :    0.207799
   7 H :    0.200885
   8 C :   -0.258322
   9 H :    0.157608
  10 H :    0.171203
  11 H :    0.128979
  12 H :    0.120003
  13 H :    0.139912

  Mayer bond orders larger than 0.100000
B(  0-C ,  1-C ) :   0.9647 B(  0-C ,  8-C ) :   0.9270 B(  0-C ,  9-H ) :   0.9740
B(  0-C , 10-H ) :   0.9424 B(  1-C ,  2-N ) :   1.4061 B(  1-C ,  3-N ) :   1.4632
B(  2-N ,  6-H ) :   0.8952 B(  2-N ,  7-H ) :   0.8952 B(  3-N ,  4-H ) :   0.8878
B(  3-N ,  5-H ) :   0.8963 B(  8-C , 11-H ) :   0.9629 B(  8-C , 12-H ) :   0.9706
B(  8-C , 13-H ) :   0.9668

FINAL SINGLE POINT ENERGY      -228.990046236469

DIPOLE MOMENT
-------------
                                X             Y             Z
Electronic contribution:      1.30086      -2.84349      -2.77908
Nuclear contribution   :     -1.30215       2.77761       1.84194
                        -----------------------------------------
Total Dipole Moment    :     -0.00129      -0.06588      -0.93714
                        -----------------------------------------
Magnitude (a.u.)       :      0.93946
Magnitude (Debye)      :      2.38791

Rotational constants in cm-1:     0.267442     0.127541     0.099068
Rotational constants in MHz :  8017.703171  3823.592522  2969.992494

                             ****ORCA TERMINATED NORMALLY****
TOTAL RUN TIME: 0 days 0 hours 0 minutes 37 seconds 871 msec
