                         Program Version 5.0.0 -  RELEASE  -
|  1> !CAM-B3LYP RIJCOSX def2-TZVP def2/J TightSCF xyzfile
|  2>
|  3> *xyzfile 0 1 B.xyz
|  4>
|  5> %MaxCore 64000
|  6>
|  7> %pal nprocs 18
|  8> end
|  9>
| 10> %scf
| 11>   MaxIter 150
| 12> end
| 13>
| 14>
| 15>                          ****END OF INPUT****

CARTESIAN COORDINATES (ANGSTROEM)
---------------------------------
  C      2.916324   -1.242589   -1.543125
  C      0.704661    1.443129   -4.503630
  C      1.728539    1.424320   -5.639443
  H      2.646718    1.953794   -5.381054
  H      1.299916    1.930613   -6.503614
  S      2.252625   -0.188115   -6.271840
  C      3.466585   -1.590971   -2.889082
  N      4.652275   -1.143164   -3.259692
  N      2.752264   -2.292043   -3.728029
  H      1.778364   -2.489604   -3.512738
  H      2.948612   -2.208544   -4.716813
  H      5.146723   -0.512508   -2.633852
  H      4.783030   -1.007203   -4.253498
  O      3.562607   -0.444464   -5.631552
  O      2.344944   -0.033742   -7.696501
  C      2.804084    0.290698   -1.359243
  C      1.052550    0.695659   -3.214915
  H     -0.232483    1.032925   -4.884449
  H      0.511700    2.495794   -4.267966
  C      2.388380    1.093669   -2.597108
  H      3.763425    0.674718   -0.999889
  H      2.094788    0.461222   -0.545756
  O      1.266058   -1.159177   -5.805365
  H      3.167316    1.013242   -3.359430
  H      2.357690    2.149375   -2.310997
  H      1.039284   -0.368429   -3.449329
  H      0.250787    0.865605   -2.488283
  H      1.940472   -1.716529   -1.441161
  H      3.558569   -1.663433   -0.766371

 Total Charge           Charge          ....    0
 Multiplicity           Mult            ....    1
 Number of Electrons    NEL             ....  112
 Basis Dimension        Dim             ....  505

ORBITAL ENERGIES
----------------

  NO   OCC          E(Eh)            E(eV)
   0   2.0000     -89.069919     -2423.7157
   1   2.0000     -19.135914      -520.7147
   2   2.0000     -19.128543      -520.5141
   3   2.0000     -19.119037      -520.2554
   4   2.0000     -14.461610      -393.5204
   5   2.0000     -14.461228      -393.5100
   6   2.0000     -10.407197      -283.1942
   7   2.0000     -10.309230      -280.5284
   8   2.0000     -10.287328      -279.9324
   9   2.0000     -10.258395      -279.1451
  10   2.0000     -10.245342      -278.7899
  11   2.0000     -10.241288      -278.6796
  12   2.0000     -10.239455      -278.6297
  13   2.0000      -8.113501      -220.7796
  14   2.0000      -6.077959      -165.3897
  15   2.0000      -6.077498      -165.3771
  16   2.0000      -6.076151      -165.3405
  17   2.0000      -1.163273       -31.6543
  18   2.0000      -1.126518       -30.6541
  19   2.0000      -1.026631       -27.9361
  20   2.0000      -1.022007       -27.8102
  21   2.0000      -1.018556       -27.7163
  22   2.0000      -0.931922       -25.3589
  23   2.0000      -0.884432       -24.0666
  24   2.0000      -0.836033       -22.7496
  25   2.0000      -0.781288       -21.2599
  26   2.0000      -0.750061       -20.4102
  27   2.0000      -0.715425       -19.4677
  28   2.0000      -0.676916       -18.4198
  29   2.0000      -0.667262       -18.1571
  30   2.0000      -0.656794       -17.8723
  31   2.0000      -0.609801       -16.5935
  32   2.0000      -0.596760       -16.2387
  33   2.0000      -0.588244       -16.0069
  34   2.0000      -0.568758       -15.4767
  35   2.0000      -0.542484       -14.7617
  36   2.0000      -0.535744       -14.5783
  37   2.0000      -0.516215       -14.0469
  38   2.0000      -0.503459       -13.6998
  39   2.0000      -0.500714       -13.6251
  40   2.0000      -0.495548       -13.4846
  41   2.0000      -0.483360       -13.1529
  42   2.0000      -0.473072       -12.8729
  43   2.0000      -0.452413       -12.3108
  44   2.0000      -0.444357       -12.0916
  45   2.0000      -0.439897       -11.9702
  46   2.0000      -0.412406       -11.2221
  47   2.0000      -0.404355       -11.0031
  48   2.0000      -0.391289       -10.6475
  49   2.0000      -0.389887       -10.6094
  50   2.0000      -0.373067       -10.1517
  51   2.0000      -0.370510       -10.0821
  52   2.0000      -0.333617        -9.0782
  53   2.0000      -0.327102        -8.9009
  54   2.0000      -0.317549        -8.6410
  55   2.0000      -0.289751        -7.8845
  56   0.0000      -0.010500        -0.2857
  57   0.0000       0.024535         0.6676
  58   0.0000       0.053139         1.4460
  59   0.0000       0.071526         1.9463
  60   0.0000       0.082884         2.2554

MULLIKEN ATOMIC CHARGES
-----------------------
   0 C :   -0.260492
   1 C :   -0.167373
   2 C :   -0.316083
   3 H :    0.123929
   4 H :    0.150332
   5 S :    0.904301
   6 C :    0.255206
   7 N :   -0.329450
   8 N :   -0.277921
   9 H :    0.265953
  10 H :    0.283441
  11 H :    0.255921
  12 H :    0.302871
  13 O :   -0.660149
  14 O :   -0.493390
  15 C :   -0.275957
  16 C :   -0.190551
  17 H :    0.123159
  18 H :    0.101793
  19 C :   -0.212867
  20 H :    0.136433
  21 H :    0.129196
  22 O :   -0.580913
  23 H :    0.132670
  24 H :    0.115940
  25 H :    0.079554
  26 H :    0.102822
  27 H :    0.140585
  28 H :    0.161042
Sum of atomic charges:   -0.0000000

LOEWDIN ATOMIC CHARGES
----------------------
   0 C :   -0.208385
   1 C :   -0.285159
   2 C :   -0.382923
   3 H :    0.127372
   4 H :    0.138711
   5 S :    0.456986
   6 C :   -0.312368
   7 N :    0.085903
   8 N :    0.121812
   9 H :    0.193781
  10 H :    0.188015
  11 H :    0.189973
  12 H :    0.188102
  13 O :   -0.428801
  14 O :   -0.324271
  15 C :   -0.252356
  16 C :   -0.272575
  17 H :    0.145233
  18 H :    0.137480
  19 C :   -0.269004
  20 H :    0.136754
  21 H :    0.145437
  22 O :   -0.378751
  23 H :    0.140795
  24 H :    0.141394
  25 H :    0.131718
  26 H :    0.135149
  27 H :    0.152192
  28 H :    0.157788

  Mayer bond orders larger than 0.100000
B(  0-C ,  6-C ) :   0.9681 B(  0-C , 15-C ) :   0.8990 B(  0-C , 27-H ) :   0.9771
B(  0-C , 28-H ) :   0.9691 B(  1-C ,  2-C ) :   0.9358 B(  1-C , 16-C ) :   0.9706
B(  1-C , 17-H ) :   0.9729 B(  1-C , 18-H ) :   0.9690 B(  2-C ,  3-H ) :   0.9651
B(  2-C ,  4-H ) :   0.9632 B(  2-C ,  5-S ) :   0.9066 B(  5-S , 13-O ) :   1.5099
B(  5-S , 14-O ) :   1.9453 B(  5-S , 22-O ) :   1.6867 B(  6-C ,  7-N ) :   1.3945
B(  6-C ,  8-N ) :   1.5078 B(  7-N , 11-H ) :   0.9146 B(  7-N , 12-H ) :   0.8546
B(  8-N ,  9-H ) :   0.9021 B(  8-N , 10-H ) :   0.8497 B( 15-C , 19-C ) :   0.9147
B( 15-C , 20-H ) :   0.9964 B( 15-C , 21-H ) :   0.9713 B( 16-C , 19-C ) :   0.9115
B( 16-C , 25-H ) :   0.9597 B( 16-C , 26-H ) :   0.9730 B( 19-C , 23-H ) :   0.9801
B( 19-C , 24-H ) :   0.9719

FINAL SINGLE POINT ENERGY     -1009.756022255816

DIPOLE MOMENT
-------------
                                X             Y             Z
Electronic contribution:      2.76808      -6.28982     -13.30557
Nuclear contribution   :     -1.90023       6.18953      17.82209
                        -----------------------------------------
Total Dipole Moment    :      0.86784      -0.10030       4.51652
                        -----------------------------------------
Magnitude (a.u.)       :      4.60023
Magnitude (Debye)      :     11.69286

Rotational constants in cm-1:     0.036337     0.018755     0.015005
Rotational constants in MHz :  1089.341704   562.266628   449.834770

                             ****ORCA TERMINATED NORMALLY****
TOTAL RUN TIME: 0 days 0 hours 1 minutes 9 seconds 490 msec
