                         Program Version 5.0.0 -  RELEASE  -
|  1> !CAM-B3LYP RIJCOSX def2-TZVP def2/J TightSCF
|  2> *xyz 0 1
|  3> C          0.70466        1.44313       -4.50363
|  4> C          1.72854        1.42432       -5.63944
|  5> H          2.64672        1.95379       -5.38105
|  6> H          1.29992        1.93061       -6.50361
|  7> S          2.25263       -0.18811       -6.27184
|  8> F          3.56261       -0.44446       -5.63155
|  9> O          2.34494       -0.03374       -7.69650
| 10> O          1.26606       -1.15918       -5.80536
| 11> H         -0.17385        0.91270       -4.80656
| 12> H          0.44778        2.45562       -4.27173
| 13> H          1.12367        0.97423       -3.63791
| 14> *
| 15>
| 16> %MaxCore 64000
| 17>
| 18> %pal nprocs 4
| 19> end
| 20>
| 21> %scf
| 22>   MaxIter 150
| 23> end
| 24>
| 25>
| 26>                          ****END OF INPUT****

CARTESIAN COORDINATES (ANGSTROEM)
---------------------------------
  C      0.704660    1.443130   -4.503630
  C      1.728540    1.424320   -5.639440
  H      2.646720    1.953790   -5.381050
  H      1.299920    1.930610   -6.503610
  S      2.252630   -0.188110   -6.271840
  F      3.562610   -0.444460   -5.631550
  O      2.344940   -0.033740   -7.696500
  O      1.266060   -1.159180   -5.805360
  H     -0.173850    0.912700   -4.806560
  H      0.447780    2.455620   -4.271730
  H      1.123670    0.974230   -3.637910

 Total Charge           Charge          ....    0
 Multiplicity           Mult            ....    1
 Number of Electrons    NEL             ....   58
 Basis Dimension        Dim             ....  222

ORBITAL ENERGIES
----------------

  NO   OCC          E(Eh)            E(eV)
   0   2.0000     -89.177246     -2426.6362
   1   2.0000     -24.859455      -676.4602
   2   2.0000     -19.214111      -522.8425
   3   2.0000     -19.206594      -522.6380
   4   2.0000     -10.306835      -280.4632
   5   2.0000     -10.262273      -279.2506
   6   2.0000      -8.220950      -223.7034
   7   2.0000      -6.188887      -168.4082
   8   2.0000      -6.182506      -168.2346
   9   2.0000      -6.181829      -168.2161
  10   2.0000      -1.437267       -39.1100
  11   2.0000      -1.196249       -32.5516
  12   2.0000      -1.101313       -29.9683
  13   2.0000      -0.905029       -24.6271
  14   2.0000      -0.804528       -21.8923
  15   2.0000      -0.748715       -20.3736
  16   2.0000      -0.652763       -17.7626
  17   2.0000      -0.640658       -17.4332
  18   2.0000      -0.624594       -16.9961
  19   2.0000      -0.564795       -15.3689
  20   2.0000      -0.552532       -15.0352
  21   2.0000      -0.525586       -14.3019
  22   2.0000      -0.500829       -13.6283
  23   2.0000      -0.471701       -12.8356
  24   2.0000      -0.469102       -12.7649
  25   2.0000      -0.452208       -12.3052
  26   2.0000      -0.404179       -10.9983
  27   2.0000      -0.398223       -10.8362
  28   2.0000      -0.385371       -10.4865
  29   0.0000       0.055427         1.5082
  30   0.0000       0.078396         2.1333
  31   0.0000       0.095300         2.5932
  32   0.0000       0.116119         3.1598
  33   0.0000       0.119892         3.2624

MULLIKEN ATOMIC CHARGES
-----------------------
   0 C :   -0.329675
   1 C :   -0.271464
   2 H :    0.139498
   3 H :    0.162418
   4 S :    0.876271
   5 F :   -0.133717
   6 O :   -0.409943
   7 O :   -0.437102
   8 H :    0.148606
   9 H :    0.129670
  10 H :    0.125439
Sum of atomic charges:    0.0000000

LOEWDIN ATOMIC CHARGES
----------------------
   0 C :   -0.308821
   1 C :   -0.389993
   2 H :    0.134432
   3 H :    0.147554
   4 S :    0.554913
   5 F :    0.046623
   6 O :   -0.265604
   7 O :   -0.292019
   8 H :    0.127146
   9 H :    0.124002
  10 H :    0.121766

  Mayer bond orders larger than 0.100000
B(  0-C ,  1-C ) :   0.9471 B(  0-C ,  8-H ) :   0.9686 B(  0-C ,  9-H ) :   0.9614
B(  0-C , 10-H ) :   0.9732 B(  1-C ,  2-H ) :   0.9496 B(  1-C ,  3-H ) :   0.9456
B(  1-C ,  4-S ) :   0.9064 B(  4-S ,  5-F ) :   1.1055 B(  4-S ,  6-O ) :   1.9516
B(  4-S ,  7-O ) :   1.9112

FINAL SINGLE POINT ENERGY      -727.735969035211

DIPOLE MOMENT
-------------
                                X             Y             Z
Electronic contribution:      6.31942      -6.46887      -3.69630
Nuclear contribution   :     -6.09914       7.80989       4.64238
                        -----------------------------------------
Total Dipole Moment    :      0.22028       1.34102       0.94608
                        -----------------------------------------
Magnitude (a.u.)       :      1.65588
Magnitude (Debye)      :      4.20891

Rotational constants in cm-1:     0.154372     0.078826     0.078033
Rotational constants in MHz :  4627.943144  2363.154585  2339.382767

                             ****ORCA TERMINATED NORMALLY****
TOTAL RUN TIME: 0 days 0 hours 0 minutes 40 seconds 7 msec
