                         Program Version 5.0.0 -  RELEASE  -
|  1> !CAM-B3LYP RIJCOSX def2-TZVP def2/J TightSCF
|  2> *xyz 0 1
|  3> C          2.91632       -1.24259       -1.54313
|  4> C          3.46659       -1.59097       -2.88908
|  5> C          4.65227       -1.14316       -3.25969
|  6> N          2.75226       -2.29204       -3.72803
|  7> H          1.77836       -2.48960       -3.51274
|  8> H          2.94861       -2.20854       -4.71681
|  9> H          5.14672       -0.51251       -2.63385
| 10> H          4.78303       -1.00720       -4.25350
| 11> C          2.80408        0.29070       -1.35924
| 12> H          1.94047       -1.71653       -1.44116
| 13> H          3.55857       -1.66343       -0.76637
| 14> H          2.17393        0.69633       -2.12297
| 15> H          3.77707        0.73043       -1.42880
| 16> H          2.38369        0.50492       -0.39889
| 17> *
| 18>
| 19> %MaxCore 64000
| 20>
| 21> %pal nprocs 4
| 22> end
| 23>
| 24> %scf
| 25>   MaxIter 150
| 26> end
| 27>
| 28>
| 29>                          ****END OF INPUT****

CARTESIAN COORDINATES (ANGSTROEM)
---------------------------------
  C      2.916320   -1.242590   -1.543130
  C      3.466590   -1.590970   -2.889080
  C      4.652270   -1.143160   -3.259690
  N      2.752260   -2.292040   -3.728030
  H      1.778360   -2.489600   -3.512740
  H      2.948610   -2.208540   -4.716810
  H      5.146720   -0.512510   -2.633850
  H      4.783030   -1.007200   -4.253500
  C      2.804080    0.290700   -1.359240
  H      1.940470   -1.716530   -1.441160
  H      3.558570   -1.663430   -0.766370
  H      2.173930    0.696330   -2.122970
  H      3.777070    0.730430   -1.428800
  H      2.383690    0.504920   -0.398890

 Total Charge           Charge          ....    0
 Multiplicity           Mult            ....    1
 Number of Electrons    NEL             ....   40
 Basis Dimension        Dim             ....  209

ORBITAL ENERGIES
----------------

  NO   OCC          E(Eh)            E(eV)
   0   2.0000     -14.390311      -391.5803
   1   2.0000     -10.264817      -279.3199
   2   2.0000     -10.246171      -278.8125
   3   2.0000     -10.229162      -278.3496
   4   2.0000     -10.168723      -276.7050
   5   2.0000      -1.020556       -27.7708
   6   2.0000      -0.864682       -23.5292
   7   2.0000      -0.792860       -21.5748
   8   2.0000      -0.723074       -19.6758
   9   2.0000      -0.638931       -17.3862
  10   2.0000      -0.593714       -16.1558
  11   2.0000      -0.550980       -14.9929
  12   2.0000      -0.520303       -14.1582
  13   2.0000      -0.479314       -13.0428
  14   2.0000      -0.457842       -12.4585
  15   2.0000      -0.444348       -12.0913
  16   2.0000      -0.422424       -11.4947
  17   2.0000      -0.409456       -11.1419
  18   2.0000      -0.393019       -10.6946
  19   2.0000      -0.247919        -6.7462
  20   0.0000       0.063029         1.7151
  21   0.0000       0.077479         2.1083
  22   0.0000       0.106792         2.9060
  23   0.0000       0.111030         3.0213
  24   0.0000       0.127207         3.4615

MULLIKEN ATOMIC CHARGES
-----------------------
   0 C :   -0.211167
   1 C :    0.212124
   2 C :   -0.389141
   3 N :   -0.423010
   4 H :    0.219030
   5 H :    0.224085
   6 H :    0.073392
   7 H :    0.071945
   8 C :   -0.324687
   9 H :    0.083474
  10 H :    0.124790
  11 H :    0.111009
  12 H :    0.116159
  13 H :    0.111998
Sum of atomic charges:    0.0000000

LOEWDIN ATOMIC CHARGES
----------------------
   0 C :   -0.233090
   1 C :   -0.368205
   2 C :   -0.285561
   3 N :    0.004670
   4 H :    0.166904
   5 H :    0.173321
   6 H :    0.103506
   7 H :    0.099964
   8 C :   -0.286419
   9 H :    0.131068
  10 H :    0.147605
  11 H :    0.116568
  12 H :    0.117226
  13 H :    0.112441

  Mayer bond orders larger than 0.100000
B(  0-C ,  1-C ) :   0.9231 B(  0-C ,  8-C ) :   0.9474 B(  0-C ,  9-H ) :   0.9900
B(  0-C , 10-H ) :   0.9850 B(  1-C ,  2-C ) :   1.7347 B(  1-C ,  3-N ) :   1.1735
B(  2-C ,  6-H ) :   1.0157 B(  2-C ,  7-H ) :   0.9885 B(  3-N ,  4-H ) :   0.9289
B(  3-N ,  5-H ) :   0.9237 B(  8-C , 11-H ) :   0.9778 B(  8-C , 12-H ) :   0.9785
B(  8-C , 13-H ) :   0.9785

FINAL SINGLE POINT ENERGY      -212.513649853629

DIPOLE MOMENT
-------------
                                X             Y             Z
Electronic contribution:      0.06050      -2.73446      -1.81695
Nuclear contribution   :     -0.99366       2.78648       1.68526
                        -----------------------------------------
Total Dipole Moment    :     -0.93316       0.05201      -0.13168
                        -----------------------------------------
Magnitude (a.u.)       :      0.94384
Magnitude (Debye)      :      2.39905

Rotational constants in cm-1:     0.282898     0.128664     0.101801
Rotational constants in MHz :  8481.061354  3857.240210  3051.924245

                             ****ORCA TERMINATED NORMALLY****
TOTAL RUN TIME: 0 days 0 hours 0 minutes 40 seconds 727 msec
