                         Program Version 5.0.0 -  RELEASE  -
|  1> !CAM-B3LYP RIJCOSX def2-TZVP def2/J TightSCF
|  2> *xyz 0 1
|  3> C          0.70466        1.44313       -4.50363
|  4> C          1.72854        1.42432       -5.63944
|  5> H          2.64672        1.95379       -5.38105
|  6> H          1.29992        1.93061       -6.50361
|  7> S          2.25263       -0.18811       -6.27184
|  8> O          3.56261       -0.44446       -5.63155
|  9> F          2.34494       -0.03374       -7.69650
| 10> O          1.26606       -1.15918       -5.80536
| 11> H         -0.17385        0.91270       -4.80656
| 12> H          0.44778        2.45562       -4.27173
| 13> H          1.12367        0.97423       -3.63791
| 14> *
| 15>
| 16> %MaxCore 64000
| 17>
| 18> %pal nprocs 4
| 19> end
| 20>
| 21> %scf
| 22>   MaxIter 150
| 23> end
| 24>
| 25>
| 26>                          ****END OF INPUT****

CARTESIAN COORDINATES (ANGSTROEM)
---------------------------------
  C      0.704660    1.443130   -4.503630
  C      1.728540    1.424320   -5.639440
  H      2.646720    1.953790   -5.381050
  H      1.299920    1.930610   -6.503610
  S      2.252630   -0.188110   -6.271840
  O      3.562610   -0.444460   -5.631550
  F      2.344940   -0.033740   -7.696500
  O      1.266060   -1.159180   -5.805360
  H     -0.173850    0.912700   -4.806560
  H      0.447780    2.455620   -4.271730
  H      1.123670    0.974230   -3.637910

 Total Charge           Charge          ....    0
 Multiplicity           Mult            ....    1
 Number of Electrons    NEL             ....   58
 Basis Dimension        Dim             ....  222

ORBITAL ENERGIES
----------------

  NO   OCC          E(Eh)            E(eV)
   0   2.0000     -89.179364     -2426.6939
   1   2.0000     -24.883054      -677.1023
   2   2.0000     -19.206808      -522.6438
   3   2.0000     -19.198166      -522.4086
   4   2.0000     -10.307765      -280.4885
   5   2.0000     -10.262753      -279.2637
   6   2.0000      -8.223081      -223.7614
   7   2.0000      -6.190882      -168.4625
   8   2.0000      -6.184491      -168.2886
   9   2.0000      -6.184064      -168.2769
  10   2.0000      -1.475243       -40.1434
  11   2.0000      -1.181665       -32.1547
  12   2.0000      -1.081212       -29.4213
  13   2.0000      -0.905784       -24.6476
  14   2.0000      -0.819435       -22.2980
  15   2.0000      -0.757149       -20.6031
  16   2.0000      -0.669417       -18.2158
  17   2.0000      -0.667450       -18.1623
  18   2.0000      -0.628956       -17.1148
  19   2.0000      -0.565548       -15.3893
  20   2.0000      -0.552981       -15.0474
  21   2.0000      -0.513455       -13.9718
  22   2.0000      -0.497677       -13.5425
  23   2.0000      -0.474548       -12.9131
  24   2.0000      -0.458375       -12.4730
  25   2.0000      -0.450979       -12.2718
  26   2.0000      -0.397061       -10.8046
  27   2.0000      -0.386977       -10.5302
  28   2.0000      -0.369392       -10.0517
  29   0.0000       0.057138         1.5548
  30   0.0000       0.073464         1.9990
  31   0.0000       0.096018         2.6128
  32   0.0000       0.112527         3.0620
  33   0.0000       0.118785         3.2323

MULLIKEN ATOMIC CHARGES
-----------------------
   0 C :   -0.334030
   1 C :   -0.262235
   2 H :    0.161621
   3 H :    0.128714
   4 S :    0.872637
   5 O :   -0.450232
   6 F :   -0.099962
   7 O :   -0.428564
   8 H :    0.139564
   9 H :    0.130208
  10 H :    0.142279
Sum of atomic charges:    0.0000000

LOEWDIN ATOMIC CHARGES
----------------------
   0 C :   -0.303015
   1 C :   -0.391609
   2 H :    0.142815
   3 H :    0.132456
   4 S :    0.547248
   5 O :   -0.319104
   6 F :    0.102254
   7 O :   -0.288150
   8 H :    0.125490
   9 H :    0.124640
  10 H :    0.126975

  Mayer bond orders larger than 0.100000
B(  0-C ,  1-C ) :   0.9521 B(  0-C ,  8-H ) :   0.9685 B(  0-C ,  9-H ) :   0.9607
B(  0-C , 10-H ) :   0.9721 B(  1-C ,  2-H ) :   0.9440 B(  1-C ,  3-H ) :   0.9452
B(  1-C ,  4-S ) :   0.9090 B(  4-S ,  5-O ) :   1.8991 B(  4-S ,  6-F ) :   1.1486
B(  4-S ,  7-O ) :   1.9135

FINAL SINGLE POINT ENERGY      -727.716226300336

DIPOLE MOMENT
-------------
                                X             Y             Z
Electronic contribution:      4.20756      -5.76801      -7.23537
Nuclear contribution   :     -4.83029       7.38191       6.79413
                        -----------------------------------------
Total Dipole Moment    :     -0.62273       1.61390      -0.44124
                        -----------------------------------------
Magnitude (a.u.)       :      1.78526
Magnitude (Debye)      :      4.53777

Rotational constants in cm-1:     0.156575     0.079070     0.076729
Rotational constants in MHz :  4694.010604  2370.444114  2300.280155

                             ****ORCA TERMINATED NORMALLY****
TOTAL RUN TIME: 0 days 0 hours 0 minutes 42 seconds 169 msec
