                         Program Version 5.0.0 -  RELEASE  -
|  1> !CAM-B3LYP RIJCOSX def2-TZVP def2/J TightSCF
|  2> *xyz 0 1
|  3> C          2.91632       -1.24259       -1.54313
|  4> C          3.46659       -1.59097       -2.88908
|  5> N          4.65227       -1.14316       -3.25969
|  6> C          2.75226       -2.29204       -3.72803
|  7> H          1.77836       -2.48960       -3.51274
|  8> H          2.94861       -2.20854       -4.71681
|  9> H          5.14672       -0.51251       -2.63385
| 10> H          4.78303       -1.00720       -4.25350
| 11> C          2.80408        0.29070       -1.35924
| 12> H          1.94047       -1.71653       -1.44116
| 13> H          3.55857       -1.66343       -0.76637
| 14> H          2.17393        0.69633       -2.12297
| 15> H          3.77707        0.73043       -1.42880
| 16> H          2.38369        0.50492       -0.39889
| 17> *
| 18>
| 19> %MaxCore 64000
| 20>
| 21> %pal nprocs 4
| 22> end
| 23>
| 24> %scf
| 25>   MaxIter 150
| 26> end
| 27>
| 28>
| 29>                          ****END OF INPUT****

CARTESIAN COORDINATES (ANGSTROEM)
---------------------------------
  C      2.916320   -1.242590   -1.543130
  C      3.466590   -1.590970   -2.889080
  N      4.652270   -1.143160   -3.259690
  C      2.752260   -2.292040   -3.728030
  H      1.778360   -2.489600   -3.512740
  H      2.948610   -2.208540   -4.716810
  H      5.146720   -0.512510   -2.633850
  H      4.783030   -1.007200   -4.253500
  C      2.804080    0.290700   -1.359240
  H      1.940470   -1.716530   -1.441160
  H      3.558570   -1.663430   -0.766370
  H      2.173930    0.696330   -2.122970
  H      3.777070    0.730430   -1.428800
  H      2.383690    0.504920   -0.398890

 Total Charge           Charge          ....    0
 Multiplicity           Mult            ....    1
 Number of Electrons    NEL             ....   40
 Basis Dimension        Dim             ....  209

ORBITAL ENERGIES
----------------

  NO   OCC          E(Eh)            E(eV)
   0   2.0000     -14.386617      -391.4798
   1   2.0000     -10.263357      -279.2801
   2   2.0000     -10.244565      -278.7688
   3   2.0000     -10.234189      -278.4864
   4   2.0000     -10.172995      -276.8213
   5   2.0000      -1.015579       -27.6353
   6   2.0000      -0.862107       -23.4591
   7   2.0000      -0.804636       -21.8953
   8   2.0000      -0.715487       -19.4694
   9   2.0000      -0.638714       -17.3803
  10   2.0000      -0.598137       -16.2761
  11   2.0000      -0.547848       -14.9077
  12   2.0000      -0.507034       -13.7971
  13   2.0000      -0.504229       -13.7208
  14   2.0000      -0.455774       -12.4022
  15   2.0000      -0.448618       -12.2075
  16   2.0000      -0.423705       -11.5296
  17   2.0000      -0.407934       -11.1004
  18   2.0000      -0.387654       -10.5486
  19   2.0000      -0.255285        -6.9466
  20   0.0000       0.060710         1.6520
  21   0.0000       0.080767         2.1978
  22   0.0000       0.110809         3.0153
  23   0.0000       0.115219         3.1353
  24   0.0000       0.124479         3.3872

MULLIKEN ATOMIC CHARGES
-----------------------
   0 C :   -0.208342
   1 C :    0.207025
   2 N :   -0.431081
   3 C :   -0.381752
   4 H :    0.082734
   5 H :    0.070261
   6 H :    0.219337
   7 H :    0.226958
   8 C :   -0.337522
   9 H :    0.109138
  10 H :    0.109368
  11 H :    0.122633
  12 H :    0.090329
  13 H :    0.120915
Sum of atomic charges:    0.0000000

LOEWDIN ATOMIC CHARGES
----------------------
   0 C :   -0.233632
   1 C :   -0.367483
   2 N :   -0.005492
   3 C :   -0.274477
   4 H :    0.105923
   5 H :    0.099717
   6 H :    0.167074
   7 H :    0.174771
   8 C :   -0.292848
   9 H :    0.145662
  10 H :    0.137696
  11 H :    0.119113
  12 H :    0.107916
  13 H :    0.116059

  Mayer bond orders larger than 0.100000
B(  0-C ,  1-C ) :   0.9559 B(  0-C ,  8-C ) :   0.9297 B(  0-C ,  9-H ) :   0.9853
B(  0-C , 10-H ) :   0.9774 B(  1-C ,  2-N ) :   1.1213 B(  1-C ,  3-C ) :   1.7951
B(  2-N ,  6-H ) :   0.9389 B(  2-N ,  7-H ) :   0.9252 B(  3-C ,  4-H ) :   0.9999
B(  3-C ,  5-H ) :   0.9924 B(  8-C , 11-H ) :   0.9771 B(  8-C , 12-H ) :   0.9781
B(  8-C , 13-H ) :   0.9807

FINAL SINGLE POINT ENERGY      -212.517732451212

DIPOLE MOMENT
-------------
                                X             Y             Z
Electronic contribution:      1.74296      -1.71477      -1.40405
Nuclear contribution   :     -1.43372       2.52039       1.57679
                        -----------------------------------------
Total Dipole Moment    :      0.30924       0.80562       0.17274
                        -----------------------------------------
Magnitude (a.u.)       :      0.88005
Magnitude (Debye)      :      2.23691

Rotational constants in cm-1:     0.274962     0.131786     0.102554
Rotational constants in MHz :  8243.150005  3950.846092  3074.493018

                             ****ORCA TERMINATED NORMALLY****
TOTAL RUN TIME: 0 days 0 hours 0 minutes 39 seconds 792 msec
