                         Program Version 5.0.0 -  RELEASE  -
|  1> !CAM-B3LYP RIJCOSX def2-TZVP def2/J TightSCF
|  2> *xyz 0 1
|  3> C          0.70466        1.44313       -4.50363
|  4> C          1.72854        1.42432       -5.63944
|  5> H          2.64672        1.95379       -5.38105
|  6> H          1.29992        1.93061       -6.50361
|  7> S          2.25263       -0.18811       -6.27184
|  8> O          3.56261       -0.44446       -5.63155
|  9> O          2.34494       -0.03374       -7.69650
| 10> F          1.26606       -1.15918       -5.80536
| 11> H         -0.17385        0.91270       -4.80656
| 12> H          0.44778        2.45562       -4.27173
| 13> H          1.12367        0.97423       -3.63791
| 14> *
| 15>
| 16> %MaxCore 64000
| 17>
| 18> %pal nprocs 4
| 19> end
| 20>
| 21> %scf
| 22>   MaxIter 150
| 23> end
| 24>
| 25>
| 26>                          ****END OF INPUT****

CARTESIAN COORDINATES (ANGSTROEM)
---------------------------------
  C      0.704660    1.443130   -4.503630
  C      1.728540    1.424320   -5.639440
  H      2.646720    1.953790   -5.381050
  H      1.299920    1.930610   -6.503610
  S      2.252630   -0.188110   -6.271840
  O      3.562610   -0.444460   -5.631550
  O      2.344940   -0.033740   -7.696500
  F      1.266060   -1.159180   -5.805360
  H     -0.173850    0.912700   -4.806560
  H      0.447780    2.455620   -4.271730
  H      1.123670    0.974230   -3.637910

 Total Charge           Charge          ....    0
 Multiplicity           Mult            ....    1
 Number of Electrons    NEL             ....   58
 Basis Dimension        Dim             ....  222

ORBITAL ENERGIES
----------------

  NO   OCC          E(Eh)            E(eV)
   0   2.0000     -89.177787     -2426.6510
   1   2.0000     -24.870400      -676.7580
   2   2.0000     -19.214071      -522.8415
   3   2.0000     -19.197613      -522.3936
   4   2.0000     -10.306684      -280.4591
   5   2.0000     -10.270265      -279.4681
   6   2.0000      -8.221533      -223.7193
   7   2.0000      -6.189534      -168.4258
   8   2.0000      -6.182815      -168.2429
   9   2.0000      -6.182545      -168.2356
  10   2.0000      -1.453885       -39.5622
  11   2.0000      -1.191819       -32.4310
  12   2.0000      -1.089279       -29.6408
  13   2.0000      -0.909081       -24.7373
  14   2.0000      -0.808176       -21.9916
  15   2.0000      -0.757987       -20.6259
  16   2.0000      -0.668431       -18.1889
  17   2.0000      -0.653336       -17.7782
  18   2.0000      -0.617966       -16.8157
  19   2.0000      -0.569340       -15.4925
  20   2.0000      -0.546329       -14.8664
  21   2.0000      -0.520354       -14.1595
  22   2.0000      -0.513147       -13.9635
  23   2.0000      -0.482097       -13.1185
  24   2.0000      -0.464787       -12.6475
  25   2.0000      -0.454450       -12.3662
  26   2.0000      -0.402384       -10.9494
  27   2.0000      -0.388190       -10.5632
  28   2.0000      -0.375814       -10.2264
  29   0.0000       0.045157         1.2288
  30   0.0000       0.088131         2.3982
  31   0.0000       0.102534         2.7901
  32   0.0000       0.111312         3.0289
  33   0.0000       0.114876         3.1259

MULLIKEN ATOMIC CHARGES
-----------------------
   0 C :   -0.358481
   1 C :   -0.258045
   2 H :    0.165722
   3 H :    0.153825
   4 S :    0.872965
   5 O :   -0.456009
   6 O :   -0.404888
   7 F :   -0.119421
   8 H :    0.128906
   9 H :    0.135343
  10 H :    0.140082
Sum of atomic charges:    0.0000000

LOEWDIN ATOMIC CHARGES
----------------------
   0 C :   -0.316051
   1 C :   -0.383844
   2 H :    0.147662
   3 H :    0.141555
   4 S :    0.551983
   5 O :   -0.322456
   6 O :   -0.263408
   7 F :    0.075096
   8 H :    0.119570
   9 H :    0.126491
  10 H :    0.123403

  Mayer bond orders larger than 0.100000
B(  0-C ,  1-C ) :   0.9446 B(  0-C ,  8-H ) :   0.9700 B(  0-C ,  9-H ) :   0.9652
B(  0-C , 10-H ) :   0.9705 B(  1-C ,  2-H ) :   0.9449 B(  1-C ,  3-H ) :   0.9463
B(  1-C ,  4-S ) :   0.9101 B(  4-S ,  5-O ) :   1.8969 B(  4-S ,  6-O ) :   1.9523
B(  4-S ,  7-F ) :   1.1197

FINAL SINGLE POINT ENERGY      -727.726138101085

DIPOLE MOMENT
-------------
                                X             Y             Z
Electronic contribution:      2.35974      -7.65495      -3.99149
Nuclear contribution   :     -3.70606       8.55465       4.82350
                        -----------------------------------------
Total Dipole Moment    :     -1.34632       0.89970       0.83201
                        -----------------------------------------
Magnitude (a.u.)       :      1.82052
Magnitude (Debye)      :      4.62739

Rotational constants in cm-1:     0.153201     0.080978     0.077494
Rotational constants in MHz :  4592.852844  2427.650814  2323.207507

                             ****ORCA TERMINATED NORMALLY****
TOTAL RUN TIME: 0 days 0 hours 0 minutes 38 seconds 960 msec
