                         Program Version 5.0.0 -  RELEASE  -
|  1> !CAM-B3LYP RIJCOSX def2-TZVP def2/J TightSCF xyzfile
|  2>
|  3> *xyzfile 0 1 D2.xyz
|  4>
|  5> %MaxCore 64000
|  6>
|  7> %pal nprocs 18
|  8> end
|  9>
| 10> %scf
| 11>   MaxIter 150
| 12> end
| 13>
| 14>
| 15>                          ****END OF INPUT****

CARTESIAN COORDINATES (ANGSTROEM)
---------------------------------
  C      2.916324   -1.242589   -1.543125
  C      0.704661    1.443129   -4.503630
  C      1.728539    1.424320   -5.639443
  H      2.646718    1.953794   -5.381054
  H      1.299916    1.930613   -6.503614
  S      2.252625   -0.188115   -6.271840
  C      3.466585   -1.590971   -2.889082
  N      4.652275   -1.143164   -3.259692
  C      2.752264   -2.292043   -3.728029
  H      1.778364   -2.489604   -3.512738
  H      2.948612   -2.208544   -4.716813
  H      5.146723   -0.512508   -2.633852
  H      4.783030   -1.007203   -4.253498
  F      3.562607   -0.444464   -5.631552
  O      2.344944   -0.033742   -7.696501
  C      2.804084    0.290698   -1.359243
  C      1.052550    0.695659   -3.214915
  H     -0.232483    1.032925   -4.884449
  H      0.511700    2.495794   -4.267966
  C      2.388380    1.093669   -2.597108
  H      3.763425    0.674718   -0.999889
  H      2.094788    0.461222   -0.545756
  O      1.266058   -1.159177   -5.805365
  H      3.167316    1.013242   -3.359430
  H      2.357690    2.149375   -2.310997
  H      1.039284   -0.368429   -3.449329
  H      0.250787    0.865605   -2.488283
  H      1.940472   -1.716529   -1.441161
  H      3.558569   -1.663433   -0.766371

 Total Charge           Charge          ....    0
 Multiplicity           Mult            ....    1
 Number of Electrons    NEL             ....  112
 Basis Dimension        Dim             ....  505

ORBITAL ENERGIES
----------------

  NO   OCC          E(Eh)            E(eV)
   0   2.0000     -89.179222     -2426.6900
   1   2.0000     -24.866835      -676.6610
   2   2.0000     -19.216711      -522.9133
   3   2.0000     -19.206640      -522.6393
   4   2.0000     -14.384672      -391.4268
   5   2.0000     -10.305378      -280.4236
   6   2.0000     -10.269064      -279.4354
   7   2.0000     -10.258727      -279.1541
   8   2.0000     -10.251154      -278.9481
   9   2.0000     -10.249255      -278.8964
  10   2.0000     -10.244416      -278.7647
  11   2.0000     -10.244256      -278.7604
  12   2.0000     -10.168693      -276.7042
  13   2.0000      -8.223226      -223.7654
  14   2.0000      -6.191409      -168.4768
  15   2.0000      -6.184523      -168.2894
  16   2.0000      -6.183980      -168.2747
  17   2.0000      -1.447512       -39.3888
  18   2.0000      -1.199255       -32.6334
  19   2.0000      -1.103767       -30.0350
  20   2.0000      -1.016441       -27.6588
  21   2.0000      -0.922483       -25.1020
  22   2.0000      -0.886057       -24.1108
  23   2.0000      -0.844181       -22.9713
  24   2.0000      -0.816234       -22.2109
  25   2.0000      -0.790198       -21.5024
  26   2.0000      -0.761206       -20.7135
  27   2.0000      -0.707755       -19.2590
  28   2.0000      -0.673768       -18.3341
  29   2.0000      -0.653406       -17.7801
  30   2.0000      -0.648351       -17.6425
  31   2.0000      -0.633646       -17.2424
  32   2.0000      -0.623421       -16.9641
  33   2.0000      -0.595514       -16.2048
  34   2.0000      -0.567110       -15.4318
  35   2.0000      -0.564312       -15.3557
  36   2.0000      -0.550815       -14.9885
  37   2.0000      -0.537271       -14.6199
  38   2.0000      -0.523101       -14.2343
  39   2.0000      -0.515137       -14.0176
  40   2.0000      -0.506260       -13.7760
  41   2.0000      -0.487376       -13.2622
  42   2.0000      -0.473158       -12.8753
  43   2.0000      -0.460362       -12.5271
  44   2.0000      -0.454584       -12.3699
  45   2.0000      -0.449860       -12.2413
  46   2.0000      -0.434540       -11.8244
  47   2.0000      -0.424412       -11.5488
  48   2.0000      -0.414900       -11.2900
  49   2.0000      -0.401930       -10.9371
  50   2.0000      -0.399711       -10.8767
  51   2.0000      -0.391964       -10.6659
  52   2.0000      -0.388416       -10.5693
  53   2.0000      -0.380769       -10.3613
  54   2.0000      -0.379028       -10.3139
  55   2.0000      -0.252057        -6.8588
  56   0.0000       0.048401         1.3171
  57   0.0000       0.064836         1.7643
  58   0.0000       0.065780         1.7900
  59   0.0000       0.074527         2.0280
  60   0.0000       0.091313         2.4848

MULLIKEN ATOMIC CHARGES
-----------------------
   0 C :   -0.225707
   1 C :   -0.166812
   2 C :   -0.335376
   3 H :    0.156652
   4 H :    0.183094
   5 S :    0.912317
   6 C :    0.164231
   7 N :   -0.407736
   8 C :   -0.382806
   9 H :    0.092647
  10 H :    0.067774
  11 H :    0.222678
  12 H :    0.218459
  13 F :   -0.155456
  14 O :   -0.414579
  15 C :   -0.265636
  16 C :   -0.242720
  17 H :    0.136916
  18 H :    0.117928
  19 C :   -0.169767
  20 H :    0.118870
  21 H :    0.111576
  22 O :   -0.433705
  23 H :    0.082437
  24 H :    0.105580
  25 H :    0.150984
  26 H :    0.107588
  27 H :    0.125767
  28 H :    0.124802
Sum of atomic charges:    0.0000000

LOEWDIN ATOMIC CHARGES
----------------------
   0 C :   -0.213836
   1 C :   -0.278996
   2 C :   -0.363968
   3 H :    0.136151
   4 H :    0.151295
   5 S :    0.570615
   6 C :   -0.385097
   7 N :   -0.006517
   8 C :   -0.268679
   9 H :    0.105115
  10 H :    0.090137
  11 H :    0.167170
  12 H :    0.160721
  13 F :    0.051978
  14 O :   -0.261423
  15 C :   -0.258855
  16 C :   -0.268782
  17 H :    0.147831
  18 H :    0.145052
  19 C :   -0.270156
  20 H :    0.132561
  21 H :    0.138374
  22 O :   -0.260797
  23 H :    0.127369
  24 H :    0.136048
  25 H :    0.147355
  26 H :    0.138633
  27 H :    0.149057
  28 H :    0.141644

  Mayer bond orders larger than 0.100000
B(  0-C ,  6-C ) :   0.9240 B(  0-C , 15-C ) :   0.9097 B(  0-C , 27-H ) :   0.9854
B(  0-C , 28-H ) :   0.9899 B(  1-C ,  2-C ) :   0.9256 B(  1-C , 16-C ) :   0.9496
B(  1-C , 17-H ) :   0.9762 B(  1-C , 18-H ) :   0.9598 B(  2-C ,  3-H ) :   0.9498
B(  2-C ,  4-H ) :   0.9540 B(  2-C ,  5-S ) :   0.9102 B(  5-S , 13-F ) :   1.0557
B(  5-S , 14-O ) :   1.9883 B(  5-S , 22-O ) :   1.8710 B(  6-C ,  7-N ) :   1.1140
B(  6-C ,  8-C ) :   1.7245 B(  7-N , 11-H ) :   0.9378 B(  7-N , 12-H ) :   0.9285
B(  8-C ,  9-H ) :   1.0173 B(  8-C , 10-H ) :   1.0365 B( 15-C , 19-C ) :   0.9303
B( 15-C , 20-H ) :   0.9965 B( 15-C , 21-H ) :   0.9749 B( 16-C , 19-C ) :   0.8974
B( 16-C , 25-H ) :   0.9785 B( 16-C , 26-H ) :   0.9728 B( 19-C , 23-H ) :   0.9813
B( 19-C , 24-H ) :   0.9768

FINAL SINGLE POINT ENERGY     -1017.639652822539

DIPOLE MOMENT
-------------
                                X             Y             Z
Electronic contribution:      3.47556      -4.21901     -18.24575
Nuclear contribution   :     -3.13969       6.14743      19.30799
                        -----------------------------------------
Total Dipole Moment    :      0.33587       1.92842       1.06224
                        -----------------------------------------
Magnitude (a.u.)       :      2.22710
Magnitude (Debye)      :      5.66084

Rotational constants in cm-1:     0.036460     0.018762     0.015014
Rotational constants in MHz :  1093.039020   562.475626   450.105862

                             ****ORCA TERMINATED NORMALLY****
TOTAL RUN TIME: 0 days 0 hours 1 minutes 19 seconds 967 msec
