                         Program Version 5.0.0 -  RELEASE  -
|  1> !CAM-B3LYP RIJCOSX def2-TZVP def2/J TightSCF xyzfile
|  2>
|  3> *xyzfile 0 1 D4.xyz
|  4>
|  5> %MaxCore 64000
|  6>
|  7> %pal nprocs 18
|  8> end
|  9>
| 10> %scf
| 11>   MaxIter 150
| 12> end
| 13>
| 14>
| 15>                          ****END OF INPUT****

CARTESIAN COORDINATES (ANGSTROEM)
---------------------------------
  C      2.916324   -1.242589   -1.543125
  C      0.704661    1.443129   -4.503630
  C      1.728539    1.424320   -5.639443
  H      2.646718    1.953794   -5.381054
  H      1.299916    1.930613   -6.503614
  S      2.252625   -0.188115   -6.271840
  C      3.466585   -1.590971   -2.889082
  N      4.652275   -1.143164   -3.259692
  C      2.752264   -2.292043   -3.728029
  H      1.778364   -2.489604   -3.512738
  H      2.948612   -2.208544   -4.716813
  H      5.146723   -0.512508   -2.633852
  H      4.783030   -1.007203   -4.253498
  O      3.562607   -0.444464   -5.631552
  F      2.344944   -0.033742   -7.696501
  C      2.804084    0.290698   -1.359243
  C      1.052550    0.695659   -3.214915
  H     -0.232483    1.032925   -4.884449
  H      0.511700    2.495794   -4.267966
  C      2.388380    1.093669   -2.597108
  H      3.763425    0.674718   -0.999889
  H      2.094788    0.461222   -0.545756
  O      1.266058   -1.159177   -5.805365
  H      3.167316    1.013242   -3.359430
  H      2.357690    2.149375   -2.310997
  H      1.039284   -0.368429   -3.449329
  H      0.250787    0.865605   -2.488283
  H      1.940472   -1.716529   -1.441161
  H      3.558569   -1.663433   -0.766371

 Total Charge           Charge          ....    0
 Multiplicity           Mult            ....    1
 Number of Electrons    NEL             ....  112
 Basis Dimension        Dim             ....  505

ORBITAL ENERGIES
----------------

  NO   OCC          E(Eh)            E(eV)
   0   2.0000     -89.187567     -2426.9171
   1   2.0000     -24.889117      -677.2673
   2   2.0000     -19.212718      -522.8046
   3   2.0000     -19.209202      -522.7090
   4   2.0000     -14.356360      -390.6564
   5   2.0000     -10.309226      -280.5283
   6   2.0000     -10.270646      -279.4785
   7   2.0000     -10.238523      -278.6044
   8   2.0000     -10.237864      -278.5864
   9   2.0000     -10.236726      -278.5555
  10   2.0000     -10.236562      -278.5510
  11   2.0000     -10.228846      -278.3410
  12   2.0000     -10.144364      -276.0422
  13   2.0000      -8.231393      -223.9876
  14   2.0000      -6.199143      -168.6873
  15   2.0000      -6.192665      -168.5110
  16   2.0000      -6.192543      -168.5077
  17   2.0000      -1.481385       -40.3105
  18   2.0000      -1.192339       -32.4452
  19   2.0000      -1.093303       -29.7503
  20   2.0000      -0.989753       -26.9325
  21   2.0000      -0.921212       -25.0674
  22   2.0000      -0.877769       -23.8853
  23   2.0000      -0.840391       -22.8682
  24   2.0000      -0.809036       -22.0150
  25   2.0000      -0.785379       -21.3713
  26   2.0000      -0.751034       -20.4367
  27   2.0000      -0.704980       -19.1835
  28   2.0000      -0.677626       -18.4391
  29   2.0000      -0.671530       -18.2733
  30   2.0000      -0.646392       -17.5892
  31   2.0000      -0.636977       -17.3330
  32   2.0000      -0.607134       -16.5210
  33   2.0000      -0.578550       -15.7432
  34   2.0000      -0.568780       -15.4773
  35   2.0000      -0.565168       -15.3790
  36   2.0000      -0.541602       -14.7377
  37   2.0000      -0.526341       -14.3225
  38   2.0000      -0.519607       -14.1392
  39   2.0000      -0.509446       -13.8627
  40   2.0000      -0.495426       -13.4812
  41   2.0000      -0.476671       -12.9709
  42   2.0000      -0.468022       -12.7355
  43   2.0000      -0.450338       -12.2543
  44   2.0000      -0.445377       -12.1193
  45   2.0000      -0.436329       -11.8731
  46   2.0000      -0.423328       -11.5193
  47   2.0000      -0.415316       -11.3013
  48   2.0000      -0.406166       -11.0523
  49   2.0000      -0.393495       -10.7075
  50   2.0000      -0.388414       -10.5693
  51   2.0000      -0.382974       -10.4213
  52   2.0000      -0.379410       -10.3243
  53   2.0000      -0.368388       -10.0243
  54   2.0000      -0.359458        -9.7813
  55   2.0000      -0.228452        -6.2165
  56   0.0000       0.053033         1.4431
  57   0.0000       0.062670         1.7053
  58   0.0000       0.072715         1.9787
  59   0.0000       0.088786         2.4160
  60   0.0000       0.093748         2.5510

MULLIKEN ATOMIC CHARGES
-----------------------
   0 C :   -0.227936
   1 C :   -0.181433
   2 C :   -0.320325
   3 H :    0.170214
   4 H :    0.158156
   5 S :    0.918229
   6 C :    0.175802
   7 N :   -0.413930
   8 C :   -0.387020
   9 H :    0.079005
  10 H :    0.088471
  11 H :    0.210108
  12 H :    0.241883
  13 O :   -0.484220
  14 F :   -0.098697
  15 C :   -0.263775
  16 C :   -0.218327
  17 H :    0.130876
  18 H :    0.120884
  19 C :   -0.184534
  20 H :    0.114997
  21 H :    0.104020
  22 O :   -0.426854
  23 H :    0.111608
  24 H :    0.096953
  25 H :    0.144489
  26 H :    0.104236
  27 H :    0.119161
  28 H :    0.117960
Sum of atomic charges:   -0.0000000

LOEWDIN ATOMIC CHARGES
----------------------
   0 C :   -0.216893
   1 C :   -0.276398
   2 C :   -0.365718
   3 H :    0.144363
   4 H :    0.137415
   5 S :    0.570391
   6 C :   -0.383684
   7 N :   -0.004478
   8 C :   -0.275809
   9 H :    0.099540
  10 H :    0.095197
  11 H :    0.161913
  12 H :    0.166884
  13 O :   -0.306788
  14 F :    0.105885
  15 C :   -0.260352
  16 C :   -0.265429
  17 H :    0.146027
  18 H :    0.146492
  19 C :   -0.269862
  20 H :    0.131994
  21 H :    0.135554
  22 O :   -0.256718
  23 H :    0.135368
  24 H :    0.133072
  25 H :    0.148347
  26 H :    0.137681
  27 H :    0.146588
  28 H :    0.139418

  Mayer bond orders larger than 0.100000
B(  0-C ,  6-C ) :   0.9355 B(  0-C , 15-C ) :   0.9116 B(  0-C , 27-H ) :   0.9858
B(  0-C , 28-H ) :   0.9914 B(  1-C ,  2-C ) :   0.9343 B(  1-C , 16-C ) :   0.9547
B(  1-C , 17-H ) :   0.9781 B(  1-C , 18-H ) :   0.9605 B(  2-C ,  3-H ) :   0.9449
B(  2-C ,  4-H ) :   0.9533 B(  2-C ,  5-S ) :   0.9145 B(  5-S , 13-O ) :   1.8021
B(  5-S , 14-F ) :   1.1602 B(  5-S , 22-O ) :   1.8966 B(  6-C ,  7-N ) :   1.1316
B(  6-C ,  8-C ) :   1.7269 B(  7-N , 11-H ) :   0.9421 B(  7-N , 12-H ) :   0.9137
B(  8-C ,  9-H ) :   1.0189 B(  8-C , 10-H ) :   1.0214 B( 15-C , 19-C ) :   0.9344
B( 15-C , 20-H ) :   0.9949 B( 15-C , 21-H ) :   0.9758 B( 16-C , 19-C ) :   0.8951
B( 16-C , 25-H ) :   0.9762 B( 16-C , 26-H ) :   0.9739 B( 19-C , 23-H ) :   0.9784
B( 19-C , 24-H ) :   0.9750

FINAL SINGLE POINT ENERGY     -1017.624836023925

DIPOLE MOMENT
-------------
                                X             Y             Z
Electronic contribution:      1.33563      -3.42226     -22.23451
Nuclear contribution   :     -1.74760       5.67788      21.66873
                        -----------------------------------------
Total Dipole Moment    :     -0.41198       2.25562      -0.56578
                        -----------------------------------------
Magnitude (a.u.)       :      2.36171
Magnitude (Debye)      :      6.00299

Rotational constants in cm-1:     0.036818     0.018222     0.014682
Rotational constants in MHz :  1103.783048   546.296792   440.157914

                             ****ORCA TERMINATED NORMALLY****
TOTAL RUN TIME: 0 days 0 hours 1 minutes 23 seconds 545 msec
