                         Program Version 5.0.0 -  RELEASE  -
|  1> !CAM-B3LYP RIJCOSX def2-TZVP def2/J TightSCF xyzfile
|  2>
|  3> *xyzfile 0 1 D5.xyz
|  4>
|  5> %MaxCore 64000
|  6>
|  7> %pal nprocs 18
|  8> end
|  9>
| 10> %scf
| 11>   MaxIter 150
| 12> end
| 13>
| 14>
| 15>                          ****END OF INPUT****

CARTESIAN COORDINATES (ANGSTROEM)
---------------------------------
  C      2.916324   -1.242589   -1.543125
  C      0.704661    1.443129   -4.503630
  C      1.728539    1.424320   -5.639443
  H      2.646718    1.953794   -5.381054
  H      1.299916    1.930613   -6.503614
  S      2.252625   -0.188115   -6.271840
  C      3.466585   -1.590971   -2.889082
  C      4.652275   -1.143164   -3.259692
  N      2.752264   -2.292043   -3.728029
  H      1.778364   -2.489604   -3.512738
  H      2.948612   -2.208544   -4.716813
  H      5.146723   -0.512508   -2.633852
  H      4.783030   -1.007203   -4.253498
  O      3.562607   -0.444464   -5.631552
  O      2.344944   -0.033742   -7.696501
  C      2.804084    0.290698   -1.359243
  C      1.052550    0.695659   -3.214915
  H     -0.232483    1.032925   -4.884449
  H      0.511700    2.495794   -4.267966
  C      2.388380    1.093669   -2.597108
  H      3.763425    0.674718   -0.999889
  H      2.094788    0.461222   -0.545756
  F      1.266058   -1.159177   -5.805365
  H      3.167316    1.013242   -3.359430
  H      2.357690    2.149375   -2.310997
  H      1.039284   -0.368429   -3.449329
  H      0.250787    0.865605   -2.488283
  H      1.940472   -1.716529   -1.441161
  H      3.558569   -1.663433   -0.766371

 Total Charge           Charge          ....    0
 Multiplicity           Mult            ....    1
 Number of Electrons    NEL             ....  112
 Basis Dimension        Dim             ....  505

ORBITAL ENERGIES
----------------

  NO   OCC          E(Eh)            E(eV)
   0   2.0000     -89.187349     -2426.9112
   1   2.0000     -24.882773      -677.0947
   2   2.0000     -19.223172      -523.0891
   3   2.0000     -19.209160      -522.7078
   4   2.0000     -14.376352      -391.2004
   5   2.0000     -10.309803      -280.5440
   6   2.0000     -10.279721      -279.7254
   7   2.0000     -10.256620      -279.0968
   8   2.0000     -10.249874      -278.9133
   9   2.0000     -10.243469      -278.7390
  10   2.0000     -10.241983      -278.6985
  11   2.0000     -10.240502      -278.6582
  12   2.0000     -10.150330      -276.2045
  13   2.0000      -8.231586      -223.9928
  14   2.0000      -6.199609      -168.6999
  15   2.0000      -6.192757      -168.5135
  16   2.0000      -6.192493      -168.5063
  17   2.0000      -1.467718       -39.9386
  18   2.0000      -1.203003       -32.7354
  19   2.0000      -1.103942       -30.0398
  20   2.0000      -1.009844       -27.4793
  21   2.0000      -0.930199       -25.3120
  22   2.0000      -0.885288       -24.0899
  23   2.0000      -0.845990       -23.0206
  24   2.0000      -0.808581       -22.0026
  25   2.0000      -0.786155       -21.3924
  26   2.0000      -0.760260       -20.6877
  27   2.0000      -0.718464       -19.5504
  28   2.0000      -0.681469       -18.5437
  29   2.0000      -0.672034       -18.2870
  30   2.0000      -0.655872       -17.8472
  31   2.0000      -0.632299       -17.2057
  32   2.0000      -0.618700       -16.8357
  33   2.0000      -0.583630       -15.8814
  34   2.0000      -0.571778       -15.5589
  35   2.0000      -0.567727       -15.4486
  36   2.0000      -0.549352       -14.9486
  37   2.0000      -0.542775       -14.7697
  38   2.0000      -0.527571       -14.3559
  39   2.0000      -0.519249       -14.1295
  40   2.0000      -0.502577       -13.6758
  41   2.0000      -0.487406       -13.2630
  42   2.0000      -0.473574       -12.8866
  43   2.0000      -0.457110       -12.4386
  44   2.0000      -0.455826       -12.4037
  45   2.0000      -0.444272       -12.0892
  46   2.0000      -0.437564       -11.9067
  47   2.0000      -0.420413       -11.4400
  48   2.0000      -0.416549       -11.3349
  49   2.0000      -0.406866       -11.0714
  50   2.0000      -0.399051       -10.8587
  51   2.0000      -0.393454       -10.7064
  52   2.0000      -0.386832       -10.5262
  53   2.0000      -0.375488       -10.2175
  54   2.0000      -0.371954       -10.1214
  55   2.0000      -0.233557        -6.3554
  56   0.0000       0.039705         1.0804
  57   0.0000       0.065669         1.7870
  58   0.0000       0.069024         1.8783
  59   0.0000       0.080959         2.2030
  60   0.0000       0.091172         2.4809

MULLIKEN ATOMIC CHARGES
-----------------------
   0 C :   -0.236231
   1 C :   -0.224642
   2 C :   -0.302205
   3 H :    0.179429
   4 H :    0.176822
   5 S :    0.896438
   6 C :    0.153735
   7 C :   -0.384771
   8 N :   -0.400752
   9 H :    0.206485
  10 H :    0.215634
  11 H :    0.074065
  12 H :    0.120704
  13 O :   -0.459918
  14 O :   -0.405136
  15 C :   -0.245998
  16 C :   -0.217260
  17 H :    0.135420
  18 H :    0.126597
  19 C :   -0.166722
  20 H :    0.123674
  21 H :    0.099591
  22 F :   -0.128266
  23 H :    0.140956
  24 H :    0.103733
  25 H :    0.068290
  26 H :    0.116213
  27 H :    0.099408
  28 H :    0.134708
Sum of atomic charges:    0.0000000

LOEWDIN ATOMIC CHARGES
----------------------
   0 C :   -0.215764
   1 C :   -0.287272
   2 C :   -0.355781
   3 H :    0.151191
   4 H :    0.146541
   5 S :    0.563269
   6 C :   -0.384372
   7 C :   -0.276388
   8 N :    0.005682
   9 H :    0.154527
  10 H :    0.157253
  11 H :    0.101324
  12 H :    0.102145
  13 O :   -0.288576
  14 O :   -0.255630
  15 C :   -0.251012
  16 C :   -0.271341
  17 H :    0.140748
  18 H :    0.148306
  19 C :   -0.267258
  20 H :    0.139322
  21 H :    0.133309
  22 F :    0.079104
  23 H :    0.144347
  24 H :    0.135549
  25 H :    0.127299
  26 H :    0.140221
  27 H :    0.132440
  28 H :    0.150819

  Mayer bond orders larger than 0.100000
B(  0-C ,  6-C ) :   0.9058 B(  0-C , 15-C ) :   0.9333 B(  0-C , 27-H ) :   0.9895
B(  0-C , 28-H ) :   0.9864 B(  1-C ,  2-C ) :   0.9358 B(  1-C , 16-C ) :   0.9346
B(  1-C , 17-H ) :   0.9888 B(  1-C , 18-H ) :   0.9606 B(  2-C ,  3-H ) :   0.9447
B(  2-C ,  4-H ) :   0.9527 B(  2-C ,  5-S ) :   0.9144 B(  5-S , 13-O ) :   1.7952
B(  5-S , 14-O ) :   1.9969 B(  5-S , 22-F ) :   1.0943 B(  6-C ,  7-C ) :   1.7254
B(  6-C ,  8-N ) :   1.1550 B(  7-C , 11-H ) :   1.0107 B(  7-C , 12-H ) :   0.9999
B(  8-N ,  9-H ) :   0.9356 B(  8-N , 10-H ) :   0.9169 B( 15-C , 19-C ) :   0.9555
B( 15-C , 20-H ) :   0.9834 B( 15-C , 21-H ) :   0.9798 B( 16-C , 19-C ) :   0.8830
B( 16-C , 25-H ) :   0.9885 B( 16-C , 26-H ) :   0.9740 B( 19-C , 23-H ) :   0.9733
B( 19-C , 24-H ) :   0.9723

FINAL SINGLE POINT ENERGY     -1017.627237758889

DIPOLE MOMENT
-------------
                                X             Y             Z
Electronic contribution:     -1.75523      -6.05107     -19.01559
Nuclear contribution   :     -0.26930       7.11259      19.56706
                        -----------------------------------------
Total Dipole Moment    :     -2.02454       1.06152       0.55147
                        -----------------------------------------
Magnitude (a.u.)       :      2.35153
Magnitude (Debye)      :      5.97711

Rotational constants in cm-1:     0.036519     0.018683     0.015073
Rotational constants in MHz :  1094.801738   560.111127   451.890222

                             ****ORCA TERMINATED NORMALLY****
TOTAL RUN TIME: 0 days 0 hours 1 minutes 20 seconds 524 msec
