                         Program Version 5.0.0 -  RELEASE  -
|  1> !CAM-B3LYP RIJCOSX def2-TZVP def2/J TightSCF xyzfile
|  2>
|  3> *xyzfile 0 1 D6.xyz
|  4>
|  5> %MaxCore 64000
|  6>
|  7> %pal nprocs 18
|  8> end
|  9>
| 10> %scf
| 11>   MaxIter 150
| 12> end
| 13>
| 14>
| 15>                          ****END OF INPUT****

CARTESIAN COORDINATES (ANGSTROEM)
---------------------------------
  C      2.916324   -1.242589   -1.543125
  C      0.704661    1.443129   -4.503630
  C      1.728539    1.424320   -5.639443
  H      2.646718    1.953794   -5.381054
  H      1.299916    1.930613   -6.503614
  S      2.252625   -0.188115   -6.271840
  C      3.466585   -1.590971   -2.889082
  N      4.652275   -1.143164   -3.259692
  C      2.752264   -2.292043   -3.728029
  H      1.778364   -2.489604   -3.512738
  H      2.948612   -2.208544   -4.716813
  H      5.146723   -0.512508   -2.633852
  H      4.783030   -1.007203   -4.253498
  O      3.562607   -0.444464   -5.631552
  O      2.344944   -0.033742   -7.696501
  C      2.804084    0.290698   -1.359243
  C      1.052550    0.695659   -3.214915
  H     -0.232483    1.032925   -4.884449
  H      0.511700    2.495794   -4.267966
  C      2.388380    1.093669   -2.597108
  H      3.763425    0.674718   -0.999889
  H      2.094788    0.461222   -0.545756
  F      1.266058   -1.159177   -5.805365
  H      3.167316    1.013242   -3.359430
  H      2.357690    2.149375   -2.310997
  H      1.039284   -0.368429   -3.449329
  H      0.250787    0.865605   -2.488283
  H      1.940472   -1.716529   -1.441161
  H      3.558569   -1.663433   -0.766371

 Total Charge           Charge          ....    0
 Multiplicity           Mult            ....    1
 Number of Electrons    NEL             ....  112
 Basis Dimension        Dim             ....  505

ORBITAL ENERGIES
----------------

  NO   OCC          E(Eh)            E(eV)
   0   2.0000     -89.184422     -2426.8315
   1   2.0000     -24.871956      -676.8003
   2   2.0000     -19.219441      -522.9876
   3   2.0000     -19.205314      -522.6032
   4   2.0000     -14.366403      -390.9297
   5   2.0000     -10.306954      -280.4665
   6   2.0000     -10.275986      -279.6238
   7   2.0000     -10.252121      -278.9744
   8   2.0000     -10.250525      -278.9310
   9   2.0000     -10.247580      -278.8508
  10   2.0000     -10.245447      -278.7928
  11   2.0000     -10.239701      -278.6364
  12   2.0000     -10.160805      -276.4895
  13   2.0000      -8.228161      -223.8996
  14   2.0000      -6.196059      -168.6033
  15   2.0000      -6.189560      -168.4265
  16   2.0000      -6.189158      -168.4156
  17   2.0000      -1.456727       -39.6395
  18   2.0000      -1.198790       -32.6207
  19   2.0000      -1.100194       -29.9378
  20   2.0000      -1.000563       -27.2267
  21   2.0000      -0.926886       -25.2218
  22   2.0000      -0.883704       -24.0468
  23   2.0000      -0.840443       -22.8696
  24   2.0000      -0.812338       -22.1048
  25   2.0000      -0.787997       -21.4425
  26   2.0000      -0.758348       -20.6357
  27   2.0000      -0.710475       -19.3330
  28   2.0000      -0.675774       -18.3887
  29   2.0000      -0.661290       -17.9946
  30   2.0000      -0.651244       -17.7213
  31   2.0000      -0.634574       -17.2676
  32   2.0000      -0.614266       -16.7150
  33   2.0000      -0.580588       -15.7986
  34   2.0000      -0.568258       -15.4631
  35   2.0000      -0.565162       -15.3788
  36   2.0000      -0.546618       -14.8742
  37   2.0000      -0.536528       -14.5997
  38   2.0000      -0.528109       -14.3706
  39   2.0000      -0.512834       -13.9549
  40   2.0000      -0.507619       -13.8130
  41   2.0000      -0.484833       -13.1930
  42   2.0000      -0.474015       -12.8986
  43   2.0000      -0.462892       -12.5959
  44   2.0000      -0.452718       -12.3191
  45   2.0000      -0.449866       -12.2415
  46   2.0000      -0.432264       -11.7625
  47   2.0000      -0.426329       -11.6010
  48   2.0000      -0.415916       -11.3177
  49   2.0000      -0.401335       -10.9209
  50   2.0000      -0.397029       -10.8037
  51   2.0000      -0.388952       -10.5839
  52   2.0000      -0.388324       -10.5668
  53   2.0000      -0.371441       -10.1074
  54   2.0000      -0.371124       -10.0988
  55   2.0000      -0.242998        -6.6123
  56   0.0000       0.044133         1.2009
  57   0.0000       0.063949         1.7402
  58   0.0000       0.072643         1.9767
  59   0.0000       0.084780         2.3070
  60   0.0000       0.092354         2.5131

MULLIKEN ATOMIC CHARGES
-----------------------
   0 C :   -0.223563
   1 C :   -0.225659
   2 C :   -0.301536
   3 H :    0.171556
   4 H :    0.176880
   5 S :    0.926148
   6 C :    0.188566
   7 N :   -0.405762
   8 C :   -0.431694
   9 H :    0.084147
  10 H :    0.082119
  11 H :    0.213358
  12 H :    0.250589
  13 O :   -0.488842
  14 O :   -0.409013
  15 C :   -0.270704
  16 C :   -0.220547
  17 H :    0.136371
  18 H :    0.123269
  19 C :   -0.176904
  20 H :    0.119777
  21 H :    0.107443
  22 F :   -0.115856
  23 H :    0.117153
  24 H :    0.103867
  25 H :    0.114180
  26 H :    0.111294
  27 H :    0.119541
  28 H :    0.123822
Sum of atomic charges:   -0.0000000

LOEWDIN ATOMIC CHARGES
----------------------
   0 C :   -0.214661
   1 C :   -0.287537
   2 C :   -0.356688
   3 H :    0.148519
   4 H :    0.146243
   5 S :    0.577211
   6 C :   -0.377202
   7 N :    0.003901
   8 C :   -0.292900
   9 H :    0.096237
  10 H :    0.090337
  11 H :    0.163984
  12 H :    0.169792
  13 O :   -0.306727
  14 O :   -0.257135
  15 C :   -0.259128
  16 C :   -0.269935
  17 H :    0.141736
  18 H :    0.146881
  19 C :   -0.268465
  20 H :    0.133545
  21 H :    0.136561
  22 F :    0.095882
  23 H :    0.137169
  24 H :    0.135520
  25 H :    0.139538
  26 H :    0.139192
  27 H :    0.146429
  28 H :    0.141703

  Mayer bond orders larger than 0.100000
B(  0-C ,  6-C ) :   0.9318 B(  0-C , 15-C ) :   0.9107 B(  0-C , 27-H ) :   0.9868
B(  0-C , 28-H ) :   0.9890 B(  1-C ,  2-C ) :   0.9349 B(  1-C , 16-C ) :   0.9300
B(  1-C , 17-H ) :   0.9880 B(  1-C , 18-H ) :   0.9606 B(  2-C ,  3-H ) :   0.9464
B(  2-C ,  4-H ) :   0.9540 B(  2-C ,  5-S ) :   0.9168 B(  5-S , 13-O ) :   1.7753
B(  5-S , 14-O ) :   1.9953 B(  5-S , 22-F ) :   1.1190 B(  6-C ,  7-N ) :   1.1536
B(  6-C ,  8-C ) :   1.7080 B(  7-N , 11-H ) :   0.9397 B(  7-N , 12-H ) :   0.9085
B(  8-C ,  9-H ) :   1.0225 B(  8-C , 10-H ) :   1.0170 B( 15-C , 19-C ) :   0.9305
B( 15-C , 20-H ) :   0.9946 B( 15-C , 21-H ) :   0.9760 B( 16-C , 19-C ) :   0.8769
B( 16-C , 25-H ) :   0.9929 B( 16-C , 26-H ) :   0.9737 B( 19-C , 23-H ) :   0.9789
B( 19-C , 24-H ) :   0.9745

FINAL SINGLE POINT ENERGY     -1017.637028783431

DIPOLE MOMENT
-------------
                                X             Y             Z
Electronic contribution:     -0.45149      -5.31716     -18.66314
Nuclear contribution   :     -0.51418       6.96452      19.50670
                        -----------------------------------------
Total Dipole Moment    :     -0.96566       1.64736       0.84356
                        -----------------------------------------
Magnitude (a.u.)       :      2.08756
Magnitude (Debye)      :      5.30615

Rotational constants in cm-1:     0.036455     0.018603     0.015008
Rotational constants in MHz :  1092.895336   557.693628   449.926016

                             ****ORCA TERMINATED NORMALLY****
TOTAL RUN TIME: 0 days 0 hours 1 minutes 11 seconds 167 msec
