                         Program Version 5.0.0 -  RELEASE  -
|  1> !wB97X-D3 RIJCOSX def2-SVPD def2/J TightSCF CPCM(Water)
|  2> *xyz -1 1
|  3> C          1.69499        1.54179       -5.57045
|  4> S          1.78029       -0.03313       -6.42874
|  5> O          2.56929        0.21366       -7.60736
|  6> O          0.41688       -0.46297       -6.61859
|  7> O          2.50513       -0.93326       -5.48257
|  8> H          1.18489        2.25500       -6.18367
|  9> H          2.68564        1.89081       -5.36624
| 10> H          1.16361        1.41804       -4.65000
| 11> *
| 12> %MaxCore 64000
| 13>
| 14> %pal nprocs 8
| 15> end
| 16>
| 17> %scf
| 18>   MaxIter 150
| 19> end
| 20>
| 21>
| 22>                          ****END OF INPUT****

CARTESIAN COORDINATES (ANGSTROEM)
---------------------------------
  C      1.694990    1.541790   -5.570450
  S      1.780290   -0.033130   -6.428740
  O      2.569290    0.213660   -7.607360
  O      0.416880   -0.462970   -6.618590
  O      2.505130   -0.933260   -5.482570
  H      1.184890    2.255000   -6.183670
  H      2.685640    1.890810   -5.366240
  H      1.163610    1.418040   -4.650000

 Total Charge           Charge          ....   -1
 Multiplicity           Mult            ....    1
 Number of Electrons    NEL             ....   50
 Basis Dimension        Dim             ....  140

ORBITAL ENERGIES
----------------

  NO   OCC          E(Eh)            E(eV)
   0   2.0000     -89.156069     -2426.0600
   1   2.0000     -19.210634      -522.7479
   2   2.0000     -19.209532      -522.7179
   3   2.0000     -19.195467      -522.3352
   4   2.0000     -10.289309      -279.9863
   5   2.0000      -8.230294      -223.9577
   6   2.0000      -6.190085      -168.4408
   7   2.0000      -6.190054      -168.4399
   8   2.0000      -6.188614      -168.4008
   9   2.0000      -1.232012       -33.5248
  10   2.0000      -1.094186       -29.7743
  11   2.0000      -1.062731       -28.9184
  12   2.0000      -0.847812       -23.0701
  13   2.0000      -0.665915       -18.1205
  14   2.0000      -0.585280       -15.9263
  15   2.0000      -0.563597       -15.3363
  16   2.0000      -0.562328       -15.3017
  17   2.0000      -0.510832       -13.9004
  18   2.0000      -0.508254       -13.8303
  19   2.0000      -0.439980       -11.9725
  20   2.0000      -0.436489       -11.8775
  21   2.0000      -0.396348       -10.7852
  22   2.0000      -0.384189       -10.4543
  23   2.0000      -0.376329       -10.2404
  24   2.0000      -0.346515        -9.4292
  25   0.0000       0.079746         2.1700
  26   0.0000       0.103080         2.8050
  27   0.0000       0.103940         2.8283
  28   0.0000       0.104434         2.8418
  29   0.0000       0.153977         4.1899

MULLIKEN ATOMIC CHARGES
-----------------------
   0 C :    0.373051
   1 S :    1.066724
   2 O :   -0.780207
   3 O :   -0.782019
   4 O :   -0.847113
   5 H :   -0.010386
   6 H :   -0.007759
   7 H :   -0.012290
Sum of atomic charges:   -1.0000000

LOEWDIN ATOMIC CHARGES
----------------------
   0 C :    0.078986
   1 S :    0.831248
   2 O :   -0.606513
   3 O :   -0.605507
   4 O :   -0.646667
   5 H :   -0.017168
   6 H :   -0.017031
   7 H :   -0.017348

  Mayer bond orders larger than 0.100000
B(  0-C ,  1-S ) :   0.9734 B(  0-C ,  5-H ) :   0.9320 B(  0-C ,  6-H ) :   0.9313
B(  0-C ,  7-H ) :   0.9341 B(  1-S ,  2-O ) :   1.3460 B(  1-S ,  3-O ) :   1.3437
B(  1-S ,  4-O ) :   1.2788 B(  1-S ,  6-H ) :   0.1069 B(  1-S ,  7-H ) :   0.1067

Dispersion correction           -0.001521635
FINAL SINGLE POINT ENERGY      -663.517634891102

DIPOLE MOMENT
-------------
                                X             Y             Z
Electronic contribution:      0.03389      -3.04120      -1.92125
Nuclear contribution   :     -0.31747       5.08000       2.69095
                        -----------------------------------------
Total Dipole Moment    :     -0.28358       2.03879       0.76970
                        -----------------------------------------
Magnitude (a.u.)       :      2.19762
Magnitude (Debye)      :      5.58591

Rotational constants in cm-1:     0.172246     0.157831     0.154490
Rotational constants in MHz :  5163.797750  4731.657963  4631.481993

                             ****ORCA TERMINATED NORMALLY****
TOTAL RUN TIME: 0 days 0 hours 0 minutes 11 seconds 125 msec
