                         Program Version 5.0.0 -  RELEASE  -
|  1> !wB97X-D3 RIJCOSX def2-SVPD def2/J TightSCF CPCM(Water)
|  2> *xyz 1 1
|  3> C          1.96337       -1.74915       -1.89689
|  4> N          2.73849       -2.01517       -3.09711
|  5> C          4.04974       -2.15472       -3.15204
|  6> N          4.65821       -1.98629       -4.31866
|  7> N          4.76423       -2.45444       -2.05049
|  8> H          4.28736       -2.77626       -1.21750
|  9> H          5.75082       -2.65835       -2.12599
| 10> H          2.34518       -1.69027       -3.97145
| 11> H          4.10900       -1.59268       -5.07176
| 12> H          5.64910       -2.15646       -4.42724
| 13> H          0.92556       -1.68522       -2.14942
| 14> H          2.28268       -0.82430       -1.46378
| 15> H          2.11118       -2.54207       -1.19381
| 16> *
| 17> %MaxCore 64000
| 18>
| 19> %pal nprocs 8
| 20> end
| 21>
| 22> %scf
| 23>   MaxIter 150
| 24> end
| 25>
| 26>
| 27>                          ****END OF INPUT****

CARTESIAN COORDINATES (ANGSTROEM)
---------------------------------
  C      1.963370   -1.749150   -1.896890
  N      2.738490   -2.015170   -3.097110
  C      4.049740   -2.154720   -3.152040
  N      4.658210   -1.986290   -4.318660
  N      4.764230   -2.454440   -2.050490
  H      4.287360   -2.776260   -1.217500
  H      5.750820   -2.658350   -2.125990
  H      2.345180   -1.690270   -3.971450
  H      4.109000   -1.592680   -5.071760
  H      5.649100   -2.156460   -4.427240
  H      0.925560   -1.685220   -2.149420
  H      2.282680   -0.824300   -1.463780
  H      2.111180   -2.542070   -1.193810

 Total Charge           Charge          ....    1
 Multiplicity           Mult            ....    1
 Number of Electrons    NEL             ....   40
 Basis Dimension        Dim             ....  164

ORBITAL ENERGIES
----------------

  NO   OCC          E(Eh)            E(eV)
   0   2.0000     -14.491397      -394.3310
   1   2.0000     -14.485334      -394.1660
   2   2.0000     -14.484689      -394.1484
   3   2.0000     -10.456013      -284.5226
   4   2.0000     -10.329883      -281.0904
   5   2.0000      -1.155611       -31.4458
   6   2.0000      -1.041381       -28.3374
   7   2.0000      -1.024991       -27.8914
   8   2.0000      -0.848013       -23.0756
   9   2.0000      -0.757254       -20.6059
  10   2.0000      -0.713509       -19.4156
  11   2.0000      -0.685371       -18.6499
  12   2.0000      -0.618438       -16.8285
  13   2.0000      -0.611011       -16.6265
  14   2.0000      -0.588110       -16.0033
  15   2.0000      -0.575842       -15.6695
  16   2.0000      -0.523272       -14.2390
  17   2.0000      -0.510118       -13.8810
  18   2.0000      -0.399907       -10.8820
  19   2.0000      -0.379191       -10.3183
  20   0.0000       0.081174         2.2089
  21   0.0000       0.086547         2.3551
  22   0.0000       0.116607         3.1730
  23   0.0000       0.131637         3.5820
  24   0.0000       0.154965         4.2168

MULLIKEN ATOMIC CHARGES
-----------------------
   0 C :    0.941817
   1 N :   -0.592798
   2 C :    1.239369
   3 N :   -0.171940
   4 N :   -0.101589
   5 H :   -0.003716
   6 H :   -0.038335
   7 H :   -0.090244
   8 H :    0.076899
   9 H :   -0.015107
  10 H :   -0.185837
  11 H :   -0.025247
  12 H :   -0.033272
Sum of atomic charges:    1.0000000

LOEWDIN ATOMIC CHARGES
----------------------
   0 C :    0.244423
   1 N :    0.010117
   2 C :   -0.036722
   3 N :    0.262706
   4 N :    0.275291
   5 H :    0.027978
   6 H :    0.043927
   7 H :    0.062922
   8 H :    0.046476
   9 H :    0.050732
  10 H :    0.009078
  11 H :    0.005205
  12 H :   -0.002132

  Mayer bond orders larger than 0.100000
B(  0-C ,  1-N ) :   0.8845 B(  0-C , 10-H ) :   0.8619 B(  0-C , 11-H ) :   0.8658
B(  0-C , 12-H ) :   0.8574 B(  1-N ,  2-C ) :   1.0645 B(  1-N ,  3-N ) :   0.2482
B(  1-N ,  4-N ) :   0.1947 B(  1-N ,  7-H ) :   1.2316 B(  1-N , 10-H ) :   0.1658
B(  1-N , 11-H ) :   0.1062 B(  1-N , 12-H ) :   0.1459 B(  2-C ,  3-N ) :   0.8767
B(  2-C ,  4-N ) :   0.9806 B(  2-C ,  5-H ) :  -0.1187 B(  2-C ,  6-H ) :  -0.1082
B(  2-C ,  7-H ) :  -0.1542 B(  2-C ,  9-H ) :  -0.1297 B(  3-N ,  4-N ) :   0.1413
B(  3-N ,  8-H ) :   1.1040 B(  3-N ,  9-H ) :   1.2437 B(  4-N ,  5-H ) :   1.0969
B(  4-N ,  6-H ) :   1.2075 B(  5-H ,  6-H ) :  -0.1807 B(  8-H ,  9-H ) :  -0.1643

Dispersion correction           -0.002387251
FINAL SINGLE POINT ENERGY      -244.954339894102

DIPOLE MOMENT
-------------
                                X             Y             Z
Electronic contribution:      2.20492      -0.56437      -1.94863
Nuclear contribution   :     -1.59972       0.59064       1.48941
                        -----------------------------------------
Total Dipole Moment    :      0.60520       0.02627      -0.45922
                        -----------------------------------------
Magnitude (a.u.)       :      0.76016
Magnitude (Debye)      :      1.93217

Rotational constants in cm-1:     0.309236     0.134358     0.096189
Rotational constants in MHz :  9270.657746  4027.948155  2883.671905

                             ****ORCA TERMINATED NORMALLY****
TOTAL RUN TIME: 0 days 0 hours 0 minutes 14 seconds 812 msec
