                         Program Version 5.0.0 -  RELEASE  -
|  1> !wB97X-D3 RIJCOSX def2-SVPD def2/J TightSCF CPCM(Water)
|  2> *xyz 0 1
|  3> C          1.69499        1.54179       -5.57045
|  4> S          1.78029       -0.03313       -6.42874
|  5> F          2.56929        0.21366       -7.60736
|  6> O          0.41688       -0.46297       -6.61859
|  7> O          2.50513       -0.93326       -5.48257
|  8> H          1.18489        2.25500       -6.18367
|  9> H          2.68564        1.89081       -5.36624
| 10> H          1.16361        1.41804       -4.65000
| 11> *
| 12> %MaxCore 64000
| 13>
| 14> %pal nprocs 8
| 15> end
| 16>
| 17> %scf
| 18>   MaxIter 150
| 19> end
| 20>
| 21>
| 22>                          ****END OF INPUT****

CARTESIAN COORDINATES (ANGSTROEM)
---------------------------------
  C      1.694990    1.541790   -5.570450
  S      1.780290   -0.033130   -6.428740
  F      2.569290    0.213660   -7.607360
  O      0.416880   -0.462970   -6.618590
  O      2.505130   -0.933260   -5.482570
  H      1.184890    2.255000   -6.183670
  H      2.685640    1.890810   -5.366240
  H      1.163610    1.418040   -4.650000

 Total Charge           Charge          ....    0
 Multiplicity           Mult            ....    1
 Number of Electrons    NEL             ....   50
 Basis Dimension        Dim             ....  140

ORBITAL ENERGIES
----------------

  NO   OCC          E(Eh)            E(eV)
   0   2.0000     -89.245396     -2428.4907
   1   2.0000     -24.920415      -678.1190
   2   2.0000     -19.272122      -524.4211
   3   2.0000     -19.255829      -523.9778
   4   2.0000     -10.330753      -281.1141
   5   2.0000      -8.319473      -226.3844
   6   2.0000      -6.283166      -170.9736
   7   2.0000      -6.277107      -170.8088
   8   2.0000      -6.275181      -170.7563
   9   2.0000      -1.494842       -40.6767
  10   2.0000      -1.234184       -33.5838
  11   2.0000      -1.125857       -30.6361
  12   2.0000      -0.905072       -24.6283
  13   2.0000      -0.823624       -22.4120
  14   2.0000      -0.705911       -19.2088
  15   2.0000      -0.696407       -18.9502
  16   2.0000      -0.667577       -18.1657
  17   2.0000      -0.581122       -15.8131
  18   2.0000      -0.573524       -15.6064
  19   2.0000      -0.550612       -14.9829
  20   2.0000      -0.536867       -14.6089
  21   2.0000      -0.495689       -13.4884
  22   2.0000      -0.444988       -12.1087
  23   2.0000      -0.430169       -11.7055
  24   2.0000      -0.415185       -11.2978
  25   0.0000       0.067670         1.8414
  26   0.0000       0.099189         2.6991
  27   0.0000       0.099507         2.7077
  28   0.0000       0.102507         2.7894
  29   0.0000       0.126140         3.4324

MULLIKEN ATOMIC CHARGES
-----------------------
   0 C :    0.274130
   1 S :    1.293604
   2 F :   -0.361978
   3 O :   -0.666876
   4 O :   -0.733883
   5 H :    0.066809
   6 H :    0.068577
   7 H :    0.059618
Sum of atomic charges:   -0.0000000

LOEWDIN ATOMIC CHARGES
----------------------
   0 C :    0.140062
   1 S :    1.120244
   2 F :   -0.239769
   3 O :   -0.498324
   4 O :   -0.537371
   5 H :    0.002171
   6 H :    0.002639
   7 H :    0.010348

  Mayer bond orders larger than 0.100000
B(  0-C ,  1-S ) :   1.0224 B(  0-C ,  5-H ) :   0.9276 B(  0-C ,  6-H ) :   0.9266
B(  0-C ,  7-H ) :   0.9275 B(  1-S ,  2-F ) :   0.7248 B(  1-S ,  3-O ) :   1.5208
B(  1-S ,  4-O ) :   1.4603 B(  1-S ,  7-H ) :   0.1050

Dispersion correction           -0.001531723
FINAL SINGLE POINT ENERGY      -687.910169845863

DIPOLE MOMENT
-------------
                                X             Y             Z
Electronic contribution:      1.49677      -2.70240      -4.24147
Nuclear contribution   :     -1.09446       4.91008       3.93848
                        -----------------------------------------
Total Dipole Moment    :      0.40230       2.20768      -0.30300
                        -----------------------------------------
Magnitude (a.u.)       :      2.26440
Magnitude (Debye)      :      5.75564

Rotational constants in cm-1:     0.163326     0.155515     0.146672
Rotational constants in MHz :  4896.387829  4662.220576  4397.127261

                             ****ORCA TERMINATED NORMALLY****
TOTAL RUN TIME: 0 days 0 hours 0 minutes 11 seconds 725 msec
