                         Program Version 5.0.0 -  RELEASE  -
|  1> !wB97X-D3 RIJCOSX def2-SVPD def2/J TightSCF CPCM(Water)
|  2> *xyz 0 1
|  3> C          1.96337       -1.74915       -1.89689
|  4> C          2.73849       -2.01517       -3.09711
|  5> C          4.04974       -2.15472       -3.15204
|  6> N          4.65821       -1.98629       -4.31866
|  7> N          4.76423       -2.45444       -2.05049
|  8> H          4.28736       -2.77626       -1.21750
|  9> H          5.75082       -2.65835       -2.12599
| 10> H          2.34518       -1.69027       -3.97145
| 11> H          4.10900       -1.59268       -5.07176
| 12> H          5.64910       -2.15646       -4.42724
| 13> H          0.92556       -1.68522       -2.14942
| 14> H          2.28268       -0.82430       -1.46378
| 15> H          2.11118       -2.54207       -1.19381
| 16> *
| 17> %MaxCore 64000
| 18>
| 19> %pal nprocs 8
| 20> end
| 21>
| 22> %scf
| 23>   MaxIter 150
| 24> end
| 25>
| 26>
| 27>                          ****END OF INPUT****

CARTESIAN COORDINATES (ANGSTROEM)
---------------------------------
  C      1.963370   -1.749150   -1.896890
  C      2.738490   -2.015170   -3.097110
  C      4.049740   -2.154720   -3.152040
  N      4.658210   -1.986290   -4.318660
  N      4.764230   -2.454440   -2.050490
  H      4.287360   -2.776260   -1.217500
  H      5.750820   -2.658350   -2.125990
  H      2.345180   -1.690270   -3.971450
  H      4.109000   -1.592680   -5.071760
  H      5.649100   -2.156460   -4.427240
  H      0.925560   -1.685220   -2.149420
  H      2.282680   -0.824300   -1.463780
  H      2.111180   -2.542070   -1.193810

 Total Charge           Charge          ....    0
 Multiplicity           Mult            ....    1
 Number of Electrons    NEL             ....   40
 Basis Dimension        Dim             ....  164

ORBITAL ENERGIES
----------------

  NO   OCC          E(Eh)            E(eV)
   0   2.0000     -14.433509      -392.7557
   1   2.0000     -14.429125      -392.6364
   2   2.0000     -10.336458      -281.2693
   3   2.0000     -10.258010      -279.1346
   4   2.0000     -10.212018      -277.8831
   5   2.0000      -1.066671       -29.0256
   6   2.0000      -0.972107       -26.4524
   7   2.0000      -0.867136       -23.5960
   8   2.0000      -0.765208       -20.8224
   9   2.0000      -0.685535       -18.6544
  10   2.0000      -0.639817       -17.4103
  11   2.0000      -0.608177       -16.5493
  12   2.0000      -0.564971       -15.3737
  13   2.0000      -0.525074       -14.2880
  14   2.0000      -0.518392       -14.1062
  15   2.0000      -0.481433       -13.1005
  16   2.0000      -0.458632       -12.4800
  17   2.0000      -0.435944       -11.8626
  18   2.0000      -0.358335        -9.7508
  19   2.0000      -0.250546        -6.8177
  20   0.0000       0.096125         2.6157
  21   0.0000       0.122778         3.3410
  22   0.0000       0.134170         3.6509
  23   0.0000       0.146734         3.9928
  24   0.0000       0.163208         4.4411

MULLIKEN ATOMIC CHARGES
-----------------------
   0 C :    0.775771
   1 C :   -0.608066
   2 C :    0.702479
   3 N :   -0.054589
   4 N :   -0.105736
   5 H :   -0.004625
   6 H :   -0.176675
   7 H :   -0.287888
   8 H :    0.055169
   9 H :   -0.114891
  10 H :   -0.036410
  11 H :   -0.111133
  12 H :   -0.033407
Sum of atomic charges:   -0.0000000

LOEWDIN ATOMIC CHARGES
----------------------
   0 C :    0.072241
   1 C :   -0.106175
   2 C :   -0.244531
   3 N :    0.175944
   4 N :    0.200511
   5 H :    0.002471
   6 H :    0.006352
   7 H :   -0.063196
   8 H :    0.014761
   9 H :    0.011355
  10 H :   -0.019369
  11 H :   -0.021404
  12 H :   -0.028961

  Mayer bond orders larger than 0.100000
B(  0-C ,  1-C ) :   1.2006 B(  0-C ,  7-H ) :   0.1821 B(  0-C , 10-H ) :   0.7577
B(  0-C , 11-H ) :   0.7895 B(  0-C , 12-H ) :   0.7252 B(  1-C ,  2-C ) :   1.7087
B(  1-C ,  3-N ) :   0.2665 B(  1-C ,  4-N ) :   0.2549 B(  1-C ,  7-H ) :   0.9857
B(  1-C , 10-H ) :   0.2603 B(  1-C , 11-H ) :   0.1341 B(  1-C , 12-H ) :   0.2755
B(  2-C ,  3-N ) :   0.9811 B(  2-C ,  4-N ) :   0.9373 B(  2-C ,  6-H ) :  -0.1627
B(  2-C ,  7-H ) :   0.2262 B(  3-N ,  8-H ) :   1.0993 B(  3-N ,  9-H ) :   1.2392
B(  4-N ,  5-H ) :   1.0561 B(  4-N ,  6-H ) :   1.3147 B(  5-H ,  6-H ) :  -0.1813
B(  8-H ,  9-H ) :  -0.1609

Dispersion correction           -0.002389699
FINAL SINGLE POINT ENERGY      -228.400333346987

DIPOLE MOMENT
-------------
                                X             Y             Z
Electronic contribution:      3.09859      -0.66723      -1.58408
Nuclear contribution   :     -1.78367       0.60166       1.44982
                        -----------------------------------------
Total Dipole Moment    :      1.31492      -0.06557      -0.13426
                        -----------------------------------------
Magnitude (a.u.)       :      1.32338
Magnitude (Debye)      :      3.36377

Rotational constants in cm-1:     0.313991     0.135452     0.097139
Rotational constants in MHz :  9413.212964  4060.745953  2912.144668

                             ****ORCA TERMINATED NORMALLY****
TOTAL RUN TIME: 0 days 0 hours 0 minutes 16 seconds 268 msec
