                         Program Version 5.0.0 -  RELEASE  -
|  1> !wB97X-D3 RIJCOSX def2-SVPD def2/J TightSCF CPCM(Water)
|  2> *xyz 0 1
|  3> C          1.69499        1.54179       -5.57045
|  4> S          1.78029       -0.03313       -6.42874
|  5> O          2.56929        0.21366       -7.60736
|  6> F          0.41688       -0.46297       -6.61859
|  7> O          2.50513       -0.93326       -5.48257
|  8> H          1.18489        2.25500       -6.18367
|  9> H          2.68564        1.89081       -5.36624
| 10> H          1.16361        1.41804       -4.65000
| 11> *
| 12> %MaxCore 64000
| 13>
| 14> %pal nprocs 8
| 15> end
| 16>
| 17> %scf
| 18>   MaxIter 150
| 19> end
| 20>
| 21>
| 22>                          ****END OF INPUT****

CARTESIAN COORDINATES (ANGSTROEM)
---------------------------------
  C      1.694990    1.541790   -5.570450
  S      1.780290   -0.033130   -6.428740
  O      2.569290    0.213660   -7.607360
  F      0.416880   -0.462970   -6.618590
  O      2.505130   -0.933260   -5.482570
  H      1.184890    2.255000   -6.183670
  H      2.685640    1.890810   -5.366240
  H      1.163610    1.418040   -4.650000

 Total Charge           Charge          ....    0
 Multiplicity           Mult            ....    1
 Number of Electrons    NEL             ....   50
 Basis Dimension        Dim             ....  140

ORBITAL ENERGIES
----------------

  NO   OCC          E(Eh)            E(eV)
   0   2.0000     -89.245267     -2428.4872
   1   2.0000     -24.920921      -678.1327
   2   2.0000     -19.271067      -524.3924
   3   2.0000     -19.255942      -523.9808
   4   2.0000     -10.331030      -281.1216
   5   2.0000      -8.319387      -226.3820
   6   2.0000      -6.283050      -170.9705
   7   2.0000      -6.277028      -170.8066
   8   2.0000      -6.275100      -170.7541
   9   2.0000      -1.493852       -40.6498
  10   2.0000      -1.235240       -33.6126
  11   2.0000      -1.125625       -30.6298
  12   2.0000      -0.904887       -24.6232
  13   2.0000      -0.823881       -22.4189
  14   2.0000      -0.705742       -19.2042
  15   2.0000      -0.696000       -18.9391
  16   2.0000      -0.667263       -18.1571
  17   2.0000      -0.581355       -15.8195
  18   2.0000      -0.573702       -15.6112
  19   2.0000      -0.551431       -15.0052
  20   2.0000      -0.536887       -14.6094
  21   2.0000      -0.495909       -13.4944
  22   2.0000      -0.444346       -12.0913
  23   2.0000      -0.430173       -11.7056
  24   2.0000      -0.414771       -11.2865
  25   0.0000       0.067306         1.8315
  26   0.0000       0.099125         2.6973
  27   0.0000       0.099431         2.7057
  28   0.0000       0.102411         2.7867
  29   0.0000       0.124393         3.3849

MULLIKEN ATOMIC CHARGES
-----------------------
   0 C :    0.274983
   1 S :    1.292992
   2 O :   -0.665139
   3 F :   -0.364934
   4 O :   -0.732777
   5 H :    0.067035
   6 H :    0.063819
   7 H :    0.064021
Sum of atomic charges:    0.0000000

LOEWDIN ATOMIC CHARGES
----------------------
   0 C :    0.140009
   1 S :    1.120576
   2 O :   -0.499135
   3 F :   -0.239447
   4 O :   -0.537100
   5 H :    0.002227
   6 H :    0.010784
   7 H :    0.002086

  Mayer bond orders larger than 0.100000
B(  0-C ,  1-S ) :   1.0219 B(  0-C ,  5-H ) :   0.9273 B(  0-C ,  6-H ) :   0.9248
B(  0-C ,  7-H ) :   0.9298 B(  1-S ,  2-O ) :   1.5238 B(  1-S ,  3-F ) :   0.7207
B(  1-S ,  4-O ) :   1.4597 B(  1-S ,  6-H ) :   0.1053

Dispersion correction           -0.001531061
FINAL SINGLE POINT ENERGY      -687.909412479042

DIPOLE MOMENT
-------------
                                X             Y             Z
Electronic contribution:     -2.53097      -3.96909      -2.38742
Nuclear contribution   :      1.05593       5.58608       2.95063
                        -----------------------------------------
Total Dipole Moment    :     -1.47503       1.61699       0.56321
                        -----------------------------------------
Magnitude (a.u.)       :      2.26000
Magnitude (Debye)      :      5.74446

Rotational constants in cm-1:     0.163930     0.155251     0.146268
Rotational constants in MHz :  4914.487830  4654.318941  4385.000376

                             ****ORCA TERMINATED NORMALLY****
TOTAL RUN TIME: 0 days 0 hours 0 minutes 11 seconds 694 msec
