                         Program Version 5.0.0 -  RELEASE  -
|  1> !wB97X-D3 RIJCOSX def2-SVPD def2/J TightSCF CPCM(Water)
|  2> *xyz 0 1
|  3> C          1.96337       -1.74915       -1.89689
|  4> N          2.73849       -2.01517       -3.09711
|  5> C          4.04974       -2.15472       -3.15204
|  6> C          4.65821       -1.98629       -4.31866
|  7> N          4.76423       -2.45444       -2.05049
|  8> H          4.28736       -2.77626       -1.21750
|  9> H          5.75082       -2.65835       -2.12599
| 10> H          2.34518       -1.69027       -3.97145
| 11> H          4.10900       -1.59268       -5.07176
| 12> H          5.64910       -2.15646       -4.42724
| 13> H          0.92556       -1.68522       -2.14942
| 14> H          2.28268       -0.82430       -1.46378
| 15> H          2.11118       -2.54207       -1.19381
| 16> *
| 17> %MaxCore 64000
| 18>
| 19> %pal nprocs 8
| 20> end
| 21>
| 22> %scf
| 23>   MaxIter 150
| 24> end
| 25>
| 26>
| 27>                          ****END OF INPUT****

CARTESIAN COORDINATES (ANGSTROEM)
---------------------------------
  C      1.963370   -1.749150   -1.896890
  N      2.738490   -2.015170   -3.097110
  C      4.049740   -2.154720   -3.152040
  C      4.658210   -1.986290   -4.318660
  N      4.764230   -2.454440   -2.050490
  H      4.287360   -2.776260   -1.217500
  H      5.750820   -2.658350   -2.125990
  H      2.345180   -1.690270   -3.971450
  H      4.109000   -1.592680   -5.071760
  H      5.649100   -2.156460   -4.427240
  H      0.925560   -1.685220   -2.149420
  H      2.282680   -0.824300   -1.463780
  H      2.111180   -2.542070   -1.193810

 Total Charge           Charge          ....    0
 Multiplicity           Mult            ....    1
 Number of Electrons    NEL             ....   40
 Basis Dimension        Dim             ....  164

ORBITAL ENERGIES
----------------

  NO   OCC          E(Eh)            E(eV)
   0   2.0000     -14.436112      -392.8266
   1   2.0000     -14.434964      -392.7953
   2   2.0000     -10.344462      -281.4871
   3   2.0000     -10.308325      -280.5038
   4   2.0000     -10.208250      -277.7806
   5   2.0000      -1.078848       -29.3569
   6   2.0000      -0.987277       -26.8652
   7   2.0000      -0.853844       -23.2343
   8   2.0000      -0.773555       -21.0495
   9   2.0000      -0.701978       -19.1018
  10   2.0000      -0.635815       -17.3014
  11   2.0000      -0.593889       -16.1606
  12   2.0000      -0.569357       -15.4930
  13   2.0000      -0.552142       -15.0246
  14   2.0000      -0.493362       -13.4251
  15   2.0000      -0.490918       -13.3586
  16   2.0000      -0.487348       -13.2614
  17   2.0000      -0.463354       -12.6085
  18   2.0000      -0.349819        -9.5191
  19   2.0000      -0.260666        -7.0931
  20   0.0000       0.093157         2.5349
  21   0.0000       0.120556         3.2805
  22   0.0000       0.138470         3.7680
  23   0.0000       0.141959         3.8629
  24   0.0000       0.158070         4.3013

MULLIKEN ATOMIC CHARGES
-----------------------
   0 C :    0.962332
   1 N :   -0.545481
   2 C :    0.486880
   3 C :    0.310612
   4 N :    0.015642
   5 H :   -0.091905
   6 H :   -0.056477
   7 H :   -0.119703
   8 H :   -0.220792
   9 H :   -0.387041
  10 H :   -0.221054
  11 H :   -0.049718
  12 H :   -0.083296
Sum of atomic charges:    0.0000000

LOEWDIN ATOMIC CHARGES
----------------------
   0 C :    0.209009
   1 N :   -0.053910
   2 C :   -0.259111
   3 C :    0.105429
   4 N :    0.199709
   5 H :   -0.004784
   6 H :    0.016430
   7 H :    0.036464
   8 H :   -0.108648
   9 H :   -0.108863
  10 H :   -0.003829
  11 H :   -0.011887
  12 H :   -0.016009

  Mayer bond orders larger than 0.100000
B(  0-C ,  1-N ) :   0.9050 B(  0-C , 10-H ) :   0.8564 B(  0-C , 11-H ) :   0.8534
B(  0-C , 12-H ) :   0.8498 B(  1-N ,  2-C ) :   1.1243 B(  1-N ,  3-C ) :   0.2144
B(  1-N ,  4-N ) :   0.1329 B(  1-N ,  7-H ) :   1.1832 B(  1-N , 10-H ) :   0.1625
B(  1-N , 11-H ) :   0.1084 B(  1-N , 12-H ) :   0.1640 B(  2-C ,  3-C ) :   1.5619
B(  2-C ,  4-N ) :   1.0237 B(  2-C ,  7-H ) :  -0.1136 B(  2-C ,  8-H ) :   0.1218
B(  2-C ,  9-H ) :   0.1302 B(  3-C ,  4-N ) :   0.1793 B(  3-C ,  8-H ) :   0.8513
B(  3-C ,  9-H ) :   0.8684 B(  4-N ,  5-H ) :   1.0912 B(  4-N ,  6-H ) :   1.1720
B(  5-H ,  6-H ) :  -0.1813

Dispersion correction           -0.002400261
FINAL SINGLE POINT ENERGY      -228.392385412445

DIPOLE MOMENT
-------------
                                X             Y             Z
Electronic contribution:      0.66594      -0.66303       0.02553
Nuclear contribution   :     -1.39484       0.60751       1.20240
                        -----------------------------------------
Total Dipole Moment    :     -0.72889      -0.05552       1.22793
                        -----------------------------------------
Magnitude (a.u.)       :      1.42905
Magnitude (Debye)      :      3.63235

Rotational constants in cm-1:     0.316419     0.139940     0.099730
Rotational constants in MHz :  9485.991536  4195.289338  2989.818216

                             ****ORCA TERMINATED NORMALLY****
TOTAL RUN TIME: 0 days 0 hours 0 minutes 16 seconds 394 msec
