                         Program Version 5.0.0 -  RELEASE  -
|  1> !wB97X-D3 RIJCOSX def2-SVPD def2/J TightSCF CPCM(Water)
|  2> *xyz 0 1
|  3> C          1.69499        1.54179       -5.57045
|  4> S          1.78029       -0.03313       -6.42874
|  5> O          2.56929        0.21366       -7.60736
|  6> O          0.41688       -0.46297       -6.61859
|  7> F          2.50513       -0.93326       -5.48257
|  8> H          1.18489        2.25500       -6.18367
|  9> H          2.68564        1.89081       -5.36624
| 10> H          1.16361        1.41804       -4.65000
| 11> *
| 12> %MaxCore 64000
| 13>
| 14> %pal nprocs 8
| 15> end
| 16>
| 17> %scf
| 18>   MaxIter 150
| 19> end
| 20>
| 21>
| 22>                          ****END OF INPUT****

CARTESIAN COORDINATES (ANGSTROEM)
---------------------------------
  C      1.694990    1.541790   -5.570450
  S      1.780290   -0.033130   -6.428740
  O      2.569290    0.213660   -7.607360
  O      0.416880   -0.462970   -6.618590
  F      2.505130   -0.933260   -5.482570
  H      1.184890    2.255000   -6.183670
  H      2.685640    1.890810   -5.366240
  H      1.163610    1.418040   -4.650000

 Total Charge           Charge          ....    0
 Multiplicity           Mult            ....    1
 Number of Electrons    NEL             ....   50
 Basis Dimension        Dim             ....  140

ORBITAL ENERGIES
----------------

  NO   OCC          E(Eh)            E(eV)
   0   2.0000     -89.241728     -2428.3909
   1   2.0000     -24.896495      -677.4681
   2   2.0000     -19.271333      -524.3996
   3   2.0000     -19.270200      -524.3688
   4   2.0000     -10.329481      -281.0795
   5   2.0000      -8.315771      -226.2836
   6   2.0000      -6.279250      -170.8671
   7   2.0000      -6.273566      -170.7124
   8   2.0000      -6.271736      -170.6626
   9   2.0000      -1.452483       -39.5241
  10   2.0000      -1.244930       -33.8763
  11   2.0000      -1.151374       -31.3305
  12   2.0000      -0.901130       -24.5210
  13   2.0000      -0.804442       -21.8900
  14   2.0000      -0.687405       -18.7053
  15   2.0000      -0.668833       -18.1999
  16   2.0000      -0.663714       -18.0606
  17   2.0000      -0.582197       -15.8424
  18   2.0000      -0.576088       -15.6762
  19   2.0000      -0.548984       -14.9386
  20   2.0000      -0.541362       -14.7312
  21   2.0000      -0.500758       -13.6263
  22   2.0000      -0.451929       -12.2976
  23   2.0000      -0.440786       -11.9944
  24   2.0000      -0.431962       -11.7543
  25   0.0000       0.069021         1.8781
  26   0.0000       0.099676         2.7123
  27   0.0000       0.100138         2.7249
  28   0.0000       0.102354         2.7852
  29   0.0000       0.122011         3.3201

MULLIKEN ATOMIC CHARGES
-----------------------
   0 C :    0.273735
   1 S :    1.292638
   2 O :   -0.680446
   3 O :   -0.681440
   4 F :   -0.394151
   5 H :    0.060753
   6 H :    0.066821
   7 H :    0.062090
Sum of atomic charges:    0.0000000

LOEWDIN ATOMIC CHARGES
----------------------
   0 C :    0.139591
   1 S :    1.113609
   2 O :   -0.499388
   3 O :   -0.498353
   4 F :   -0.269669
   5 H :    0.010256
   6 H :    0.002224
   7 H :    0.001730

  Mayer bond orders larger than 0.100000
B(  0-C ,  1-S ) :   1.0216 B(  0-C ,  5-H ) :   0.9227 B(  0-C ,  6-H ) :   0.9286
B(  0-C ,  7-H ) :   0.9322 B(  1-S ,  2-O ) :   1.5196 B(  1-S ,  3-O ) :   1.5165
B(  1-S ,  4-F ) :   0.6605

Dispersion correction           -0.001529323
FINAL SINGLE POINT ENERGY      -687.930051204018

DIPOLE MOMENT
-------------
                                X             Y             Z
Electronic contribution:      1.40371      -4.88864      -0.22137
Nuclear contribution   :     -1.03036       6.05593       1.81567
                        -----------------------------------------
Total Dipole Moment    :      0.37335       1.16729       1.59431
                        -----------------------------------------
Magnitude (a.u.)       :      2.01091
Magnitude (Debye)      :      5.11133

Rotational constants in cm-1:     0.164224     0.152173     0.148737
Rotational constants in MHz :  4923.310232  4562.031098  4459.033187

                             ****ORCA TERMINATED NORMALLY****
TOTAL RUN TIME: 0 days 0 hours 0 minutes 11 seconds 555 msec
