                         Program Version 5.0.0 -  RELEASE  -
|  1> !wB97X-D3 RIJCOSX def2-SVPD def2/J TightSCF CPCM(Water)
|  2> *xyz 0 1
|  3> C          1.96337       -1.74915       -1.89689
|  4> N          2.73849       -2.01517       -3.09711
|  5> C          4.04974       -2.15472       -3.15204
|  6> N          4.65821       -1.98629       -4.31866
|  7> C          4.76423       -2.45444       -2.05049
|  8> H          4.28736       -2.77626       -1.21750
|  9> H          5.75082       -2.65835       -2.12599
| 10> H          2.34518       -1.69027       -3.97145
| 11> H          4.10900       -1.59268       -5.07176
| 12> H          5.64910       -2.15646       -4.42724
| 13> H          0.92556       -1.68522       -2.14942
| 14> H          2.28268       -0.82430       -1.46378
| 15> H          2.11118       -2.54207       -1.19381
| 16> *
| 17> %MaxCore 64000
| 18>
| 19> %pal nprocs 8
| 20> end
| 21>
| 22> %scf
| 23>   MaxIter 150
| 24> end
| 25>
| 26>
| 27>                          ****END OF INPUT****

CARTESIAN COORDINATES (ANGSTROEM)
---------------------------------
  C      1.963370   -1.749150   -1.896890
  N      2.738490   -2.015170   -3.097110
  C      4.049740   -2.154720   -3.152040
  N      4.658210   -1.986290   -4.318660
  C      4.764230   -2.454440   -2.050490
  H      4.287360   -2.776260   -1.217500
  H      5.750820   -2.658350   -2.125990
  H      2.345180   -1.690270   -3.971450
  H      4.109000   -1.592680   -5.071760
  H      5.649100   -2.156460   -4.427240
  H      0.925560   -1.685220   -2.149420
  H      2.282680   -0.824300   -1.463780
  H      2.111180   -2.542070   -1.193810

 Total Charge           Charge          ....    0
 Multiplicity           Mult            ....    1
 Number of Electrons    NEL             ....   40
 Basis Dimension        Dim             ....  164

ORBITAL ENERGIES
----------------

  NO   OCC          E(Eh)            E(eV)
   0   2.0000     -14.439870      -392.9288
   1   2.0000     -14.434387      -392.7796
   2   2.0000     -10.345983      -281.5285
   3   2.0000     -10.308626      -280.5120
   4   2.0000     -10.210672      -277.8465
   5   2.0000      -1.084054       -29.4986
   6   2.0000      -0.990426       -26.9509
   7   2.0000      -0.830221       -22.5915
   8   2.0000      -0.805379       -21.9155
   9   2.0000      -0.671247       -18.2656
  10   2.0000      -0.647632       -17.6230
  11   2.0000      -0.624607       -16.9964
  12   2.0000      -0.553242       -15.0545
  13   2.0000      -0.544741       -14.8232
  14   2.0000      -0.514405       -13.9977
  15   2.0000      -0.480897       -13.0859
  16   2.0000      -0.477768       -13.0007
  17   2.0000      -0.467129       -12.7112
  18   2.0000      -0.344390        -9.3713
  19   2.0000      -0.265173        -7.2157
  20   0.0000       0.096005         2.6124
  21   0.0000       0.121080         3.2947
  22   0.0000       0.127698         3.4748
  23   0.0000       0.142459         3.8765
  24   0.0000       0.163978         4.4621

MULLIKEN ATOMIC CHARGES
-----------------------
   0 C :    0.995022
   1 N :   -0.521394
   2 C :    0.464793
   3 N :   -0.004470
   4 C :    0.346178
   5 H :   -0.125130
   6 H :   -0.545015
   7 H :   -0.220765
   8 H :   -0.042121
   9 H :   -0.045151
  10 H :   -0.239411
  11 H :   -0.085471
  12 H :    0.022935
Sum of atomic charges:   -0.0000000

LOEWDIN ATOMIC CHARGES
----------------------
   0 C :    0.211634
   1 N :   -0.052796
   2 C :   -0.261170
   3 N :    0.187051
   4 C :    0.119921
   5 H :   -0.126335
   6 H :   -0.116841
   7 H :    0.033233
   8 H :    0.011869
   9 H :    0.023152
  10 H :   -0.003363
  11 H :   -0.010892
  12 H :   -0.015464

  Mayer bond orders larger than 0.100000
B(  0-C ,  1-N ) :   0.8884 B(  0-C ,  7-H ) :  -0.1033 B(  0-C , 10-H ) :   0.8856
B(  0-C , 11-H ) :   0.8454 B(  0-C , 12-H ) :   0.8421 B(  1-N ,  2-C ) :   1.0463
B(  1-N ,  3-N ) :   0.1435 B(  1-N ,  4-C ) :   0.3078 B(  1-N ,  7-H ) :   1.2762
B(  1-N , 10-H ) :   0.1513 B(  1-N , 11-H ) :   0.1372 B(  2-C ,  3-N ) :   0.9802
B(  2-C ,  4-C ) :   1.7331 B(  2-C ,  5-H ) :   0.2385 B(  2-C ,  6-H ) :   0.1392
B(  2-C ,  7-H ) :  -0.1358 B(  3-N ,  4-C ) :   0.1995 B(  3-N ,  8-H ) :   1.1215
B(  3-N ,  9-H ) :   1.2207 B(  4-C ,  5-H ) :   0.7015 B(  4-C ,  6-H ) :   0.9569
B(  8-H ,  9-H ) :  -0.1585

Dispersion correction           -0.002385497
FINAL SINGLE POINT ENERGY      -228.394336147208

DIPOLE MOMENT
-------------
                                X             Y             Z
Electronic contribution:      0.52262       0.00520      -2.96138
Nuclear contribution   :     -1.37336       0.51269       1.66180
                        -----------------------------------------
Total Dipole Moment    :     -0.85074       0.51788      -1.29958
                        -----------------------------------------
Magnitude (a.u.)       :      1.63734
Magnitude (Debye)      :      4.16179

Rotational constants in cm-1:     0.331915     0.135033     0.098638
Rotational constants in MHz :  9950.555862  4048.179255  2957.099162

                             ****ORCA TERMINATED NORMALLY****
TOTAL RUN TIME: 0 days 0 hours 0 minutes 15 seconds 321 msec
