                         Program Version 5.0.0 -  RELEASE  -
|  1> !wB97X-D3 RIJCOSX def2-SVPD def2/J TightSCF CPCM(Water) xyzfile
|  2>
|  3> *xyzfile 0 1 D1.xyz
|  4>
|  5> %MaxCore 64000
|  6>
|  7> %pal nprocs 18
|  8> end
|  9>
| 10> %scf
| 11>   MaxIter 150
| 12> end
| 13>
| 14>
| 15>                          ****END OF INPUT****

CARTESIAN COORDINATES (ANGSTROEM)
---------------------------------
  C      1.963365   -1.749150   -1.896887
  C      2.738490   -2.015170   -3.097113
  C      0.611877    1.657634   -4.500288
  C      1.694991    1.541794   -5.570447
  H      2.697326    1.734659   -5.183996
  H      1.506656    2.272239   -6.358076
  S      1.780287   -0.033128   -6.428739
  C      4.049736   -2.154717   -3.152044
  N      4.658206   -1.986293   -4.318655
  N      4.764231   -2.454435   -2.050491
  H      4.287363   -2.776259   -1.217496
  H      5.750825   -2.658351   -2.125988
  H      2.345176   -1.690274   -3.971447
  H      4.109004   -1.592677   -5.071760
  H      5.649095   -2.156462   -4.427237
  F      2.569287    0.213657   -7.607360
  O      0.416880   -0.462969   -6.618595
  C      2.088520   -0.300912   -1.415204
  H      2.231272   -2.451616   -1.102643
  H      0.930249   -1.977801   -2.155438
  C      0.680356    0.655418   -3.348038
  H     -0.356865    1.549231   -4.991128
  H      0.650228    2.675438   -4.096000
  C      1.968993    0.733582   -2.535654
  H      3.051356   -0.168602   -0.911868
  H      1.316501   -0.136231   -0.657252
  O      2.505129   -0.933263   -5.482570
  H      2.824195    0.624726   -3.208464
  H      2.058919    1.730331   -2.093112
  H      0.542252   -0.344731   -3.766662
  H     -0.174219    0.829692   -2.685182

 Total Charge           Charge          ....    0
 Multiplicity           Mult            ....    1
 Number of Electrons    NEL             ....  120
 Basis Dimension        Dim             ....  432

ORBITAL ENERGIES
----------------

  NO   OCC          E(Eh)            E(eV)
   0   2.0000     -89.244167     -2428.4572
   1   2.0000     -24.920822      -678.1301
   2   2.0000     -19.273140      -524.4488
   3   2.0000     -19.257481      -524.0227
   4   2.0000     -14.426275      -392.5589
   5   2.0000     -14.414139      -392.2287
   6   2.0000     -10.338509      -281.3251
   7   2.0000     -10.326105      -280.9876
   8   2.0000     -10.302779      -280.3529
   9   2.0000     -10.280492      -279.7464
  10   2.0000     -10.272312      -279.5238
  11   2.0000     -10.268252      -279.4133
  12   2.0000     -10.260554      -279.2039
  13   2.0000     -10.190255      -277.2909
  14   2.0000      -8.317581      -226.3329
  15   2.0000      -6.281214      -170.9205
  16   2.0000      -6.275406      -170.7625
  17   2.0000      -6.273182      -170.7019
  18   2.0000      -1.494160       -40.6582
  19   2.0000      -1.236241       -33.6398
  20   2.0000      -1.131956       -30.8021
  21   2.0000      -1.057181       -28.7674
  22   2.0000      -0.963485       -26.2177
  23   2.0000      -0.939633       -25.5687
  24   2.0000      -0.905270       -24.6336
  25   2.0000      -0.864665       -23.5287
  26   2.0000      -0.833719       -22.6867
  27   2.0000      -0.799487       -21.7552
  28   2.0000      -0.762836       -20.7578
  29   2.0000      -0.725732       -19.7482
  30   2.0000      -0.707725       -19.2582
  31   2.0000      -0.692014       -18.8306
  32   2.0000      -0.686769       -18.6879
  33   2.0000      -0.656577       -17.8664
  34   2.0000      -0.653075       -17.7711
  35   2.0000      -0.633447       -17.2370
  36   2.0000      -0.602982       -16.4080
  37   2.0000      -0.591677       -16.1004
  38   2.0000      -0.587837       -15.9959
  39   2.0000      -0.569562       -15.4986
  40   2.0000      -0.562632       -15.3100
  41   2.0000      -0.548939       -14.9374
  42   2.0000      -0.538440       -14.6517
  43   2.0000      -0.526299       -14.3213
  44   2.0000      -0.511281       -13.9127
  45   2.0000      -0.501043       -13.6341
  46   2.0000      -0.483819       -13.1654
  47   2.0000      -0.475824       -12.9478
  48   2.0000      -0.473707       -12.8902
  49   2.0000      -0.460629       -12.5344
  50   2.0000      -0.449420       -12.2293
  51   2.0000      -0.432470       -11.7681
  52   2.0000      -0.424791       -11.5592
  53   2.0000      -0.419828       -11.4241
  54   2.0000      -0.418844       -11.3973
  55   2.0000      -0.405960       -11.0467
  56   2.0000      -0.396315       -10.7843
  57   2.0000      -0.385191       -10.4816
  58   2.0000      -0.349058        -9.4983
  59   2.0000      -0.239767        -6.5244
  60   0.0000       0.071381         1.9424
  61   0.0000       0.092325         2.5123
  62   0.0000       0.093970         2.5570
  63   0.0000       0.096001         2.6123
  64   0.0000       0.111731         3.0404

MULLIKEN ATOMIC CHARGES
-----------------------
   0 C :    0.235129
   1 C :    0.104210
   2 C :    0.337168
   3 C :   -0.033920
   4 H :    0.207606
   5 H :    0.035655
   6 S :    1.680222
   7 C :    0.619611
   8 N :    0.083500
   9 N :   -0.106857
  10 H :    0.023155
  11 H :   -0.184311
  12 H :   -0.480330
  13 H :   -0.159295
  14 H :   -0.184359
  15 F :   -0.476372
  16 O :   -0.741740
  17 C :    0.545042
  18 H :   -0.324608
  19 H :    0.130812
  20 C :   -0.021180
  21 H :    0.021337
  22 H :    0.018744
  23 C :   -0.148317
  24 H :   -0.027354
  25 H :    0.041289
  26 O :   -0.780106
  27 H :    0.023367
  28 H :   -0.183307
  29 H :   -0.097487
  30 H :   -0.157303
Sum of atomic charges:   -0.0000000

LOEWDIN ATOMIC CHARGES
----------------------
   0 C :   -0.058803
   1 C :   -0.057658
   2 C :   -0.016032
   3 C :   -0.026990
   4 H :    0.033452
   5 H :    0.034796
   6 S :    1.206074
   7 C :   -0.215155
   8 N :    0.197142
   9 N :    0.197048
  10 H :   -0.001502
  11 H :    0.002324
  12 H :   -0.143168
  13 H :   -0.080545
  14 H :    0.009195
  15 F :   -0.228853
  16 O :   -0.474893
  17 C :   -0.026081
  18 H :    0.002350
  19 H :    0.007099
  20 C :   -0.020497
  21 H :    0.029516
  22 H :    0.046096
  23 C :   -0.027986
  24 H :    0.015375
  25 H :    0.016424
  26 O :   -0.495491
  27 H :    0.007904
  28 H :    0.026541
  29 H :    0.006287
  30 H :    0.036031

  Mayer bond orders larger than 0.100000
B(  0-C ,  1-C ) :   1.1039 B(  0-C ,  7-C ) :   0.1247 B(  0-C , 12-H ) :   0.4018
B(  0-C , 17-C ) :   1.1149 B(  0-C , 18-H ) :   0.8557 B(  0-C , 19-H ) :   0.6717
B(  0-C , 24-H ) :   0.1266 B(  0-C , 25-H ) :   0.1801 B(  1-C ,  7-C ) :   1.7101
B(  1-C ,  8-N ) :   0.2279 B(  1-C ,  9-N ) :   0.2553 B(  1-C , 10-H ) :  -0.1097
B(  1-C , 18-H ) :   0.2243 B(  1-C , 19-H ) :   0.2604 B(  1-C , 26-O ) :  -0.1342
B(  2-C ,  3-C ) :   1.3095 B(  2-C ,  4-H ) :   0.1006 B(  2-C ,  5-H ) :   0.1829
B(  2-C , 20-C ) :   1.2400 B(  2-C , 21-H ) :   0.7032 B(  2-C , 22-H ) :   0.8095
B(  3-C ,  4-H ) :   0.8602 B(  3-C ,  5-H ) :   0.8407 B(  3-C ,  6-S ) :   1.0648
B(  3-C , 21-H ) :   0.1115 B(  3-C , 22-H ) :   0.1182 B(  6-S , 15-F ) :   0.6021
B(  6-S , 16-O ) :   1.4282 B(  6-S , 26-O ) :   1.2797 B(  7-C ,  8-N ) :   0.8207
B(  7-C ,  9-N ) :   0.9172 B(  7-C , 11-H ) :  -0.1731 B(  7-C , 12-H ) :   0.6347
B(  7-C , 14-H ) :  -0.2473 B(  8-N , 13-H ) :   1.1335 B(  8-N , 14-H ) :   1.3972
B(  9-N , 10-H ) :   1.0324 B(  9-N , 11-H ) :   1.3562 B( 10-H , 11-H ) :  -0.2114
B( 12-H , 23-C ) :   0.1034 B( 12-H , 26-O ) :   0.1878 B( 12-H , 28-H ) :  -0.1077
B( 13-H , 14-H ) :  -0.2128 B( 13-H , 26-O ) :   0.1427 B( 16-O , 26-O ) :   0.1301
B( 17-C , 23-C ) :   1.2240 B( 17-C , 24-H ) :   0.7586 B( 17-C , 25-H ) :   0.6873
B( 20-C , 21-H ) :   0.2597 B( 20-C , 23-C ) :   1.1859 B( 20-C , 27-H ) :   0.1015
B( 20-C , 28-H ) :   0.1593 B( 20-C , 29-H ) :   0.9489 B( 20-C , 30-H ) :   0.8794
B( 23-C , 24-H ) :   0.2446 B( 23-C , 25-H ) :   0.1466 B( 23-C , 27-H ) :   0.9161
B( 23-C , 28-H ) :   0.9088 B( 23-C , 29-H ) :   0.1004 B( 23-C , 30-H ) :   0.1532

Dispersion correction           -0.016380103
FINAL SINGLE POINT ENERGY     -1072.220357220540

DIPOLE MOMENT
-------------
                                X             Y             Z
Electronic contribution:      1.20852      -0.23405     -23.60479
Nuclear contribution   :      0.18720       2.58739      22.98820
                        -----------------------------------------
Total Dipole Moment    :      1.39572       2.35335      -0.61659
                        -----------------------------------------
Magnitude (a.u.)       :      2.80472
Magnitude (Debye)      :      7.12903

Rotational constants in cm-1:     0.028798     0.014448     0.010940
Rotational constants in MHz :   863.355869   433.126694   327.985023

                             ****ORCA TERMINATED NORMALLY****
TOTAL RUN TIME: 0 days 0 hours 1 minutes 15 seconds 89 msec
