                         Program Version 5.0.0 -  RELEASE  -
|  1> !wB97X-D3 RIJCOSX def2-SVPD def2/J TightSCF CPCM(Water) xyzfile
|  2>
|  3> *xyzfile 0 1 D2.xyz
|  4>
|  5> %MaxCore 64000
|  6>
|  7> %pal nprocs 18
|  8> end
|  9>
| 10> %scf
| 11>   MaxIter 150
| 12> end
| 13>
| 14>
| 15>                          ****END OF INPUT****

CARTESIAN COORDINATES (ANGSTROEM)
---------------------------------
  C      1.963365   -1.749150   -1.896887
  N      2.738490   -2.015170   -3.097113
  C      0.611877    1.657634   -4.500288
  C      1.694991    1.541794   -5.570447
  H      2.697326    1.734659   -5.183996
  H      1.506656    2.272239   -6.358076
  S      1.780287   -0.033128   -6.428739
  C      4.049736   -2.154717   -3.152044
  C      4.658206   -1.986293   -4.318655
  N      4.764231   -2.454435   -2.050491
  H      4.287363   -2.776259   -1.217496
  H      5.750825   -2.658351   -2.125988
  H      2.345176   -1.690274   -3.971447
  H      4.109004   -1.592677   -5.071760
  H      5.649095   -2.156462   -4.427237
  F      2.569287    0.213657   -7.607360
  O      0.416880   -0.462969   -6.618595
  C      2.088520   -0.300912   -1.415204
  H      2.231272   -2.451616   -1.102643
  H      0.930249   -1.977801   -2.155438
  C      0.680356    0.655418   -3.348038
  H     -0.356865    1.549231   -4.991128
  H      0.650228    2.675438   -4.096000
  C      1.968993    0.733582   -2.535654
  H      3.051356   -0.168602   -0.911868
  H      1.316501   -0.136231   -0.657252
  O      2.505129   -0.933263   -5.482570
  H      2.824195    0.624726   -3.208464
  H      2.058919    1.730331   -2.093112
  H      0.542252   -0.344731   -3.766662
  H     -0.174219    0.829692   -2.685182

 Total Charge           Charge          ....    0
 Multiplicity           Mult            ....    1
 Number of Electrons    NEL             ....  120
 Basis Dimension        Dim             ....  432

ORBITAL ENERGIES
----------------

  NO   OCC          E(Eh)            E(eV)
   0   2.0000     -89.246609     -2428.5237
   1   2.0000     -24.923463      -678.2019
   2   2.0000     -19.273770      -524.4659
   3   2.0000     -19.258693      -524.0557
   4   2.0000     -14.428912      -392.6307
   5   2.0000     -14.417250      -392.3133
   6   2.0000     -10.339841      -281.3614
   7   2.0000     -10.334614      -281.2192
   8   2.0000     -10.312052      -280.6052
   9   2.0000     -10.304991      -280.4131
  10   2.0000     -10.285403      -279.8800
  11   2.0000     -10.279624      -279.7228
  12   2.0000     -10.278296      -279.6867
  13   2.0000     -10.191786      -277.3326
  14   2.0000      -8.319847      -226.3945
  15   2.0000      -6.283359      -170.9789
  16   2.0000      -6.277783      -170.8272
  17   2.0000      -6.275464      -170.7641
  18   2.0000      -1.496470       -40.7210
  19   2.0000      -1.237558       -33.6757
  20   2.0000      -1.133516       -30.8445
  21   2.0000      -1.070348       -29.1256
  22   2.0000      -0.982616       -26.7383
  23   2.0000      -0.942060       -25.6348
  24   2.0000      -0.899234       -24.4694
  25   2.0000      -0.867480       -23.6053
  26   2.0000      -0.831063       -22.6144
  27   2.0000      -0.806282       -21.9401
  28   2.0000      -0.768826       -20.9208
  29   2.0000      -0.731019       -19.8920
  30   2.0000      -0.714289       -19.4368
  31   2.0000      -0.696254       -18.9460
  32   2.0000      -0.690354       -18.7855
  33   2.0000      -0.668331       -18.1862
  34   2.0000      -0.657101       -17.8806
  35   2.0000      -0.630245       -17.1498
  36   2.0000      -0.601634       -16.3713
  37   2.0000      -0.591037       -16.0829
  38   2.0000      -0.585031       -15.9195
  39   2.0000      -0.576363       -15.6836
  40   2.0000      -0.564033       -15.3481
  41   2.0000      -0.562305       -15.3011
  42   2.0000      -0.539353       -14.6765
  43   2.0000      -0.528298       -14.3757
  44   2.0000      -0.509864       -13.8741
  45   2.0000      -0.498133       -13.5549
  46   2.0000      -0.489738       -13.3264
  47   2.0000      -0.483668       -13.1613
  48   2.0000      -0.468617       -12.7517
  49   2.0000      -0.465807       -12.6753
  50   2.0000      -0.456784       -12.4297
  51   2.0000      -0.451421       -12.2838
  52   2.0000      -0.442607       -12.0440
  53   2.0000      -0.429733       -11.6936
  54   2.0000      -0.417153       -11.3513
  55   2.0000      -0.411007       -11.1841
  56   2.0000      -0.406114       -11.0509
  57   2.0000      -0.405704       -11.0398
  58   2.0000      -0.338652        -9.2152
  59   2.0000      -0.251409        -6.8412
  60   0.0000       0.070099         1.9075
  61   0.0000       0.091959         2.5023
  62   0.0000       0.093718         2.5502
  63   0.0000       0.095269         2.5924
  64   0.0000       0.110427         3.0049

MULLIKEN ATOMIC CHARGES
-----------------------
   0 C :    0.911272
   1 N :   -0.047709
   2 C :    0.339346
   3 C :   -0.043025
   4 H :    0.213889
   5 H :    0.039684
   6 S :    1.697376
   7 C :    0.544316
   8 C :    0.681867
   9 N :    0.090733
  10 H :   -0.007483
  11 H :   -0.128781
  12 H :   -0.632525
  13 H :   -0.300699
  14 H :   -0.644312
  15 F :   -0.472373
  16 O :   -0.741572
  17 C :    0.339988
  18 H :   -0.348215
  19 H :   -0.101426
  20 C :   -0.033101
  21 H :    0.034601
  22 H :    0.026609
  23 C :   -0.016320
  24 H :   -0.021327
  25 H :   -0.060184
  26 O :   -0.884207
  27 H :    0.079608
  28 H :   -0.293587
  29 H :   -0.077641
  30 H :   -0.144801
Sum of atomic charges:   -0.0000000

LOEWDIN ATOMIC CHARGES
----------------------
   0 C :    0.064095
   1 N :    0.002042
   2 C :   -0.013969
   3 C :   -0.026529
   4 H :    0.033867
   5 H :    0.035448
   6 S :    1.206767
   7 C :   -0.237224
   8 C :    0.127903
   9 N :    0.198686
  10 H :   -0.008823
  11 H :    0.013185
  12 H :   -0.077687
  13 H :   -0.180876
  14 H :   -0.110167
  15 F :   -0.224080
  16 O :   -0.475105
  17 C :   -0.016060
  18 H :    0.015567
  19 H :    0.021889
  20 C :   -0.022470
  21 H :    0.030726
  22 H :    0.047598
  23 C :   -0.026578
  24 H :    0.016669
  25 H :    0.024010
  26 O :   -0.498584
  27 H :    0.006170
  28 H :    0.029928
  29 H :    0.005246
  30 H :    0.038356

  Mayer bond orders larger than 0.100000
B(  0-C ,  1-N ) :   0.8834 B(  0-C , 12-H ) :  -0.3178 B(  0-C , 17-C ) :   1.0847
B(  0-C , 18-H ) :   0.9232 B(  0-C , 19-H ) :   0.6778 B(  0-C , 25-H ) :   0.1124
B(  1-N ,  7-C ) :   1.0804 B(  1-N ,  8-C ) :   0.2079 B(  1-N ,  9-N ) :   0.2087
B(  1-N , 12-H ) :   1.1056 B(  1-N , 19-H ) :   0.1217 B(  2-C ,  3-C ) :   1.3068
B(  2-C ,  5-H ) :   0.1785 B(  2-C , 20-C ) :   1.2494 B(  2-C , 21-H ) :   0.6986
B(  2-C , 22-H ) :   0.8109 B(  3-C ,  4-H ) :   0.8624 B(  3-C ,  5-H ) :   0.8459
B(  3-C ,  6-S ) :   1.0538 B(  3-C , 21-H ) :   0.1123 B(  3-C , 22-H ) :   0.1252
B(  6-S , 15-F ) :   0.6047 B(  6-S , 16-O ) :   1.4359 B(  6-S , 26-O ) :   1.2859
B(  7-C ,  8-C ) :   1.5373 B(  7-C ,  9-N ) :   1.0130 B(  7-C , 11-H ) :  -0.1051
B(  7-C , 12-H ) :  -0.3147 B(  7-C , 13-H ) :   0.1593 B(  7-C , 14-H ) :   0.2115
B(  8-C ,  9-N ) :   0.2445 B(  8-C , 13-H ) :   0.5186 B(  8-C , 14-H ) :   0.7326
B(  9-N , 10-H ) :   0.9381 B(  9-N , 11-H ) :   1.2486 B(  9-N , 18-H ) :   0.1015
B( 10-H , 11-H ) :  -0.2011 B( 12-H , 19-H ) :   0.1859 B( 12-H , 24-H ) :   0.1286
B( 12-H , 26-O ) :   0.1208 B( 12-H , 27-H ) :   0.1068 B( 13-H , 14-H ) :  -0.1795
B( 13-H , 26-O ) :   0.2646 B( 16-O , 26-O ) :   0.1266 B( 17-C , 18-H ) :   0.1246
B( 17-C , 19-H ) :   0.1040 B( 17-C , 23-C ) :   1.2478 B( 17-C , 24-H ) :   0.7774
B( 17-C , 25-H ) :   0.8889 B( 18-H , 19-H ) :  -0.1251 B( 20-C , 21-H ) :   0.2607
B( 20-C , 23-C ) :   1.1594 B( 20-C , 28-H ) :   0.1360 B( 20-C , 29-H ) :   0.9600
B( 20-C , 30-H ) :   0.8896 B( 23-C , 24-H ) :   0.2037 B( 23-C , 25-H ) :   0.1166
B( 23-C , 27-H ) :   0.8767 B( 23-C , 28-H ) :   0.9724 B( 23-C , 30-H ) :   0.1341

Dispersion correction           -0.016478967
FINAL SINGLE POINT ENERGY     -1072.217072685084

DIPOLE MOMENT
-------------
                                X             Y             Z
Electronic contribution:     -1.05121      -0.13676     -22.11877
Nuclear contribution   :      0.43347       2.59110      22.83150
                        -----------------------------------------
Total Dipole Moment    :     -0.61774       2.45434       0.71273
                        -----------------------------------------
Magnitude (a.u.)       :      2.62933
Magnitude (Debye)      :      6.68323

Rotational constants in cm-1:     0.029257     0.014415     0.010996
Rotational constants in MHz :   877.098782   432.159206   329.643335

                             ****ORCA TERMINATED NORMALLY****
TOTAL RUN TIME: 0 days 0 hours 1 minutes 13 seconds 74 msec
