                         Program Version 5.0.0 -  RELEASE  -
|  1> !wB97X-D3 RIJCOSX def2-SVPD def2/J TightSCF CPCM(Water) xyzfile
|  2>
|  3> *xyzfile 0 1 D6.xyz
|  4>
|  5> %MaxCore 64000
|  6>
|  7> %pal nprocs 18
|  8> end
|  9>
| 10> %scf
| 11>   MaxIter 150
| 12> end
| 13>
| 14>
| 15>                          ****END OF INPUT****

CARTESIAN COORDINATES (ANGSTROEM)
---------------------------------
  C      1.963365   -1.749150   -1.896887
  N      2.738490   -2.015170   -3.097113
  C      0.611877    1.657634   -4.500288
  C      1.694991    1.541794   -5.570447
  H      2.697326    1.734659   -5.183996
  H      1.506656    2.272239   -6.358076
  S      1.780287   -0.033128   -6.428739
  C      4.049736   -2.154717   -3.152044
  N      4.658206   -1.986293   -4.318655
  C      4.764231   -2.454435   -2.050491
  H      4.287363   -2.776259   -1.217496
  H      5.750825   -2.658351   -2.125988
  H      2.345176   -1.690274   -3.971447
  H      4.109004   -1.592677   -5.071760
  H      5.649095   -2.156462   -4.427237
  O      2.569287    0.213657   -7.607360
  F      0.416880   -0.462969   -6.618595
  C      2.088520   -0.300912   -1.415204
  H      2.231272   -2.451616   -1.102643
  H      0.930249   -1.977801   -2.155438
  C      0.680356    0.655418   -3.348038
  H     -0.356865    1.549231   -4.991128
  H      0.650228    2.675438   -4.096000
  C      1.968993    0.733582   -2.535654
  H      3.051356   -0.168602   -0.911868
  H      1.316501   -0.136231   -0.657252
  O      2.505129   -0.933263   -5.482570
  H      2.824195    0.624726   -3.208464
  H      2.058919    1.730331   -2.093112
  H      0.542252   -0.344731   -3.766662
  H     -0.174219    0.829692   -2.685182

 Total Charge           Charge          ....    0
 Multiplicity           Mult            ....    1
 Number of Electrons    NEL             ....  120
 Basis Dimension        Dim             ....  432

ORBITAL ENERGIES
----------------

  NO   OCC          E(Eh)            E(eV)
   0   2.0000     -89.253179     -2428.7025
   1   2.0000     -24.927191      -678.3034
   2   2.0000     -19.278361      -524.5909
   3   2.0000     -19.269103      -524.3389
   4   2.0000     -14.420851      -392.4113
   5   2.0000     -14.419287      -392.3688
   6   2.0000     -10.343135      -281.4510
   7   2.0000     -10.338425      -281.3228
   8   2.0000     -10.311657      -280.5944
   9   2.0000     -10.304938      -280.4116
  10   2.0000     -10.287440      -279.9355
  11   2.0000     -10.280463      -279.7456
  12   2.0000     -10.278113      -279.6817
  13   2.0000     -10.203307      -277.6461
  14   2.0000      -8.326303      -226.5702
  15   2.0000      -6.290028      -171.1604
  16   2.0000      -6.284301      -171.0045
  17   2.0000      -6.281712      -170.9341
  18   2.0000      -1.499179       -40.7947
  19   2.0000      -1.244700       -33.8700
  20   2.0000      -1.141667       -31.0663
  21   2.0000      -1.074272       -29.2324
  22   2.0000      -0.984494       -26.7894
  23   2.0000      -0.946075       -25.7440
  24   2.0000      -0.898539       -24.4505
  25   2.0000      -0.857686       -23.3388
  26   2.0000      -0.827839       -22.5266
  27   2.0000      -0.814307       -22.1584
  28   2.0000      -0.784671       -21.3520
  29   2.0000      -0.736371       -20.0377
  30   2.0000      -0.707743       -19.2587
  31   2.0000      -0.707406       -19.2495
  32   2.0000      -0.689841       -18.7715
  33   2.0000      -0.667640       -18.1674
  34   2.0000      -0.645439       -17.5633
  35   2.0000      -0.642380       -17.4800
  36   2.0000      -0.615322       -16.7438
  37   2.0000      -0.594707       -16.1828
  38   2.0000      -0.582709       -15.8563
  39   2.0000      -0.577608       -15.7175
  40   2.0000      -0.566865       -15.4252
  41   2.0000      -0.557201       -15.1622
  42   2.0000      -0.538591       -14.6558
  43   2.0000      -0.528421       -14.3791
  44   2.0000      -0.517279       -14.0759
  45   2.0000      -0.499343       -13.5878
  46   2.0000      -0.491421       -13.3722
  47   2.0000      -0.483344       -13.1525
  48   2.0000      -0.477964       -13.0061
  49   2.0000      -0.467977       -12.7343
  50   2.0000      -0.463009       -12.5991
  51   2.0000      -0.452590       -12.3156
  52   2.0000      -0.447852       -12.1867
  53   2.0000      -0.430894       -11.7252
  54   2.0000      -0.424119       -11.5409
  55   2.0000      -0.415525       -11.3070
  56   2.0000      -0.412942       -11.2367
  57   2.0000      -0.405317       -11.0292
  58   2.0000      -0.333510        -9.0753
  59   2.0000      -0.256597        -6.9824
  60   0.0000       0.067680         1.8417
  61   0.0000       0.089632         2.4390
  62   0.0000       0.093829         2.5532
  63   0.0000       0.097449         2.6517
  64   0.0000       0.108465         2.9515

MULLIKEN ATOMIC CHARGES
-----------------------
   0 C :    0.884846
   1 N :    0.110937
   2 C :    0.348935
   3 C :   -0.034512
   4 H :    0.194801
   5 H :    0.021421
   6 S :    1.608402
   7 C :    0.581040
   8 N :    0.331337
   9 C :    0.416436
  10 H :   -0.008281
  11 H :   -0.630476
  12 H :   -0.842709
  13 H :   -0.279573
  14 H :   -0.166288
  15 O :   -0.700939
  16 F :   -0.457389
  17 C :    0.396254
  18 H :   -0.263657
  19 H :   -0.134407
  20 C :   -0.029468
  21 H :    0.046650
  22 H :    0.023033
  23 C :   -0.030493
  24 H :   -0.119590
  25 H :   -0.002299
  26 O :   -0.850821
  27 H :    0.060801
  28 H :   -0.271547
  29 H :   -0.052046
  30 H :   -0.150398
Sum of atomic charges:   -0.0000000

LOEWDIN ATOMIC CHARGES
----------------------
   0 C :    0.067763
   1 N :    0.002028
   2 C :   -0.023376
   3 C :   -0.017216
   4 H :    0.042961
   5 H :    0.036933
   6 S :    1.206528
   7 C :   -0.239147
   8 N :    0.208793
   9 C :    0.116416
  10 H :   -0.127886
  11 H :   -0.120101
  12 H :   -0.087212
  13 H :   -0.082688
  14 H :    0.022829
  15 O :   -0.467983
  16 F :   -0.220772
  17 C :   -0.013739
  18 H :    0.014890
  19 H :    0.022590
  20 C :   -0.024930
  21 H :    0.033312
  22 H :    0.045778
  23 C :   -0.026277
  24 H :    0.010307
  25 H :    0.025568
  26 O :   -0.488220
  27 H :    0.008026
  28 H :    0.030552
  29 H :    0.005404
  30 H :    0.038870

  Mayer bond orders larger than 0.100000
B(  0-C ,  1-N ) :   0.8989 B(  0-C , 12-H ) :  -0.3636 B(  0-C , 17-C ) :   1.0467
B(  0-C , 18-H ) :   0.9209 B(  0-C , 19-H ) :   0.7525 B(  0-C , 25-H ) :   0.1017
B(  1-N ,  7-C ) :   0.9812 B(  1-N ,  9-C ) :   0.4376 B(  1-N , 12-H ) :   0.9743
B(  1-N , 13-H ) :   0.1042 B(  1-N , 19-H ) :   0.1342 B(  2-C ,  3-C ) :   1.2759
B(  2-C ,  5-H ) :   0.1649 B(  2-C , 20-C ) :   1.2540 B(  2-C , 21-H ) :   0.6943
B(  2-C , 22-H ) :   0.8148 B(  3-C ,  4-H ) :   0.8837 B(  3-C ,  5-H ) :   0.8919
B(  3-C ,  6-S ) :   1.0676 B(  3-C , 21-H ) :   0.1123 B(  3-C , 22-H ) :   0.1154
B(  6-S , 15-O ) :   1.5505 B(  6-S , 16-F ) :   0.5606 B(  6-S , 26-O ) :   1.2972
B(  7-C ,  8-N ) :   0.8790 B(  7-C ,  9-C ) :   1.6237 B(  7-C , 10-H ) :   0.3342
B(  7-C , 11-H ) :   0.2587 B(  7-C , 12-H ) :  -0.3423 B(  7-C , 14-H ) :  -0.1698
B(  8-N ,  9-C ) :   0.2212 B(  8-N , 13-H ) :   1.0263 B(  8-N , 14-H ) :   1.3308
B(  9-C , 10-H ) :   0.5486 B(  9-C , 11-H ) :   0.7554 B( 10-H , 18-H ) :   0.1405
B( 12-H , 19-H ) :   0.1082 B( 12-H , 26-O ) :   0.1617 B( 12-H , 27-H ) :   0.1138
B( 13-H , 14-H ) :  -0.2040 B( 13-H , 26-O ) :   0.2015 B( 16-F , 26-O ) :   0.1523
B( 17-C , 23-C ) :   1.2388 B( 17-C , 24-H ) :   0.8096 B( 17-C , 25-H ) :   0.8433
B( 18-H , 19-H ) :  -0.1631 B( 20-C , 21-H ) :   0.2490 B( 20-C , 23-C ) :   1.1752
B( 20-C , 27-H ) :   0.1009 B( 20-C , 28-H ) :   0.1494 B( 20-C , 29-H ) :   0.9469
B( 20-C , 30-H ) :   0.8875 B( 23-C , 24-H ) :   0.2225 B( 23-C , 25-H ) :   0.1182
B( 23-C , 27-H ) :   0.8583 B( 23-C , 28-H ) :   0.9529 B( 23-C , 30-H ) :   0.1383

Dispersion correction           -0.016353093
FINAL SINGLE POINT ENERGY     -1072.228255666276

DIPOLE MOMENT
-------------
                                X             Y             Z
Electronic contribution:     -5.58244      -0.76335     -22.97409
Nuclear contribution   :      2.90585       3.30398      21.99296
                        -----------------------------------------
Total Dipole Moment    :     -2.67659       2.54063      -0.98113
                        -----------------------------------------
Magnitude (a.u.)       :      3.81858
Magnitude (Debye)      :      9.70606

Rotational constants in cm-1:     0.029065     0.014689     0.011200
Rotational constants in MHz :   871.338526   440.374927   335.770911

                             ****ORCA TERMINATED NORMALLY****
TOTAL RUN TIME: 0 days 0 hours 1 minutes 13 seconds 130 msec
