                         Program Version 5.0.0 -  RELEASE  -
|  1> !wB97X-D3 RIJCOSX def2-SVPD def2/J TightSCF CPCM(Water) xyzfile
|  2>
|  3> *xyzfile 0 1 D9.xyz
|  4>
|  5> %MaxCore 64000
|  6>
|  7> %pal nprocs 18
|  8> end
|  9>
| 10> %scf
| 11>   MaxIter 150
| 12> end
| 13>
| 14>
| 15>                          ****END OF INPUT****

CARTESIAN COORDINATES (ANGSTROEM)
---------------------------------
  C      1.963365   -1.749150   -1.896887
  N      2.738490   -2.015170   -3.097113
  C      0.611877    1.657634   -4.500288
  C      1.694991    1.541794   -5.570447
  H      2.697326    1.734659   -5.183996
  H      1.506656    2.272239   -6.358076
  S      1.780287   -0.033128   -6.428739
  C      4.049736   -2.154717   -3.152044
  N      4.658206   -1.986293   -4.318655
  C      4.764231   -2.454435   -2.050491
  H      4.287363   -2.776259   -1.217496
  H      5.750825   -2.658351   -2.125988
  H      2.345176   -1.690274   -3.971447
  H      4.109004   -1.592677   -5.071760
  H      5.649095   -2.156462   -4.427237
  O      2.569287    0.213657   -7.607360
  O      0.416880   -0.462969   -6.618595
  C      2.088520   -0.300912   -1.415204
  H      2.231272   -2.451616   -1.102643
  H      0.930249   -1.977801   -2.155438
  C      0.680356    0.655418   -3.348038
  H     -0.356865    1.549231   -4.991128
  H      0.650228    2.675438   -4.096000
  C      1.968993    0.733582   -2.535654
  H      3.051356   -0.168602   -0.911868
  H      1.316501   -0.136231   -0.657252
  F      2.505129   -0.933263   -5.482570
  H      2.824195    0.624726   -3.208464
  H      2.058919    1.730331   -2.093112
  H      0.542252   -0.344731   -3.766662
  H     -0.174219    0.829692   -2.685182

 Total Charge           Charge          ....    0
 Multiplicity           Mult            ....    1
 Number of Electrons    NEL             ....  120
 Basis Dimension        Dim             ....  432

ORBITAL ENERGIES
----------------

  NO   OCC          E(Eh)            E(eV)
   0   2.0000     -89.246691     -2428.5259
   1   2.0000     -24.918650      -678.0709
   2   2.0000     -19.276895      -524.5510
   3   2.0000     -19.276700      -524.5457
   4   2.0000     -14.434685      -392.7878
   5   2.0000     -14.432926      -392.7399
   6   2.0000     -10.345670      -281.5200
   7   2.0000     -10.341654      -281.4107
   8   2.0000     -10.316604      -280.7291
   9   2.0000     -10.303733      -280.3788
  10   2.0000     -10.289989      -280.0048
  11   2.0000     -10.283866      -279.8382
  12   2.0000     -10.280806      -279.7550
  13   2.0000     -10.208771      -277.7948
  14   2.0000      -8.320206      -226.4043
  15   2.0000      -6.284168      -171.0009
  16   2.0000      -6.277824      -170.8283
  17   2.0000      -6.275729      -170.7713
  18   2.0000      -1.476426       -40.1756
  19   2.0000      -1.252621       -34.0856
  20   2.0000      -1.156436       -31.4682
  21   2.0000      -1.086256       -29.5585
  22   2.0000      -0.994585       -27.0640
  23   2.0000      -0.945398       -25.7256
  24   2.0000      -0.900630       -24.5074
  25   2.0000      -0.865019       -23.5384
  26   2.0000      -0.838693       -22.8220
  27   2.0000      -0.808949       -22.0126
  28   2.0000      -0.791514       -21.5382
  29   2.0000      -0.738046       -20.0833
  30   2.0000      -0.704815       -19.1790
  31   2.0000      -0.698813       -19.0157
  32   2.0000      -0.681286       -18.5387
  33   2.0000      -0.666370       -18.1329
  34   2.0000      -0.647027       -17.6065
  35   2.0000      -0.644647       -17.5417
  36   2.0000      -0.620149       -16.8751
  37   2.0000      -0.601965       -16.3803
  38   2.0000      -0.590966       -16.0810
  39   2.0000      -0.577643       -15.7185
  40   2.0000      -0.571387       -15.5482
  41   2.0000      -0.557781       -15.1780
  42   2.0000      -0.539187       -14.6720
  43   2.0000      -0.531830       -14.4718
  44   2.0000      -0.517461       -14.0808
  45   2.0000      -0.505822       -13.7641
  46   2.0000      -0.498329       -13.5602
  47   2.0000      -0.492350       -13.3975
  48   2.0000      -0.478601       -13.0234
  49   2.0000      -0.467200       -12.7132
  50   2.0000      -0.465134       -12.6569
  51   2.0000      -0.454201       -12.3594
  52   2.0000      -0.452305       -12.3078
  53   2.0000      -0.438684       -11.9372
  54   2.0000      -0.433630       -11.7997
  55   2.0000      -0.420092       -11.4313
  56   2.0000      -0.418284       -11.3821
  57   2.0000      -0.408196       -11.1076
  58   2.0000      -0.343296        -9.3416
  59   2.0000      -0.262917        -7.1543
  60   0.0000       0.069170         1.8822
  61   0.0000       0.090818         2.4713
  62   0.0000       0.093534         2.5452
  63   0.0000       0.097927         2.6647
  64   0.0000       0.109925         2.9912

MULLIKEN ATOMIC CHARGES
-----------------------
   0 C :    0.884419
   1 N :    0.070680
   2 C :    0.389327
   3 C :   -0.037723
   4 H :    0.232061
   5 H :   -0.036092
   6 S :    1.561056
   7 C :    0.596435
   8 N :    0.339247
   9 C :    0.404292
  10 H :    0.012227
  11 H :   -0.615372
  12 H :   -0.801819
  13 H :   -0.285824
  14 H :   -0.137767
  15 O :   -0.719055
  16 O :   -0.751927
  17 C :    0.382170
  18 H :   -0.252637
  19 H :   -0.118143
  20 C :   -0.045448
  21 H :    0.026037
  22 H :    0.029358
  23 C :   -0.046996
  24 H :   -0.110889
  25 H :   -0.007151
  26 F :   -0.546829
  27 H :    0.061956
  28 H :   -0.252383
  29 H :   -0.113487
  30 H :   -0.109724
Sum of atomic charges:   -0.0000000

LOEWDIN ATOMIC CHARGES
----------------------
   0 C :    0.071064
   1 N :    0.000892
   2 C :   -0.023431
   3 C :   -0.022695
   4 H :    0.034339
   5 H :    0.043859
   6 S :    1.152377
   7 C :   -0.235769
   8 N :    0.211355
   9 C :    0.125550
  10 H :   -0.122254
  11 H :   -0.114077
  12 H :   -0.049689
  13 H :   -0.049693
  14 H :    0.028896
  15 O :   -0.473630
  16 O :   -0.470920
  17 C :   -0.011907
  18 H :    0.018608
  19 H :    0.025040
  20 C :   -0.024725
  21 H :    0.030673
  22 H :    0.046114
  23 C :   -0.028557
  24 H :    0.012172
  25 H :    0.027475
  26 F :   -0.285825
  27 H :    0.007589
  28 H :    0.032308
  29 H :    0.004172
  30 H :    0.040688

  Mayer bond orders larger than 0.100000
B(  0-C ,  1-N ) :   0.8826 B(  0-C , 12-H ) :  -0.3549 B(  0-C , 17-C ) :   1.0409
B(  0-C , 18-H ) :   0.9242 B(  0-C , 19-H ) :   0.7559 B(  1-N ,  7-C ) :   0.9704
B(  1-N ,  9-C ) :   0.4320 B(  1-N , 12-H ) :   1.0184 B(  1-N , 19-H ) :   0.1460
B(  2-C ,  3-C ) :   1.2705 B(  2-C ,  4-H ) :   0.1024 B(  2-C ,  5-H ) :   0.1632
B(  2-C , 20-C ) :   1.2451 B(  2-C , 21-H ) :   0.6959 B(  2-C , 22-H ) :   0.7996
B(  3-C ,  4-H ) :   0.8599 B(  3-C ,  5-H ) :   0.8603 B(  3-C ,  6-S ) :   1.0883
B(  3-C , 21-H ) :   0.1231 B(  3-C , 22-H ) :   0.1130 B(  6-S , 15-O ) :   1.5082
B(  6-S , 16-O ) :   1.4371 B(  6-S , 26-F ) :   0.5867 B(  7-C ,  8-N ) :   0.8668
B(  7-C ,  9-C ) :   1.6310 B(  7-C , 10-H ) :   0.3335 B(  7-C , 11-H ) :   0.2322
B(  7-C , 12-H ) :  -0.3641 B(  7-C , 14-H ) :  -0.1643 B(  8-N ,  9-C ) :   0.2298
B(  8-N , 13-H ) :   1.0257 B(  8-N , 14-H ) :   1.3037 B(  9-C , 10-H ) :   0.5460
B(  9-C , 11-H ) :   0.7970 B( 10-H , 18-H ) :   0.1418 B( 13-H , 14-H ) :  -0.1812
B( 13-H , 26-F ) :   0.2520 B( 17-C , 23-C ) :   1.2332 B( 17-C , 24-H ) :   0.8153
B( 17-C , 25-H ) :   0.8579 B( 18-H , 19-H ) :  -0.1664 B( 20-C , 21-H ) :   0.2618
B( 20-C , 23-C ) :   1.1756 B( 20-C , 28-H ) :   0.1535 B( 20-C , 29-H ) :   0.9664
B( 20-C , 30-H ) :   0.8739 B( 23-C , 24-H ) :   0.2238 B( 23-C , 25-H ) :   0.1203
B( 23-C , 27-H ) :   0.8567 B( 23-C , 28-H ) :   0.9667 B( 23-C , 30-H ) :   0.1482

Dispersion correction           -0.016329189
FINAL SINGLE POINT ENERGY     -1072.236815168936

DIPOLE MOMENT
-------------
                                X             Y             Z
Electronic contribution:     -1.24001      -1.85346     -20.36724
Nuclear contribution   :      0.52036       3.84122      20.69523
                        -----------------------------------------
Total Dipole Moment    :     -0.71965       1.98776       0.32799
                        -----------------------------------------
Magnitude (a.u.)       :      2.13931
Magnitude (Debye)      :      5.43770

Rotational constants in cm-1:     0.029184     0.014996     0.011314
Rotational constants in MHz :   874.907122   449.569665   339.178205

                             ****ORCA TERMINATED NORMALLY****
TOTAL RUN TIME: 0 days 0 hours 1 minutes 12 seconds 693 msec
