                         Program Version 5.0.0 -  RELEASE  -
|  1> !DLPNO-CCSD(T) aug-cc-pVTZ aug-cc-pVTZ/C TightSCF TightPNO RIJCOSX def2/J
|  2> *xyz -1 1
|  3> C         -5.57236       -5.80780       -0.81644
|  4> S         -6.90318       -4.61903       -0.52846
|  5> O         -8.11485       -5.25093       -0.95701
|  6> O         -6.53271       -3.42684       -1.31485
|  7> O         -6.86563       -4.29496        0.91412
|  8> H         -5.55376       -6.07856       -1.85145
|  9> H         -5.73990       -6.68165       -0.22212
| 10> H         -4.63562       -5.36690       -0.54622
| 11> *
| 12> %MaxCore 64000
| 13>
| 14> %pal nprocs 2
| 15> end
| 16>
| 17> %scf
| 18>   MaxIter 150
| 19> end
| 20>
| 21>                          ****END OF INPUT****

CARTESIAN COORDINATES (ANGSTROEM)
---------------------------------
  C     -5.572360   -5.807800   -0.816440
  S     -6.903180   -4.619030   -0.528460
  O     -8.114850   -5.250930   -0.957010
  O     -6.532710   -3.426840   -1.314850
  O     -6.865630   -4.294960    0.914120
  H     -5.553760   -6.078560   -1.851450
  H     -5.739900   -6.681650   -0.222120
  H     -4.635620   -5.366900   -0.546220

 Total Charge           Charge          ....   -1
 Multiplicity           Mult            ....    1
 Number of Electrons    NEL             ....   50
 Basis Dimension        Dim             ....  303

ORBITAL ENERGIES
----------------

  NO   OCC          E(Eh)            E(eV)
   0   2.0000     -91.985333     -2503.0482
   1   2.0000     -20.335817      -553.3657
   2   2.0000     -20.322791      -553.0113
   3   2.0000     -20.321613      -552.9792
   4   2.0000     -11.086291      -301.6733
   5   2.0000      -8.947907      -243.4849
   6   2.0000      -6.634107      -180.5232
   7   2.0000      -6.632757      -180.4865
   8   2.0000      -6.632724      -180.4856
   9   2.0000      -1.269141       -34.5351
  10   2.0000      -1.126016       -30.6405
  11   2.0000      -1.100247       -29.9393
  12   2.0000      -0.846285       -23.0286
  13   2.0000      -0.605853       -16.4861
  14   2.0000      -0.484691       -13.1891
  15   2.0000      -0.467897       -12.7321
  16   2.0000      -0.467370       -12.7178
  17   2.0000      -0.422050       -11.4846
  18   2.0000      -0.419341       -11.4108
  19   2.0000      -0.320812        -8.7297
  20   2.0000      -0.317636        -8.6433
  21   2.0000      -0.276804        -7.5322
  22   2.0000      -0.262878        -7.1533
  23   2.0000      -0.254604        -6.9281
  24   2.0000      -0.226554        -6.1649
  25   0.0000       0.126784         3.4500
  26   0.0000       0.139769         3.8033
  27   0.0000       0.140917         3.8345
  28   0.0000       0.189284         5.1507
  29   0.0000       0.212990         5.7958

MULLIKEN ATOMIC CHARGES
-----------------------
   0 C :   -1.062584
   1 S :    2.173387
   2 O :   -0.998041
   3 O :   -1.007262
   4 O :   -1.000412
   5 H :    0.310192
   6 H :    0.293482
   7 H :    0.291237
Sum of atomic charges:   -1.0000000

LOEWDIN ATOMIC CHARGES
----------------------
   0 C :    0.439822
   1 S :   -0.429423
   2 O :   -0.064752
   3 O :   -0.095214
   4 O :   -0.097337
   5 H :   -0.251014
   6 H :   -0.251889
   7 H :   -0.250193

  Mayer bond orders larger than 0.100000
B(  0-C ,  1-S ) :   0.7861 B(  0-C ,  5-H ) :   0.8922 B(  0-C ,  6-H ) :   0.9123
B(  0-C ,  7-H ) :   0.9161 B(  1-S ,  2-O ) :   1.3976 B(  1-S ,  3-O ) :   1.3206
B(  1-S ,  4-O ) :   1.3351

E(0)                                       ...   -661.876661081
E(0)                                       ...   -661.876661081
E(CORR)(strong-pairs)                      ...     -1.114931133
E(CORR)(weak-pairs)                        ...     -0.000978527
E(CORR)(corrected)                         ...     -1.115909660
E(TOT)                                     ...   -662.992570741
E(CCSD(T))                                 ...   -663.040554536
FINAL SINGLE POINT ENERGY      -663.040554536238

DIPOLE MOMENT
-------------
                                X             Y             Z
Electronic contribution:     -3.12597       2.60589       0.60336
Nuclear contribution   :      4.23639      -3.86101      -0.94151
                        -----------------------------------------
Total Dipole Moment    :      1.11042      -1.25512      -0.33815
                        -----------------------------------------
Magnitude (a.u.)       :      1.70959
Magnitude (Debye)      :      4.34543

Rotational constants in cm-1:     0.172406     0.155169     0.153146
Rotational constants in MHz :  5168.590738  4651.861875  4591.214998

                             ****ORCA TERMINATED NORMALLY****
TOTAL RUN TIME: 0 days 1 hours 0 minutes 56 seconds 912 msec
