                         Program Version 5.0.0 -  RELEASE  -
|  1> !DLPNO-CCSD(T) aug-cc-pVTZ aug-cc-pVTZ/C TightSCF TightPNO RIJCOSX def2/J
|  2> *xyz 1 1
|  3> C         -4.38262       -1.67089        1.21620
|  4> N         -5.76354       -1.91517        0.70501
|  5> H         -5.84081       -2.11520       -0.30065
|  6> H         -6.40882       -1.14866        0.93612
|  7> H         -6.17478       -2.79061        1.05143
|  8> H         -4.01369       -0.74796        0.81997
|  9> H         -3.74223       -2.47168        0.91037
| 10> H         -4.40201       -1.61791        2.28471
| 11> *
| 12> %MaxCore 64000
| 13>
| 14> %pal nprocs 8
| 15> end
| 16>
| 17> %scf
| 18>   MaxIter 150
| 19> end
| 20>
| 21>                          ****END OF INPUT****

CARTESIAN COORDINATES (ANGSTROEM)
---------------------------------
  C     -4.382620   -1.670890    1.216200
  N     -5.763540   -1.915170    0.705010
  H     -5.840810   -2.115200   -0.300650
  H     -6.408820   -1.148660    0.936120
  H     -6.174780   -2.790610    1.051430
  H     -4.013690   -0.747960    0.819970
  H     -3.742230   -2.471680    0.910370
  H     -4.402010   -1.617910    2.284710

 Total Charge           Charge          ....    1
 Multiplicity           Mult            ....    1
 Number of Electrons    NEL             ....   18
 Basis Dimension        Dim             ....  230

ORBITAL ENERGIES
----------------

  NO   OCC          E(Eh)            E(eV)
   0   2.0000     -15.914100      -433.0447
   1   2.0000     -11.485196      -312.5281
   2   2.0000      -1.528208       -41.5847
   3   2.0000      -1.185275       -32.2530
   4   2.0000      -0.993869       -27.0445
   5   2.0000      -0.967250       -26.3202
   6   2.0000      -0.879187       -23.9239
   7   2.0000      -0.785565       -21.3763
   8   2.0000      -0.781661       -21.2701
   9   0.0000      -0.127979        -3.4825
  10   0.0000      -0.086535        -2.3547
  11   0.0000      -0.084939        -2.3113
  12   0.0000      -0.083650        -2.2762
  13   0.0000      -0.046817        -1.2739

MULLIKEN ATOMIC CHARGES
-----------------------
   0 C :   -0.789510
   1 N :    0.083486
   2 H :    0.167929
   3 H :    0.180973
   4 H :    0.172128
   5 H :    0.394477
   6 H :    0.399488
   7 H :    0.391030
Sum of atomic charges:    1.0000000

LOEWDIN ATOMIC CHARGES
----------------------
   0 C :    0.701476
   1 N :    1.098282
   2 H :   -0.126606
   3 H :   -0.121375
   4 H :   -0.131928
   5 H :   -0.140178
   6 H :   -0.140252
   7 H :   -0.139419

  Mayer bond orders larger than 0.100000
B(  0-C ,  1-N ) :   0.7869 B(  0-C ,  5-H ) :   0.8489 B(  0-C ,  6-H ) :   0.8453
B(  0-C ,  7-H ) :   0.8528 B(  1-N ,  2-H ) :   0.9886 B(  1-N ,  3-H ) :   0.9772
B(  1-N ,  4-H ) :   0.9814

E(0)                                       ...    -95.615074366
E(0)                                       ...    -95.615074366
E(CORR)(strong-pairs)                      ...     -0.429405908
E(CORR)(weak-pairs)                        ...     -0.000232650
E(CORR)(corrected)                         ...     -0.429638558
E(TOT)                                     ...    -96.044712924
E(CCSD(T))                                 ...    -96.058210878
FINAL SINGLE POINT ENERGY       -96.058210878389

DIPOLE MOMENT
-------------
                                X             Y             Z
Electronic contribution:     -0.95118      -0.13307      -0.35030
Nuclear contribution   :      0.12888      -0.05969       0.04130
                        -----------------------------------------
Total Dipole Moment    :     -0.82230      -0.19276      -0.30900
                        -----------------------------------------
Magnitude (a.u.)       :      0.89934
Magnitude (Debye)      :      2.28594

Rotational constants in cm-1:     2.932748     0.676653     0.669753
Rotational constants in MHz : 87921.559023 20285.538082 20078.692306

                             ****ORCA TERMINATED NORMALLY****
TOTAL RUN TIME: 0 days 0 hours 1 minutes 3 seconds 723 msec
