                         Program Version 5.0.0 -  RELEASE  -
|  1> !DLPNO-CCSD(T) aug-cc-pVTZ aug-cc-pVTZ/C TightSCF TightPNO RIJCOSX def2/J
|  2> *xyz 0 1
|  3> C         -5.57236       -5.80780       -0.81644
|  4> S         -6.90318       -4.61903       -0.52846
|  5> F         -8.11485       -5.25093       -0.95701
|  6> O         -6.53271       -3.42684       -1.31485
|  7> O         -6.86563       -4.29496        0.91412
|  8> H         -5.55376       -6.07856       -1.85145
|  9> H         -5.73990       -6.68165       -0.22212
| 10> H         -4.63562       -5.36690       -0.54622
| 11> *
| 12> %MaxCore 64000
| 13>
| 14> %pal nprocs 2
| 15> end
| 16>
| 17> %scf
| 18>   MaxIter 150
| 19> end
| 20>
| 21>                          ****END OF INPUT****

CARTESIAN COORDINATES (ANGSTROEM)
---------------------------------
  C     -5.572360   -5.807800   -0.816440
  S     -6.903180   -4.619030   -0.528460
  F     -8.114850   -5.250930   -0.957010
  O     -6.532710   -3.426840   -1.314850
  O     -6.865630   -4.294960    0.914120
  H     -5.553760   -6.078560   -1.851450
  H     -5.739900   -6.681650   -0.222120
  H     -4.635620   -5.366900   -0.546220

 Total Charge           Charge          ....    0
 Multiplicity           Mult            ....    1
 Number of Electrons    NEL             ....   50
 Basis Dimension        Dim             ....  303

ORBITAL ENERGIES
----------------

  NO   OCC          E(Eh)            E(eV)
   0   2.0000     -92.260377     -2510.5325
   1   2.0000     -26.444173      -719.5825
   2   2.0000     -20.563951      -559.5735
   3   2.0000     -20.562746      -559.5408
   4   2.0000     -11.297977      -307.4336
   5   2.0000      -9.222936      -250.9689
   6   2.0000      -6.910592      -188.0468
   7   2.0000      -6.906577      -187.9375
   8   2.0000      -6.905630      -187.9118
   9   2.0000      -1.816360       -49.4257
  10   2.0000      -1.442767       -39.2597
  11   2.0000      -1.334746       -36.3203
  12   2.0000      -1.074414       -29.2363
  13   2.0000      -0.975188       -26.5362
  14   2.0000      -0.847192       -23.0533
  15   2.0000      -0.841464       -22.8974
  16   2.0000      -0.770013       -20.9531
  17   2.0000      -0.658175       -17.9099
  18   2.0000      -0.657155       -17.8821
  19   2.0000      -0.640686       -17.4340
  20   2.0000      -0.609301       -16.5799
  21   2.0000      -0.553648       -15.0655
  22   2.0000      -0.496270       -13.5042
  23   2.0000      -0.488519       -13.2933
  24   2.0000      -0.472074       -12.8458
  25   0.0000       0.020588         0.5602
  26   0.0000       0.040217         1.0944
  27   0.0000       0.044283         1.2050
  28   0.0000       0.062792         1.7087
  29   0.0000       0.090608         2.4656

MULLIKEN ATOMIC CHARGES
-----------------------
   0 C :   -0.977591
   1 S :    2.128473
   2 F :   -0.486653
   3 O :   -0.848822
   4 O :   -0.839664
   5 H :    0.348917
   6 H :    0.333522
   7 H :    0.341817
Sum of atomic charges:   -0.0000000

LOEWDIN ATOMIC CHARGES
----------------------
   0 C :    0.522887
   1 S :   -0.131989
   2 F :    0.284363
   3 O :   -0.005444
   4 O :   -0.006902
   5 H :   -0.226929
   6 H :   -0.227526
   7 H :   -0.208460

  Mayer bond orders larger than 0.100000
B(  0-C ,  1-S ) :   0.9068 B(  0-C ,  5-H ) :   0.8597 B(  0-C ,  6-H ) :   0.8792
B(  0-C ,  7-H ) :   0.8805 B(  1-S ,  2-F ) :   0.5824 B(  1-S ,  3-O ) :   1.5170
B(  1-S ,  4-O ) :   1.5278

E(0)                                       ...   -686.367710622
E(0)                                       ...   -686.367710622
E(CORR)(strong-pairs)                      ...     -1.120734115
E(CORR)(weak-pairs)                        ...     -0.000963303
E(CORR)(corrected)                         ...     -1.121697418
E(TOT)                                     ...   -687.489408040
E(CCSD(T))                                 ...   -687.535198928
FINAL SINGLE POINT ENERGY      -687.535198928256

DIPOLE MOMENT
-------------
                                X             Y             Z
Electronic contribution:     -5.20455       1.43471      -0.16042
Nuclear contribution   :      5.53040      -3.27628      -0.52239
                        -----------------------------------------
Total Dipole Moment    :      0.32585      -1.84157      -0.68281
                        -----------------------------------------
Magnitude (a.u.)       :      1.99093
Magnitude (Debye)      :      5.06053

Rotational constants in cm-1:     0.163239     0.153903     0.144751
Rotational constants in MHz :  4893.777363  4613.882823  4339.513182

                             ****ORCA TERMINATED NORMALLY****
TOTAL RUN TIME: 0 days 0 hours 55 minutes 18 seconds 507 msec
