                         Program Version 5.0.0 -  RELEASE  -
|  1> !DLPNO-CCSD(T) aug-cc-pVTZ aug-cc-pVTZ/C TightSCF TightPNO RIJCOSX def2/J
|  2> *xyz 0 1
|  3> C         -4.38262       -1.67089        1.21620
|  4> C         -5.76354       -1.91517        0.70501
|  5> H         -5.84081       -2.11520       -0.30065
|  6> H         -6.40882       -1.14866        0.93612
|  7> H         -6.17478       -2.79061        1.05143
|  8> H         -4.01369       -0.74796        0.81997
|  9> H         -3.74223       -2.47168        0.91037
| 10> H         -4.40201       -1.61791        2.28471
| 11> *
| 12> %MaxCore 64000
| 13>
| 14> %pal nprocs 8
| 15> end
| 16>
| 17> %scf
| 18>   MaxIter 150
| 19> end
| 20>
| 21>                          ****END OF INPUT****

CARTESIAN COORDINATES (ANGSTROEM)
---------------------------------
  C     -4.382620   -1.670890    1.216200
  C     -5.763540   -1.915170    0.705010
  H     -5.840810   -2.115200   -0.300650
  H     -6.408820   -1.148660    0.936120
  H     -6.174780   -2.790610    1.051430
  H     -4.013690   -0.747960    0.819970
  H     -3.742230   -2.471680    0.910370
  H     -4.402010   -1.617910    2.284710

 Total Charge           Charge          ....    0
 Multiplicity           Mult            ....    1
 Number of Electrons    NEL             ....   18
 Basis Dimension        Dim             ....  230

ORBITAL ENERGIES
----------------

  NO   OCC          E(Eh)            E(eV)
   0   2.0000     -11.199734      -304.7602
   1   2.0000     -11.181366      -304.2604
   2   2.0000      -1.036289       -28.1989
   3   2.0000      -0.858834       -23.3700
   4   2.0000      -0.617949       -16.8153
   5   2.0000      -0.601895       -16.3784
   6   2.0000      -0.520452       -14.1622
   7   2.0000      -0.498649       -13.5689
   8   2.0000      -0.483468       -13.1558
   9   0.0000       0.032970         0.8972
  10   0.0000       0.043006         1.1703
  11   0.0000       0.043920         1.1951
  12   0.0000       0.044484         1.2105
  13   0.0000       0.068311         1.8588

MULLIKEN ATOMIC CHARGES
-----------------------
   0 C :   -0.823252
   1 C :   -1.008106
   2 H :    0.329244
   3 H :    0.329506
   4 H :    0.304364
   5 H :    0.281356
   6 H :    0.301934
   7 H :    0.284955
Sum of atomic charges:    0.0000000

LOEWDIN ATOMIC CHARGES
----------------------
   0 C :    0.596297
   1 C :    0.602926
   2 H :   -0.216517
   3 H :   -0.209001
   4 H :   -0.220999
   5 H :   -0.184851
   6 H :   -0.184326
   7 H :   -0.183529

  Mayer bond orders larger than 0.100000
B(  0-C ,  1-C ) :   0.7929 B(  0-C ,  5-H ) :   0.9392 B(  0-C ,  6-H ) :   0.9241
B(  0-C ,  7-H ) :   0.9375 B(  1-C ,  2-H ) :   0.9014 B(  1-C ,  3-H ) :   0.8938
B(  1-C ,  4-H ) :   0.9296

E(0)                                       ...    -79.248724163
E(0)                                       ...    -79.248724163
E(CORR)(strong-pairs)                      ...     -0.403870592
E(CORR)(weak-pairs)                        ...     -0.000232561
E(CORR)(corrected)                         ...     -0.404103153
E(TOT)                                     ...    -79.652827316
E(CCSD(T))                                 ...    -79.665873907
FINAL SINGLE POINT ENERGY       -79.665873906595

DIPOLE MOMENT
-------------
                                X             Y             Z
Electronic contribution:      0.07955       0.07795       0.03290
Nuclear contribution   :     -0.10782      -0.10031      -0.04623
                        -----------------------------------------
Total Dipole Moment    :     -0.02827      -0.02236      -0.01333
                        -----------------------------------------
Magnitude (a.u.)       :      0.03843
Magnitude (Debye)      :      0.09768

Rotational constants in cm-1:     2.932831     0.705715     0.698218
Rotational constants in MHz : 87924.050302 21156.813368 20932.044240

                             ****ORCA TERMINATED NORMALLY****
TOTAL RUN TIME: 0 days 0 hours 1 minutes 15 seconds 262 msec
