                         Program Version 5.0.0 -  RELEASE  -
|  1> !DLPNO-CCSD(T) aug-cc-pVTZ aug-cc-pVTZ/C TightSCF TightPNO RIJCOSX def2/J
|  2> *xyz 0 1
|  3> C         -5.57236       -5.80780       -0.81644
|  4> S         -6.90318       -4.61903       -0.52846
|  5> O         -8.11485       -5.25093       -0.95701
|  6> F         -6.53271       -3.42684       -1.31485
|  7> O         -6.86563       -4.29496        0.91412
|  8> H         -5.55376       -6.07856       -1.85145
|  9> H         -5.73990       -6.68165       -0.22212
| 10> H         -4.63562       -5.36690       -0.54622
| 11> *
| 12> %MaxCore 64000
| 13>
| 14> %pal nprocs 8
| 15> end
| 16>
| 17> %scf
| 18>   MaxIter 150
| 19> end
| 20>
| 21>                          ****END OF INPUT****

CARTESIAN COORDINATES (ANGSTROEM)
---------------------------------
  C     -5.572360   -5.807800   -0.816440
  S     -6.903180   -4.619030   -0.528460
  O     -8.114850   -5.250930   -0.957010
  F     -6.532710   -3.426840   -1.314850
  O     -6.865630   -4.294960    0.914120
  H     -5.553760   -6.078560   -1.851450
  H     -5.739900   -6.681650   -0.222120
  H     -4.635620   -5.366900   -0.546220

 Total Charge           Charge          ....    0
 Multiplicity           Mult            ....    1
 Number of Electrons    NEL             ....   50
 Basis Dimension        Dim             ....  303

ORBITAL ENERGIES
----------------

  NO   OCC          E(Eh)            E(eV)
   0   2.0000     -92.258934     -2510.4932
   1   2.0000     -26.421460      -718.9645
   2   2.0000     -20.577035      -559.9296
   3   2.0000     -20.563266      -559.5549
   4   2.0000     -11.297198      -307.4124
   5   2.0000      -9.221269      -250.9235
   6   2.0000      -6.908917      -188.0012
   7   2.0000      -6.905101      -187.8974
   8   2.0000      -6.904025      -187.8681
   9   2.0000      -1.776601       -48.3438
  10   2.0000      -1.462904       -39.8076
  11   2.0000      -1.351952       -36.7885
  12   2.0000      -1.071220       -29.1494
  13   2.0000      -0.952637       -25.9226
  14   2.0000      -0.821901       -22.3651
  15   2.0000      -0.813421       -22.1343
  16   2.0000      -0.769440       -20.9375
  17   2.0000      -0.666730       -18.1426
  18   2.0000      -0.660964       -17.9858
  19   2.0000      -0.639614       -17.4048
  20   2.0000      -0.618573       -16.8322
  21   2.0000      -0.563130       -15.3236
  22   2.0000      -0.510024       -13.8785
  23   2.0000      -0.492229       -13.3942
  24   2.0000      -0.484643       -13.1878
  25   0.0000       0.021330         0.5804
  26   0.0000       0.040938         1.1140
  27   0.0000       0.043579         1.1859
  28   0.0000       0.064699         1.7605
  29   0.0000       0.091147         2.4802

MULLIKEN ATOMIC CHARGES
-----------------------
   0 C :   -0.983931
   1 S :    2.145863
   2 O :   -0.844035
   3 F :   -0.491812
   4 O :   -0.848320
   5 H :    0.347574
   6 H :    0.346133
   7 H :    0.328527
Sum of atomic charges:    0.0000000

LOEWDIN ATOMIC CHARGES
----------------------
   0 C :    0.524574
   1 S :   -0.127636
   2 O :    0.021749
   3 F :    0.250870
   4 O :   -0.006971
   5 H :   -0.226710
   6 H :   -0.209761
   7 H :   -0.226115

  Mayer bond orders larger than 0.100000
B(  0-C ,  1-S ) :   0.8959 B(  0-C ,  5-H ) :   0.8613 B(  0-C ,  6-H ) :   0.8744
B(  0-C ,  7-H ) :   0.8853 B(  1-S ,  2-O ) :   1.5937 B(  1-S ,  3-F ) :   0.5693
B(  1-S ,  4-O ) :   1.5228

E(0)                                       ...   -686.385806295
E(0)                                       ...   -686.385806295
E(CORR)(strong-pairs)                      ...     -1.119801153
E(CORR)(weak-pairs)                        ...     -0.000960019
E(CORR)(corrected)                         ...     -1.120761172
E(TOT)                                     ...   -687.506567467
E(CCSD(T))                                 ...   -687.552080302
FINAL SINGLE POINT ENERGY      -687.552080301785

DIPOLE MOMENT
-------------
                                X             Y             Z
Electronic contribution:     -2.44249       4.62552      -0.80102
Nuclear contribution   :      3.94974      -5.09866      -0.16489
                        -----------------------------------------
Total Dipole Moment    :      1.50725      -0.47314      -0.96591
                        -----------------------------------------
Magnitude (a.u.)       :      1.85166
Magnitude (Debye)      :      4.70655

Rotational constants in cm-1:     0.163657     0.151977     0.145976
Rotational constants in MHz :  4906.325390  4556.144033  4376.262759

                             ****ORCA TERMINATED NORMALLY****
TOTAL RUN TIME: 0 days 0 hours 4 minutes 51 seconds 722 msec
