                         Program Version 5.0.0 -  RELEASE  -
|  1> !DLPNO-CCSD(T) aug-cc-pVTZ aug-cc-pVTZ/C TightSCF TightPNO RIJCOSX def2/J
|  2> *xyz 0 1
|  3> C         -5.57236       -5.80780       -0.81644
|  4> S         -6.90318       -4.61903       -0.52846
|  5> O         -8.11485       -5.25093       -0.95701
|  6> O         -6.53271       -3.42684       -1.31485
|  7> F         -6.86563       -4.29496        0.91412
|  8> H         -5.55376       -6.07856       -1.85145
|  9> H         -5.73990       -6.68165       -0.22212
| 10> H         -4.63562       -5.36690       -0.54622
| 11> *
| 12> %MaxCore 64000
| 13>
| 14> %pal nprocs 2
| 15> end
| 16>
| 17> %scf
| 18>   MaxIter 150
| 19> end
| 20>
| 21>                          ****END OF INPUT****

CARTESIAN COORDINATES (ANGSTROEM)
---------------------------------
  C     -5.572360   -5.807800   -0.816440
  S     -6.903180   -4.619030   -0.528460
  O     -8.114850   -5.250930   -0.957010
  O     -6.532710   -3.426840   -1.314850
  F     -6.865630   -4.294960    0.914120
  H     -5.553760   -6.078560   -1.851450
  H     -5.739900   -6.681650   -0.222120
  H     -4.635620   -5.366900   -0.546220

 Total Charge           Charge          ....    0
 Multiplicity           Mult            ....    1
 Number of Electrons    NEL             ....   50
 Basis Dimension        Dim             ....  303

ORBITAL ENERGIES
----------------

  NO   OCC          E(Eh)            E(eV)
   0   2.0000     -92.258680     -2510.4863
   1   2.0000     -26.421396      -718.9627
   2   2.0000     -20.577113      -559.9317
   3   2.0000     -20.562171      -559.5251
   4   2.0000     -11.297172      -307.4117
   5   2.0000      -9.221048      -250.9175
   6   2.0000      -6.908633      -187.9935
   7   2.0000      -6.904919      -187.8924
   8   2.0000      -6.903794      -187.8618
   9   2.0000      -1.774642       -48.2905
  10   2.0000      -1.463741       -39.8304
  11   2.0000      -1.352899       -36.8143
  12   2.0000      -1.070269       -29.1235
  13   2.0000      -0.951962       -25.9042
  14   2.0000      -0.820835       -22.3361
  15   2.0000      -0.812327       -22.1045
  16   2.0000      -0.769126       -20.9290
  17   2.0000      -0.666602       -18.1392
  18   2.0000      -0.661221       -17.9927
  19   2.0000      -0.640145       -17.4192
  20   2.0000      -0.618775       -16.8377
  21   2.0000      -0.563080       -15.3222
  22   2.0000      -0.510292       -13.8858
  23   2.0000      -0.491461       -13.3733
  24   2.0000      -0.484538       -13.1850
  25   0.0000       0.021359         0.5812
  26   0.0000       0.040994         1.1155
  27   0.0000       0.043699         1.1891
  28   0.0000       0.064618         1.7583
  29   0.0000       0.091122         2.4795

MULLIKEN ATOMIC CHARGES
-----------------------
   0 C :   -0.984465
   1 S :    2.162961
   2 O :   -0.848385
   3 O :   -0.856333
   4 F :   -0.496454
   5 H :    0.361347
   6 H :    0.331637
   7 H :    0.329691
Sum of atomic charges:    0.0000000

LOEWDIN ATOMIC CHARGES
----------------------
   0 C :    0.523615
   1 S :   -0.125608
   2 O :    0.021883
   3 O :   -0.005249
   4 F :    0.247969
   5 H :   -0.209030
   6 H :   -0.227716
   7 H :   -0.225864

  Mayer bond orders larger than 0.100000
B(  0-C ,  1-S ) :   0.8967 B(  0-C ,  5-H ) :   0.8564 B(  0-C ,  6-H ) :   0.8810
B(  0-C ,  7-H ) :   0.8841 B(  1-S ,  2-O ) :   1.5899 B(  1-S ,  3-O ) :   1.5115
B(  1-S ,  4-F ) :   0.5551

E(0)                                       ...   -686.385218246
E(0)                                       ...   -686.385218246
E(CORR)(strong-pairs)                      ...     -1.119875537
E(CORR)(weak-pairs)                        ...     -0.000960990
E(CORR)(corrected)                         ...     -1.120836526
E(TOT)                                     ...   -687.506054773
E(CCSD(T))                                 ...   -687.551572477
FINAL SINGLE POINT ENERGY      -687.551572476507

DIPOLE MOMENT
-------------
                                X             Y             Z
Electronic contribution:     -3.02671       3.09572       3.11674
Nuclear contribution   :      4.28235      -4.23136      -2.39177
                        -----------------------------------------
Total Dipole Moment    :      1.25563      -1.13564       0.72497
                        -----------------------------------------
Magnitude (a.u.)       :      1.84170
Magnitude (Debye)      :      4.68124

Rotational constants in cm-1:     0.164456     0.151338     0.145749
Rotational constants in MHz :  4930.268698  4537.002642  4369.437533

                             ****ORCA TERMINATED NORMALLY****
TOTAL RUN TIME: 0 days 0 hours 56 minutes 28 seconds 390 msec
