                         Program Version 5.0.0 -  RELEASE  -
|  1> !LC-PBE RIJCOSX def2-TZVP def2/J TightSCF
|  2> *xyz -1 1
|  3> C         -1.91658       -2.48508       -3.64367
|  4> C         -1.36353       -1.98134       -2.29361
|  5> O         -0.35039       -2.74969       -1.79601
|  6> H         -2.22622       -1.90839       -1.60204
|  7> H         -1.05135       -0.91567       -2.44333
|  8> H         -1.11522       -2.57167       -4.34739
|  9> H         -2.64227       -1.79099       -4.01314
| 10> H         -2.37564       -3.44180       -3.50640
| 11> *
| 12>
| 13> %MaxCore 64000
| 14> %pal nprocs 4
| 15> end
| 16>
| 17> %scf
| 18>   MaxIter 150
| 19> end
| 20>
| 21>
| 22>                          ****END OF INPUT****

CARTESIAN COORDINATES (ANGSTROEM)
---------------------------------
  C     -1.916580   -2.485080   -3.643670
  C     -1.363530   -1.981340   -2.293610
  O     -0.350390   -2.749690   -1.796010
  H     -2.226220   -1.908390   -1.602040
  H     -1.051350   -0.915670   -2.443330
  H     -1.115220   -2.571670   -4.347390
  H     -2.642270   -1.790990   -4.013140
  H     -2.375640   -3.441800   -3.506400

 Total Charge           Charge          ....   -1
 Multiplicity           Mult            ....    1
 Number of Electrons    NEL             ....   26
 Basis Dimension        Dim             ....  123

ORBITAL ENERGIES
----------------

  NO   OCC          E(Eh)            E(eV)
   0   2.0000     -18.611627      -506.4481
   1   2.0000      -9.919070      -269.9116
   2   2.0000      -9.897678      -269.3295
   3   2.0000      -0.830355       -22.5951
   4   2.0000      -0.688729       -18.7413
   5   2.0000      -0.520540       -14.1646
   6   2.0000      -0.387539       -10.5455
   7   2.0000      -0.361736        -9.8433
   8   2.0000      -0.301183        -8.1956
   9   2.0000      -0.280656        -7.6370
  10   2.0000      -0.231387        -6.2964
  11   2.0000      -0.080570        -2.1924
  12   2.0000      -0.077065        -2.0970
  13   0.0000       0.297604         8.0982
  14   0.0000       0.335818         9.1381
  15   0.0000       0.360460         9.8086
  16   0.0000       0.366077         9.9615
  17   0.0000       0.398298        10.8382

MULLIKEN ATOMIC CHARGES
-----------------------
   0 C :   -0.307768
   1 C :   -0.015095
   2 O :   -0.780156
   3 H :   -0.036334
   4 H :   -0.039175
   5 H :    0.075364
   6 H :    0.030144
   7 H :    0.073020
Sum of atomic charges:   -1.0000000

LOEWDIN ATOMIC CHARGES
----------------------
   0 C :   -0.383891
   1 C :   -0.580321
   2 O :   -0.444507
   3 H :    0.063812
   4 H :    0.062652
   5 H :    0.098447
   6 H :    0.086490
   7 H :    0.097319

  Mayer bond orders larger than 0.100000
B(  0-C ,  1-C ) :   0.9012 B(  0-C ,  2-O ) :  -0.1431 B(  0-C ,  5-H ) :   0.9751
B(  0-C ,  6-H ) :   0.9562 B(  0-C ,  7-H ) :   0.9777 B(  1-C ,  2-O ) :   1.5802
B(  1-C ,  3-H ) :   0.9438 B(  1-C ,  4-H ) :   0.9487

FINAL SINGLE POINT ENERGY      -154.003030365702

DIPOLE MOMENT
-------------
                                X             Y             Z
Electronic contribution:      2.03642      -0.90107       1.79748
Nuclear contribution   :     -3.14382       1.30299      -2.83231
                        -----------------------------------------
Total Dipole Moment    :     -1.10741       0.40192      -1.03482
                        -----------------------------------------
Magnitude (a.u.)       :      1.56804
Magnitude (Debye)      :      3.98564

Rotational constants in cm-1:     1.288206     0.322942     0.285188
Rotational constants in MHz : 38619.437223  9681.562038  8549.712012

                             ****ORCA TERMINATED NORMALLY****
TOTAL RUN TIME: 0 days 0 hours 0 minutes 13 seconds 97 msec
