                         Program Version 5.0.0 -  RELEASE  -
|  1> !LC-PBE RIJCOSX def2-TZVP def2/J TightSCF
|  2> *xyz 1 1
|  3> C          1.64703       -2.34528       -5.02041
|  4> C          2.20996       -2.81239       -3.66571
|  5> C          2.48901       -1.66851       -2.73754
|  6> N          3.59631       -0.94761       -2.95225
|  7> N          1.66394       -1.41369       -1.77781
|  8> H          0.81164       -1.96318       -1.70275
|  9> H          1.84550       -0.63508       -1.15875
| 10> H          4.20535       -1.17600       -3.73383
| 11> H          3.81723       -0.12585       -2.40604
| 12> H          3.14311       -3.36280       -3.81152
| 13> H          1.48768       -3.45893       -3.16521
| 14> H          1.46566       -3.19589       -5.64368
| 15> H          2.35406       -1.69850       -5.49654
| 16> H          0.73014       -1.81680       -4.86253
| 17> *
| 18>
| 19> %MaxCore 64000
| 20> %pal nprocs 4
| 21> end
| 22>
| 23> %scf
| 24>   MaxIter 150
| 25> end
| 26>
| 27>
| 28>                          ****END OF INPUT****

CARTESIAN COORDINATES (ANGSTROEM)
---------------------------------
  C      1.647030   -2.345280   -5.020410
  C      2.209960   -2.812390   -3.665710
  C      2.489010   -1.668510   -2.737540
  N      3.596310   -0.947610   -2.952250
  N      1.663940   -1.413690   -1.777810
  H      0.811640   -1.963180   -1.702750
  H      1.845500   -0.635080   -1.158750
  H      4.205350   -1.176000   -3.733830
  H      3.817230   -0.125850   -2.406040
  H      3.143110   -3.362800   -3.811520
  H      1.487680   -3.458930   -3.165210
  H      1.465660   -3.195890   -5.643680
  H      2.354060   -1.698500   -5.496540
  H      0.730140   -1.816800   -4.862530

 Total Charge           Charge          ....    1
 Multiplicity           Mult            ....    1
 Number of Electrons    NEL             ....   40
 Basis Dimension        Dim             ....  209

ORBITAL ENERGIES
----------------

  NO   OCC          E(Eh)            E(eV)
   0   2.0000     -14.465988      -393.6396
   1   2.0000     -14.455871      -393.3642
   2   2.0000     -10.446733      -284.2701
   3   2.0000     -10.315254      -280.6923
   4   2.0000     -10.268215      -279.4123
   5   2.0000      -1.384586       -37.6765
   6   2.0000      -1.279131       -34.8069
   7   2.0000      -1.146533       -31.1987
   8   2.0000      -1.023772       -27.8582
   9   2.0000      -0.975605       -26.5476
  10   2.0000      -0.925156       -25.1748
  11   2.0000      -0.902130       -24.5482
  12   2.0000      -0.843793       -22.9608
  13   2.0000      -0.799505       -21.7556
  14   2.0000      -0.765588       -20.8327
  15   2.0000      -0.755724       -20.5643
  16   2.0000      -0.677931       -18.4474
  17   2.0000      -0.667432       -18.1617
  18   2.0000      -0.661077       -17.9888
  19   2.0000      -0.623433       -16.9645
  20   0.0000      -0.112289        -3.0555
  21   0.0000      -0.072474        -1.9721
  22   0.0000      -0.027711        -0.7540
  23   0.0000      -0.026341        -0.7168
  24   0.0000       0.007037         0.1915

MULLIKEN ATOMIC CHARGES
-----------------------
   0 C :   -0.421792
   1 C :   -0.367438
   2 C :    0.302615
   3 N :   -0.382853
   4 N :   -0.318022
   5 H :    0.324069
   6 H :    0.302645
   7 H :    0.324424
   8 H :    0.302033
   9 H :    0.214338
  10 H :    0.177197
  11 H :    0.203478
  12 H :    0.165723
  13 H :    0.173583
Sum of atomic charges:    1.0000000

LOEWDIN ATOMIC CHARGES
----------------------
   0 C :   -0.281830
   1 C :   -0.236405
   2 C :   -0.294499
   3 N :    0.085789
   4 N :    0.127443
   5 H :    0.221414
   6 H :    0.209218
   7 H :    0.213789
   8 H :    0.200201
   9 H :    0.174778
  10 H :    0.166305
  11 H :    0.145588
  12 H :    0.132194
  13 H :    0.136016

  Mayer bond orders larger than 0.100000
B(  0-C ,  1-C ) :   0.9416 B(  0-C , 11-H ) :   0.9635 B(  0-C , 12-H ) :   0.9626
B(  0-C , 13-H ) :   0.9535 B(  1-C ,  2-C ) :   0.9568 B(  1-C ,  9-H ) :   0.9462
B(  1-C , 10-H ) :   0.9699 B(  2-C ,  3-N ) :   1.4207 B(  2-C ,  4-N ) :   1.5112
B(  3-N ,  7-H ) :   0.8800 B(  3-N ,  8-H ) :   0.8890 B(  4-N ,  5-H ) :   0.8745
B(  4-N ,  6-H ) :   0.8843

FINAL SINGLE POINT ENERGY      -228.367252843526

DIPOLE MOMENT
-------------
                                X             Y             Z
Electronic contribution:      1.19129       1.65375       3.63587
Nuclear contribution   :     -0.98617      -1.03178      -2.77619
                        -----------------------------------------
Total Dipole Moment    :      0.20513       0.62197       0.85968
                        -----------------------------------------
Magnitude (a.u.)       :      1.08073
Magnitude (Debye)      :      2.74699

Rotational constants in cm-1:     0.257311     0.127495     0.099037
Rotational constants in MHz :  7713.982239  3822.189706  2969.039713

                             ****ORCA TERMINATED NORMALLY****
TOTAL RUN TIME: 0 days 0 hours 0 minutes 28 seconds 166 msec
