                         Program Version 5.0.0 -  RELEASE  -
|  1> !LC-PBE RIJCOSX def2-TZVP def2/J TightSCF
|  2> *xyz 0 1
|  3> C         -1.91658       -2.48508       -3.64367
|  4> C         -1.36353       -1.98134       -2.29361
|  5> F         -0.35039       -2.74969       -1.79601
|  6> H         -2.22622       -1.90839       -1.60204
|  7> H         -1.05135       -0.91567       -2.44333
|  8> H         -1.11522       -2.57167       -4.34739
|  9> H         -2.64227       -1.79099       -4.01314
| 10> H         -2.37564       -3.44180       -3.50640
| 11> *
| 12>
| 13> %MaxCore 64000
| 14> %pal nprocs 4
| 15> end
| 16>
| 17> %scf
| 18>   MaxIter 150
| 19> end
| 20>
| 21>
| 22>                          ****END OF INPUT****

CARTESIAN COORDINATES (ANGSTROEM)
---------------------------------
  C     -1.916580   -2.485080   -3.643670
  C     -1.363530   -1.981340   -2.293610
  F     -0.350390   -2.749690   -1.796010
  H     -2.226220   -1.908390   -1.602040
  H     -1.051350   -0.915670   -2.443330
  H     -1.115220   -2.571670   -4.347390
  H     -2.642270   -1.790990   -4.013140
  H     -2.375640   -3.441800   -3.506400

 Total Charge           Charge          ....    0
 Multiplicity           Mult            ....    1
 Number of Electrons    NEL             ....   26
 Basis Dimension        Dim             ....  123

ORBITAL ENERGIES
----------------

  NO   OCC          E(Eh)            E(eV)
   0   2.0000     -24.474094      -665.9740
   1   2.0000     -10.195410      -277.4312
   2   2.0000     -10.108756      -275.0732
   3   2.0000      -1.354914       -36.8691
   4   2.0000      -0.939440       -25.5635
   5   2.0000      -0.793995       -21.6057
   6   2.0000      -0.657167       -17.8824
   7   2.0000      -0.646862       -17.6020
   8   2.0000      -0.606385       -16.5006
   9   2.0000      -0.546241       -14.8640
  10   2.0000      -0.537225       -14.6186
  11   2.0000      -0.468577       -12.7506
  12   2.0000      -0.459262       -12.4972
  13   0.0000       0.125649         3.4191
  14   0.0000       0.165057         4.4914
  15   0.0000       0.184928         5.0321
  16   0.0000       0.192653         5.2424
  17   0.0000       0.201565         5.4849

MULLIKEN ATOMIC CHARGES
-----------------------
   0 C :   -0.426994
   1 C :   -0.039843
   2 F :   -0.209317
   3 H :    0.117372
   4 H :    0.117281
   5 H :    0.150227
   6 H :    0.142922
   7 H :    0.148351
Sum of atomic charges:    0.0000000

LOEWDIN ATOMIC CHARGES
----------------------
   0 C :   -0.331664
   1 C :   -0.398937
   2 F :    0.105191
   3 H :    0.123999
   4 H :    0.125892
   5 H :    0.124318
   6 H :    0.128060
   7 H :    0.123141

  Mayer bond orders larger than 0.100000
B(  0-C ,  1-C ) :   0.9819 B(  0-C ,  5-H ) :   0.9670 B(  0-C ,  6-H ) :   0.9579
B(  0-C ,  7-H ) :   0.9682 B(  1-C ,  2-F ) :   1.0197 B(  1-C ,  3-H ) :   0.9723
B(  1-C ,  4-H ) :   0.9743

FINAL SINGLE POINT ENERGY      -178.630645665922

DIPOLE MOMENT
-------------
                                X             Y             Z
Electronic contribution:      3.59408      -1.33596       3.41697
Nuclear contribution   :     -4.15401       1.70894      -3.75000
                        -----------------------------------------
Total Dipole Moment    :     -0.55993       0.37297      -0.33303
                        -----------------------------------------
Magnitude (a.u.)       :      0.75070
Magnitude (Debye)      :      1.90812

Rotational constants in cm-1:     1.266842     0.300492     0.266603
Rotational constants in MHz : 37978.968232  9008.526876  7992.551454

                             ****ORCA TERMINATED NORMALLY****
TOTAL RUN TIME: 0 days 0 hours 0 minutes 12 seconds 509 msec
