                         Program Version 5.0.0 -  RELEASE  -
|  1> !LC-PBE RIJCOSX def2-TZVP def2/J TightSCF
|  2> *xyz 0 1
|  3> C          1.64703       -2.34528       -5.02041
|  4> C          2.20996       -2.81239       -3.66571
|  5> C          2.48901       -1.66851       -2.73754
|  6> C          3.59631       -0.94761       -2.95225
|  7> N          1.66394       -1.41369       -1.77781
|  8> H          0.81164       -1.96318       -1.70275
|  9> H          1.84550       -0.63508       -1.15875
| 10> H          4.20535       -1.17600       -3.73383
| 11> H          3.81723       -0.12585       -2.40604
| 12> H          3.14311       -3.36280       -3.81152
| 13> H          1.48768       -3.45893       -3.16521
| 14> H          1.46566       -3.19589       -5.64368
| 15> H          2.35406       -1.69850       -5.49654
| 16> H          0.73014       -1.81680       -4.86253
| 17> *
| 18>
| 19> %MaxCore 64000
| 20> %pal nprocs 4
| 21> end
| 22>
| 23> %scf
| 24>   MaxIter 150
| 25> end
| 26>
| 27>
| 28>                          ****END OF INPUT****

CARTESIAN COORDINATES (ANGSTROEM)
---------------------------------
  C      1.647030   -2.345280   -5.020410
  C      2.209960   -2.812390   -3.665710
  C      2.489010   -1.668510   -2.737540
  C      3.596310   -0.947610   -2.952250
  N      1.663940   -1.413690   -1.777810
  H      0.811640   -1.963180   -1.702750
  H      1.845500   -0.635080   -1.158750
  H      4.205350   -1.176000   -3.733830
  H      3.817230   -0.125850   -2.406040
  H      3.143110   -3.362800   -3.811520
  H      1.487680   -3.458930   -3.165210
  H      1.465660   -3.195890   -5.643680
  H      2.354060   -1.698500   -5.496540
  H      0.730140   -1.816800   -4.862530

 Total Charge           Charge          ....    0
 Multiplicity           Mult            ....    1
 Number of Electrons    NEL             ....   40
 Basis Dimension        Dim             ....  209

ORBITAL ENERGIES
----------------

  NO   OCC          E(Eh)            E(eV)
   0   2.0000     -14.216308      -386.8454
   1   2.0000     -10.139471      -275.9090
   2   2.0000     -10.115163      -275.2476
   3   2.0000     -10.096867      -274.7497
   4   2.0000     -10.039766      -273.1959
   5   2.0000      -1.114212       -30.3193
   6   2.0000      -0.956387       -26.0246
   7   2.0000      -0.878060       -23.8932
   8   2.0000      -0.803244       -21.8574
   9   2.0000      -0.719970       -19.5914
  10   2.0000      -0.678669       -18.4675
  11   2.0000      -0.627627       -17.0786
  12   2.0000      -0.585259       -15.9257
  13   2.0000      -0.551853       -15.0167
  14   2.0000      -0.532475       -14.4894
  15   2.0000      -0.516381       -14.0514
  16   2.0000      -0.480479       -13.0745
  17   2.0000      -0.470944       -12.8150
  18   2.0000      -0.461665       -12.5625
  19   2.0000      -0.301975        -8.2172
  20   0.0000       0.109474         2.9789
  21   0.0000       0.134298         3.6544
  22   0.0000       0.152578         4.1519
  23   0.0000       0.158712         4.3188
  24   0.0000       0.175888         4.7861

MULLIKEN ATOMIC CHARGES
-----------------------
   0 C :   -0.408161
   1 C :   -0.318940
   2 C :    0.194961
   3 C :   -0.520575
   4 N :   -0.447282
   5 H :    0.252739
   6 H :    0.256230
   7 H :    0.138043
   8 H :    0.127788
   9 H :    0.166827
  10 H :    0.116947
  11 H :    0.144652
  12 H :    0.156042
  13 H :    0.140729
Sum of atomic charges:    0.0000000

LOEWDIN ATOMIC CHARGES
----------------------
   0 C :   -0.310656
   1 C :   -0.252990
   2 C :   -0.385449
   3 C :   -0.303103
   4 N :    0.008873
   5 H :    0.180274
   6 H :    0.183342
   7 H :    0.110774
   8 H :    0.099747
   9 H :    0.157493
  10 H :    0.139790
  11 H :    0.120855
  12 H :    0.127249
  13 H :    0.123801

  Mayer bond orders larger than 0.100000
B(  0-C ,  1-C ) :   0.9446 B(  0-C , 11-H ) :   0.9800 B(  0-C , 12-H ) :   0.9704
B(  0-C , 13-H ) :   0.9712 B(  1-C ,  2-C ) :   0.9067 B(  1-C ,  9-H ) :   0.9863
B(  1-C , 10-H ) :   0.9952 B(  2-C ,  3-C ) :   1.7231 B(  2-C ,  4-N ) :   1.1999
B(  3-C ,  7-H ) :   0.9942 B(  3-C ,  8-H ) :   0.9939 B(  4-N ,  5-H ) :   0.9202
B(  4-N ,  6-H ) :   0.9172

FINAL SINGLE POINT ENERGY      -211.910373789203

DIPOLE MOMENT
-------------
                                X             Y             Z
Electronic contribution:     -0.07881       0.63673       3.01887
Nuclear contribution   :     -0.69146      -0.83112      -2.71336
                        -----------------------------------------
Total Dipole Moment    :     -0.77027      -0.19439       0.30551
                        -----------------------------------------
Magnitude (a.u.)       :      0.85114
Magnitude (Debye)      :      2.16344

Rotational constants in cm-1:     0.270661     0.129240     0.102040
Rotational constants in MHz :  8114.202941  3874.518141  3059.074383

                             ****ORCA TERMINATED NORMALLY****
TOTAL RUN TIME: 0 days 0 hours 0 minutes 30 seconds 25 msec
