                         Program Version 5.0.0 -  RELEASE  -
|  1> !LC-PBE RIJCOSX def2-TZVP def2/J TightSCF
|  2> *xyz 0 1
|  3> C          1.64703       -2.34528       -5.02041
|  4> C          2.20996       -2.81239       -3.66571
|  5> C          2.48901       -1.66851       -2.73754
|  6> N          3.59631       -0.94761       -2.95225
|  7> C          1.66394       -1.41369       -1.77781
|  8> H          0.81164       -1.96318       -1.70275
|  9> H          1.84550       -0.63508       -1.15875
| 10> H          4.20535       -1.17600       -3.73383
| 11> H          3.81723       -0.12585       -2.40604
| 12> H          3.14311       -3.36280       -3.81152
| 13> H          1.48768       -3.45893       -3.16521
| 14> H          1.46566       -3.19589       -5.64368
| 15> H          2.35406       -1.69850       -5.49654
| 16> H          0.73014       -1.81680       -4.86253
| 17> *
| 18>
| 19> %MaxCore 64000
| 20> %pal nprocs 4
| 21> end
| 22>
| 23> %scf
| 24>   MaxIter 150
| 25> end
| 26>
| 27>
| 28>                          ****END OF INPUT****

CARTESIAN COORDINATES (ANGSTROEM)
---------------------------------
  C      1.647030   -2.345280   -5.020410
  C      2.209960   -2.812390   -3.665710
  C      2.489010   -1.668510   -2.737540
  N      3.596310   -0.947610   -2.952250
  C      1.663940   -1.413690   -1.777810
  H      0.811640   -1.963180   -1.702750
  H      1.845500   -0.635080   -1.158750
  H      4.205350   -1.176000   -3.733830
  H      3.817230   -0.125850   -2.406040
  H      3.143110   -3.362800   -3.811520
  H      1.487680   -3.458930   -3.165210
  H      1.465660   -3.195890   -5.643680
  H      2.354060   -1.698500   -5.496540
  H      0.730140   -1.816800   -4.862530

 Total Charge           Charge          ....    0
 Multiplicity           Mult            ....    1
 Number of Electrons    NEL             ....   40
 Basis Dimension        Dim             ....  209

ORBITAL ENERGIES
----------------

  NO   OCC          E(Eh)            E(eV)
   0   2.0000     -14.209139      -386.6503
   1   2.0000     -10.135471      -275.8002
   2   2.0000     -10.113403      -275.1997
   3   2.0000     -10.097884      -274.7774
   4   2.0000     -10.043236      -273.2903
   5   2.0000      -1.095870       -29.8201
   6   2.0000      -0.955417       -25.9982
   7   2.0000      -0.892938       -24.2981
   8   2.0000      -0.798169       -21.7193
   9   2.0000      -0.716108       -19.4863
  10   2.0000      -0.666296       -18.1308
  11   2.0000      -0.627748       -17.0819
  12   2.0000      -0.575553       -15.6616
  13   2.0000      -0.564586       -15.3632
  14   2.0000      -0.532742       -14.4967
  15   2.0000      -0.521495       -14.1906
  16   2.0000      -0.480483       -13.0746
  17   2.0000      -0.462520       -12.5858
  18   2.0000      -0.460272       -12.5246
  19   2.0000      -0.315034        -8.5725
  20   0.0000       0.110508         3.0071
  21   0.0000       0.138333         3.7642
  22   0.0000       0.155715         4.2372
  23   0.0000       0.163177         4.4403
  24   0.0000       0.172715         4.6998

MULLIKEN ATOMIC CHARGES
-----------------------
   0 C :   -0.404470
   1 C :   -0.326517
   2 C :    0.226487
   3 N :   -0.506850
   4 C :   -0.482241
   5 H :    0.135155
   6 H :    0.125378
   7 H :    0.255311
   8 H :    0.252138
   9 H :    0.142701
  10 H :    0.147869
  11 H :    0.147637
  12 H :    0.132582
  13 H :    0.154820
Sum of atomic charges:   -0.0000000

LOEWDIN ATOMIC CHARGES
----------------------
   0 C :   -0.313982
   1 C :   -0.253221
   2 C :   -0.374276
   3 N :   -0.026758
   4 C :   -0.273583
   5 H :    0.117105
   6 H :    0.107710
   7 H :    0.174018
   8 H :    0.173602
   9 H :    0.144933
  10 H :    0.154769
  11 H :    0.121938
  12 H :    0.120312
  13 H :    0.127433

  Mayer bond orders larger than 0.100000
B(  0-C ,  1-C ) :   0.9367 B(  0-C , 11-H ) :   0.9799 B(  0-C , 12-H ) :   0.9716
B(  0-C , 13-H ) :   0.9711 B(  1-C ,  2-C ) :   0.9305 B(  1-C ,  9-H ) :   0.9830
B(  1-C , 10-H ) :   0.9922 B(  2-C ,  3-N ) :   1.1194 B(  2-C ,  4-C ) :   1.7817
B(  3-N ,  7-H ) :   0.9245 B(  3-N ,  8-H ) :   0.9232 B(  4-C ,  5-H ) :   0.9933
B(  4-C ,  6-H ) :   0.9957

FINAL SINGLE POINT ENERGY      -211.915254529975

DIPOLE MOMENT
-------------
                                X             Y             Z
Electronic contribution:      1.65261       1.06748       1.97921
Nuclear contribution   :     -1.13902      -0.93906      -2.44135
                        -----------------------------------------
Total Dipole Moment    :      0.51359       0.12842      -0.46214
                        -----------------------------------------
Magnitude (a.u.)       :      0.70274
Magnitude (Debye)      :      1.78621

Rotational constants in cm-1:     0.267243     0.130607     0.102304
Rotational constants in MHz :  8011.748167  3915.504600  3066.999841

                             ****ORCA TERMINATED NORMALLY****
TOTAL RUN TIME: 0 days 0 hours 0 minutes 31 seconds 723 msec
