                         Program Version 5.0.0 -  RELEASE  -
|  1> !LC-PBE RIJCOSX def2-TZVP def2/J TightSCF xyzfile
|  2>
|  3> *xyzfile 0 1 D1.xyz
|  4>
|  5> %MaxCore 64000
|  6>
|  7> %pal nprocs 18
|  8> end
|  9>
| 10> %scf
| 11>   MaxIter 150
| 12> end
| 13>
| 14>
| 15>                          ****END OF INPUT****

CARTESIAN COORDINATES (ANGSTROEM)
---------------------------------
  C      1.647032   -2.345276   -5.020411
  C      0.217628   -1.814022   -4.924389
  C      2.209964   -2.812388   -3.665708
  C     -0.811356   -2.908780   -4.607625
  C     -1.916579   -2.485081   -3.643665
  H     -2.554525   -1.712428   -4.091993
  C     -1.363531   -1.981337   -2.293608
  H     -2.553448   -3.355667   -3.458815
  F     -0.350395   -2.749689   -1.796006
  H      2.308385   -1.588704   -5.457128
  H      1.674286   -3.203478   -5.697392
  C      2.489007   -1.668510   -2.737538
  C      3.596314   -0.947608   -2.952247
  N      1.663936   -1.413685   -1.777806
  H      0.811642   -1.963178   -1.702755
  H      1.845503   -0.635078   -1.158749
  H      4.205351   -1.176003   -3.733825
  H      3.817230   -0.125845   -2.406041
  H     -1.244829   -3.280884   -5.541040
  H     -0.306331   -3.757746   -4.142734
  H     -0.036244   -1.318555   -5.865303
  H      0.175004   -1.035382   -4.158095
  H      3.143106   -3.362803   -3.811524
  H      1.487683   -3.458935   -3.165211
  H     -2.226220   -1.908386   -1.602039
  H     -1.051353   -0.915671   -2.443331

 Total Charge           Charge          ....    0
 Multiplicity           Mult            ....    1
 Number of Electrons    NEL             ....   80
 Basis Dimension        Dim             ....  406

ORBITAL ENERGIES
----------------

  NO   OCC          E(Eh)            E(eV)
   0   2.0000     -24.523967      -667.3311
   1   2.0000     -14.180223      -385.8635
   2   2.0000     -10.215426      -277.9759
   3   2.0000     -10.133916      -275.7579
   4   2.0000     -10.123684      -275.4794
   5   2.0000     -10.117296      -275.3056
   6   2.0000     -10.108710      -275.0720
   7   2.0000     -10.105788      -274.9925
   8   2.0000     -10.101269      -274.8695
   9   2.0000     -10.024396      -272.7777
  10   2.0000      -1.412736       -38.4425
  11   2.0000      -1.092304       -29.7231
  12   2.0000      -1.004387       -27.3308
  13   2.0000      -0.958207       -26.0741
  14   2.0000      -0.908834       -24.7306
  15   2.0000      -0.860999       -23.4290
  16   2.0000      -0.834543       -22.7091
  17   2.0000      -0.774120       -21.0649
  18   2.0000      -0.747967       -20.3532
  19   2.0000      -0.732785       -19.9401
  20   2.0000      -0.688215       -18.7273
  21   2.0000      -0.680849       -18.5268
  22   2.0000      -0.661797       -18.0084
  23   2.0000      -0.633377       -17.2351
  24   2.0000      -0.613119       -16.6838
  25   2.0000      -0.605789       -16.4844
  26   2.0000      -0.582081       -15.8392
  27   2.0000      -0.559600       -15.2275
  28   2.0000      -0.559069       -15.2131
  29   2.0000      -0.525893       -14.3103
  30   2.0000      -0.503257       -13.6943
  31   2.0000      -0.496605       -13.5133
  32   2.0000      -0.492573       -13.4036
  33   2.0000      -0.485963       -13.2237
  34   2.0000      -0.471504       -12.8303
  35   2.0000      -0.459829       -12.5126
  36   2.0000      -0.446613       -12.1530
  37   2.0000      -0.439063       -11.9475
  38   2.0000      -0.432433       -11.7671
  39   2.0000      -0.284179        -7.7329
  40   0.0000       0.112097         3.0503
  41   0.0000       0.125254         3.4083
  42   0.0000       0.134977         3.6729
  43   0.0000       0.146586         3.9888
  44   0.0000       0.151227         4.1151

MULLIKEN ATOMIC CHARGES
-----------------------
   0 C :   -0.265023
   1 C :   -0.305831
   2 C :   -0.395915
   3 C :   -0.330962
   4 C :   -0.275313
   5 H :    0.158408
   6 C :   -0.170144
   7 H :    0.153445
   8 F :   -0.177289
   9 H :    0.164009
  10 H :    0.144100
  11 C :    0.192726
  12 C :   -0.530163
  13 N :   -0.475710
  14 H :    0.293994
  15 H :    0.238111
  16 H :    0.130331
  17 H :    0.122375
  18 H :    0.157487
  19 H :    0.174109
  20 H :    0.152396
  21 H :    0.163861
  22 H :    0.180683
  23 H :    0.163827
  24 H :    0.157795
  25 H :    0.178694
Sum of atomic charges:   -0.0000000

LOEWDIN ATOMIC CHARGES
----------------------
   0 C :   -0.272953
   1 C :   -0.277004
   2 C :   -0.230507
   3 C :   -0.287087
   4 C :   -0.293622
   5 H :    0.153029
   6 C :   -0.375966
   7 H :    0.146507
   8 F :    0.176951
   9 H :    0.149006
  10 H :    0.143371
  11 C :   -0.386984
  12 C :   -0.316981
  13 N :    0.008566
  14 H :    0.120974
  15 H :    0.174802
  16 H :    0.107920
  17 H :    0.097642
  18 H :    0.145890
  19 H :    0.149532
  20 H :    0.142946
  21 H :    0.147463
  22 H :    0.158781
  23 H :    0.143835
  24 H :    0.135806
  25 H :    0.138082

  Mayer bond orders larger than 0.100000
B(  0-C ,  1-C ) :   0.9502 B(  0-C ,  2-C ) :   0.9160 B(  0-C ,  9-H ) :   0.9694
B(  0-C , 10-H ) :   0.9797 B(  1-C ,  3-C ) :   0.8785 B(  1-C , 20-H ) :   0.9728
B(  1-C , 21-H ) :   0.9853 B(  2-C , 11-C ) :   0.8771 B(  2-C , 22-H ) :   0.9828
B(  2-C , 23-H ) :   1.0184 B(  3-C ,  4-C ) :   0.9359 B(  3-C , 18-H ) :   0.9719
B(  3-C , 19-H ) :   0.9864 B(  4-C ,  5-H ) :   0.9562 B(  4-C ,  6-C ) :   0.9654
B(  4-C ,  7-H ) :   0.9761 B(  6-C ,  8-F ) :   0.9311 B(  6-C , 24-H ) :   0.9760
B(  6-C , 25-H ) :   0.9789 B(  8-F , 14-H ) :   0.1145 B( 11-C , 12-C ) :   1.7082
B( 11-C , 13-N ) :   1.2275 B( 12-C , 16-H ) :   0.9947 B( 12-C , 17-H ) :   0.9975
B( 13-N , 14-H ) :   0.8410 B( 13-N , 15-H ) :   0.9257

FINAL SINGLE POINT ENERGY      -467.712326854843

DIPOLE MOMENT
-------------
                                X             Y             Z
Electronic contribution:     -1.34155      -1.73151       6.89808
Nuclear contribution   :     -0.37390       1.73388      -6.94752
                        -----------------------------------------
Total Dipole Moment    :     -1.71546       0.00238      -0.04945
                        -----------------------------------------
Magnitude (a.u.)       :      1.71617
Magnitude (Debye)      :      4.36216

Rotational constants in cm-1:     0.062220     0.032742     0.024374
Rotational constants in MHz :  1865.297979   981.573941   730.711364

                             ****ORCA TERMINATED NORMALLY****
TOTAL RUN TIME: 0 days 0 hours 0 minutes 42 seconds 12 msec
