                         Program Version 5.0.0 -  RELEASE  -
|  1> !PBE D3BJ RIJCOSX def2-SVPD def2/J TightSCF
|  2> *xyz -1 1
|  3> C          0.28725       -1.71177       -2.52740
|  4> O          0.71050       -0.92751       -1.48177
|  5> H          0.92384       -1.55316       -3.37267
|  6> H         -0.71828       -1.45137       -2.78433
|  7> H          0.32655       -2.74158       -2.23955
|  8> *
|  9> %MaxCore 64000
| 10>
| 11> %pal nprocs 4
| 12> end
| 13>
| 14> %scf
| 15>   MaxIter 150
| 16> end
| 17>
| 18>
| 19>                          ****END OF INPUT****

CARTESIAN COORDINATES (ANGSTROEM)
---------------------------------
  C      0.287250   -1.711770   -2.527400
  O      0.710500   -0.927510   -1.481770
  H      0.923840   -1.553160   -3.372670
  H     -0.718280   -1.451370   -2.784330
  H      0.326550   -2.741580   -2.239550

 Total Charge           Charge          ....   -1
 Multiplicity           Mult            ....    1
 Number of Electrons    NEL             ....   18
 Basis Dimension        Dim             ....   67

ORBITAL ENERGIES
----------------

  NO   OCC          E(Eh)            E(eV)
   0   2.0000     -18.417699      -501.1711
   1   2.0000      -9.681031      -263.4343
   2   2.0000      -0.568494       -15.4695
   3   2.0000      -0.327891        -8.9224
   4   2.0000      -0.148471        -4.0401
   5   2.0000      -0.148469        -4.0401
   6   2.0000      -0.055944        -1.5223
   7   2.0000       0.092071         2.5054
   8   2.0000       0.092073         2.5054
   9   0.0000       0.182427         4.9641
  10   0.0000       0.251676         6.8485
  11   0.0000       0.251677         6.8485
  12   0.0000       0.258607         7.0371
  13   0.0000       0.294931         8.0255

MULLIKEN ATOMIC CHARGES
-----------------------
   0 C :    0.827460
   1 O :   -1.014491
   2 H :   -0.271009
   3 H :   -0.270981
   4 H :   -0.270978
Sum of atomic charges:   -1.0000000

LOEWDIN ATOMIC CHARGES
----------------------
   0 C :   -0.124809
   1 O :   -0.623406
   2 H :   -0.083931
   3 H :   -0.083926
   4 H :   -0.083927

  Mayer bond orders larger than 0.100000
B(  0-C ,  1-O ) :   1.1413 B(  0-C ,  2-H ) :   0.9136 B(  0-C ,  3-H ) :   0.9136
B(  0-C ,  4-H ) :   0.9136

Dispersion correction           -0.001470771
FINAL SINGLE POINT ENERGY      -114.883185378956

DIPOLE MOMENT
-------------
                                X             Y             Z
Electronic contribution:      0.59343       1.09959       1.46603
Nuclear contribution   :     -0.89006      -1.64923      -2.19886
                        -----------------------------------------
Total Dipole Moment    :     -0.29663      -0.54964      -0.73284
                        -----------------------------------------
Magnitude (a.u.)       :      0.96289
Magnitude (Debye)      :      2.44746

Rotational constants in cm-1:     5.477712     0.934243     0.934241
Rotational constants in MHz : 164217.678885 28007.889263 28007.851448

                             ****ORCA TERMINATED NORMALLY****
TOTAL RUN TIME: 0 days 0 hours 0 minutes 2 seconds 306 msec
