                         Program Version 5.0.0 -  RELEASE  -
|  1> !PBE D3BJ RIJCOSX def2-SVPD def2/J TightSCF
|  2> *xyz 1 1
|  3> C          3.48828        1.60092       -1.52204
|  4> N          2.81029        0.42878       -1.01420
|  5> C          3.29098       -0.41802       -0.12908
|  6> N          2.51754       -1.43202        0.23936
|  7> N          4.53549       -0.28441        0.39580
|  8> H          5.04363        0.57189        0.22290
|  9> H          4.72335       -0.73327        1.28180
| 10> H          1.93479        0.10230       -1.40379
| 11> H          1.67464       -1.50562       -0.31610
| 12> H          2.92850       -2.21850        0.72549
| 13> H          2.85802        2.09943       -2.22855
| 14> H          4.39853        1.30677       -2.00144
| 15> H          3.70992        2.26379       -0.71187
| 16> *
| 17> %MaxCore 64000
| 18>
| 19> %pal nprocs 4
| 20> end
| 21>
| 22> %scf
| 23>   MaxIter 150
| 24> end
| 25>
| 26>
| 27>                          ****END OF INPUT****

CARTESIAN COORDINATES (ANGSTROEM)
---------------------------------
  C      3.488280    1.600920   -1.522040
  N      2.810290    0.428780   -1.014200
  C      3.290980   -0.418020   -0.129080
  N      2.517540   -1.432020    0.239360
  N      4.535490   -0.284410    0.395800
  H      5.043630    0.571890    0.222900
  H      4.723350   -0.733270    1.281800
  H      1.934790    0.102300   -1.403790
  H      1.674640   -1.505620   -0.316100
  H      2.928500   -2.218500    0.725490
  H      2.858020    2.099430   -2.228550
  H      4.398530    1.306770   -2.001440
  H      3.709920    2.263790   -0.711870

 Total Charge           Charge          ....    1
 Multiplicity           Mult            ....    1
 Number of Electrons    NEL             ....   40
 Basis Dimension        Dim             ....  164

ORBITAL ENERGIES
----------------

  NO   OCC          E(Eh)            E(eV)
   0   2.0000     -14.236191      -387.3865
   1   2.0000     -14.226837      -387.1319
   2   2.0000     -14.226579      -387.1249
   3   2.0000     -10.222484      -278.1679
   4   2.0000     -10.104576      -274.9595
   5   2.0000      -1.133056       -30.8320
   6   2.0000      -1.027286       -27.9539
   7   2.0000      -1.014219       -27.5983
   8   2.0000      -0.845076       -22.9957
   9   2.0000      -0.771577       -20.9957
  10   2.0000      -0.731963       -19.9177
  11   2.0000      -0.708044       -19.2668
  12   2.0000      -0.650420       -17.6988
  13   2.0000      -0.640655       -17.4331
  14   2.0000      -0.615895       -16.7593
  15   2.0000      -0.603774       -16.4295
  16   2.0000      -0.550079       -14.9684
  17   2.0000      -0.540028       -14.6949
  18   2.0000      -0.443885       -12.0787
  19   2.0000      -0.423780       -11.5316
  20   0.0000      -0.210382        -5.7248
  21   0.0000      -0.185151        -5.0382
  22   0.0000      -0.147816        -4.0223
  23   0.0000      -0.136957        -3.7268
  24   0.0000      -0.110006        -2.9934

MULLIKEN ATOMIC CHARGES
-----------------------
   0 C :    1.145326
   1 N :   -0.575144
   2 C :    1.245856
   3 N :    0.020930
   4 N :   -0.026382
   5 H :   -0.054403
   6 H :   -0.080570
   7 H :   -0.219123
   8 H :    0.018549
   9 H :   -0.101143
  10 H :   -0.353176
  11 H :   -0.005158
  12 H :   -0.015562
Sum of atomic charges:    1.0000000

LOEWDIN ATOMIC CHARGES
----------------------
   0 C :    0.254503
   1 N :    0.023055
   2 C :   -0.058776
   3 N :    0.274928
   4 N :    0.295711
   5 H :    0.013274
   6 H :    0.034140
   7 H :    0.053539
   8 H :    0.031814
   9 H :    0.043900
  10 H :    0.016211
  11 H :    0.009269
  12 H :    0.008432

  Mayer bond orders larger than 0.100000
B(  0-C ,  1-N ) :   0.9987 B(  0-C ,  7-H ) :  -0.1267 B(  0-C , 10-H ) :   0.8200
B(  0-C , 11-H ) :   0.8015 B(  0-C , 12-H ) :   0.7870 B(  1-N ,  2-C ) :   0.9918
B(  1-N ,  3-N ) :   0.2826 B(  1-N ,  4-N ) :   0.2446 B(  1-N ,  7-H ) :   1.2883
B(  1-N , 10-H ) :   0.1974 B(  1-N , 11-H ) :   0.1646 B(  1-N , 12-H ) :   0.1729
B(  2-C ,  3-N ) :   0.9108 B(  2-C ,  4-N ) :   0.9627 B(  2-C ,  5-H ) :  -0.1197
B(  2-C ,  6-H ) :  -0.1059 B(  2-C ,  7-H ) :  -0.2416 B(  2-C ,  9-H ) :  -0.1182
B(  3-N ,  4-N ) :   0.1758 B(  3-N ,  8-H ) :   1.0566 B(  3-N ,  9-H ) :   1.2021
B(  4-N ,  5-H ) :   1.0605 B(  4-N ,  6-H ) :   1.1776 B(  5-H ,  6-H ) :  -0.1383
B(  8-H ,  9-H ) :  -0.1428

Dispersion correction           -0.009145135
FINAL SINGLE POINT ENERGY      -244.624177477948

DIPOLE MOMENT
-------------
                                X             Y             Z
Electronic contribution:     -0.68172      -2.28308       1.33397
Nuclear contribution   :      0.56176       1.95858      -1.15445
                        -----------------------------------------
Total Dipole Moment    :     -0.11996      -0.32449       0.17952
                        -----------------------------------------
Magnitude (a.u.)       :      0.38976
Magnitude (Debye)      :      0.99069

Rotational constants in cm-1:     0.309570     0.135399     0.096056
Rotational constants in MHz :  9280.673410  4059.171112  2879.675555

                             ****ORCA TERMINATED NORMALLY****
TOTAL RUN TIME: 0 days 0 hours 0 minutes 6 seconds 140 msec
