                         Program Version 5.0.0 -  RELEASE  -
|  1> !PBE D3BJ RIJCOSX def2-SVPD def2/J TightSCF xyzfile
|  2>
|  3> *xyzfile 0 1 B.xyz
|  4>
|  5> %MaxCore 64000
|  6>
|  7> %pal nprocs 4
|  8> end
|  9>
| 10> %scf
| 11>   MaxIter 150
| 12> end
| 13>
| 14>
| 15>                          ****END OF INPUT****

CARTESIAN COORDINATES (ANGSTROEM)
---------------------------------
  C      3.488276    1.600919   -1.522040
  C      4.342970    1.313419   -2.756826
  N      2.810285    0.428783   -1.014196
  H      5.132033    0.604994   -2.484466
  C      3.535896    0.749253   -3.924604
  H      4.841247    2.242136   -3.054083
  H      2.991617   -0.132199   -3.574137
  H      4.225505    0.392784   -4.695962
  C      2.564776    1.750890   -4.544523
  H      1.918749    2.171679   -3.769419
  C      1.686235    1.161657   -5.650111
  H      3.132494    2.594775   -4.951604
  C      0.839616   -0.037582   -5.220473
  H      2.323886    0.866395   -6.490796
  H      1.029518    1.951850   -6.029329
  C     -0.151019    0.254955   -4.094256
  H      1.499442   -0.857141   -4.922958
  H      0.290097   -0.410143   -6.091131
  H      0.328265    0.833022   -3.299125
  C     -0.721843   -0.999513   -3.439309
  H     -0.957367    0.884951   -4.485450
  H     -1.083403   -1.697555   -4.205656
  H     -1.581056   -0.723848   -2.820490
  C      0.287250   -1.711771   -2.527405
  H      1.131780   -2.067380   -3.159396
  H     -0.204137   -2.637326   -2.170480
  O      0.710505   -0.927506   -1.481767
  H      2.714548    2.331455   -1.760302
  H      4.090991    2.063151   -0.733382
  C      3.290978   -0.418021   -0.129083
  N      2.517536   -1.432017    0.239360
  N      4.535490   -0.284410    0.395800
  H      5.043627    0.571888    0.222899
  H      4.723346   -0.733273    1.281800
  H      1.934787    0.102305   -1.403788
  H      1.674638   -1.505616   -0.316095
  H      2.928503   -2.218502    0.725494

 Total Charge           Charge          ....    0
 Multiplicity           Mult            ....    1
 Number of Electrons    NEL             ....  112
 Basis Dimension        Dim             ....  467

ORBITAL ENERGIES
----------------

  NO   OCC          E(Eh)            E(eV)
   0   2.0000     -18.645081      -507.3584
   1   2.0000     -14.057653      -382.5282
   2   2.0000     -14.021293      -381.5388
   3   2.0000     -14.013542      -381.3279
   4   2.0000     -10.030896      -272.9546
   5   2.0000      -9.948680      -270.7173
   6   2.0000      -9.906142      -269.5598
   7   2.0000      -9.889735      -269.1134
   8   2.0000      -9.884255      -268.9643
   9   2.0000      -9.877456      -268.7793
  10   2.0000      -9.876185      -268.7447
  11   2.0000      -9.866058      -268.4691
  12   2.0000      -9.856094      -268.1979
  13   2.0000      -9.844503      -267.8825
  14   2.0000      -0.941097       -25.6085
  15   2.0000      -0.843294       -22.9472
  16   2.0000      -0.824783       -22.4435
  17   2.0000      -0.794809       -21.6278
  18   2.0000      -0.733237       -19.9524
  19   2.0000      -0.701132       -19.0788
  20   2.0000      -0.665417       -18.1069
  21   2.0000      -0.631745       -17.1907
  22   2.0000      -0.593161       -16.1407
  23   2.0000      -0.586833       -15.9685
  24   2.0000      -0.551275       -15.0009
  25   2.0000      -0.541922       -14.7465
  26   2.0000      -0.534507       -14.5447
  27   2.0000      -0.508488       -13.8367
  28   2.0000      -0.484779       -13.1915
  29   2.0000      -0.469050       -12.7635
  30   2.0000      -0.456610       -12.4250
  31   2.0000      -0.444923       -12.1070
  32   2.0000      -0.434134       -11.8134
  33   2.0000      -0.425190       -11.5700
  34   2.0000      -0.413716       -11.2578
  35   2.0000      -0.403689       -10.9849
  36   2.0000      -0.388356       -10.5677
  37   2.0000      -0.374622       -10.1940
  38   2.0000      -0.368565       -10.0292
  39   2.0000      -0.349956        -9.5228
  40   2.0000      -0.346349        -9.4246
  41   2.0000      -0.335873        -9.1396
  42   2.0000      -0.317978        -8.6526
  43   2.0000      -0.311141        -8.4666
  44   2.0000      -0.303827        -8.2676
  45   2.0000      -0.293022        -7.9735
  46   2.0000      -0.281804        -7.6683
  47   2.0000      -0.274015        -7.4563
  48   2.0000      -0.270845        -7.3701
  49   2.0000      -0.265328        -7.2200
  50   2.0000      -0.251589        -6.8461
  51   2.0000      -0.247904        -6.7458
  52   2.0000      -0.242933        -6.6105
  53   2.0000      -0.230118        -6.2618
  54   2.0000      -0.142098        -3.8667
  55   2.0000      -0.134178        -3.6512
  56   0.0000      -0.031492        -0.8569
  57   0.0000      -0.025939        -0.7058
  58   0.0000      -0.000165        -0.0045
  59   0.0000       0.016171         0.4400
  60   0.0000       0.016672         0.4537

MULLIKEN ATOMIC CHARGES
-----------------------
   0 C :    1.240663
   1 C :    0.291632
   2 N :    0.141381
   3 H :   -0.067588
   4 C :    0.317809
   5 H :   -0.114938
   6 H :   -0.327361
   7 H :   -0.146007
   8 C :   -0.112276
   9 H :    0.092899
  10 C :    0.645704
  11 H :   -0.239250
  12 C :   -0.036548
  13 H :   -0.039734
  14 H :   -0.139035
  15 C :    0.161768
  16 H :   -0.008406
  17 H :   -0.233247
  18 H :   -0.272299
  19 C :    0.262904
  20 H :   -0.119263
  21 H :   -0.045637
  22 H :   -0.038970
  23 C :    0.676230
  24 H :   -0.148705
  25 H :   -0.303667
  26 O :   -0.856869
  27 H :   -0.299469
  28 H :   -0.308793
  29 C :    1.193491
  30 N :    0.357043
  31 N :    0.153405
  32 H :   -0.099408
  33 H :   -0.192320
  34 H :   -0.934658
  35 H :   -0.239661
  36 H :   -0.210819
Sum of atomic charges:    0.0000000

LOEWDIN ATOMIC CHARGES
----------------------
   0 C :    0.070604
   1 C :   -0.019041
   2 N :    0.081325
   3 H :    0.017042
   4 C :   -0.026038
   5 H :    0.025572
   6 H :    0.007248
   7 H :    0.030241
   8 C :   -0.037254
   9 H :    0.000056
  10 C :   -0.033784
  11 H :    0.023939
  12 C :   -0.037117
  13 H :    0.020479
  14 H :    0.022238
  15 C :   -0.033968
  16 H :   -0.002634
  17 H :    0.023028
  18 H :   -0.003207
  19 C :   -0.033595
  20 H :    0.021856
  21 H :    0.019407
  22 H :    0.021158
  23 C :   -0.074968
  24 H :   -0.002936
  25 H :    0.007478
  26 O :   -0.393681
  27 H :    0.023342
  28 H :    0.010564
  29 C :   -0.059313
  30 N :    0.279372
  31 N :    0.255696
  32 H :   -0.019504
  33 H :    0.005744
  34 H :   -0.093750
  35 H :   -0.108135
  36 H :    0.012537

  Mayer bond orders larger than 0.100000
B(  0-C ,  1-C ) :   1.0556 B(  0-C ,  2-N ) :   0.8863 B(  0-C ,  4-C ) :   0.1112
B(  0-C ,  5-H ) :   0.1056 B(  0-C , 27-H ) :   0.6352 B(  0-C , 28-H ) :   0.7621
B(  0-C , 34-H ) :  -0.6186 B(  1-C ,  3-H ) :   0.7238 B(  1-C ,  4-C ) :   1.2294
B(  1-C ,  5-H ) :   0.8971 B(  1-C ,  6-H ) :   0.1185 B(  1-C ,  7-H ) :   0.1038
B(  1-C , 27-H ) :   0.1212 B(  1-C , 28-H ) :   0.1410 B(  2-N , 27-H ) :   0.2271
B(  2-N , 28-H ) :   0.1124 B(  2-N , 29-C ) :   1.2037 B(  2-N , 30-N ) :   0.1123
B(  2-N , 31-N ) :   0.2400 B(  2-N , 34-H ) :   1.0658 B(  2-N , 35-H ) :   0.1017
B(  3-H ,  4-C ) :   0.2102 B(  4-C ,  6-H ) :   0.8072 B(  4-C ,  7-H ) :   0.7420
B(  4-C ,  8-C ) :   1.2080 B(  4-C , 11-H ) :   0.1773 B(  6-H ,  8-C ) :   0.1846
B(  7-H ,  8-C ) :   0.1562 B(  8-C ,  9-H ) :   0.7973 B(  8-C , 10-C ) :   1.1878
B(  8-C , 11-H ) :   0.9050 B(  8-C , 12-C ) :   0.1315 B(  8-C , 13-H ) :   0.1275
B(  8-C , 14-H ) :   0.3188 B( 10-C , 11-H ) :   0.1001 B( 10-C , 12-C ) :   1.1963
B( 10-C , 13-H ) :   0.6704 B( 10-C , 14-H ) :   0.6405 B( 10-C , 17-H ) :   0.1010
B( 12-C , 13-H ) :   0.2477 B( 12-C , 14-H ) :   0.1330 B( 12-C , 15-C ) :   1.2282
B( 12-C , 16-H ) :   0.8630 B( 12-C , 17-H ) :   0.8373 B( 12-C , 18-H ) :   0.1691
B( 12-C , 20-H ) :   0.2159 B( 13-H , 14-H ) :  -0.1333 B( 15-C , 16-H ) :   0.1158
B( 15-C , 17-H ) :   0.2699 B( 15-C , 18-H ) :   0.8496 B( 15-C , 19-C ) :   1.2206
B( 15-C , 20-H ) :   0.7571 B( 15-C , 21-H ) :   0.1261 B( 15-C , 22-H ) :   0.2311
B( 18-H , 19-C ) :   0.1872 B( 19-C , 21-H ) :   0.7800 B( 19-C , 22-H ) :   0.7001
B( 19-C , 23-C ) :   1.1286 B( 19-C , 24-H ) :   0.1258 B( 19-C , 25-H ) :   0.1380
B( 19-C , 26-O ) :   0.1315 B( 21-H , 23-C ) :   0.1697 B( 22-H , 23-C ) :   0.1698
B( 23-C , 24-H ) :   0.8607 B( 23-C , 25-H ) :   0.9077 B( 23-C , 26-O ) :   0.9632
B( 26-O , 34-H ) :   0.1688 B( 26-O , 35-H ) :   0.3139 B( 27-H , 28-H ) :  -0.1172
B( 27-H , 34-H ) :   0.1456 B( 29-C , 30-N ) :   0.8870 B( 29-C , 31-N ) :   0.8815
B( 29-C , 32-H ) :  -0.1225 B( 29-C , 34-H ) :  -0.7719 B( 29-C , 35-H ) :  -0.1675
B( 29-C , 36-H ) :  -0.1222 B( 30-N , 31-N ) :   0.1555 B( 30-N , 35-H ) :   0.9797
B( 30-N , 36-H ) :   1.2311 B( 31-N , 32-H ) :   1.0520 B( 31-N , 33-H ) :   1.2073
B( 32-H , 33-H ) :  -0.1573 B( 35-H , 36-H ) :  -0.1783

Dispersion correction           -0.040522604
FINAL SINGLE POINT ENERGY      -633.200946490434

DIPOLE MOMENT
-------------
                                X             Y             Z
Electronic contribution:      3.52002      -2.07104      11.31455
Nuclear contribution   :     -0.74583       2.62534      -9.91488
                        -----------------------------------------
Total Dipole Moment    :      2.77419       0.55430       1.39967
                        -----------------------------------------
Magnitude (a.u.)       :      3.15634
Magnitude (Debye)      :      8.02278

Rotational constants in cm-1:     0.027028     0.016098     0.010898
Rotational constants in MHz :   810.278072   482.590922   326.703462

                             ****ORCA TERMINATED NORMALLY****
TOTAL RUN TIME: 0 days 0 hours 0 minutes 54 seconds 630 msec
