                         Program Version 5.0.0 -  RELEASE  -
|  1> !PBE D3BJ RIJCOSX def2-SVPD def2/J TightSCF
|  2> *xyz 0 1
|  3> C          0.28725       -1.71177       -2.52740
|  4> F          0.71050       -0.92751       -1.48177
|  5> H          0.92384       -1.55316       -3.37267
|  6> H         -0.71828       -1.45137       -2.78433
|  7> H          0.32655       -2.74158       -2.23955
|  8> *
|  9> %MaxCore 64000
| 10>
| 11> %pal nprocs 4
| 12> end
| 13>
| 14> %scf
| 15>   MaxIter 150
| 16> end
| 17>
| 18>
| 19>                          ****END OF INPUT****

CARTESIAN COORDINATES (ANGSTROEM)
---------------------------------
  C      0.287250   -1.711770   -2.527400
  F      0.710500   -0.927510   -1.481770
  H      0.923840   -1.553160   -3.372670
  H     -0.718280   -1.451370   -2.784330
  H      0.326550   -2.741580   -2.239550

 Total Charge           Charge          ....    0
 Multiplicity           Mult            ....    1
 Number of Electrons    NEL             ....   18
 Basis Dimension        Dim             ....   67

ORBITAL ENERGIES
----------------

  NO   OCC          E(Eh)            E(eV)
   0   2.0000     -24.260444      -660.1603
   1   2.0000      -9.963971      -271.1334
   2   2.0000      -1.082616       -29.4595
   3   2.0000      -0.634517       -17.2661
   4   2.0000      -0.447682       -12.1820
   5   2.0000      -0.433953       -11.8085
   6   2.0000      -0.433953       -11.8085
   7   2.0000      -0.298265        -8.1162
   8   2.0000      -0.298262        -8.1161
   9   0.0000       0.009231         0.2512
  10   0.0000       0.033046         0.8992
  11   0.0000       0.082298         2.2394
  12   0.0000       0.082299         2.2395
  13   0.0000       0.128244         3.4897

MULLIKEN ATOMIC CHARGES
-----------------------
   0 C :    0.900684
   1 F :   -0.457581
   2 H :   -0.147721
   3 H :   -0.147691
   4 H :   -0.147691
Sum of atomic charges:    0.0000000

LOEWDIN ATOMIC CHARGES
----------------------
   0 C :    0.255866
   1 F :   -0.232452
   2 H :   -0.007810
   3 H :   -0.007802
   4 H :   -0.007802

  Mayer bond orders larger than 0.100000
B(  0-C ,  1-F ) :   0.8872 B(  0-C ,  2-H ) :   0.9347 B(  0-C ,  3-H ) :   0.9347
B(  0-C ,  4-H ) :   0.9347

Dispersion correction           -0.001294327
FINAL SINGLE POINT ENERGY      -139.489827237319

DIPOLE MOMENT
-------------
                                X             Y             Z
Electronic contribution:      0.91580       1.69693       2.26245
Nuclear contribution   :     -1.12906      -2.09208      -2.78929
                        -----------------------------------------
Total Dipole Moment    :     -0.21325      -0.39515      -0.52684
                        -----------------------------------------
Magnitude (a.u.)       :      0.69223
Magnitude (Debye)      :      1.75950

Rotational constants in cm-1:     5.477712     0.869598     0.869597
Rotational constants in MHz : 164217.678885 26069.889584 26069.856821

                             ****ORCA TERMINATED NORMALLY****
TOTAL RUN TIME: 0 days 0 hours 0 minutes 2 seconds 144 msec
