                         Program Version 5.0.0 -  RELEASE  -
|  1> !PBE D3BJ RIJCOSX def2-SVPD def2/J TightSCF
|  2> *xyz 0 1
|  3> C          3.48828        1.60092       -1.52204
|  4> C          2.81029        0.42878       -1.01420
|  5> C          3.29098       -0.41802       -0.12908
|  6> N          2.51754       -1.43202        0.23936
|  7> N          4.53549       -0.28441        0.39580
|  8> H          5.04363        0.57189        0.22290
|  9> H          4.72335       -0.73327        1.28180
| 10> H          1.93479        0.10230       -1.40379
| 11> H          1.67464       -1.50562       -0.31610
| 12> H          2.92850       -2.21850        0.72549
| 13> H          2.85802        2.09943       -2.22855
| 14> H          4.39853        1.30677       -2.00144
| 15> H          3.70992        2.26379       -0.71187
| 16> *
| 17> %MaxCore 64000
| 18>
| 19> %pal nprocs 4
| 20> end
| 21>
| 22> %scf
| 23>   MaxIter 150
| 24> end
| 25>
| 26>
| 27>                          ****END OF INPUT****

CARTESIAN COORDINATES (ANGSTROEM)
---------------------------------
  C      3.488280    1.600920   -1.522040
  C      2.810290    0.428780   -1.014200
  C      3.290980   -0.418020   -0.129080
  N      2.517540   -1.432020    0.239360
  N      4.535490   -0.284410    0.395800
  H      5.043630    0.571890    0.222900
  H      4.723350   -0.733270    1.281800
  H      1.934790    0.102300   -1.403790
  H      1.674640   -1.505620   -0.316100
  H      2.928500   -2.218500    0.725490
  H      2.858020    2.099430   -2.228550
  H      4.398530    1.306770   -2.001440
  H      3.709920    2.263790   -0.711870

 Total Charge           Charge          ....    0
 Multiplicity           Mult            ....    1
 Number of Electrons    NEL             ....   40
 Basis Dimension        Dim             ....  164

ORBITAL ENERGIES
----------------

  NO   OCC          E(Eh)            E(eV)
   0   2.0000     -14.002476      -381.0268
   1   2.0000     -13.995203      -380.8288
   2   2.0000      -9.926867      -270.1238
   3   2.0000      -9.863057      -268.3874
   4   2.0000      -9.821872      -267.2667
   5   2.0000      -0.868807       -23.6414
   6   2.0000      -0.786554       -21.4032
   7   2.0000      -0.678328       -18.4583
   8   2.0000      -0.588446       -16.0124
   9   2.0000      -0.528258       -14.3746
  10   2.0000      -0.485778       -13.2187
  11   2.0000      -0.455547       -12.3961
  12   2.0000      -0.419002       -11.4016
  13   2.0000      -0.381141       -10.3714
  14   2.0000      -0.364894        -9.9293
  15   2.0000      -0.328929        -8.9506
  16   2.0000      -0.322219        -8.7680
  17   2.0000      -0.299167        -8.1408
  18   2.0000      -0.223051        -6.0695
  19   2.0000      -0.130903        -3.5621
  20   0.0000      -0.004278        -0.1164
  21   0.0000       0.022986         0.6255
  22   0.0000       0.035095         0.9550
  23   0.0000       0.046731         1.2716
  24   0.0000       0.062133         1.6907

MULLIKEN ATOMIC CHARGES
-----------------------
   0 C :    0.886842
   1 C :   -0.655232
   2 C :    0.627222
   3 N :    0.081184
   4 N :   -0.050337
   5 H :   -0.034841
   6 H :   -0.202049
   7 H :   -0.354216
   8 H :    0.036706
   9 H :   -0.205427
  10 H :   -0.098723
  11 H :   -0.023845
  12 H :   -0.007285
Sum of atomic charges:   -0.0000000

LOEWDIN ATOMIC CHARGES
----------------------
   0 C :    0.086514
   1 C :   -0.070074
   2 C :   -0.244857
   3 N :    0.182814
   4 N :    0.216502
   5 H :   -0.019911
   6 H :   -0.018280
   7 H :   -0.054512
   8 H :   -0.003310
   9 H :   -0.011987
  10 H :   -0.017044
  11 H :   -0.022273
  12 H :   -0.023582

  Mayer bond orders larger than 0.100000
B(  0-C ,  1-C ) :   1.2093 B(  0-C ,  7-H ) :   0.1678 B(  0-C , 10-H ) :   0.7542
B(  0-C , 11-H ) :   0.6701 B(  0-C , 12-H ) :   0.6373 B(  1-C ,  2-C ) :   1.4663
B(  1-C ,  3-N ) :   0.3374 B(  1-C ,  4-N ) :   0.2269 B(  1-C ,  5-H ) :  -0.1241
B(  1-C ,  7-H ) :   1.0091 B(  1-C , 10-H ) :   0.3191 B(  1-C , 11-H ) :   0.2509
B(  1-C , 12-H ) :   0.3184 B(  2-C ,  3-N ) :   0.9518 B(  2-C ,  4-N ) :   0.9335
B(  2-C ,  7-H ) :   0.2011 B(  3-N ,  4-N ) :   0.1289 B(  3-N ,  8-H ) :   1.0394
B(  3-N ,  9-H ) :   1.1640 B(  4-N ,  5-H ) :   1.0241 B(  4-N ,  6-H ) :   1.2035
B(  5-H ,  6-H ) :  -0.1173 B(  7-H , 10-H ) :  -0.1376 B(  8-H ,  9-H ) :  -0.1343

Dispersion correction           -0.009532079
FINAL SINGLE POINT ENERGY      -228.165722750747

DIPOLE MOMENT
-------------
                                X             Y             Z
Electronic contribution:     -0.24534      -2.56027       1.79408
Nuclear contribution   :      0.45569       2.05070      -1.27895
                        -----------------------------------------
Total Dipole Moment    :      0.21035      -0.50957       0.51514
                        -----------------------------------------
Magnitude (a.u.)       :      0.75450
Magnitude (Debye)      :      1.91779

Rotational constants in cm-1:     0.314404     0.136412     0.097030
Rotational constants in MHz :  9425.600285  4089.541372  2908.875289

                             ****ORCA TERMINATED NORMALLY****
TOTAL RUN TIME: 0 days 0 hours 0 minutes 6 seconds 455 msec
