                         Program Version 5.0.0 -  RELEASE  -
|  1> !PBE D3BJ RIJCOSX def2-SVPD def2/J TightSCF
|  2> *xyz 0 1
|  3> C          3.48828        1.60092       -1.52204
|  4> N          2.81029        0.42878       -1.01420
|  5> C          3.29098       -0.41802       -0.12908
|  6> C          2.51754       -1.43202        0.23936
|  7> N          4.53549       -0.28441        0.39580
|  8> H          5.04363        0.57189        0.22290
|  9> H          4.72335       -0.73327        1.28180
| 10> H          1.93479        0.10230       -1.40379
| 11> H          1.67464       -1.50562       -0.31610
| 12> H          2.92850       -2.21850        0.72549
| 13> H          2.85802        2.09943       -2.22855
| 14> H          4.39853        1.30677       -2.00144
| 15> H          3.70992        2.26379       -0.71187
| 16> *
| 17> %MaxCore 64000
| 18>
| 19> %pal nprocs 4
| 20> end
| 21>
| 22> %scf
| 23>   MaxIter 150
| 24> end
| 25>
| 26>
| 27>                          ****END OF INPUT****

CARTESIAN COORDINATES (ANGSTROEM)
---------------------------------
  C      3.488280    1.600920   -1.522040
  N      2.810290    0.428780   -1.014200
  C      3.290980   -0.418020   -0.129080
  C      2.517540   -1.432020    0.239360
  N      4.535490   -0.284410    0.395800
  H      5.043630    0.571890    0.222900
  H      4.723350   -0.733270    1.281800
  H      1.934790    0.102300   -1.403790
  H      1.674640   -1.505620   -0.316100
  H      2.928500   -2.218500    0.725490
  H      2.858020    2.099430   -2.228550
  H      4.398530    1.306770   -2.001440
  H      3.709920    2.263790   -0.711870

 Total Charge           Charge          ....    0
 Multiplicity           Mult            ....    1
 Number of Electrons    NEL             ....   40
 Basis Dimension        Dim             ....  164

ORBITAL ENERGIES
----------------

  NO   OCC          E(Eh)            E(eV)
   0   2.0000     -14.003977      -381.0676
   1   2.0000     -14.001586      -381.0025
   2   2.0000      -9.932610      -270.2801
   3   2.0000      -9.929409      -270.1929
   4   2.0000      -9.806495      -266.8483
   5   2.0000      -0.880028       -23.9468
   6   2.0000      -0.798947       -21.7405
   7   2.0000      -0.676599       -18.4112
   8   2.0000      -0.596171       -16.2226
   9   2.0000      -0.541919       -14.7464
  10   2.0000      -0.482369       -13.1259
  11   2.0000      -0.443877       -12.0785
  12   2.0000      -0.432435       -11.7672
  13   2.0000      -0.408496       -11.1157
  14   2.0000      -0.363637        -9.8951
  15   2.0000      -0.340725        -9.2716
  16   2.0000      -0.331541        -9.0217
  17   2.0000      -0.320801        -8.7294
  18   2.0000      -0.218936        -5.9576
  19   2.0000      -0.130453        -3.5498
  20   0.0000      -0.007739        -0.2106
  21   0.0000       0.024423         0.6646
  22   0.0000       0.028422         0.7734
  23   0.0000       0.041635         1.1330
  24   0.0000       0.064613         1.7582

MULLIKEN ATOMIC CHARGES
-----------------------
   0 C :    1.149226
   1 N :   -0.482950
   2 C :    0.585006
   3 C :    0.442530
   4 N :    0.029353
   5 H :   -0.183824
   6 H :   -0.077656
   7 H :   -0.250021
   8 H :   -0.237686
   9 H :   -0.437260
  10 H :   -0.396931
  11 H :   -0.062304
  12 H :   -0.077484
Sum of atomic charges:    0.0000000

LOEWDIN ATOMIC CHARGES
----------------------
   0 C :    0.198302
   1 N :   -0.040893
   2 C :   -0.246267
   3 C :    0.134982
   4 N :    0.213119
   5 H :   -0.032949
   6 H :    0.000367
   7 H :    0.025352
   8 H :   -0.105154
   9 H :   -0.098236
  10 H :   -0.011012
  11 H :   -0.018491
  12 H :   -0.019120

  Mayer bond orders larger than 0.100000
B(  0-C ,  1-N ) :   0.9917 B(  0-C ,  7-H ) :  -0.1404 B(  0-C , 10-H ) :   0.8145
B(  0-C , 11-H ) :   0.8066 B(  0-C , 12-H ) :   0.7965 B(  1-N ,  2-C ) :   1.0680
B(  1-N ,  3-C ) :   0.2689 B(  1-N ,  4-N ) :   0.1513 B(  1-N ,  7-H ) :   1.2541
B(  1-N , 10-H ) :   0.1937 B(  1-N , 11-H ) :   0.1921 B(  1-N , 12-H ) :   0.1777
B(  2-C ,  3-C ) :   1.5608 B(  2-C ,  4-N ) :   0.9113 B(  2-C ,  7-H ) :  -0.1668
B(  2-C ,  8-H ) :   0.2532 B(  2-C ,  9-H ) :   0.2138 B(  3-C ,  4-N ) :   0.2568
B(  3-C ,  8-H ) :   0.7846 B(  3-C ,  9-H ) :   0.7358 B(  4-N ,  5-H ) :   1.0787
B(  4-N ,  6-H ) :   1.1350 B(  5-H ,  6-H ) :  -0.1295

Dispersion correction           -0.009473339
FINAL SINGLE POINT ENERGY      -228.150150761097

DIPOLE MOMENT
-------------
                                X             Y             Z
Electronic contribution:      0.09342      -0.73410       0.64296
Nuclear contribution   :      0.39640       1.67380      -1.02505
                        -----------------------------------------
Total Dipole Moment    :      0.48982       0.93970      -0.38209
                        -----------------------------------------
Magnitude (a.u.)       :      1.12648
Magnitude (Debye)      :      2.86327

Rotational constants in cm-1:     0.316500     0.141146     0.099607
Rotational constants in MHz :  9488.425850  4231.454938  2986.155520

                             ****ORCA TERMINATED NORMALLY****
TOTAL RUN TIME: 0 days 0 hours 0 minutes 6 seconds 825 msec
