                         Program Version 5.0.0 -  RELEASE  -
|  1> !PBE D3BJ RIJCOSX def2-SVPD def2/J TightSCF
|  2> *xyz 0 1
|  3> C          3.48828        1.60092       -1.52204
|  4> N          2.81029        0.42878       -1.01420
|  5> C          3.29098       -0.41802       -0.12908
|  6> N          2.51754       -1.43202        0.23936
|  7> C          4.53549       -0.28441        0.39580
|  8> H          5.04363        0.57189        0.22290
|  9> H          4.72335       -0.73327        1.28180
| 10> H          1.93479        0.10230       -1.40379
| 11> H          1.67464       -1.50562       -0.31610
| 12> H          2.92850       -2.21850        0.72549
| 13> H          2.85802        2.09943       -2.22855
| 14> H          4.39853        1.30677       -2.00144
| 15> H          3.70992        2.26379       -0.71187
| 16> *
| 17> %MaxCore 64000
| 18>
| 19> %pal nprocs 4
| 20> end
| 21>
| 22> %scf
| 23>   MaxIter 150
| 24> end
| 25>
| 26>
| 27>                          ****END OF INPUT****

CARTESIAN COORDINATES (ANGSTROEM)
---------------------------------
  C      3.488280    1.600920   -1.522040
  N      2.810290    0.428780   -1.014200
  C      3.290980   -0.418020   -0.129080
  N      2.517540   -1.432020    0.239360
  C      4.535490   -0.284410    0.395800
  H      5.043630    0.571890    0.222900
  H      4.723350   -0.733270    1.281800
  H      1.934790    0.102300   -1.403790
  H      1.674640   -1.505620   -0.316100
  H      2.928500   -2.218500    0.725490
  H      2.858020    2.099430   -2.228550
  H      4.398530    1.306770   -2.001440
  H      3.709920    2.263790   -0.711870

 Total Charge           Charge          ....    0
 Multiplicity           Mult            ....    1
 Number of Electrons    NEL             ....   40
 Basis Dimension        Dim             ....  164

ORBITAL ENERGIES
----------------

  NO   OCC          E(Eh)            E(eV)
   0   2.0000     -14.011270      -381.2660
   1   2.0000     -14.002594      -381.0299
   2   2.0000      -9.935154      -270.3493
   3   2.0000      -9.922740      -270.0115
   4   2.0000      -9.810513      -266.9576
   5   2.0000      -0.889242       -24.1975
   6   2.0000      -0.803593       -21.8669
   7   2.0000      -0.648476       -17.6459
   8   2.0000      -0.628993       -17.1158
   9   2.0000      -0.511955       -13.9310
  10   2.0000      -0.492919       -13.4130
  11   2.0000      -0.477027       -12.9806
  12   2.0000      -0.412919       -11.2361
  13   2.0000      -0.402786       -10.9604
  14   2.0000      -0.368980       -10.0405
  15   2.0000      -0.341442        -9.2911
  16   2.0000      -0.324461        -8.8290
  17   2.0000      -0.320027        -8.7084
  18   2.0000      -0.212121        -5.7721
  19   2.0000      -0.137415        -3.7392
  20   0.0000      -0.010989        -0.2990
  21   0.0000       0.018272         0.4972
  22   0.0000       0.031825         0.8660
  23   0.0000       0.043153         1.1743
  24   0.0000       0.069089         1.8800

MULLIKEN ATOMIC CHARGES
-----------------------
   0 C :    1.111824
   1 N :   -0.508322
   2 C :    0.483090
   3 N :    0.062703
   4 C :    0.476164
   5 H :   -0.186915
   6 H :   -0.442874
   7 H :   -0.366861
   8 H :   -0.131578
   9 H :   -0.092804
  10 H :   -0.420821
  11 H :    0.012707
  12 H :    0.003688
Sum of atomic charges:   -0.0000000

LOEWDIN ATOMIC CHARGES
----------------------
   0 C :    0.205927
   1 N :   -0.043098
   2 C :   -0.258993
   3 N :    0.195323
   4 C :    0.162873
   5 H :   -0.125301
   6 H :   -0.108009
   7 H :    0.011649
   8 H :   -0.018108
   9 H :    0.010226
  10 H :   -0.012582
  11 H :   -0.010293
  12 H :   -0.009612

  Mayer bond orders larger than 0.100000
B(  0-C ,  1-N ) :   1.0031 B(  0-C ,  7-H ) :  -0.1386 B(  0-C , 10-H ) :   0.8324
B(  0-C , 11-H ) :   0.8023 B(  0-C , 12-H ) :   0.7923 B(  1-N ,  2-C ) :   1.0163
B(  1-N ,  3-N ) :   0.1927 B(  1-N ,  4-C ) :   0.3581 B(  1-N ,  7-H ) :   1.3486
B(  1-N , 10-H ) :   0.1846 B(  1-N , 11-H ) :   0.1595 B(  1-N , 12-H ) :   0.1604
B(  2-C ,  3-N ) :   0.8954 B(  2-C ,  4-C ) :   1.7180 B(  2-C ,  5-H ) :   0.3209
B(  2-C ,  6-H ) :   0.2708 B(  2-C ,  7-H ) :  -0.2343 B(  3-N ,  4-C ) :   0.2837
B(  3-N ,  8-H ) :   1.1026 B(  3-N ,  9-H ) :   1.1692 B(  4-C ,  5-H ) :   0.6912
B(  4-C ,  6-H ) :   0.7401 B(  5-H ,  6-H ) :   0.2025 B(  8-H ,  9-H ) :  -0.1304

Dispersion correction           -0.009517281
FINAL SINGLE POINT ENERGY      -228.152603280288

DIPOLE MOMENT
-------------
                                X             Y             Z
Electronic contribution:     -1.83442      -1.95425       0.41434
Nuclear contribution   :      0.80512       1.90624      -0.99336
                        -----------------------------------------
Total Dipole Moment    :     -1.02930      -0.04800      -0.57902
                        -----------------------------------------
Magnitude (a.u.)       :      1.18196
Magnitude (Debye)      :      3.00429

Rotational constants in cm-1:     0.332728     0.136065     0.098521
Rotational constants in MHz :  9974.927067  4079.126590  2953.598000

                             ****ORCA TERMINATED NORMALLY****
TOTAL RUN TIME: 0 days 0 hours 0 minutes 7 seconds 62 msec
