                         Program Version 5.0.0 -  RELEASE  -
|  1> !PBE0 D3BJ RIJCOSX def2-SVP def2/J TightSCF
|  2> *xyz -1 1
|  3> C          1.44442        5.26658       -0.97546
|  4> O          1.56525        4.23349       -1.86489
|  5> C          0.14812        5.21087       -0.13809
|  6> H          1.47425        6.26464       -1.47692
|  7> H          2.28962        5.30327       -0.26445
|  8> H         -0.69779        5.17417       -0.79230
|  9> H          0.08430        6.08276        0.47887
| 10> H          0.15965        4.33708        0.47938
| 11> *
| 12> %MaxCore 64000
| 13>
| 14> %pal nprocs 4
| 15> end
| 16>
| 17> %scf
| 18>   MaxIter 150
| 19> end
| 20>
| 21>
| 22>                          ****END OF INPUT****

CARTESIAN COORDINATES (ANGSTROEM)
---------------------------------
  C      1.444420    5.266580   -0.975460
  O      1.565250    4.233490   -1.864890
  C      0.148120    5.210870   -0.138090
  H      1.474250    6.264640   -1.476920
  H      2.289620    5.303270   -0.264450
  H     -0.697790    5.174170   -0.792300
  H      0.084300    6.082760    0.478870
  H      0.159650    4.337080    0.479380

 Total Charge           Charge          ....   -1
 Multiplicity           Mult            ....    1
 Number of Electrons    NEL             ....   26
 Basis Dimension        Dim             ....   67

ORBITAL ENERGIES
----------------

  NO   OCC          E(Eh)            E(eV)
   0   2.0000     -18.823495      -512.2133
   1   2.0000     -10.020014      -272.6584
   2   2.0000     -10.008558      -272.3467
   3   2.0000      -0.653603       -17.7854
   4   2.0000      -0.520589       -14.1660
   5   2.0000      -0.362347        -9.8600
   6   2.0000      -0.244703        -6.6587
   7   2.0000      -0.223234        -6.0745
   8   2.0000      -0.165802        -4.5117
   9   2.0000      -0.147378        -4.0104
  10   2.0000      -0.083871        -2.2823
  11   2.0000       0.064419         1.7529
  12   2.0000       0.068080         1.8525
  13   0.0000       0.262422         7.1409
  14   0.0000       0.306217         8.3326
  15   0.0000       0.318891         8.6775
  16   0.0000       0.328225         8.9315
  17   0.0000       0.370256        10.0752

MULLIKEN ATOMIC CHARGES
-----------------------
   0 C :    0.211977
   1 O :   -0.720822
   2 C :   -0.008484
   3 H :   -0.152590
   4 H :   -0.148397
   5 H :   -0.042431
   6 H :   -0.097639
   7 H :   -0.041614
Sum of atomic charges:   -1.0000000

LOEWDIN ATOMIC CHARGES
----------------------
   0 C :    0.003011
   1 O :   -0.667630
   2 C :   -0.122040
   3 H :   -0.081395
   4 H :   -0.077708
   5 H :   -0.011313
   6 H :   -0.031952
   7 H :   -0.010975

  Mayer bond orders larger than 0.100000
B(  0-C ,  1-O ) :   1.4890 B(  0-C ,  2-C ) :   0.9864 B(  0-C ,  3-H ) :   0.8722
B(  0-C ,  4-H ) :   0.8755 B(  2-C ,  5-H ) :   0.9598 B(  2-C ,  6-H ) :   0.9244
B(  2-C ,  7-H ) :   0.9628

Dispersion correction           -0.003045972
FINAL SINGLE POINT ENERGY      -154.099057728169

DIPOLE MOMENT
-------------
                                X             Y             Z
Electronic contribution:      1.21836      -1.90526      -2.28157
Nuclear contribution   :     -1.83256       2.47114       3.17273
                        -----------------------------------------
Total Dipole Moment    :     -0.61420       0.56589       0.89116
                        -----------------------------------------
Magnitude (a.u.)       :      1.22133
Magnitude (Debye)      :      3.10436

Rotational constants in cm-1:     1.286062     0.322579     0.284728
Rotational constants in MHz : 38555.180127  9670.683110  8535.939140

                             ****ORCA TERMINATED NORMALLY****
TOTAL RUN TIME: 0 days 0 hours 0 minutes 7 seconds 825 msec
