                         Program Version 5.0.0 -  RELEASE  -
|  1> !PBE0 D3BJ RIJCOSX def2-SVP def2/J TightSCF
|  2> *xyz 1 1
|  3> C         -0.70169        4.07250       -4.00392
|  4> N          0.68053        4.61482       -4.04800
|  5> H          0.69993        5.58489       -4.38827
|  6> H          1.27804        4.05598       -4.66824
|  7> H          1.08573        4.53358       -3.10652
|  8> C         -1.70347        5.09320       -3.47740
|  9> H         -0.99590        3.74039       -5.00065
| 10> H         -0.64358        3.20191       -3.35153
| 11> H         -1.73704        5.93384       -4.13853
| 12> H         -1.40338        5.41759       -2.50291
| 13> H         -2.67335        4.64479       -3.42108
| 14> *
| 15> %MaxCore 64000
| 16>
| 17> %pal nprocs 4
| 18> end
| 19>
| 20> %scf
| 21>   MaxIter 150
| 22> end
| 23>
| 24>
| 25>                          ****END OF INPUT****

CARTESIAN COORDINATES (ANGSTROEM)
---------------------------------
  C     -0.701690    4.072500   -4.003920
  N      0.680530    4.614820   -4.048000
  H      0.699930    5.584890   -4.388270
  H      1.278040    4.055980   -4.668240
  H      1.085730    4.533580   -3.106520
  C     -1.703470    5.093200   -3.477400
  H     -0.995900    3.740390   -5.000650
  H     -0.643580    3.201910   -3.351530
  H     -1.737040    5.933840   -4.138530
  H     -1.403380    5.417590   -2.502910
  H     -2.673350    4.644790   -3.421080

 Total Charge           Charge          ....    1
 Multiplicity           Mult            ....    1
 Number of Electrons    NEL             ....   26
 Basis Dimension        Dim             ....   82

ORBITAL ENERGIES
----------------

  NO   OCC          E(Eh)            E(eV)
   0   2.0000     -14.734910      -400.9573
   1   2.0000     -10.486121      -285.3419
   2   2.0000     -10.407747      -283.2092
   3   2.0000      -1.237967       -33.6868
   4   2.0000      -0.982738       -26.7417
   5   2.0000      -0.860906       -23.4264
   6   2.0000      -0.823347       -22.4044
   7   2.0000      -0.805027       -21.9059
   8   2.0000      -0.713208       -19.4074
   9   2.0000      -0.656609       -17.8672
  10   2.0000      -0.596726       -16.2377
  11   2.0000      -0.580263       -15.7898
  12   2.0000      -0.562439       -15.3047
  13   0.0000      -0.173318        -4.7162
  14   0.0000      -0.115806        -3.1512
  15   0.0000      -0.109749        -2.9864
  16   0.0000      -0.079419        -2.1611
  17   0.0000      -0.039722        -1.0809

MULLIKEN ATOMIC CHARGES
-----------------------
   0 C :   -0.087405
   1 N :   -0.019577
   2 H :    0.222132
   3 H :    0.223658
   4 H :    0.226197
   5 C :   -0.087219
   6 H :    0.126595
   7 H :    0.117941
   8 H :    0.083258
   9 H :    0.077739
  10 H :    0.116679
Sum of atomic charges:    1.0000000

LOEWDIN ATOMIC CHARGES
----------------------
   0 C :    0.041759
   1 N :    0.294611
   2 H :    0.145116
   3 H :    0.149151
   4 H :    0.149512
   5 C :   -0.049197
   6 H :    0.058941
   7 H :    0.056184
   8 H :    0.043767
   9 H :    0.042299
  10 H :    0.067857

  Mayer bond orders larger than 0.100000
B(  0-C ,  1-N ) :   0.9139 B(  0-C ,  5-C ) :   1.0909 B(  0-C ,  6-H ) :   0.9514
B(  0-C ,  7-H ) :   0.9514 B(  1-N ,  2-H ) :   0.9283 B(  1-N ,  3-H ) :   0.9303
B(  1-N ,  4-H ) :   0.9334 B(  5-C ,  8-H ) :   0.9662 B(  5-C ,  9-H ) :   0.9699
B(  5-C , 10-H ) :   0.9566

Dispersion correction           -0.005014749
FINAL SINGLE POINT ENERGY      -135.273874430415

DIPOLE MOMENT
-------------
                                X             Y             Z
Electronic contribution:      1.82183      -0.32251      -0.46291
Nuclear contribution   :     -0.23930       0.27560       0.19485
                        -----------------------------------------
Total Dipole Moment    :      1.58253      -0.04691      -0.26805
                        -----------------------------------------
Magnitude (a.u.)       :      1.60576
Magnitude (Debye)      :      4.08151

Rotational constants in cm-1:     1.018556     0.279088     0.248454
Rotational constants in MHz : 30535.536069  8366.847891  7448.451392

                             ****ORCA TERMINATED NORMALLY****
TOTAL RUN TIME: 0 days 0 hours 0 minutes 8 seconds 351 msec
