                         Program Version 5.0.0 -  RELEASE  -
|  1> !PBE0 D3BJ RIJCOSX def2-TZVP def2/J TightSCF xyzfile
|  2>
|  3> *xyzfile 0 1 B.xyz
|  4>
|  5> %MaxCore 64000
|  6>
|  7> %pal nprocs 18
|  8> end
|  9>
| 10> %scf
| 11>   MaxIter 150
| 12> end
| 13>
| 14>
| 15>                          ****END OF INPUT****

CARTESIAN COORDINATES (ANGSTROEM)
---------------------------------
  C     -0.701686    4.072499   -4.003920
  N      0.680528    4.614820   -4.048005
  C      1.444422    5.266576   -0.975463
  O      1.565248    4.233493   -1.864885
  H      0.699926    5.584890   -4.388272
  H      1.278044    4.055977   -4.668235
  H      1.085729    4.533581   -3.106524
  C     -1.703475    5.093197   -3.477396
  H     -0.995895    3.740394   -5.000654
  H     -0.643580    3.201910   -3.351533
  C     -1.313997    5.785995   -2.169271
  H     -1.877057    5.850103   -4.251154
  H     -2.653264    4.564475   -3.354796
  H     -2.097137    6.509395   -1.929558
  H     -0.416875    6.387594   -2.339097
  C     -1.073895    4.844728   -0.979904
  H     -1.968893    4.809608   -0.352568
  C      0.148120    5.210874   -0.138092
  H     -0.909754    3.827531   -1.338975
  H      1.474250    6.264638   -1.476917
  H      2.289622    5.303267   -0.264450
  H      0.261827    4.450942    0.640711
  H     -0.002516    6.171031    0.371483

 Total Charge           Charge          ....    0
 Multiplicity           Mult            ....    1
 Number of Electrons    NEL             ....   66
 Basis Dimension        Dim             ....  338

ORBITAL ENERGIES
----------------

  NO   OCC          E(Eh)            E(eV)
   0   2.0000     -19.069763      -518.9146
   1   2.0000     -14.463187      -393.5633
   2   2.0000     -10.286196      -279.9016
   3   2.0000     -10.241678      -278.6902
   4   2.0000     -10.216480      -278.0045
   5   2.0000     -10.201767      -277.6042
   6   2.0000     -10.194741      -277.4130
   7   2.0000     -10.175622      -276.8927
   8   2.0000      -1.015109       -27.6225
   9   2.0000      -0.915394       -24.9091
  10   2.0000      -0.833393       -22.6778
  11   2.0000      -0.768924       -20.9235
  12   2.0000      -0.714813       -19.4511
  13   2.0000      -0.654536       -17.8108
  14   2.0000      -0.606337       -16.4993
  15   2.0000      -0.585711       -15.9380
  16   2.0000      -0.582891       -15.8613
  17   2.0000      -0.535425       -14.5697
  18   2.0000      -0.504614       -13.7312
  19   2.0000      -0.477263       -12.9870
  20   2.0000      -0.469199       -12.7675
  21   2.0000      -0.431343       -11.7375
  22   2.0000      -0.419782       -11.4228
  23   2.0000      -0.406331       -11.0568
  24   2.0000      -0.387300       -10.5390
  25   2.0000      -0.365824        -9.9546
  26   2.0000      -0.360342        -9.8054
  27   2.0000      -0.341626        -9.2961
  28   2.0000      -0.318632        -8.6704
  29   2.0000      -0.311053        -8.4642
  30   2.0000      -0.303066        -8.2468
  31   2.0000      -0.188916        -5.1407
  32   2.0000      -0.183470        -4.9925
  33   0.0000       0.001451         0.0395
  34   0.0000       0.042765         1.1637
  35   0.0000       0.050036         1.3616
  36   0.0000       0.070305         1.9131
  37   0.0000       0.077650         2.1130

MULLIKEN ATOMIC CHARGES
-----------------------
   0 C :   -0.205136
   1 N :   -0.274466
   2 C :   -0.052602
   3 O :   -0.686013
   4 H :    0.257471
   5 H :    0.270071
   6 H :    0.276868
   7 C :   -0.228366
   8 H :    0.137780
   9 H :    0.168295
  10 C :   -0.228141
  11 H :    0.118126
  12 H :    0.120066
  13 H :    0.110215
  14 H :    0.091573
  15 C :   -0.156880
  16 H :    0.094974
  17 C :   -0.122013
  18 H :    0.083917
  19 H :    0.022928
  20 H :    0.059341
  21 H :    0.078512
  22 H :    0.063481
Sum of atomic charges:   -0.0000000

LOEWDIN ATOMIC CHARGES
----------------------
   0 C :   -0.286526
   1 N :    0.143453
   2 C :   -0.486471
   3 O :   -0.269195
   4 H :    0.189231
   5 H :    0.192385
   6 H :    0.083844
   7 C :   -0.280807
   8 H :    0.130298
   9 H :    0.145855
  10 C :   -0.268523
  11 H :    0.137113
  12 H :    0.149134
  13 H :    0.137962
  14 H :    0.135424
  15 C :   -0.277914
  16 H :    0.130341
  17 C :   -0.289095
  18 H :    0.138777
  19 H :    0.081850
  20 H :    0.105474
  21 H :    0.131489
  22 H :    0.125902

  Mayer bond orders larger than 0.100000
B(  0-C ,  1-N ) :   0.9087 B(  0-C ,  7-C ) :   1.0240 B(  0-C ,  8-H ) :   0.9561
B(  0-C ,  9-H ) :   0.9636 B(  1-N ,  4-H ) :   0.9003 B(  1-N ,  5-H ) :   0.9037
B(  1-N ,  6-H ) :   0.6266 B(  2-C ,  3-O ) :   1.2493 B(  2-C , 17-C ) :   0.9514
B(  2-C , 19-H ) :   0.9694 B(  2-C , 20-H ) :   0.9566 B(  3-O ,  6-H ) :   0.4267
B(  3-O , 17-C ) :  -0.1222 B(  7-C , 10-C ) :   0.9880 B(  7-C , 11-H ) :   0.9651
B(  7-C , 12-H ) :   0.9542 B( 10-C , 13-H ) :   0.9593 B( 10-C , 14-H ) :   0.9672
B( 10-C , 15-C ) :   0.9838 B( 15-C , 16-H ) :   0.9538 B( 15-C , 17-C ) :   1.0149
B( 15-C , 18-H ) :   0.9512 B( 17-C , 21-H ) :   0.9407 B( 17-C , 22-H ) :   0.9448

Dispersion correction           -0.018835089
FINAL SINGLE POINT ENERGY      -367.312301847472

DIPOLE MOMENT
-------------
                                X             Y             Z
Electronic contribution:      2.04401      -1.59328      -1.31894
Nuclear contribution   :     -3.16446       1.92310      -1.11926
                        -----------------------------------------
Total Dipole Moment    :     -1.12046       0.32982      -2.43820
                        -----------------------------------------
Magnitude (a.u.)       :      2.70352
Magnitude (Debye)      :      6.87180

Rotational constants in cm-1:     0.085554     0.055600     0.038553
Rotational constants in MHz :  2564.854379  1666.836664  1155.798427

                             ****ORCA TERMINATED NORMALLY****
TOTAL RUN TIME: 0 days 0 hours 0 minutes 27 seconds 293 msec
