                         Program Version 5.0.0 -  RELEASE  -
|  1> !PBE0 D3BJ RIJCOSX def2-SVP def2/J TightSCF
|  2> *xyz 0 1
|  3> C          1.44442        5.26658       -0.97546
|  4> F          1.56525        4.23349       -1.86489
|  5> C          0.14812        5.21087       -0.13809
|  6> H          1.47425        6.26464       -1.47692
|  7> H          2.28962        5.30327       -0.26445
|  8> H         -0.69779        5.17417       -0.79230
|  9> H          0.08430        6.08276        0.47887
| 10> H          0.15965        4.33708        0.47938
| 11> *
| 12> %MaxCore 64000
| 13>
| 14> %pal nprocs 4
| 15> end
| 16>
| 17> %scf
| 18>   MaxIter 150
| 19> end
| 20>
| 21>
| 22>                          ****END OF INPUT****

CARTESIAN COORDINATES (ANGSTROEM)
---------------------------------
  C      1.444420    5.266580   -0.975460
  F      1.565250    4.233490   -1.864890
  C      0.148120    5.210870   -0.138090
  H      1.474250    6.264640   -1.476920
  H      2.289620    5.303270   -0.264450
  H     -0.697790    5.174170   -0.792300
  H      0.084300    6.082760    0.478870
  H      0.159650    4.337080    0.479380

 Total Charge           Charge          ....    0
 Multiplicity           Mult            ....    1
 Number of Electrons    NEL             ....   26
 Basis Dimension        Dim             ....   67

ORBITAL ENERGIES
----------------

  NO   OCC          E(Eh)            E(eV)
   0   2.0000     -24.750822      -673.5041
   1   2.0000     -10.306276      -280.4480
   2   2.0000     -10.226596      -278.2798
   3   2.0000      -1.201671       -32.6991
   4   2.0000      -0.776079       -21.1182
   5   2.0000      -0.640929       -17.4406
   6   2.0000      -0.516830       -14.0636
   7   2.0000      -0.503941       -13.7129
   8   2.0000      -0.466770       -12.7015
   9   2.0000      -0.413908       -11.2630
  10   2.0000      -0.411368       -11.1939
  11   2.0000      -0.342604        -9.3227
  12   2.0000      -0.335809        -9.1378
  13   0.0000       0.075047         2.0421
  14   0.0000       0.120070         3.2673
  15   0.0000       0.126649         3.4463
  16   0.0000       0.142708         3.8833
  17   0.0000       0.158712         4.3188

MULLIKEN ATOMIC CHARGES
-----------------------
   0 C :    0.187686
   1 F :   -0.271375
   2 C :   -0.116362
   3 H :    0.030064
   4 H :    0.028521
   5 H :    0.051450
   6 H :    0.039551
   7 H :    0.050465
Sum of atomic charges:    0.0000000

LOEWDIN ATOMIC CHARGES
----------------------
   0 C :    0.103093
   1 F :   -0.136845
   2 C :   -0.083913
   3 H :    0.013722
   4 H :    0.012284
   5 H :    0.029531
   6 H :    0.033576
   7 H :    0.028552

  Mayer bond orders larger than 0.100000
B(  0-C ,  1-F ) :   0.9866 B(  0-C ,  2-C ) :   1.0846 B(  0-C ,  3-H ) :   0.9586
B(  0-C ,  4-H ) :   0.9586 B(  2-C ,  5-H ) :   0.9714 B(  2-C ,  6-H ) :   0.9620
B(  2-C ,  7-H ) :   0.9726

Dispersion correction           -0.002807364
FINAL SINGLE POINT ENERGY      -178.726757029560

DIPOLE MOMENT
-------------
                                X             Y             Z
Electronic contribution:      2.31532      -2.77046      -3.72978
Nuclear contribution   :     -2.43357       3.25919       4.19687
                        -----------------------------------------
Total Dipole Moment    :     -0.11825       0.48873       0.46709
                        -----------------------------------------
Magnitude (a.u.)       :      0.68631
Magnitude (Debye)      :      1.74446

Rotational constants in cm-1:     1.264662     0.300144     0.266170
Rotational constants in MHz : 37913.611527  8998.095216  7979.576054

                             ****ORCA TERMINATED NORMALLY****
TOTAL RUN TIME: 0 days 0 hours 0 minutes 7 seconds 199 msec
