                         Program Version 5.0.0 -  RELEASE  -
|  1> !PBE0 D3BJ RIJCOSX def2-SVP def2/J TightSCF
|  2> *xyz 0 1
|  3> C         -0.70169        4.07250       -4.00392
|  4> C          0.68053        4.61482       -4.04800
|  5> H          0.69993        5.58489       -4.38827
|  6> H          1.27804        4.05598       -4.66824
|  7> H          1.08573        4.53358       -3.10652
|  8> C         -1.70347        5.09320       -3.47740
|  9> H         -0.99590        3.74039       -5.00065
| 10> H         -0.64358        3.20191       -3.35153
| 11> H         -1.73704        5.93384       -4.13853
| 12> H         -1.40338        5.41759       -2.50291
| 13> H         -2.67335        4.64479       -3.42108
| 14> *
| 15> %MaxCore 64000
| 16>
| 17> %pal nprocs 4
| 18> end
| 19>
| 20> %scf
| 21>   MaxIter 150
| 22> end
| 23>
| 24>
| 25>                          ****END OF INPUT****

CARTESIAN COORDINATES (ANGSTROEM)
---------------------------------
  C     -0.701690    4.072500   -4.003920
  C      0.680530    4.614820   -4.048000
  H      0.699930    5.584890   -4.388270
  H      1.278040    4.055980   -4.668240
  H      1.085730    4.533580   -3.106520
  C     -1.703470    5.093200   -3.477400
  H     -0.995900    3.740390   -5.000650
  H     -0.643580    3.201910   -3.351530
  H     -1.737040    5.933840   -4.138530
  H     -1.403380    5.417590   -2.502910
  H     -2.673350    4.644790   -3.421080

 Total Charge           Charge          ....    0
 Multiplicity           Mult            ....    1
 Number of Electrons    NEL             ....   26
 Basis Dimension        Dim             ....   82

ORBITAL ENERGIES
----------------

  NO   OCC          E(Eh)            E(eV)
   0   2.0000     -10.216820      -278.0138
   1   2.0000     -10.209786      -277.8224
   2   2.0000     -10.192543      -277.3532
   3   2.0000      -0.807111       -21.9626
   4   2.0000      -0.703337       -19.1388
   5   2.0000      -0.595306       -16.1991
   6   2.0000      -0.481605       -13.1051
   7   2.0000      -0.456834       -12.4311
   8   2.0000      -0.413969       -11.2647
   9   2.0000      -0.402066       -10.9408
  10   2.0000      -0.347909        -9.4671
  11   2.0000      -0.343870        -9.3572
  12   2.0000      -0.335048        -9.1171
  13   0.0000       0.074764         2.0344
  14   0.0000       0.121900         3.3171
  15   0.0000       0.124523         3.3884
  16   0.0000       0.129849         3.5334
  17   0.0000       0.157483         4.2853

MULLIKEN ATOMIC CHARGES
-----------------------
   0 C :   -0.152563
   1 C :    0.014106
   2 H :    0.010192
   3 H :    0.009216
   4 H :    0.013599
   5 C :   -0.053112
   6 H :    0.032610
   7 H :    0.031154
   8 H :    0.032303
   9 H :    0.029477
  10 H :    0.033018
Sum of atomic charges:   -0.0000000

LOEWDIN ATOMIC CHARGES
----------------------
   0 C :   -0.050533
   1 C :   -0.052806
   2 H :    0.014684
   3 H :    0.018669
   4 H :    0.018395
   5 C :   -0.062167
   6 H :    0.021184
   7 H :    0.023414
   8 H :    0.022807
   9 H :    0.022483
  10 H :    0.023870

  Mayer bond orders larger than 0.100000
B(  0-C ,  1-C ) :   1.0933 B(  0-C ,  5-C ) :   1.0935 B(  0-C ,  6-H ) :   0.9599
B(  0-C ,  7-H ) :   0.9593 B(  1-C ,  2-H ) :   0.9738 B(  1-C ,  3-H ) :   0.9653
B(  1-C ,  4-H ) :   0.9729 B(  5-C ,  8-H ) :   0.9735 B(  5-C ,  9-H ) :   0.9759
B(  5-C , 10-H ) :   0.9721

Dispersion correction           -0.005034410
FINAL SINGLE POINT ENERGY      -118.888533052007

DIPOLE MOMENT
-------------
                                X             Y             Z
Electronic contribution:     -0.13327      -0.29891      -0.13259
Nuclear contribution   :      0.16058       0.27975       0.12812
                        -----------------------------------------
Total Dipole Moment    :      0.02731      -0.01916      -0.00447
                        -----------------------------------------
Magnitude (a.u.)       :      0.03366
Magnitude (Debye)      :      0.08555

Rotational constants in cm-1:     1.027122     0.293327     0.260229
Rotational constants in MHz : 30792.337141  8793.723318  7801.458329

                             ****ORCA TERMINATED NORMALLY****
TOTAL RUN TIME: 0 days 0 hours 0 minutes 8 seconds 651 msec
