                         Program Version 5.0.0 -  RELEASE  -
|  1> !wB97X-D3 RIJCOSX def2-TZVP def2/J TightSCF
|  2> *xyz -1 1
|  3> C          4.08422        1.74208       -2.11472
|  4> C          4.26524        2.50052       -0.79589
|  5> H          4.86853        3.39267       -0.98113
|  6> H          3.30764        2.82457       -0.38781
|  7> C          4.98224        1.65026        0.24742
|  8> O          4.36806        1.38927        1.31371
|  9> O          6.12892        1.23351       -0.04562
| 10> C          3.41275        0.37689       -1.96550
| 11> H          5.06847        1.59850       -2.56573
| 12> H          3.50336        2.36394       -2.80457
| 13> H          3.32456       -0.08422       -2.92701
| 14> H          2.43923        0.50287       -1.53972
| 15> H          4.00446       -0.24355       -1.32531
| 16> *
| 17> %MaxCore 64000
| 18> %pal nprocs 8
| 19> end
| 20> %scf
| 21>   MaxIter 150
| 22> end
| 23>
| 24>
| 25>                          ****END OF INPUT****

CARTESIAN COORDINATES (ANGSTROEM)
---------------------------------
  C      4.084220    1.742080   -2.114720
  C      4.265240    2.500520   -0.795890
  H      4.868530    3.392670   -0.981130
  H      3.307640    2.824570   -0.387810
  C      4.982240    1.650260    0.247420
  O      4.368060    1.389270    1.313710
  O      6.128920    1.233510   -0.045620
  C      3.412750    0.376890   -1.965500
  H      5.068470    1.598500   -2.565730
  H      3.503360    2.363940   -2.804570
  H      3.324560   -0.084220   -2.927010
  H      2.439230    0.502870   -1.539720
  H      4.004460   -0.243550   -1.325310

 Total Charge           Charge          ....   -1
 Multiplicity           Mult            ....    1
 Number of Electrons    NEL             ....   48
 Basis Dimension        Dim             ....  228

ORBITAL ENERGIES
----------------

  NO   OCC          E(Eh)            E(eV)
   0   2.0000     -18.955451      -515.8041
   1   2.0000     -18.955071      -515.7937
   2   2.0000     -10.151712      -276.2421
   3   2.0000     -10.123802      -275.4827
   4   2.0000     -10.114739      -275.2361
   5   2.0000     -10.096571      -274.7417
   6   2.0000      -0.930004       -25.3067
   7   2.0000      -0.834153       -22.6985
   8   2.0000      -0.752098       -20.4656
   9   2.0000      -0.653612       -17.7857
  10   2.0000      -0.552974       -15.0472
  11   2.0000      -0.429311       -11.6822
  12   2.0000      -0.402810       -10.9610
  13   2.0000      -0.388302       -10.5662
  14   2.0000      -0.351049        -9.5525
  15   2.0000      -0.329620        -8.9694
  16   2.0000      -0.305457        -8.3119
  17   2.0000      -0.299510        -8.1501
  18   2.0000      -0.287325        -7.8185
  19   2.0000      -0.264184        -7.1888
  20   2.0000      -0.252718        -6.8768
  21   2.0000      -0.135108        -3.6765
  22   2.0000      -0.129639        -3.5276
  23   2.0000      -0.116859        -3.1799
  24   0.0000       0.250473         6.8157
  25   0.0000       0.285365         7.7652
  26   0.0000       0.300743         8.1836
  27   0.0000       0.314175         8.5491
  28   0.0000       0.324839         8.8393

MULLIKEN ATOMIC CHARGES
-----------------------
   0 C :   -0.140791
   1 C :   -0.135247
   2 H :    0.043326
   3 H :    0.041561
   4 C :    0.253724
   5 O :   -0.561423
   6 O :   -0.560658
   7 C :   -0.334538
   8 H :    0.072586
   9 H :    0.034849
  10 H :    0.063477
  11 H :    0.078370
  12 H :    0.144764
Sum of atomic charges:   -1.0000000

LOEWDIN ATOMIC CHARGES
----------------------
   0 C :   -0.303549
   1 C :   -0.266934
   2 H :    0.124640
   3 H :    0.120753
   4 C :   -0.697338
   5 O :   -0.120747
   6 O :   -0.116628
   7 C :   -0.311515
   8 H :    0.129420
   9 H :    0.110541
  10 H :    0.097541
  11 H :    0.107829
  12 H :    0.125988

  Mayer bond orders larger than 0.100000
B(  0-C ,  1-C ) :   0.9819 B(  0-C ,  7-C ) :   0.9884 B(  0-C ,  8-H ) :   0.9705
B(  0-C ,  9-H ) :   0.9695 B(  1-C ,  2-H ) :   0.9587 B(  1-C ,  3-H ) :   0.9656
B(  1-C ,  4-C ) :   0.9355 B(  4-C ,  5-O ) :   1.8556 B(  4-C ,  6-O ) :   1.8187
B(  7-C , 10-H ) :   0.9795 B(  7-C , 11-H ) :   0.9788 B(  7-C , 12-H ) :   0.9787

Dispersion correction           -0.003443983
FINAL SINGLE POINT ENERGY      -307.185216234797

DIPOLE MOMENT
-------------
                                X             Y             Z
Electronic contribution:      3.76009       0.36560       6.07236
Nuclear contribution   :     -4.94481       0.08097      -8.10693
                        -----------------------------------------
Total Dipole Moment    :     -1.18471       0.44657      -2.03456
                        -----------------------------------------
Magnitude (a.u.)       :      2.39633
Magnitude (Debye)      :      6.09099

Rotational constants in cm-1:     0.192263     0.082741     0.079730
Rotational constants in MHz :  5763.914333  2480.509926  2390.233107

                             ****ORCA TERMINATED NORMALLY****
TOTAL RUN TIME: 0 days 0 hours 0 minutes 22 seconds 246 msec
