                         Program Version 5.0.0 -  RELEASE  -
|  1> !wB97X-D3 RIJCOSX def2-TZVP def2/J TightSCF
|  2> *xyz 1 1
|  3> C          3.91385       -1.65829        3.01513
|  4> N          5.03927       -0.90115        2.49282
|  5> C          6.21038       -1.41726        2.17824
|  6> N          6.53591       -2.67712        2.55608
|  7> N          7.07675       -0.70082        1.47891
|  8> H          7.95464       -1.12155        1.20755
|  9> H          6.75616        0.10664        0.96028
| 10> H          4.84217        0.01761        2.11519
| 11> H          5.99388       -3.12692        3.28278
| 12> H          7.49844       -2.97548        2.46878
| 13> C          3.13916       -2.37657        1.91061
| 14> H          3.26723       -0.93940        3.52069
| 15> H          4.24720       -2.35509        3.79006
| 16> C          2.39995       -1.38958        1.00949
| 17> H          2.44075       -3.08712        2.36298
| 18> H          3.84448       -2.97046        1.31868
| 19> H          1.87065       -1.92698        0.25058
| 20> H          3.10498       -0.72749        0.55181
| 21> H          1.70633       -0.82279        1.59477
| 22> *
| 23> %MaxCore 64000
| 24> %pal nprocs 8
| 25> end
| 26> %scf
| 27>   MaxIter 150
| 28> end
| 29>
| 30>
| 31>                          ****END OF INPUT****

CARTESIAN COORDINATES (ANGSTROEM)
---------------------------------
  C      3.913850   -1.658290    3.015130
  N      5.039270   -0.901150    2.492820
  C      6.210380   -1.417260    2.178240
  N      6.535910   -2.677120    2.556080
  N      7.076750   -0.700820    1.478910
  H      7.954640   -1.121550    1.207550
  H      6.756160    0.106640    0.960280
  H      4.842170    0.017610    2.115190
  H      5.993880   -3.126920    3.282780
  H      7.498440   -2.975480    2.468780
  C      3.139160   -2.376570    1.910610
  H      3.267230   -0.939400    3.520690
  H      4.247200   -2.355090    3.790060
  C      2.399950   -1.389580    1.009490
  H      2.440750   -3.087120    2.362980
  H      3.844480   -2.970460    1.318680
  H      1.870650   -1.926980    0.250580
  H      3.104980   -0.727490    0.551810
  H      1.706330   -0.822790    1.594770

 Total Charge           Charge          ....    1
 Multiplicity           Mult            ....    1
 Number of Electrons    NEL             ....   56
 Basis Dimension        Dim             ....  289

ORBITAL ENERGIES
----------------

  NO   OCC          E(Eh)            E(eV)
   0   2.0000     -14.644650      -398.5012
   1   2.0000     -14.643252      -398.4631
   2   2.0000     -14.640579      -398.3904
   3   2.0000     -10.611617      -288.7568
   4   2.0000     -10.477758      -285.1143
   5   2.0000     -10.415815      -283.4287
   6   2.0000     -10.386962      -282.6436
   7   2.0000      -1.333607       -36.2893
   8   2.0000      -1.222077       -33.2544
   9   2.0000      -1.205084       -32.7920
  10   2.0000      -1.056550       -28.7502
  11   2.0000      -0.975670       -26.5493
  12   2.0000      -0.931882       -25.3578
  13   2.0000      -0.889348       -24.2004
  14   2.0000      -0.870027       -23.6746
  15   2.0000      -0.834652       -22.7120
  16   2.0000      -0.789837       -21.4926
  17   2.0000      -0.782483       -21.2924
  18   2.0000      -0.755944       -20.5703
  19   2.0000      -0.728635       -19.8272
  20   2.0000      -0.697626       -18.9834
  21   2.0000      -0.678692       -18.4682
  22   2.0000      -0.647676       -17.6242
  23   2.0000      -0.599926       -16.3248
  24   2.0000      -0.582214       -15.8429
  25   2.0000      -0.579113       -15.7585
  26   2.0000      -0.567913       -15.4537
  27   2.0000      -0.536136       -14.5890
  28   0.0000      -0.082827        -2.2538
  29   0.0000      -0.067053        -1.8246
  30   0.0000      -0.037348        -1.0163
  31   0.0000      -0.022786        -0.6200
  32   0.0000      -0.003356        -0.0913

MULLIKEN ATOMIC CHARGES
-----------------------
   0 C :   -0.196563
   1 N :   -0.294196
   2 C :    0.475396
   3 N :   -0.439854
   4 N :   -0.442864
   5 H :    0.296958
   6 H :    0.297382
   7 H :    0.273595
   8 H :    0.290236
   9 H :    0.288601
  10 C :   -0.164169
  11 H :    0.183001
  12 H :    0.143563
  13 C :   -0.365872
  14 H :    0.148418
  15 H :    0.122075
  16 H :    0.160696
  17 H :    0.086311
  18 H :    0.137287
Sum of atomic charges:    1.0000000

LOEWDIN ATOMIC CHARGES
----------------------
   0 C :   -0.262086
   1 N :    0.175174
   2 C :   -0.394337
   3 N :    0.047422
   4 N :    0.063885
   5 H :    0.199617
   6 H :    0.200012
   7 H :    0.212078
   8 H :    0.193670
   9 H :    0.195729
  10 C :   -0.285874
  11 H :    0.153764
  12 H :    0.137952
  13 C :   -0.290734
  14 H :    0.150040
  15 H :    0.139425
  16 H :    0.131100
  17 H :    0.108513
  18 H :    0.124650

  Mayer bond orders larger than 0.100000
B(  0-C ,  1-N ) :   0.8593 B(  0-C , 10-C ) :   0.9417 B(  0-C , 11-H ) :   0.9674
B(  0-C , 12-H ) :   0.9780 B(  1-N ,  2-C ) :   1.4058 B(  1-N ,  7-H ) :   0.8996
B(  2-C ,  3-N ) :   1.3169 B(  2-C ,  4-N ) :   1.3358 B(  3-N ,  8-H ) :   0.8866
B(  3-N ,  9-H ) :   0.8962 B(  4-N ,  5-H ) :   0.8927 B(  4-N ,  6-H ) :   0.8918
B( 10-C , 13-C ) :   0.9623 B( 10-C , 14-H ) :   0.9622 B( 10-C , 15-H ) :   0.9665
B( 13-C , 16-H ) :   0.9750 B( 13-C , 17-H ) :   0.9835 B( 13-C , 18-H ) :   0.9700

Dispersion correction           -0.005320907
FINAL SINGLE POINT ENERGY      -323.748656862737

DIPOLE MOMENT
-------------
                                X             Y             Z
Electronic contribution:      6.91054       1.01625       1.46482
Nuclear contribution   :     -5.22950      -0.81973      -1.43960
                        -----------------------------------------
Total Dipole Moment    :      1.68103       0.19652       0.02522
                        -----------------------------------------
Magnitude (a.u.)       :      1.69267
Magnitude (Debye)      :      4.30243

Rotational constants in cm-1:     0.158118     0.049676     0.044442
Rotational constants in MHz :  4740.256785  1489.254255  1332.331442

                             ****ORCA TERMINATED NORMALLY****
TOTAL RUN TIME: 0 days 0 hours 0 minutes 38 seconds 370 msec
