                         Program Version 5.0.0 -  RELEASE  -
|  1> !wB97X-D3 RIJCOSX def2-TZVP def2/J TightSCF xyzfile
|  2>
|  3> *xyzfile 0 1 B.xyz
|  4>
|  5> %MaxCore 64000
|  6>
|  7> %pal nprocs 18
|  8> end
|  9>
| 10> %scf
| 11>   MaxIter 150
| 12> end
| 13>
| 14>
| 15>                          ****END OF INPUT****

CARTESIAN COORDINATES (ANGSTROEM)
---------------------------------
  C      3.913853   -1.658291    3.015134
  N      5.039266   -0.901154    2.492821
  C      4.084215    1.742081   -2.114724
  C      4.265245    2.500518   -0.795890
  H      4.868534    3.392674   -0.981134
  H      3.307640    2.824571   -0.387809
  C      4.982240    1.650257    0.247422
  C      6.210384   -1.417261    2.178244
  N      6.535913   -2.677122    2.556078
  N      7.076754   -0.700820    1.478906
  H      7.954643   -1.121554    1.207554
  H      6.756161    0.106637    0.960278
  H      4.842168    0.017609    2.115191
  H      5.993876   -3.126918    3.282784
  H      7.498441   -2.975482    2.468776
  O      4.368065    1.389270    1.313706
  O      6.128919    1.233512   -0.045620
  C      3.139159   -2.376572    1.910609
  H      3.267235   -0.939401    3.520693
  H      4.247195   -2.355095    3.790065
  C      1.997274    0.430918   -1.399218
  C      3.412746    0.376886   -1.965497
  H      4.047407   -0.246590   -1.326706
  H      3.390774   -0.118719   -2.942839
  H      5.068475    1.598504   -2.565728
  H      3.503356    2.363939   -2.804565
  C      2.399946   -1.389579    1.009490
  H      2.440750   -3.087118    2.362976
  H      3.844475   -2.970462    1.318677
  C      2.070177   -1.936705   -0.372401
  H      1.481611   -1.061542    1.509912
  H      3.008628   -0.490001    0.897451
  C      1.322238   -0.935775   -1.256413
  H      1.472747   -2.850902   -0.283997
  H      3.003539   -2.234041   -0.862535
  H      1.376444    1.058920   -2.047420
  H      2.015341    0.929780   -0.426535
  H      0.316648   -0.787213   -0.848278
  H      1.185611   -1.379252   -2.248613

 Total Charge           Charge          ....    0
 Multiplicity           Mult            ....    1
 Number of Electrons    NEL             ....  126
 Basis Dimension        Dim             ....  634

ORBITAL ENERGIES
----------------

  NO   OCC          E(Eh)            E(eV)
   0   2.0000     -19.146041      -520.9903
   1   2.0000     -19.144554      -520.9498
   2   2.0000     -14.487721      -394.2309
   3   2.0000     -14.453291      -393.2940
   4   2.0000     -14.446765      -393.1165
   5   2.0000     -10.437173      -284.0099
   6   2.0000     -10.332893      -281.1723
   7   2.0000     -10.332505      -281.1617
   8   2.0000     -10.281911      -279.7850
   9   2.0000     -10.259690      -279.1804
  10   2.0000     -10.259073      -279.1636
  11   2.0000     -10.255446      -279.0649
  12   2.0000     -10.246199      -278.8133
  13   2.0000     -10.244606      -278.7699
  14   2.0000     -10.243784      -278.7475
  15   2.0000     -10.234418      -278.4927
  16   2.0000      -1.160610       -31.5818
  17   2.0000      -1.122562       -30.5465
  18   2.0000      -1.051054       -28.6006
  19   2.0000      -1.036252       -28.1979
  20   2.0000      -1.023848       -27.8603
  21   2.0000      -0.928516       -25.2662
  22   2.0000      -0.903315       -24.5804
  23   2.0000      -0.873710       -23.7749
  24   2.0000      -0.832415       -22.6512
  25   2.0000      -0.792985       -21.5782
  26   2.0000      -0.772680       -21.0257
  27   2.0000      -0.742509       -20.2047
  28   2.0000      -0.721944       -19.6451
  29   2.0000      -0.711224       -19.3534
  30   2.0000      -0.682790       -18.5797
  31   2.0000      -0.675016       -18.3681
  32   2.0000      -0.646133       -17.5822
  33   2.0000      -0.624412       -16.9911
  34   2.0000      -0.620347       -16.8805
  35   2.0000      -0.599737       -16.3197
  36   2.0000      -0.572036       -15.5659
  37   2.0000      -0.568212       -15.4618
  38   2.0000      -0.559988       -15.2380
  39   2.0000      -0.555857       -15.1256
  40   2.0000      -0.540939       -14.7197
  41   2.0000      -0.523151       -14.2357
  42   2.0000      -0.520137       -14.1537
  43   2.0000      -0.514485       -13.9998
  44   2.0000      -0.505264       -13.7489
  45   2.0000      -0.496977       -13.5234
  46   2.0000      -0.480341       -13.0707
  47   2.0000      -0.466897       -12.7049
  48   2.0000      -0.461045       -12.5457
  49   2.0000      -0.449412       -12.2291
  50   2.0000      -0.441808       -12.0222
  51   2.0000      -0.434220       -11.8157
  52   2.0000      -0.420028       -11.4296
  53   2.0000      -0.411868       -11.2075
  54   2.0000      -0.407804       -11.0969
  55   2.0000      -0.401050       -10.9131
  56   2.0000      -0.390232       -10.6188
  57   2.0000      -0.385077       -10.4785
  58   2.0000      -0.378119       -10.2891
  59   2.0000      -0.366292        -9.9673
  60   2.0000      -0.323902        -8.8138
  61   2.0000      -0.313287        -8.5250
  62   2.0000      -0.309856        -8.4316
  63   0.0000       0.071269         1.9393
  64   0.0000       0.086189         2.3453
  65   0.0000       0.103988         2.8297
  66   0.0000       0.121602         3.3089
  67   0.0000       0.134807         3.6683

MULLIKEN ATOMIC CHARGES
-----------------------
   0 C :   -0.174220
   1 N :   -0.259296
   2 C :   -0.160053
   3 C :   -0.174580
   4 H :    0.101860
   5 H :    0.109977
   6 C :    0.362180
   7 C :    0.443361
   8 N :   -0.481564
   9 N :   -0.426818
  10 H :    0.239962
  11 H :    0.291815
  12 H :    0.276487
  13 H :    0.263652
  14 H :    0.258856
  15 O :   -0.569698
  16 O :   -0.567447
  17 C :   -0.141592
  18 H :    0.151239
  19 H :    0.107159
  20 C :   -0.256903
  21 C :   -0.222797
  22 H :    0.109586
  23 H :    0.091274
  24 H :    0.104872
  25 H :    0.087819
  26 C :   -0.267330
  27 H :    0.108823
  28 H :    0.108364
  29 C :   -0.207306
  30 H :    0.098346
  31 H :    0.109635
  32 C :   -0.161137
  33 H :    0.097674
  34 H :    0.110179
  35 H :    0.097773
  36 H :    0.142841
  37 H :    0.098248
  38 H :    0.098758
Sum of atomic charges:   -0.0000000

LOEWDIN ATOMIC CHARGES
----------------------
   0 C :   -0.271425
   1 N :    0.175922
   2 C :   -0.264811
   3 C :   -0.237594
   4 H :    0.141788
   5 H :    0.134938
   6 C :   -0.626830
   7 C :   -0.414757
   8 N :    0.003440
   9 N :    0.058134
  10 H :    0.175850
  11 H :    0.152314
  12 H :    0.173235
  13 H :    0.178479
  14 H :    0.179470
  15 O :   -0.066893
  16 O :   -0.054492
  17 C :   -0.266574
  18 H :    0.148753
  19 H :    0.122054
  20 C :   -0.269005
  21 C :   -0.267509
  22 H :    0.137143
  23 H :    0.132460
  24 H :    0.139247
  25 H :    0.131014
  26 C :   -0.267932
  27 H :    0.136289
  28 H :    0.137382
  29 C :   -0.273312
  30 H :    0.137385
  31 H :    0.145785
  32 C :   -0.268221
  33 H :    0.132074
  34 H :    0.133892
  35 H :    0.134241
  36 H :    0.140172
  37 H :    0.134094
  38 H :    0.133798

  Mayer bond orders larger than 0.100000
B(  0-C ,  1-N ) :   0.9256 B(  0-C , 17-C ) :   0.9320 B(  0-C , 18-H ) :   0.9676
B(  0-C , 19-H ) :   1.0003 B(  1-N ,  7-C ) :   1.4472 B(  1-N , 12-H ) :   0.7681
B(  2-C ,  3-C ) :   0.9592 B(  2-C , 21-C ) :   0.9936 B(  2-C , 24-H ) :   0.9687
B(  2-C , 25-H ) :   0.9758 B(  3-C ,  4-H ) :   0.9589 B(  3-C ,  5-H ) :   0.9936
B(  3-C ,  6-C ) :   0.9453 B(  6-C , 15-O ) :   1.6156 B(  6-C , 16-O ) :   1.6434
B(  7-C ,  8-N ) :   1.2270 B(  7-C ,  9-N ) :   1.4027 B(  8-N , 13-H ) :   0.9012
B(  8-N , 14-H ) :   0.9126 B(  9-N , 10-H ) :   0.9198 B(  9-N , 11-H ) :   0.7559
B( 11-H , 16-O ) :   0.2218 B( 12-H , 15-O ) :   0.2129 B( 17-C , 26-C ) :   0.9539
B( 17-C , 27-H ) :   0.9688 B( 17-C , 28-H ) :   0.9834 B( 20-C , 21-C ) :   0.9416
B( 20-C , 32-C ) :   0.9618 B( 20-C , 35-H ) :   0.9719 B( 20-C , 36-H ) :   0.9821
B( 21-C , 22-H ) :   0.9729 B( 21-C , 23-H ) :   0.9733 B( 26-C , 29-C ) :   0.9542
B( 26-C , 30-H ) :   0.9680 B( 26-C , 31-H ) :   0.9921 B( 29-C , 32-C ) :   0.9821
B( 29-C , 33-H ) :   0.9789 B( 29-C , 34-H ) :   0.9809 B( 32-C , 37-H ) :   0.9852
B( 32-C , 38-H ) :   0.9818

Dispersion correction           -0.020324763
FINAL SINGLE POINT ENERGY      -747.882602410248

DIPOLE MOMENT
-------------
                                X             Y             Z
Electronic contribution:     12.34584       3.25914       7.70241
Nuclear contribution   :    -11.44764      -6.21818      -6.18483
                        -----------------------------------------
Total Dipole Moment    :      0.89820      -2.95903       1.51758
                        -----------------------------------------
Magnitude (a.u.)       :      3.44466
Magnitude (Debye)      :      8.75563

Rotational constants in cm-1:     0.020281     0.013510     0.009451
Rotational constants in MHz :   608.005987   405.034308   283.324538

                             ****ORCA TERMINATED NORMALLY****
TOTAL RUN TIME: 0 days 0 hours 1 minutes 57 seconds 479 msec
