                         Program Version 5.0.0 -  RELEASE  -
|  1> !wB97X-D3 RIJCOSX def2-TZVP def2/J TightSCF
|  2> *xyz 0 1
|  3> C          4.08422        1.74208       -2.11472
|  4> C          4.26524        2.50052       -0.79589
|  5> H          4.86853        3.39267       -0.98113
|  6> H          3.30764        2.82457       -0.38781
|  7> C          4.98224        1.65026        0.24742
|  8> F          4.36806        1.38927        1.31371
|  9> O          6.12892        1.23351       -0.04562
| 10> C          3.41275        0.37689       -1.96550
| 11> H          5.06847        1.59850       -2.56573
| 12> H          3.50336        2.36394       -2.80457
| 13> H          3.32456       -0.08422       -2.92701
| 14> H          2.43923        0.50287       -1.53972
| 15> H          4.00446       -0.24355       -1.32531
| 16> *
| 17> %MaxCore 64000
| 18> %pal nprocs 8
| 19> end
| 20> %scf
| 21>   MaxIter 150
| 22> end
| 23>
| 24>
| 25>                          ****END OF INPUT****

CARTESIAN COORDINATES (ANGSTROEM)
---------------------------------
  C      4.084220    1.742080   -2.114720
  C      4.265240    2.500520   -0.795890
  H      4.868530    3.392670   -0.981130
  H      3.307640    2.824570   -0.387810
  C      4.982240    1.650260    0.247420
  F      4.368060    1.389270    1.313710
  O      6.128920    1.233510   -0.045620
  C      3.412750    0.376890   -1.965500
  H      5.068470    1.598500   -2.565730
  H      3.503360    2.363940   -2.804570
  H      3.324560   -0.084220   -2.927010
  H      2.439230    0.502870   -1.539720
  H      4.004460   -0.243550   -1.325310

 Total Charge           Charge          ....    0
 Multiplicity           Mult            ....    1
 Number of Electrons    NEL             ....   48
 Basis Dimension        Dim             ....  228

ORBITAL ENERGIES
----------------

  NO   OCC          E(Eh)            E(eV)
   0   2.0000     -24.853145      -676.2885
   1   2.0000     -19.233514      -523.3705
   2   2.0000     -10.453413      -284.4518
   3   2.0000     -10.304304      -280.3944
   4   2.0000     -10.289542      -279.9927
   5   2.0000     -10.266302      -279.3603
   6   2.0000      -1.432621       -38.9836
   7   2.0000      -1.147959       -31.2375
   8   2.0000      -0.932099       -25.3637
   9   2.0000      -0.844539       -22.9811
  10   2.0000      -0.771819       -21.0023
  11   2.0000      -0.719868       -19.5886
  12   2.0000      -0.651630       -17.7318
  13   2.0000      -0.635228       -17.2854
  14   2.0000      -0.614697       -16.7268
  15   2.0000      -0.565978       -15.4011
  16   2.0000      -0.557065       -15.1585
  17   2.0000      -0.517801       -14.0901
  18   2.0000      -0.500337       -13.6149
  19   2.0000      -0.468557       -12.7501
  20   2.0000      -0.451595       -12.2885
  21   2.0000      -0.442755       -12.0480
  22   2.0000      -0.436580       -11.8799
  23   2.0000      -0.388151       -10.5621
  24   0.0000       0.056734         1.5438
  25   0.0000       0.114031         3.1030
  26   0.0000       0.151770         4.1299
  27   0.0000       0.156822         4.2673
  28   0.0000       0.162834         4.4310

MULLIKEN ATOMIC CHARGES
-----------------------
   0 C :   -0.189321
   1 C :   -0.217392
   2 H :    0.137591
   3 H :    0.116683
   4 C :    0.385955
   5 F :   -0.107336
   6 O :   -0.357379
   7 C :   -0.361857
   8 H :    0.122323
   9 H :    0.107477
  10 H :    0.122500
  11 H :    0.110878
  12 H :    0.129880
Sum of atomic charges:    0.0000000

LOEWDIN ATOMIC CHARGES
----------------------
   0 C :   -0.281686
   1 C :   -0.238532
   2 H :    0.157121
   3 H :    0.140394
   4 C :   -0.494186
   5 F :    0.320547
   6 O :    0.060404
   7 C :   -0.297909
   8 H :    0.143104
   9 H :    0.136106
  10 H :    0.119019
  11 H :    0.115556
  12 H :    0.120061

  Mayer bond orders larger than 0.100000
B(  0-C ,  1-C ) :   0.9736 B(  0-C ,  7-C ) :   0.9798 B(  0-C ,  8-H ) :   0.9671
B(  0-C ,  9-H ) :   0.9710 B(  1-C ,  2-H ) :   0.9477 B(  1-C ,  3-H ) :   0.9670
B(  1-C ,  4-C ) :   0.9755 B(  4-C ,  5-F ) :   1.1543 B(  4-C ,  6-O ) :   2.0284
B(  7-C , 10-H ) :   0.9773 B(  7-C , 11-H ) :   0.9767 B(  7-C , 12-H ) :   0.9715

Dispersion correction           -0.003354679
FINAL SINGLE POINT ENERGY      -331.755614223501

DIPOLE MOMENT
-------------
                                X             Y             Z
Electronic contribution:      3.78652       0.36373       9.81984
Nuclear contribution   :     -4.74589       0.16790     -10.21257
                        -----------------------------------------
Total Dipole Moment    :     -0.95937       0.53163      -0.39274
                        -----------------------------------------
Magnitude (a.u.)       :      1.16502
Magnitude (Debye)      :      2.96124

Rotational constants in cm-1:     0.185977     0.079908     0.076069
Rotational constants in MHz :  5575.451195  2395.576856  2280.481791

                             ****ORCA TERMINATED NORMALLY****
TOTAL RUN TIME: 0 days 0 hours 0 minutes 21 seconds 955 msec
