                         Program Version 5.0.0 -  RELEASE  -
|  1> !wB97X-D3 RIJCOSX def2-TZVP def2/J TightSCF
|  2> *xyz 0 1
|  3> C          3.91385       -1.65829        3.01513
|  4> C          5.03927       -0.90115        2.49282
|  5> C          6.21038       -1.41726        2.17824
|  6> N          6.53591       -2.67712        2.55608
|  7> N          7.07675       -0.70082        1.47891
|  8> H          7.95464       -1.12155        1.20755
|  9> H          6.75616        0.10664        0.96028
| 10> H          4.84217        0.01761        2.11519
| 11> H          5.99388       -3.12692        3.28278
| 12> H          7.49844       -2.97548        2.46878
| 13> C          3.13916       -2.37657        1.91061
| 14> H          3.26723       -0.93940        3.52069
| 15> H          4.24720       -2.35509        3.79006
| 16> C          2.39995       -1.38958        1.00949
| 17> H          2.44075       -3.08712        2.36298
| 18> H          3.84448       -2.97046        1.31868
| 19> H          1.87065       -1.92698        0.25058
| 20> H          3.10498       -0.72749        0.55181
| 21> H          1.70633       -0.82279        1.59477
| 22> *
| 23> %MaxCore 64000
| 24> %pal nprocs 8
| 25> end
| 26> %scf
| 27>   MaxIter 150
| 28> end
| 29>
| 30>
| 31>                          ****END OF INPUT****

CARTESIAN COORDINATES (ANGSTROEM)
---------------------------------
  C      3.913850   -1.658290    3.015130
  C      5.039270   -0.901150    2.492820
  C      6.210380   -1.417260    2.178240
  N      6.535910   -2.677120    2.556080
  N      7.076750   -0.700820    1.478910
  H      7.954640   -1.121550    1.207550
  H      6.756160    0.106640    0.960280
  H      4.842170    0.017610    2.115190
  H      5.993880   -3.126920    3.282780
  H      7.498440   -2.975480    2.468780
  C      3.139160   -2.376570    1.910610
  H      3.267230   -0.939400    3.520690
  H      4.247200   -2.355090    3.790060
  C      2.399950   -1.389580    1.009490
  H      2.440750   -3.087120    2.362980
  H      3.844480   -2.970460    1.318680
  H      1.870650   -1.926980    0.250580
  H      3.104980   -0.727490    0.551810
  H      1.706330   -0.822790    1.594770

 Total Charge           Charge          ....    0
 Multiplicity           Mult            ....    1
 Number of Electrons    NEL             ....   56
 Basis Dimension        Dim             ....  289

ORBITAL ENERGIES
----------------

  NO   OCC          E(Eh)            E(eV)
   0   2.0000     -14.419907      -392.3856
   1   2.0000     -14.417816      -392.3287
   2   2.0000     -10.317379      -280.7502
   3   2.0000     -10.247904      -278.8597
   4   2.0000     -10.245776      -278.8017
   5   2.0000     -10.238459      -278.6026
   6   2.0000     -10.191268      -277.3185
   7   2.0000      -1.076905       -29.3041
   8   2.0000      -0.984379       -26.7863
   9   2.0000      -0.902239       -24.5512
  10   2.0000      -0.834474       -22.7072
  11   2.0000      -0.768350       -20.9079
  12   2.0000      -0.702021       -19.1029
  13   2.0000      -0.673579       -18.3290
  14   2.0000      -0.641240       -17.4490
  15   2.0000      -0.609888       -16.5959
  16   2.0000      -0.570314       -15.5190
  17   2.0000      -0.539327       -14.6758
  18   2.0000      -0.536177       -14.5901
  19   2.0000      -0.504349       -13.7240
  20   2.0000      -0.489209       -13.3120
  21   2.0000      -0.464898       -12.6505
  22   2.0000      -0.453072       -12.3287
  23   2.0000      -0.420830       -11.4514
  24   2.0000      -0.405440       -11.0326
  25   2.0000      -0.401357       -10.9215
  26   2.0000      -0.360449        -9.8083
  27   2.0000      -0.245614        -6.6835
  28   0.0000       0.101469         2.7611
  29   0.0000       0.130775         3.5586
  30   0.0000       0.133328         3.6280
  31   0.0000       0.158886         4.3235
  32   0.0000       0.162473         4.4211

MULLIKEN ATOMIC CHARGES
-----------------------
   0 C :   -0.190941
   1 C :   -0.383230
   2 C :    0.362484
   3 N :   -0.513353
   4 N :   -0.510394
   5 H :    0.227232
   6 H :    0.254673
   7 H :    0.095395
   8 H :    0.245545
   9 H :    0.223521
  10 C :   -0.113285
  11 H :    0.095794
  12 H :    0.067976
  13 C :   -0.356124
  14 H :    0.079743
  15 H :    0.094803
  16 H :    0.109100
  17 H :    0.109691
  18 H :    0.101371
Sum of atomic charges:   -0.0000000

LOEWDIN ATOMIC CHARGES
----------------------
   0 C :   -0.285591
   1 C :   -0.279890
   2 C :   -0.450841
   3 N :   -0.030463
   4 N :   -0.016657
   5 H :    0.162902
   6 H :    0.179095
   7 H :    0.119538
   8 H :    0.172603
   9 H :    0.160747
  10 C :   -0.287748
  11 H :    0.140724
  12 H :    0.125227
  13 C :   -0.304445
  14 H :    0.123470
  15 H :    0.133159
  16 H :    0.111824
  17 H :    0.113472
  18 H :    0.112874

  Mayer bond orders larger than 0.100000
B(  0-C ,  1-C ) :   0.9973 B(  0-C , 10-C ) :   0.9407 B(  0-C , 11-H ) :   0.9970
B(  0-C , 12-H ) :   0.9845 B(  1-C ,  2-C ) :   1.6806 B(  1-C ,  7-H ) :   1.0268
B(  2-C ,  3-N ) :   1.1420 B(  2-C ,  4-N ) :   1.1467 B(  3-N ,  8-H ) :   0.9153
B(  3-N ,  9-H ) :   0.9270 B(  4-N ,  5-H ) :   0.9269 B(  4-N ,  6-H ) :   0.9178
B( 10-C , 13-C ) :   0.9730 B( 10-C , 14-H ) :   0.9762 B( 10-C , 15-H ) :   0.9774
B( 13-C , 16-H ) :   0.9842 B( 13-C , 17-H ) :   0.9822 B( 13-C , 18-H ) :   0.9796

Dispersion correction           -0.005293992
FINAL SINGLE POINT ENERGY      -307.262160672077

DIPOLE MOMENT
-------------
                                X             Y             Z
Electronic contribution:      6.18734       0.37284       1.06063
Nuclear contribution   :     -5.20491      -0.66934      -1.34917
                        -----------------------------------------
Total Dipole Moment    :      0.98243      -0.29650      -0.28854
                        -----------------------------------------
Magnitude (a.u.)       :      1.06599
Magnitude (Debye)      :      2.70953

Rotational constants in cm-1:     0.160002     0.049848     0.044470
Rotational constants in MHz :  4796.743477  1494.412607  1333.165890

                             ****ORCA TERMINATED NORMALLY****
TOTAL RUN TIME: 0 days 0 hours 0 minutes 38 seconds 980 msec
