                         Program Version 5.0.0 -  RELEASE  -
|  1> !wB97X-D3 RIJCOSX def2-TZVP def2/J TightSCF
|  2> *xyz 0 1
|  3> C          4.08422        1.74208       -2.11472
|  4> C          4.26524        2.50052       -0.79589
|  5> H          4.86853        3.39267       -0.98113
|  6> H          3.30764        2.82457       -0.38781
|  7> C          4.98224        1.65026        0.24742
|  8> O          4.36806        1.38927        1.31371
|  9> F          6.12892        1.23351       -0.04562
| 10> C          3.41275        0.37689       -1.96550
| 11> H          5.06847        1.59850       -2.56573
| 12> H          3.50336        2.36394       -2.80457
| 13> H          3.32456       -0.08422       -2.92701
| 14> H          2.43923        0.50287       -1.53972
| 15> H          4.00446       -0.24355       -1.32531
| 16> *
| 17> %MaxCore 64000
| 18> %pal nprocs 8
| 19> end
| 20> %scf
| 21>   MaxIter 150
| 22> end
| 23>
| 24>
| 25>                          ****END OF INPUT****

CARTESIAN COORDINATES (ANGSTROEM)
---------------------------------
  C      4.084220    1.742080   -2.114720
  C      4.265240    2.500520   -0.795890
  H      4.868530    3.392670   -0.981130
  H      3.307640    2.824570   -0.387810
  C      4.982240    1.650260    0.247420
  O      4.368060    1.389270    1.313710
  F      6.128920    1.233510   -0.045620
  C      3.412750    0.376890   -1.965500
  H      5.068470    1.598500   -2.565730
  H      3.503360    2.363940   -2.804570
  H      3.324560   -0.084220   -2.927010
  H      2.439230    0.502870   -1.539720
  H      4.004460   -0.243550   -1.325310

 Total Charge           Charge          ....    0
 Multiplicity           Mult            ....    1
 Number of Electrons    NEL             ....   48
 Basis Dimension        Dim             ....  228

ORBITAL ENERGIES
----------------

  NO   OCC          E(Eh)            E(eV)
   0   2.0000     -24.854613      -676.3284
   1   2.0000     -19.232787      -523.3507
   2   2.0000     -10.452700      -284.4324
   3   2.0000     -10.303765      -280.3797
   4   2.0000     -10.293585      -280.1027
   5   2.0000     -10.268196      -279.4118
   6   2.0000      -1.435479       -39.0614
   7   2.0000      -1.144560       -31.1451
   8   2.0000      -0.935941       -25.4682
   9   2.0000      -0.844780       -22.9876
  10   2.0000      -0.770781       -20.9740
  11   2.0000      -0.724911       -19.7258
  12   2.0000      -0.655720       -17.8431
  13   2.0000      -0.644341       -17.5334
  14   2.0000      -0.598724       -16.2921
  15   2.0000      -0.573290       -15.6000
  16   2.0000      -0.558412       -15.1952
  17   2.0000      -0.518059       -14.0971
  18   2.0000      -0.497147       -13.5281
  19   2.0000      -0.469553       -12.7772
  20   2.0000      -0.460656       -12.5351
  21   2.0000      -0.445726       -12.1288
  22   2.0000      -0.439174       -11.9505
  23   2.0000      -0.382324       -10.4036
  24   0.0000       0.060703         1.6518
  25   0.0000       0.110153         2.9974
  26   0.0000       0.149715         4.0740
  27   0.0000       0.156565         4.2603
  28   0.0000       0.164483         4.4758

MULLIKEN ATOMIC CHARGES
-----------------------
   0 C :   -0.210252
   1 C :   -0.210269
   2 H :    0.126969
   3 H :    0.137638
   4 C :    0.375985
   5 O :   -0.357114
   6 F :   -0.107361
   7 C :   -0.339471
   8 H :    0.110249
   9 H :    0.112783
  10 H :    0.121413
  11 H :    0.119442
  12 H :    0.119988
Sum of atomic charges:    0.0000000

LOEWDIN ATOMIC CHARGES
----------------------
   0 C :   -0.289449
   1 C :   -0.234445
   2 H :    0.149694
   3 H :    0.153211
   4 C :   -0.497880
   5 O :    0.054957
   6 F :    0.327564
   7 C :   -0.294863
   8 H :    0.136987
   9 H :    0.137661
  10 H :    0.118096
  11 H :    0.119947
  12 H :    0.118520

  Mayer bond orders larger than 0.100000
B(  0-C ,  1-C ) :   0.9656 B(  0-C ,  7-C ) :   0.9813 B(  0-C ,  8-H ) :   0.9728
B(  0-C ,  9-H ) :   0.9714 B(  1-C ,  2-H ) :   0.9505 B(  1-C ,  3-H ) :   0.9703
B(  1-C ,  4-C ) :   0.9860 B(  4-C ,  5-O ) :   2.0444 B(  4-C ,  6-F ) :   1.1466
B(  7-C , 10-H ) :   0.9761 B(  7-C , 11-H ) :   0.9754 B(  7-C , 12-H ) :   0.9720

Dispersion correction           -0.003364086
FINAL SINGLE POINT ENERGY      -331.754683509130

DIPOLE MOMENT
-------------
                                X             Y             Z
Electronic contribution:      6.76363       0.10238       7.48497
Nuclear contribution   :     -6.73491       0.34384      -8.67711
                        -----------------------------------------
Total Dipole Moment    :      0.02872       0.44623      -1.19214
                        -----------------------------------------
Magnitude (a.u.)       :      1.27324
Magnitude (Debye)      :      3.23633

Rotational constants in cm-1:     0.183378     0.080817     0.077085
Rotational constants in MHz :  5497.543257  2422.830825  2310.936171

                             ****ORCA TERMINATED NORMALLY****
TOTAL RUN TIME: 0 days 0 hours 0 minutes 21 seconds 983 msec
