                         Program Version 5.0.0 -  RELEASE  -
|  1> !wB97X-D3 RIJCOSX def2-TZVP def2/J TightSCF
|  2> *xyz 0 1
|  3> C          3.91385       -1.65829        3.01513
|  4> N          5.03927       -0.90115        2.49282
|  5> C          6.21038       -1.41726        2.17824
|  6> C          6.53591       -2.67712        2.55608
|  7> N          7.07675       -0.70082        1.47891
|  8> H          7.95464       -1.12155        1.20755
|  9> H          6.75616        0.10664        0.96028
| 10> H          4.84217        0.01761        2.11519
| 11> H          5.99388       -3.12692        3.28278
| 12> H          7.49844       -2.97548        2.46878
| 13> C          3.13916       -2.37657        1.91061
| 14> H          3.26723       -0.93940        3.52069
| 15> H          4.24720       -2.35509        3.79006
| 16> C          2.39995       -1.38958        1.00949
| 17> H          2.44075       -3.08712        2.36298
| 18> H          3.84448       -2.97046        1.31868
| 19> H          1.87065       -1.92698        0.25058
| 20> H          3.10498       -0.72749        0.55181
| 21> H          1.70633       -0.82279        1.59477
| 22> *
| 23> %MaxCore 64000
| 24> %pal nprocs 8
| 25> end
| 26> %scf
| 27>   MaxIter 150
| 28> end
| 29>
| 30>
| 31>                          ****END OF INPUT****

CARTESIAN COORDINATES (ANGSTROEM)
---------------------------------
  C      3.913850   -1.658290    3.015130
  N      5.039270   -0.901150    2.492820
  C      6.210380   -1.417260    2.178240
  C      6.535910   -2.677120    2.556080
  N      7.076750   -0.700820    1.478910
  H      7.954640   -1.121550    1.207550
  H      6.756160    0.106640    0.960280
  H      4.842170    0.017610    2.115190
  H      5.993880   -3.126920    3.282780
  H      7.498440   -2.975480    2.468780
  C      3.139160   -2.376570    1.910610
  H      3.267230   -0.939400    3.520690
  H      4.247200   -2.355090    3.790060
  C      2.399950   -1.389580    1.009490
  H      2.440750   -3.087120    2.362980
  H      3.844480   -2.970460    1.318680
  H      1.870650   -1.926980    0.250580
  H      3.104980   -0.727490    0.551810
  H      1.706330   -0.822790    1.594770

 Total Charge           Charge          ....    0
 Multiplicity           Mult            ....    1
 Number of Electrons    NEL             ....   56
 Basis Dimension        Dim             ....  289

ORBITAL ENERGIES
----------------

  NO   OCC          E(Eh)            E(eV)
   0   2.0000     -14.425361      -392.5340
   1   2.0000     -14.421570      -392.4309
   2   2.0000     -10.324112      -280.9334
   3   2.0000     -10.305191      -280.4185
   4   2.0000     -10.265671      -279.3431
   5   2.0000     -10.257328      -279.1161
   6   2.0000     -10.181063      -277.0408
   7   2.0000      -1.091325       -29.6965
   8   2.0000      -1.006022       -27.3752
   9   2.0000      -0.895603       -24.3706
  10   2.0000      -0.822551       -22.3827
  11   2.0000      -0.802604       -21.8400
  12   2.0000      -0.717421       -19.5220
  13   2.0000      -0.663572       -18.0567
  14   2.0000      -0.653446       -17.7812
  15   2.0000      -0.623122       -16.9560
  16   2.0000      -0.575048       -15.6478
  17   2.0000      -0.550269       -14.9736
  18   2.0000      -0.530344       -14.4314
  19   2.0000      -0.504015       -13.7150
  20   2.0000      -0.496987       -13.5237
  21   2.0000      -0.477601       -12.9962
  22   2.0000      -0.463759       -12.6195
  23   2.0000      -0.443664       -12.0727
  24   2.0000      -0.433252       -11.7894
  25   2.0000      -0.429043       -11.6748
  26   2.0000      -0.343891        -9.3578
  27   2.0000      -0.249862        -6.7991
  28   0.0000       0.097358         2.6493
  29   0.0000       0.130056         3.5390
  30   0.0000       0.139466         3.7951
  31   0.0000       0.153192         4.1686
  32   0.0000       0.162778         4.4294

MULLIKEN ATOMIC CHARGES
-----------------------
   0 C :   -0.127551
   1 N :   -0.361569
   2 C :    0.367761
   3 C :   -0.519487
   4 N :   -0.509086
   5 H :    0.259878
   6 H :    0.225201
   7 H :    0.208972
   8 H :    0.082156
   9 H :    0.082135
  10 C :   -0.135552
  11 H :    0.121187
  12 H :    0.128074
  13 C :   -0.365477
  14 H :    0.093720
  15 H :    0.131106
  16 H :    0.121441
  17 H :    0.092882
  18 H :    0.104210
Sum of atomic charges:   -0.0000000

LOEWDIN ATOMIC CHARGES
----------------------
   0 C :   -0.274446
   1 N :    0.121235
   2 C :   -0.461948
   3 C :   -0.362549
   4 N :   -0.011597
   5 H :    0.180861
   6 H :    0.162208
   7 H :    0.179480
   8 H :    0.094114
   9 H :    0.092214
  10 C :   -0.292396
  11 H :    0.131676
  12 H :    0.136998
  13 C :   -0.308679
  14 H :    0.132143
  15 H :    0.142883
  16 H :    0.116610
  17 H :    0.108126
  18 H :    0.113069

  Mayer bond orders larger than 0.100000
B(  0-C ,  1-N ) :   0.9136 B(  0-C , 10-C ) :   0.9559 B(  0-C , 11-H ) :   0.9854
B(  0-C , 12-H ) :   0.9721 B(  1-N ,  2-C ) :   1.1982 B(  1-N ,  7-H ) :   0.9297
B(  2-C ,  3-C ) :   1.6259 B(  2-C ,  4-N ) :   1.1495 B(  3-C ,  8-H ) :   1.0100
B(  3-C ,  9-H ) :   1.0013 B(  4-N ,  5-H ) :   0.9187 B(  4-N ,  6-H ) :   0.9229
B( 10-C , 13-C ) :   0.9566 B( 10-C , 14-H ) :   0.9712 B( 10-C , 15-H ) :   0.9693
B( 13-C , 16-H ) :   0.9832 B( 13-C , 17-H ) :   0.9859 B( 13-C , 18-H ) :   0.9781

Dispersion correction           -0.005320703
FINAL SINGLE POINT ENERGY      -307.253582364625

DIPOLE MOMENT
-------------
                                X             Y             Z
Electronic contribution:      4.52888       2.03269       0.85722
Nuclear contribution   :     -4.87706      -1.05838      -1.33532
                        -----------------------------------------
Total Dipole Moment    :     -0.34818       0.97431      -0.47809
                        -----------------------------------------
Magnitude (a.u.)       :      1.13977
Magnitude (Debye)      :      2.89707

Rotational constants in cm-1:     0.163042     0.050484     0.045356
Rotational constants in MHz :  4887.864082  1513.473419  1359.735450

                             ****ORCA TERMINATED NORMALLY****
TOTAL RUN TIME: 0 days 0 hours 0 minutes 41 seconds 533 msec
