                         Program Version 5.0.0 -  RELEASE  -
|  1> !wB97X-D3 RIJCOSX def2-TZVP def2/J TightSCF
|  2> *xyz 0 1
|  3> C          3.91385       -1.65829        3.01513
|  4> N          5.03927       -0.90115        2.49282
|  5> C          6.21038       -1.41726        2.17824
|  6> N          6.53591       -2.67712        2.55608
|  7> C          7.07675       -0.70082        1.47891
|  8> H          7.95464       -1.12155        1.20755
|  9> H          6.75616        0.10664        0.96028
| 10> H          4.84217        0.01761        2.11519
| 11> H          5.99388       -3.12692        3.28278
| 12> H          7.49844       -2.97548        2.46878
| 13> C          3.13916       -2.37657        1.91061
| 14> H          3.26723       -0.93940        3.52069
| 15> H          4.24720       -2.35509        3.79006
| 16> C          2.39995       -1.38958        1.00949
| 17> H          2.44075       -3.08712        2.36298
| 18> H          3.84448       -2.97046        1.31868
| 19> H          1.87065       -1.92698        0.25058
| 20> H          3.10498       -0.72749        0.55181
| 21> H          1.70633       -0.82279        1.59477
| 22> *
| 23> %MaxCore 64000
| 24> %pal nprocs 8
| 25> end
| 26> %scf
| 27>   MaxIter 150
| 28> end
| 29>
| 30>
| 31>                          ****END OF INPUT****

CARTESIAN COORDINATES (ANGSTROEM)
---------------------------------
  C      3.913850   -1.658290    3.015130
  N      5.039270   -0.901150    2.492820
  C      6.210380   -1.417260    2.178240
  N      6.535910   -2.677120    2.556080
  C      7.076750   -0.700820    1.478910
  H      7.954640   -1.121550    1.207550
  H      6.756160    0.106640    0.960280
  H      4.842170    0.017610    2.115190
  H      5.993880   -3.126920    3.282780
  H      7.498440   -2.975480    2.468780
  C      3.139160   -2.376570    1.910610
  H      3.267230   -0.939400    3.520690
  H      4.247200   -2.355090    3.790060
  C      2.399950   -1.389580    1.009490
  H      2.440750   -3.087120    2.362980
  H      3.844480   -2.970460    1.318680
  H      1.870650   -1.926980    0.250580
  H      3.104980   -0.727490    0.551810
  H      1.706330   -0.822790    1.594770

 Total Charge           Charge          ....    0
 Multiplicity           Mult            ....    1
 Number of Electrons    NEL             ....   56
 Basis Dimension        Dim             ....  289

ORBITAL ENERGIES
----------------

  NO   OCC          E(Eh)            E(eV)
   0   2.0000     -14.421423      -392.4269
   1   2.0000     -14.419163      -392.3654
   2   2.0000     -10.321072      -280.8507
   3   2.0000     -10.313399      -280.6418
   4   2.0000     -10.273092      -279.5450
   5   2.0000     -10.260442      -279.2008
   6   2.0000     -10.180047      -277.0132
   7   2.0000      -1.086078       -29.5537
   8   2.0000      -0.998202       -27.1625
   9   2.0000      -0.906009       -24.6538
  10   2.0000      -0.839549       -22.8453
  11   2.0000      -0.782693       -21.2982
  12   2.0000      -0.719370       -19.5751
  13   2.0000      -0.695304       -18.9202
  14   2.0000      -0.636461       -17.3190
  15   2.0000      -0.602491       -16.3946
  16   2.0000      -0.575398       -15.6574
  17   2.0000      -0.559718       -15.2307
  18   2.0000      -0.539776       -14.6880
  19   2.0000      -0.509494       -13.8640
  20   2.0000      -0.493228       -13.4214
  21   2.0000      -0.486653       -13.2425
  22   2.0000      -0.462790       -12.5931
  23   2.0000      -0.445571       -12.1246
  24   2.0000      -0.440776       -11.9941
  25   2.0000      -0.436226       -11.8703
  26   2.0000      -0.347830        -9.4649
  27   2.0000      -0.249340        -6.7849
  28   0.0000       0.104099         2.8327
  29   0.0000       0.121981         3.3193
  30   0.0000       0.135924         3.6987
  31   0.0000       0.151571         4.1244
  32   0.0000       0.162034         4.4092

MULLIKEN ATOMIC CHARGES
-----------------------
   0 C :   -0.165835
   1 N :   -0.346060
   2 C :    0.377788
   3 N :   -0.510407
   4 C :   -0.523047
   5 H :    0.080799
   6 H :    0.086474
   7 H :    0.237009
   8 H :    0.223629
   9 H :    0.251158
  10 C :   -0.120724
  11 H :    0.126809
  12 H :    0.105972
  13 C :   -0.371829
  14 H :    0.091167
  15 H :    0.116094
  16 H :    0.121892
  17 H :    0.113442
  18 H :    0.105670
Sum of atomic charges:   -0.0000000

LOEWDIN ATOMIC CHARGES
----------------------
   0 C :   -0.291723
   1 N :    0.123503
   2 C :   -0.454893
   3 N :   -0.026815
   4 C :   -0.346096
   5 H :    0.095403
   6 H :    0.095676
   7 H :    0.195739
   8 H :    0.158793
   9 H :    0.176886
  10 C :   -0.296073
  11 H :    0.134161
  12 H :    0.125363
  13 C :   -0.304915
  14 H :    0.130554
  15 H :    0.138995
  16 H :    0.117320
  17 H :    0.114149
  18 H :    0.113972

  Mayer bond orders larger than 0.100000
B(  0-C ,  1-N ) :   0.9302 B(  0-C , 10-C ) :   0.9369 B(  0-C , 11-H ) :   0.9868
B(  0-C , 12-H ) :   0.9865 B(  1-N ,  2-C ) :   1.2076 B(  1-N ,  7-H ) :   0.9248
B(  2-C ,  3-N ) :   1.1255 B(  2-C ,  4-C ) :   1.6402 B(  3-N ,  8-H ) :   0.9186
B(  3-N ,  9-H ) :   0.9215 B(  4-C ,  5-H ) :   1.0167 B(  4-C ,  6-H ) :   1.0093
B( 10-C , 13-C ) :   0.9604 B( 10-C , 14-H ) :   0.9682 B( 10-C , 15-H ) :   0.9711
B( 13-C , 16-H ) :   0.9819 B( 13-C , 17-H ) :   0.9841 B( 13-C , 18-H ) :   0.9769

Dispersion correction           -0.005364493
FINAL SINGLE POINT ENERGY      -307.254123918885

DIPOLE MOMENT
-------------
                                X             Y             Z
Electronic contribution:      3.96455       0.06091       2.06775
Nuclear contribution   :     -4.75859      -0.62546      -1.57128
                        -----------------------------------------
Total Dipole Moment    :     -0.79404      -0.56455       0.49648
                        -----------------------------------------
Magnitude (a.u.)       :      1.09348
Magnitude (Debye)      :      2.77941

Rotational constants in cm-1:     0.161886     0.051080     0.045854
Rotational constants in MHz :  4853.220099  1531.326912  1374.680035

                             ****ORCA TERMINATED NORMALLY****
TOTAL RUN TIME: 0 days 0 hours 0 minutes 42 seconds 568 msec
