                         Program Version 5.0.0 -  RELEASE  -
|  1> !wB97X-D3 RIJCOSX def2-TZVP def2/J TightSCF xyzfile
|  2>
|  3> *xyzfile 0 1 D1.xyz
|  4>
|  5> %MaxCore 64000
|  6>
|  7> %pal nprocs 18
|  8> end
|  9>
| 10> %scf
| 11>   MaxIter 150
| 12> end
| 13>
| 14>
| 15>                          ****END OF INPUT****

CARTESIAN COORDINATES (ANGSTROEM)
---------------------------------
  C      3.913853   -1.658291    3.015134
  C      5.039266   -0.901154    2.492821
  C      4.084215    1.742081   -2.114724
  C      4.265245    2.500518   -0.795890
  H      4.868534    3.392674   -0.981134
  H      3.307640    2.824571   -0.387809
  C      4.982240    1.650257    0.247422
  C      6.210384   -1.417261    2.178244
  N      6.535913   -2.677122    2.556078
  N      7.076754   -0.700820    1.478906
  H      7.954643   -1.121554    1.207554
  H      6.756161    0.106637    0.960278
  H      4.842168    0.017609    2.115191
  H      5.993876   -3.126918    3.282784
  H      7.498441   -2.975482    2.468776
  F      4.368065    1.389270    1.313706
  O      6.128919    1.233512   -0.045620
  C      3.139159   -2.376572    1.910609
  H      3.267235   -0.939401    3.520693
  H      4.247195   -2.355095    3.790065
  C      1.997274    0.430918   -1.399218
  C      3.412746    0.376886   -1.965497
  H      4.047407   -0.246590   -1.326706
  H      3.390774   -0.118719   -2.942839
  H      5.068475    1.598504   -2.565728
  H      3.503356    2.363939   -2.804565
  C      2.399946   -1.389579    1.009490
  H      2.440750   -3.087118    2.362976
  H      3.844475   -2.970462    1.318677
  C      2.070177   -1.936705   -0.372401
  H      1.481611   -1.061542    1.509912
  H      3.008628   -0.490001    0.897451
  C      1.322238   -0.935775   -1.256413
  H      1.472747   -2.850902   -0.283997
  H      3.003539   -2.234041   -0.862535
  H      1.376444    1.058920   -2.047420
  H      2.015341    0.929780   -0.426535
  H      0.316648   -0.787213   -0.848278
  H      1.185611   -1.379252   -2.248613

 Total Charge           Charge          ....    0
 Multiplicity           Mult            ....    1
 Number of Electrons    NEL             ....  126
 Basis Dimension        Dim             ....  634

ORBITAL ENERGIES
----------------

  NO   OCC          E(Eh)            E(eV)
   0   2.0000     -24.869033      -676.7208
   1   2.0000     -19.257350      -524.0191
   2   2.0000     -14.403085      -391.9279
   3   2.0000     -14.376954      -391.2168
   4   2.0000     -10.475850      -285.0624
   5   2.0000     -10.313108      -280.6339
   6   2.0000     -10.297093      -280.1982
   7   2.0000     -10.293248      -280.0935
   8   2.0000     -10.277120      -279.6547
   9   2.0000     -10.271983      -279.5149
  10   2.0000     -10.265795      -279.3465
  11   2.0000     -10.257791      -279.1287
  12   2.0000     -10.251018      -278.9444
  13   2.0000     -10.242185      -278.7040
  14   2.0000     -10.236738      -278.5558
  15   2.0000     -10.166069      -276.6328
  16   2.0000      -1.452991       -39.5379
  17   2.0000      -1.176991       -32.0276
  18   2.0000      -1.053079       -28.6557
  19   2.0000      -0.960302       -26.1311
  20   2.0000      -0.950020       -25.8513
  21   2.0000      -0.920491       -25.0478
  22   2.0000      -0.891011       -24.2457
  23   2.0000      -0.860945       -23.4275
  24   2.0000      -0.822483       -22.3809
  25   2.0000      -0.798958       -21.7408
  26   2.0000      -0.772092       -21.0097
  27   2.0000      -0.746671       -20.3179
  28   2.0000      -0.713692       -19.4205
  29   2.0000      -0.695264       -18.9191
  30   2.0000      -0.673634       -18.3305
  31   2.0000      -0.666033       -18.1237
  32   2.0000      -0.661934       -18.0121
  33   2.0000      -0.658264       -17.9123
  34   2.0000      -0.629880       -17.1399
  35   2.0000      -0.615897       -16.7594
  36   2.0000      -0.590241       -16.0613
  37   2.0000      -0.582269       -15.8443
  38   2.0000      -0.578923       -15.7533
  39   2.0000      -0.560300       -15.2465
  40   2.0000      -0.546302       -14.8656
  41   2.0000      -0.535290       -14.5660
  42   2.0000      -0.526117       -14.3164
  43   2.0000      -0.515809       -14.0359
  44   2.0000      -0.512059       -13.9338
  45   2.0000      -0.506038       -13.7700
  46   2.0000      -0.488047       -13.2804
  47   2.0000      -0.485167       -13.2021
  48   2.0000      -0.466324       -12.6893
  49   2.0000      -0.460370       -12.5273
  50   2.0000      -0.458919       -12.4878
  51   2.0000      -0.454671       -12.3722
  52   2.0000      -0.442539       -12.0421
  53   2.0000      -0.431075       -11.7302
  54   2.0000      -0.428237       -11.6529
  55   2.0000      -0.415252       -11.2996
  56   2.0000      -0.403310       -10.9746
  57   2.0000      -0.399212       -10.8631
  58   2.0000      -0.395410       -10.7596
  59   2.0000      -0.389612       -10.6019
  60   2.0000      -0.382753       -10.4152
  61   2.0000      -0.336112        -9.1461
  62   2.0000      -0.226332        -6.1588
  63   0.0000       0.036797         1.0013
  64   0.0000       0.108218         2.9448
  65   0.0000       0.119804         3.2600
  66   0.0000       0.126523         3.4429
  67   0.0000       0.129625         3.5273

MULLIKEN ATOMIC CHARGES
-----------------------
   0 C :   -0.195335
   1 C :   -0.414037
   2 C :   -0.174462
   3 C :   -0.227209
   4 H :    0.149828
   5 H :    0.145571
   6 C :    0.421091
   7 C :    0.340110
   8 N :   -0.512920
   9 N :   -0.506621
  10 H :    0.207749
  11 H :    0.257528
  12 H :    0.117505
  13 H :    0.239195
  14 H :    0.220369
  15 F :   -0.095898
  16 O :   -0.393012
  17 C :   -0.089741
  18 H :    0.083642
  19 H :    0.077360
  20 C :   -0.245527
  21 C :   -0.278064
  22 H :    0.148310
  23 H :    0.112758
  24 H :    0.131356
  25 H :    0.115088
  26 C :   -0.225334
  27 H :    0.080812
  28 H :    0.097060
  29 C :   -0.214200
  30 H :    0.097405
  31 H :    0.041986
  32 C :   -0.164867
  33 H :    0.105165
  34 H :    0.115446
  35 H :    0.106624
  36 H :    0.118540
  37 H :    0.103597
  38 H :    0.103135
Sum of atomic charges:    0.0000000

LOEWDIN ATOMIC CHARGES
----------------------
   0 C :   -0.287281
   1 C :   -0.298282
   2 C :   -0.254586
   3 C :   -0.227038
   4 H :    0.159329
   5 H :    0.143980
   6 C :   -0.466100
   7 C :   -0.455113
   8 N :   -0.035170
   9 N :   -0.018561
  10 H :    0.155930
  11 H :    0.144584
  12 H :    0.112814
  13 H :    0.169129
  14 H :    0.158713
  15 F :    0.346623
  16 O :    0.083277
  17 C :   -0.258863
  18 H :    0.139567
  19 H :    0.124719
  20 C :   -0.271495
  21 C :   -0.266238
  22 H :    0.142813
  23 H :    0.140675
  24 H :    0.145598
  25 H :    0.141004
  26 C :   -0.268310
  27 H :    0.125431
  28 H :    0.137481
  29 C :   -0.271823
  30 H :    0.133901
  31 H :    0.131604
  32 C :   -0.267413
  33 H :    0.135701
  34 H :    0.134860
  35 H :    0.135732
  36 H :    0.131935
  37 H :    0.136128
  38 H :    0.134745

  Mayer bond orders larger than 0.100000
B(  0-C ,  1-C ) :   1.0021 B(  0-C , 17-C ) :   0.9246 B(  0-C , 18-H ) :   0.9854
B(  0-C , 19-H ) :   1.0022 B(  1-C ,  7-C ) :   1.6571 B(  1-C , 12-H ) :   1.0286
B(  2-C ,  3-C ) :   0.9505 B(  2-C , 21-C ) :   0.9815 B(  2-C , 24-H ) :   0.9707
B(  2-C , 25-H ) :   0.9731 B(  3-C ,  4-H ) :   0.9491 B(  3-C ,  5-H ) :   0.9802
B(  3-C ,  6-C ) :   0.9654 B(  6-C , 15-F ) :   1.1388 B(  6-C , 16-O ) :   1.9010
B(  7-C ,  8-N ) :   1.1437 B(  7-C ,  9-N ) :   1.1976 B(  8-N , 13-H ) :   0.9161
B(  8-N , 14-H ) :   0.9277 B(  9-N , 10-H ) :   0.9330 B(  9-N , 11-H ) :   0.8581
B( 11-H , 16-O ) :   0.1151 B( 17-C , 26-C ) :   1.0045 B( 17-C , 27-H ) :   0.9706
B( 17-C , 28-H ) :   0.9792 B( 20-C , 21-C ) :   0.9342 B( 20-C , 32-C ) :   0.9733
B( 20-C , 35-H ) :   0.9713 B( 20-C , 36-H ) :   0.9807 B( 21-C , 22-H ) :   0.9736
B( 21-C , 23-H ) :   0.9708 B( 26-C , 29-C ) :   0.9599 B( 26-C , 30-H ) :   0.9657
B( 26-C , 31-H ) :   0.9860 B( 29-C , 32-C ) :   0.9706 B( 29-C , 33-H ) :   0.9786
B( 29-C , 34-H ) :   0.9858 B( 32-C , 37-H ) :   0.9838 B( 32-C , 38-H ) :   0.9832

Dispersion correction           -0.020017275
FINAL SINGLE POINT ENERGY      -755.755887652089

DIPOLE MOMENT
-------------
                                X             Y             Z
Electronic contribution:     11.36609       8.94555       5.89714
Nuclear contribution   :    -11.48003      -8.36271      -6.78621
                        -----------------------------------------
Total Dipole Moment    :     -0.11394       0.58283      -0.88908
                        -----------------------------------------
Magnitude (a.u.)       :      1.06917
Magnitude (Debye)      :      2.71762

Rotational constants in cm-1:     0.020055     0.013548     0.009477
Rotational constants in MHz :   601.234832   406.162779   284.104317

                             ****ORCA TERMINATED NORMALLY****
TOTAL RUN TIME: 0 days 0 hours 1 minutes 59 seconds 951 msec
