                         Program Version 5.0.0 -  RELEASE  -
|  1> !wB97X-D3 RIJCOSX def2-TZVP def2/J TightSCF xyzfile
|  2>
|  3> *xyzfile 0 1 D2.xyz
|  4>
|  5> %MaxCore 64000
|  6>
|  7> %pal nprocs 18
|  8> end
|  9>
| 10> %scf
| 11>   MaxIter 150
| 12> end
| 13>
| 14>
| 15>                          ****END OF INPUT****

CARTESIAN COORDINATES (ANGSTROEM)
---------------------------------
  C      3.913853   -1.658291    3.015134
  N      5.039266   -0.901154    2.492821
  C      4.084215    1.742081   -2.114724
  C      4.265245    2.500518   -0.795890
  H      4.868534    3.392674   -0.981134
  H      3.307640    2.824571   -0.387809
  C      4.982240    1.650257    0.247422
  C      6.210384   -1.417261    2.178244
  C      6.535913   -2.677122    2.556078
  N      7.076754   -0.700820    1.478906
  H      7.954643   -1.121554    1.207554
  H      6.756161    0.106637    0.960278
  H      4.842168    0.017609    2.115191
  H      5.993876   -3.126918    3.282784
  H      7.498441   -2.975482    2.468776
  F      4.368065    1.389270    1.313706
  O      6.128919    1.233512   -0.045620
  C      3.139159   -2.376572    1.910609
  H      3.267235   -0.939401    3.520693
  H      4.247195   -2.355095    3.790065
  C      1.997274    0.430918   -1.399218
  C      3.412746    0.376886   -1.965497
  H      4.047407   -0.246590   -1.326706
  H      3.390774   -0.118719   -2.942839
  H      5.068475    1.598504   -2.565728
  H      3.503356    2.363939   -2.804565
  C      2.399946   -1.389579    1.009490
  H      2.440750   -3.087118    2.362976
  H      3.844475   -2.970462    1.318677
  C      2.070177   -1.936705   -0.372401
  H      1.481611   -1.061542    1.509912
  H      3.008628   -0.490001    0.897451
  C      1.322238   -0.935775   -1.256413
  H      1.472747   -2.850902   -0.283997
  H      3.003539   -2.234041   -0.862535
  H      1.376444    1.058920   -2.047420
  H      2.015341    0.929780   -0.426535
  H      0.316648   -0.787213   -0.848278
  H      1.185611   -1.379252   -2.248613

 Total Charge           Charge          ....    0
 Multiplicity           Mult            ....    1
 Number of Electrons    NEL             ....  126
 Basis Dimension        Dim             ....  634

ORBITAL ENERGIES
----------------

  NO   OCC          E(Eh)            E(eV)
   0   2.0000     -24.898423      -677.5205
   1   2.0000     -19.274003      -524.4723
   2   2.0000     -14.401842      -391.8940
   3   2.0000     -14.378609      -391.2618
   4   2.0000     -10.492914      -285.5267
   5   2.0000     -10.325976      -280.9841
   6   2.0000     -10.303460      -280.3714
   7   2.0000     -10.300747      -280.2976
   8   2.0000     -10.294859      -280.1374
   9   2.0000     -10.287254      -279.9304
  10   2.0000     -10.282253      -279.7943
  11   2.0000     -10.275639      -279.6144
  12   2.0000     -10.269283      -279.4414
  13   2.0000     -10.267851      -279.4024
  14   2.0000     -10.258719      -279.1539
  15   2.0000     -10.160051      -276.4690
  16   2.0000      -1.480899       -40.2973
  17   2.0000      -1.193567       -32.4786
  18   2.0000      -1.067821       -29.0569
  19   2.0000      -0.980162       -26.6716
  20   2.0000      -0.961804       -26.1720
  21   2.0000      -0.930070       -25.3085
  22   2.0000      -0.894371       -24.3371
  23   2.0000      -0.859675       -23.3930
  24   2.0000      -0.828756       -22.5516
  25   2.0000      -0.805953       -21.9311
  26   2.0000      -0.791221       -21.5302
  27   2.0000      -0.767888       -20.8953
  28   2.0000      -0.730967       -19.8906
  29   2.0000      -0.708681       -19.2842
  30   2.0000      -0.696823       -18.9615
  31   2.0000      -0.686835       -18.6897
  32   2.0000      -0.676343       -18.4042
  33   2.0000      -0.657941       -17.9035
  34   2.0000      -0.639638       -17.4054
  35   2.0000      -0.615494       -16.7484
  36   2.0000      -0.600424       -16.3384
  37   2.0000      -0.591453       -16.0943
  38   2.0000      -0.590301       -16.0629
  39   2.0000      -0.570834       -15.5332
  40   2.0000      -0.554996       -15.1022
  41   2.0000      -0.547826       -14.9071
  42   2.0000      -0.533806       -14.5256
  43   2.0000      -0.528121       -14.3709
  44   2.0000      -0.517761       -14.0890
  45   2.0000      -0.507541       -13.8109
  46   2.0000      -0.500798       -13.6274
  47   2.0000      -0.489596       -13.3226
  48   2.0000      -0.477932       -13.0052
  49   2.0000      -0.473031       -12.8718
  50   2.0000      -0.466621       -12.6974
  51   2.0000      -0.458521       -12.4770
  52   2.0000      -0.454713       -12.3734
  53   2.0000      -0.445175       -12.1138
  54   2.0000      -0.438930       -11.9439
  55   2.0000      -0.432448       -11.7675
  56   2.0000      -0.422599       -11.4995
  57   2.0000      -0.411032       -11.1848
  58   2.0000      -0.410515       -11.1707
  59   2.0000      -0.408475       -11.1152
  60   2.0000      -0.402772       -10.9600
  61   2.0000      -0.318974        -8.6797
  62   2.0000      -0.228839        -6.2270
  63   0.0000       0.020027         0.5450
  64   0.0000       0.097543         2.6543
  65   0.0000       0.117056         3.1853
  66   0.0000       0.120209         3.2711
  67   0.0000       0.124694         3.3931

MULLIKEN ATOMIC CHARGES
-----------------------
   0 C :   -0.145481
   1 N :   -0.348019
   2 C :   -0.176900
   3 C :   -0.229417
   4 H :    0.156252
   5 H :    0.148317
   6 C :    0.412737
   7 C :    0.377621
   8 C :   -0.559549
   9 N :   -0.513986
  10 H :    0.240881
  11 H :    0.238763
  12 H :    0.207297
  13 H :    0.074413
  14 H :    0.077241
  15 F :   -0.124038
  16 O :   -0.370803
  17 C :   -0.097663
  18 H :    0.112285
  19 H :    0.132142
  20 C :   -0.244069
  21 C :   -0.283565
  22 H :    0.146550
  23 H :    0.118954
  24 H :    0.137143
  25 H :    0.119714
  26 C :   -0.253239
  27 H :    0.097930
  28 H :    0.132816
  29 C :   -0.216567
  30 H :    0.100521
  31 H :    0.020202
  32 C :   -0.166689
  33 H :    0.112370
  34 H :    0.124579
  35 H :    0.111517
  36 H :    0.114255
  37 H :    0.106918
  38 H :    0.108567
Sum of atomic charges:   -0.0000000

LOEWDIN ATOMIC CHARGES
----------------------
   0 C :   -0.274621
   1 N :    0.113783
   2 C :   -0.252821
   3 C :   -0.226080
   4 H :    0.161512
   5 H :    0.144569
   6 C :   -0.470996
   7 C :   -0.464912
   8 C :   -0.381801
   9 N :   -0.015195
  10 H :    0.173602
  11 H :    0.134472
  12 H :    0.161394
  13 H :    0.090305
  14 H :    0.089770
  15 F :    0.337149
  16 O :    0.093000
  17 C :   -0.263338
  18 H :    0.130514
  19 H :    0.136548
  20 C :   -0.271543
  21 C :   -0.265786
  22 H :    0.141827
  23 H :    0.142666
  24 H :    0.147144
  25 H :    0.142655
  26 C :   -0.274849
  27 H :    0.134030
  28 H :    0.146926
  29 C :   -0.269721
  30 H :    0.134911
  31 H :    0.124569
  32 C :   -0.266312
  33 H :    0.138039
  34 H :    0.137455
  35 H :    0.137180
  36 H :    0.130394
  37 H :    0.136925
  38 H :    0.136637

  Mayer bond orders larger than 0.100000
B(  0-C ,  1-N ) :   0.9591 B(  0-C , 17-C ) :   0.9330 B(  0-C , 18-H ) :   0.9866
B(  0-C , 19-H ) :   0.9828 B(  1-N ,  7-C ) :   1.1948 B(  1-N , 12-H ) :   0.9106
B(  2-C ,  3-C ) :   0.9499 B(  2-C , 21-C ) :   0.9796 B(  2-C , 24-H ) :   0.9707
B(  2-C , 25-H ) :   0.9723 B(  3-C ,  4-H ) :   0.9479 B(  3-C ,  5-H ) :   0.9780
B(  3-C ,  6-C ) :   0.9688 B(  6-C , 15-F ) :   1.0939 B(  6-C , 16-O ) :   1.9298
B(  7-C ,  8-C ) :   1.5937 B(  7-C ,  9-N ) :   1.1761 B(  8-C , 13-H ) :   1.0084
B(  8-C , 14-H ) :   1.0043 B(  9-N , 10-H ) :   0.9285 B(  9-N , 11-H ) :   0.8684
B( 11-H , 16-O ) :   0.1051 B( 17-C , 26-C ) :   0.9811 B( 17-C , 27-H ) :   0.9718
B( 17-C , 28-H ) :   0.9711 B( 20-C , 21-C ) :   0.9311 B( 20-C , 32-C ) :   0.9704
B( 20-C , 35-H ) :   0.9707 B( 20-C , 36-H ) :   0.9824 B( 21-C , 22-H ) :   0.9747
B( 21-C , 23-H ) :   0.9703 B( 26-C , 29-C ) :   0.9623 B( 26-C , 30-H ) :   0.9629
B( 26-C , 31-H ) :   0.9911 B( 29-C , 32-C ) :   0.9674 B( 29-C , 33-H ) :   0.9786
B( 29-C , 34-H ) :   0.9852 B( 32-C , 37-H ) :   0.9844 B( 32-C , 38-H ) :   0.9824

Dispersion correction           -0.020061608
FINAL SINGLE POINT ENERGY      -755.753064596562

DIPOLE MOMENT
-------------
                                X             Y             Z
Electronic contribution:      9.74070      10.61381       5.49685
Nuclear contribution   :    -11.22009      -8.67117      -6.77523
                        -----------------------------------------
Total Dipole Moment    :     -1.47939       1.94264      -1.27837
                        -----------------------------------------
Magnitude (a.u.)       :      2.75621
Magnitude (Debye)      :      7.00574

Rotational constants in cm-1:     0.020086     0.013778     0.009581
Rotational constants in MHz :   602.172053   413.051122   287.243919

                             ****ORCA TERMINATED NORMALLY****
TOTAL RUN TIME: 0 days 0 hours 1 minutes 54 seconds 755 msec
