                         Program Version 5.0.0 -  RELEASE  -
|  1> !wB97X-D3 RIJCOSX def2-TZVP def2/J TightSCF xyzfile
|  2>
|  3> *xyzfile 0 1 D3.xyz
|  4>
|  5> %MaxCore 64000
|  6>
|  7> %pal nprocs 18
|  8> end
|  9>
| 10> %scf
| 11>   MaxIter 150
| 12> end
| 13>
| 14>
| 15>                          ****END OF INPUT****

CARTESIAN COORDINATES (ANGSTROEM)
---------------------------------
  C      3.913853   -1.658291    3.015134
  N      5.039266   -0.901154    2.492821
  C      4.084215    1.742081   -2.114724
  C      4.265245    2.500518   -0.795890
  H      4.868534    3.392674   -0.981134
  H      3.307640    2.824571   -0.387809
  C      4.982240    1.650257    0.247422
  C      6.210384   -1.417261    2.178244
  N      6.535913   -2.677122    2.556078
  C      7.076754   -0.700820    1.478906
  H      7.954643   -1.121554    1.207554
  H      6.756161    0.106637    0.960278
  H      4.842168    0.017609    2.115191
  H      5.993876   -3.126918    3.282784
  H      7.498441   -2.975482    2.468776
  F      4.368065    1.389270    1.313706
  O      6.128919    1.233512   -0.045620
  C      3.139159   -2.376572    1.910609
  H      3.267235   -0.939401    3.520693
  H      4.247195   -2.355095    3.790065
  C      1.997274    0.430918   -1.399218
  C      3.412746    0.376886   -1.965497
  H      4.047407   -0.246590   -1.326706
  H      3.390774   -0.118719   -2.942839
  H      5.068475    1.598504   -2.565728
  H      3.503356    2.363939   -2.804565
  C      2.399946   -1.389579    1.009490
  H      2.440750   -3.087118    2.362976
  H      3.844475   -2.970462    1.318677
  C      2.070177   -1.936705   -0.372401
  H      1.481611   -1.061542    1.509912
  H      3.008628   -0.490001    0.897451
  C      1.322238   -0.935775   -1.256413
  H      1.472747   -2.850902   -0.283997
  H      3.003539   -2.234041   -0.862535
  H      1.376444    1.058920   -2.047420
  H      2.015341    0.929780   -0.426535
  H      0.316648   -0.787213   -0.848278
  H      1.185611   -1.379252   -2.248613

 Total Charge           Charge          ....    0
 Multiplicity           Mult            ....    1
 Number of Electrons    NEL             ....  126
 Basis Dimension        Dim             ....  634

ORBITAL ENERGIES
----------------

  NO   OCC          E(Eh)            E(eV)
   0   2.0000     -24.879418      -677.0034
   1   2.0000     -19.243676      -523.6470
   2   2.0000     -14.400001      -391.8439
   3   2.0000     -14.397610      -391.7789
   4   2.0000     -10.467665      -284.8396
   5   2.0000     -10.311002      -280.5766
   6   2.0000     -10.302651      -280.3494
   7   2.0000     -10.296221      -280.1744
   8   2.0000     -10.291965      -280.0586
   9   2.0000     -10.278681      -279.6971
  10   2.0000     -10.276644      -279.6417
  11   2.0000     -10.273086      -279.5449
  12   2.0000     -10.269363      -279.4436
  13   2.0000     -10.269027      -279.4344
  14   2.0000     -10.265286      -279.3326
  15   2.0000     -10.142982      -276.0046
  16   2.0000      -1.461985       -39.7826
  17   2.0000      -1.164752       -31.6945
  18   2.0000      -1.066743       -29.0275
  19   2.0000      -0.980794       -26.6888
  20   2.0000      -0.951852       -25.9012
  21   2.0000      -0.925553       -25.1856
  22   2.0000      -0.895046       -24.3554
  23   2.0000      -0.856516       -23.3070
  24   2.0000      -0.829309       -22.5666
  25   2.0000      -0.802286       -21.8313
  26   2.0000      -0.778452       -21.1827
  27   2.0000      -0.756136       -20.5755
  28   2.0000      -0.719641       -19.5824
  29   2.0000      -0.708350       -19.2752
  30   2.0000      -0.689639       -18.7660
  31   2.0000      -0.677527       -18.4365
  32   2.0000      -0.669843       -18.2274
  33   2.0000      -0.651985       -17.7414
  34   2.0000      -0.635062       -17.2809
  35   2.0000      -0.611142       -16.6300
  36   2.0000      -0.593114       -16.1394
  37   2.0000      -0.585251       -15.9255
  38   2.0000      -0.574431       -15.6311
  39   2.0000      -0.562674       -15.3111
  40   2.0000      -0.556571       -15.1451
  41   2.0000      -0.541888       -14.7455
  42   2.0000      -0.531706       -14.4685
  43   2.0000      -0.527724       -14.3601
  44   2.0000      -0.515786       -14.0352
  45   2.0000      -0.499155       -13.5827
  46   2.0000      -0.493931       -13.4405
  47   2.0000      -0.485535       -13.2121
  48   2.0000      -0.473057       -12.8725
  49   2.0000      -0.466186       -12.6856
  50   2.0000      -0.460882       -12.5412
  51   2.0000      -0.459586       -12.5060
  52   2.0000      -0.449835       -12.2406
  53   2.0000      -0.443093       -12.0572
  54   2.0000      -0.436908       -11.8889
  55   2.0000      -0.429611       -11.6903
  56   2.0000      -0.422208       -11.4889
  57   2.0000      -0.410037       -11.1577
  58   2.0000      -0.408023       -11.1029
  59   2.0000      -0.404190       -10.9986
  60   2.0000      -0.363473        -9.8906
  61   2.0000      -0.330486        -8.9930
  62   2.0000      -0.224792        -6.1169
  63   0.0000       0.041748         1.1360
  64   0.0000       0.105531         2.8716
  65   0.0000       0.117563         3.1991
  66   0.0000       0.121197         3.2979
  67   0.0000       0.125965         3.4277

MULLIKEN ATOMIC CHARGES
-----------------------
   0 C :   -0.188482
   1 N :   -0.333965
   2 C :   -0.173501
   3 C :   -0.230263
   4 H :    0.151184
   5 H :    0.138738
   6 C :    0.396909
   7 C :    0.369719
   8 N :   -0.517164
   9 C :   -0.542299
  10 H :    0.065503
  11 H :    0.113308
  12 H :    0.233543
  13 H :    0.215835
  14 H :    0.246853
  15 F :   -0.140114
  16 O :   -0.323943
  17 C :   -0.087017
  18 H :    0.118695
  19 H :    0.111396
  20 C :   -0.246731
  21 C :   -0.280875
  22 H :    0.151235
  23 H :    0.114245
  24 H :    0.135660
  25 H :    0.113470
  26 C :   -0.243312
  27 H :    0.095053
  28 H :    0.116773
  29 C :   -0.217995
  30 H :    0.102722
  31 H :    0.027710
  32 C :   -0.165317
  33 H :    0.109077
  34 H :    0.126020
  35 H :    0.109653
  36 H :    0.114808
  37 H :    0.105271
  38 H :    0.107601
Sum of atomic charges:    0.0000000

LOEWDIN ATOMIC CHARGES
----------------------
   0 C :   -0.292943
   1 N :    0.114042
   2 C :   -0.253680
   3 C :   -0.230038
   4 H :    0.159541
   5 H :    0.140994
   6 C :   -0.479490
   7 C :   -0.466500
   8 N :   -0.036055
   9 C :   -0.345476
  10 H :    0.090504
  11 H :    0.085075
  12 H :    0.173519
  13 H :    0.154286
  14 H :    0.174093
  15 F :    0.329100
  16 O :    0.112294
  17 C :   -0.267465
  18 H :    0.133311
  19 H :    0.124686
  20 C :   -0.271506
  21 C :   -0.265918
  22 H :    0.143342
  23 H :    0.141170
  24 H :    0.147431
  25 H :    0.140439
  26 C :   -0.271913
  27 H :    0.132343
  28 H :    0.142691
  29 C :   -0.270105
  30 H :    0.135637
  31 H :    0.128208
  32 C :   -0.266496
  33 H :    0.136764
  34 H :    0.137871
  35 H :    0.136800
  36 H :    0.130690
  37 H :    0.136253
  38 H :    0.136503

  Mayer bond orders larger than 0.100000
B(  0-C ,  1-N ) :   0.9697 B(  0-C , 17-C ) :   0.9077 B(  0-C , 18-H ) :   0.9871
B(  0-C , 19-H ) :   1.0005 B(  1-N ,  7-C ) :   1.2070 B(  1-N , 12-H ) :   0.9070
B(  2-C ,  3-C ) :   0.9532 B(  2-C , 21-C ) :   0.9840 B(  2-C , 24-H ) :   0.9684
B(  2-C , 25-H ) :   0.9735 B(  3-C ,  4-H ) :   0.9510 B(  3-C ,  5-H ) :   0.9791
B(  3-C ,  6-C ) :   0.9673 B(  6-C , 15-F ) :   1.0641 B(  6-C , 16-O ) :   1.9921
B(  7-C ,  8-N ) :   1.1063 B(  7-C ,  9-C ) :   1.6351 B(  8-N , 13-H ) :   0.9204
B(  8-N , 14-H ) :   0.9233 B(  9-C , 10-H ) :   1.0174 B(  9-C , 11-H ) :   1.0189
B( 17-C , 26-C ) :   0.9783 B( 17-C , 27-H ) :   0.9664 B( 17-C , 28-H ) :   0.9750
B( 20-C , 21-C ) :   0.9321 B( 20-C , 32-C ) :   0.9692 B( 20-C , 35-H ) :   0.9711
B( 20-C , 36-H ) :   0.9835 B( 21-C , 22-H ) :   0.9721 B( 21-C , 23-H ) :   0.9710
B( 26-C , 29-C ) :   0.9623 B( 26-C , 30-H ) :   0.9641 B( 26-C , 31-H ) :   0.9903
B( 29-C , 32-C ) :   0.9706 B( 29-C , 33-H ) :   0.9785 B( 29-C , 34-H ) :   0.9837
B( 32-C , 37-H ) :   0.9850 B( 32-C , 38-H ) :   0.9818

Dispersion correction           -0.020075480
FINAL SINGLE POINT ENERGY      -755.732683591782

DIPOLE MOMENT
-------------
                                X             Y             Z
Electronic contribution:      9.45025       8.66565       6.71016
Nuclear contribution   :    -11.12616      -8.32792      -6.96231
                        -----------------------------------------
Total Dipole Moment    :     -1.67590       0.33773      -0.25215
                        -----------------------------------------
Magnitude (a.u.)       :      1.72809
Magnitude (Debye)      :      4.39245

Rotational constants in cm-1:     0.020226     0.013574     0.009520
Rotational constants in MHz :   606.360011   406.923773   285.390769

                             ****ORCA TERMINATED NORMALLY****
TOTAL RUN TIME: 0 days 0 hours 2 minutes 5 seconds 674 msec
