                         Program Version 5.0.0 -  RELEASE  -
|  1> !wB97X-D3 RIJCOSX def2-SVPD def2/J TightSCF
|  2>
|  3> *xyz -1 1
|  4> C          2.95263        1.86308       -3.57485
|  5> C          4.12921        0.89839       -3.41895
|  6> H          3.73369       -0.10060       -3.23763
|  7> H          4.71910        0.86256       -4.33901
|  8> C          5.01734        1.31521       -2.22130
|  9> O          4.73706        0.85411       -1.12283
| 10> O          5.92815        2.16811       -2.49136
| 11> H          2.35067        1.56005       -4.40594
| 12> H          3.32277        2.85258       -3.74453
| 13> H          2.36134        1.85149       -2.68315
| 14> *
| 15> %MaxCore 64000
| 16>
| 17> %pal nprocs 18
| 18> end
| 19>
| 20> %scf
| 21>   MaxIter 150
| 22> end
| 23>
| 24>
| 25>                          ****END OF INPUT****

CARTESIAN COORDINATES (ANGSTROEM)
---------------------------------
  C      2.952630    1.863080   -3.574850
  C      4.129210    0.898390   -3.418950
  H      3.733690   -0.100600   -3.237630
  H      4.719100    0.862560   -4.339010
  C      5.017340    1.315210   -2.221300
  O      4.737060    0.854110   -1.122830
  O      5.928150    2.168110   -2.491360
  H      2.350670    1.560050   -4.405940
  H      3.322770    2.852580   -3.744530
  H      2.361340    1.851490   -2.683150

 Total Charge           Charge          ....   -1
 Multiplicity           Mult            ....    1
 Number of Electrons    NEL             ....   40
 Basis Dimension        Dim             ....  146

ORBITAL ENERGIES
----------------

  NO   OCC          E(Eh)            E(eV)
   0   2.0000     -18.988408      -516.7008
   1   2.0000     -18.977347      -516.3999
   2   2.0000     -10.176978      -276.9296
   3   2.0000     -10.129179      -275.6290
   4   2.0000     -10.113941      -275.2143
   5   2.0000      -0.934054       -25.4169
   6   2.0000      -0.834126       -22.6977
   7   2.0000      -0.716496       -19.4968
   8   2.0000      -0.576955       -15.6998
   9   2.0000      -0.424419       -11.5490
  10   2.0000      -0.392980       -10.6935
  11   2.0000      -0.360716        -9.8156
  12   2.0000      -0.332817        -9.0564
  13   2.0000      -0.311377        -8.4730
  14   2.0000      -0.310940        -8.4611
  15   2.0000      -0.275180        -7.4880
  16   2.0000      -0.267110        -7.2684
  17   2.0000      -0.144990        -3.9454
  18   2.0000      -0.136064        -3.7025
  19   2.0000      -0.126220        -3.4346
  20   0.0000       0.224215         6.1012
  21   0.0000       0.256344         6.9755
  22   0.0000       0.266749         7.2586
  23   0.0000       0.295463         8.0400
  24   0.0000       0.314305         8.5527

MULLIKEN ATOMIC CHARGES
-----------------------
   0 C :    0.453803
   1 C :   -0.323795
   2 H :   -0.004848
   3 H :   -0.021830
   4 C :    0.454760
   5 O :   -0.645416
   6 O :   -0.746998
   7 H :   -0.072652
   8 H :   -0.048662
   9 H :   -0.044362
Sum of atomic charges:   -1.0000000

LOEWDIN ATOMIC CHARGES
----------------------
   0 C :    0.097602
   1 C :   -0.045301
   2 H :   -0.001144
   3 H :    0.003425
   4 C :   -0.307153
   5 O :   -0.309193
   6 O :   -0.354913
   7 H :   -0.040783
   8 H :   -0.021543
   9 H :   -0.020998

  Mayer bond orders larger than 0.100000
B(  0-C ,  1-C ) :   1.2912 B(  0-C ,  7-H ) :   0.8682 B(  0-C ,  8-H ) :   0.8664
B(  0-C ,  9-H ) :   0.8566 B(  1-C ,  2-H ) :   0.9373 B(  1-C ,  3-H ) :   0.9562
B(  1-C ,  4-C ) :   1.0136 B(  1-C ,  7-H ) :   0.1323 B(  1-C ,  8-H ) :   0.1682
B(  1-C ,  9-H ) :   0.1722 B(  2-H ,  4-C ) :   0.1056 B(  4-C ,  5-O ) :   1.5710
B(  4-C ,  6-O ) :   1.4848

Dispersion correction           -0.001998917
FINAL SINGLE POINT ENERGY      -267.582884201507

DIPOLE MOMENT
-------------
                                X             Y             Z
Electronic contribution:      4.36995      -0.22079       3.85312
Nuclear contribution   :     -5.85873      -0.10793      -5.24103
                        -----------------------------------------
Total Dipole Moment    :     -1.48878      -0.32872      -1.38791
                        -----------------------------------------
Magnitude (a.u.)       :      2.06175
Magnitude (Debye)      :      5.24055

Rotational constants in cm-1:     0.292505     0.135951     0.110253
Rotational constants in MHz :  8769.065873  4075.717001  3305.311891

                             ****ORCA TERMINATED NORMALLY****
TOTAL RUN TIME: 0 days 0 hours 0 minutes 7 seconds 19 msec
