                         Program Version 5.0.0 -  RELEASE  -
|  1> !wB97X-D3 RIJCOSX def2-SVPD def2/J TightSCF
|  2>
|  3> *xyz 1 1
|  4> C          3.34350        3.35457       -3.59200
|  5> C          2.95263        1.86308       -3.57485
|  6> C          4.25587        3.70385       -4.72605
|  7> N          3.73403        4.29378       -5.80077
|  8> N          5.51504        3.40725       -4.63718
|  9> H          6.14919        3.60120       -5.39905
| 10> H          5.81358        2.89950       -3.80879
| 11> H          2.74138        4.51311       -5.82470
| 12> H          4.28755        4.52126       -6.61434
| 13> H          3.86125        3.59725       -2.66298
| 14> H          2.44649        3.97346       -3.65656
| 15> H          2.44395        1.61721       -4.48352
| 16> H          2.30781        1.67290       -2.74242
| 17> H          3.83491        1.26414       -3.48670
| 18> *
| 19> %MaxCore 64000
| 20>
| 21> %pal nprocs 18
| 22> end
| 23>
| 24> %scf
| 25>   MaxIter 150
| 26> end
| 27>
| 28>
| 29>                          ****END OF INPUT****

CARTESIAN COORDINATES (ANGSTROEM)
---------------------------------
  C      3.343500    3.354570   -3.592000
  C      2.952630    1.863080   -3.574850
  C      4.255870    3.703850   -4.726050
  N      3.734030    4.293780   -5.800770
  N      5.515040    3.407250   -4.637180
  H      6.149190    3.601200   -5.399050
  H      5.813580    2.899500   -3.808790
  H      2.741380    4.513110   -5.824700
  H      4.287550    4.521260   -6.614340
  H      3.861250    3.597250   -2.662980
  H      2.446490    3.973460   -3.656560
  H      2.443950    1.617210   -4.483520
  H      2.307810    1.672900   -2.742420
  H      3.834910    1.264140   -3.486700

 Total Charge           Charge          ....    1
 Multiplicity           Mult            ....    1
 Number of Electrons    NEL             ....   40
 Basis Dimension        Dim             ....  172

ORBITAL ENERGIES
----------------

  NO   OCC          E(Eh)            E(eV)
   0   2.0000     -14.687441      -399.6656
   1   2.0000     -14.682694      -399.5364
   2   2.0000     -10.616575      -288.8917
   3   2.0000     -10.489591      -285.4363
   4   2.0000     -10.446688      -284.2688
   5   2.0000      -1.316838       -35.8330
   6   2.0000      -1.218847       -33.1665
   7   2.0000      -1.080271       -29.3957
   8   2.0000      -0.968284       -26.3483
   9   2.0000      -0.923403       -25.1271
  10   2.0000      -0.884349       -24.0643
  11   2.0000      -0.855590       -23.2818
  12   2.0000      -0.804166       -21.8825
  13   2.0000      -0.753417       -20.5015
  14   2.0000      -0.725446       -19.7404
  15   2.0000      -0.714502       -19.4426
  16   2.0000      -0.641518       -17.4566
  17   2.0000      -0.632792       -17.2191
  18   2.0000      -0.624545       -16.9947
  19   2.0000      -0.588261       -16.0074
  20   0.0000      -0.128567        -3.4985
  21   0.0000      -0.082019        -2.2318
  22   0.0000      -0.037960        -1.0329
  23   0.0000      -0.035470        -0.9652
  24   0.0000      -0.010087        -0.2745

MULLIKEN ATOMIC CHARGES
-----------------------
   0 C :   -0.392340
   1 C :    0.536107
   2 C :    0.727253
   3 N :   -0.085628
   4 N :    0.084539
   5 H :   -0.116447
   6 H :    0.102837
   7 H :    0.080123
   8 H :   -0.094985
   9 H :    0.068054
  10 H :    0.037987
  11 H :   -0.012084
  12 H :    0.067538
  13 H :   -0.002955
Sum of atomic charges:    1.0000000

LOEWDIN ATOMIC CHARGES
----------------------
   0 C :    0.008831
   1 C :    0.169965
   2 C :   -0.038092
   3 N :    0.274680
   4 N :    0.280021
   5 H :    0.056117
   6 H :    0.062481
   7 H :    0.053954
   8 H :    0.045856
   9 H :    0.045941
  10 H :    0.039845
  11 H :   -0.000604
  12 H :    0.009178
  13 H :   -0.008174

  Mayer bond orders larger than 0.100000
B(  0-C ,  1-C ) :   1.2473 B(  0-C ,  2-C ) :   1.1380 B(  0-C ,  9-H ) :   0.9142
B(  0-C , 10-H ) :   0.9185 B(  0-C , 11-H ) :   0.1434 B(  0-C , 12-H ) :   0.1306
B(  0-C , 13-H ) :   0.1709 B(  1-C , 11-H ) :   0.8760 B(  1-C , 12-H ) :   0.8577
B(  1-C , 13-H ) :   0.8180 B(  2-C ,  3-N ) :   1.0019 B(  2-C ,  4-N ) :   1.2092
B(  2-C ,  5-H ) :  -0.1347 B(  2-C ,  8-H ) :  -0.1869 B(  2-C , 10-H ) :   0.1087
B(  3-N ,  4-N ) :   0.1443 B(  3-N ,  7-H ) :   1.0674 B(  3-N ,  8-H ) :   1.3118
B(  4-N ,  5-H ) :   1.2814 B(  4-N ,  6-H ) :   1.0373 B(  5-H ,  6-H ) :  -0.1537
B(  7-H ,  8-H ) :  -0.1689

Dispersion correction           -0.003011887
FINAL SINGLE POINT ENERGY      -228.821448162453

DIPOLE MOMENT
-------------
                                X             Y             Z
Electronic contribution:      2.38089       2.57852      -2.28279
Nuclear contribution   :     -1.74195      -2.09431       1.58516
                        -----------------------------------------
Total Dipole Moment    :      0.63895       0.48422      -0.69763
                        -----------------------------------------
Magnitude (a.u.)       :      1.06273
Magnitude (Debye)      :      2.70125

Rotational constants in cm-1:     0.258965     0.126500     0.098780
Rotational constants in MHz :  7763.584551  3792.383135  2961.336502

                             ****ORCA TERMINATED NORMALLY****
TOTAL RUN TIME: 0 days 0 hours 0 minutes 9 seconds 254 msec
