                         Program Version 5.0.0 -  RELEASE  -
|  1> !wB97X-D3 RIJCOSX def2-SVPD def2/J TightSCF
|  2>
|  3> *xyz 0 1
|  4> C          2.95263        1.86308       -3.57485
|  5> C          4.12921        0.89839       -3.41895
|  6> H          3.73369       -0.10060       -3.23763
|  7> H          4.71910        0.86256       -4.33901
|  8> C          5.01734        1.31521       -2.22130
|  9> F          4.73706        0.85411       -1.12283
| 10> O          5.92815        2.16811       -2.49136
| 11> H          2.35067        1.56005       -4.40594
| 12> H          3.32277        2.85258       -3.74453
| 13> H          2.36134        1.85149       -2.68315
| 14> *
| 15> %MaxCore 64000
| 16>
| 17> %pal nprocs 18
| 18> end
| 19>
| 20> %scf
| 21>   MaxIter 150
| 22> end
| 23>
| 24>
| 25>                          ****END OF INPUT****

CARTESIAN COORDINATES (ANGSTROEM)
---------------------------------
  C      2.952630    1.863080   -3.574850
  C      4.129210    0.898390   -3.418950
  H      3.733690   -0.100600   -3.237630
  H      4.719100    0.862560   -4.339010
  C      5.017340    1.315210   -2.221300
  F      4.737060    0.854110   -1.122830
  O      5.928150    2.168110   -2.491360
  H      2.350670    1.560050   -4.405940
  H      3.322770    2.852580   -3.744530
  H      2.361340    1.851490   -2.683150

 Total Charge           Charge          ....    0
 Multiplicity           Mult            ....    1
 Number of Electrons    NEL             ....   40
 Basis Dimension        Dim             ....  146

ORBITAL ENERGIES
----------------

  NO   OCC          E(Eh)            E(eV)
   0   2.0000     -24.889366      -677.2741
   1   2.0000     -19.252216      -523.8794
   2   2.0000     -10.478545      -285.1357
   3   2.0000     -10.322835      -280.8986
   4   2.0000     -10.299393      -280.2607
   5   2.0000      -1.451525       -39.4980
   6   2.0000      -1.129647       -30.7393
   7   2.0000      -0.913985       -24.8708
   8   2.0000      -0.803090       -21.8532
   9   2.0000      -0.758377       -20.6365
  10   2.0000      -0.674930       -18.3658
  11   2.0000      -0.659149       -17.9363
  12   2.0000      -0.611722       -16.6458
  13   2.0000      -0.568280       -15.4637
  14   2.0000      -0.537497       -14.6260
  15   2.0000      -0.500654       -13.6235
  16   2.0000      -0.477961       -13.0060
  17   2.0000      -0.469498       -12.7757
  18   2.0000      -0.443122       -12.0580
  19   2.0000      -0.385457       -10.4888
  20   0.0000       0.050656         1.3784
  21   0.0000       0.083966         2.2848
  22   0.0000       0.115787         3.1507
  23   0.0000       0.125117         3.4046
  24   0.0000       0.150656         4.0996

MULLIKEN ATOMIC CHARGES
-----------------------
   0 C :    0.440988
   1 C :   -0.394005
   2 H :    0.051067
   3 H :    0.035084
   4 C :    0.812968
   5 F :   -0.352313
   6 O :   -0.536765
   7 H :   -0.013462
   8 H :   -0.017716
   9 H :   -0.025846
Sum of atomic charges:   -0.0000000

LOEWDIN ATOMIC CHARGES
----------------------
   0 C :    0.133736
   1 C :    0.003042
   2 H :    0.022201
   3 H :    0.036711
   4 C :   -0.003007
   5 F :   -0.011305
   6 O :   -0.157654
   7 H :   -0.010006
   8 H :   -0.004741
   9 H :   -0.008978

  Mayer bond orders larger than 0.100000
B(  0-C ,  1-C ) :   1.2971 B(  0-C ,  7-H ) :   0.8836 B(  0-C ,  8-H ) :   0.8733
B(  0-C ,  9-H ) :   0.8557 B(  1-C ,  2-H ) :   0.9323 B(  1-C ,  3-H ) :   0.9650
B(  1-C ,  4-C ) :   1.0570 B(  1-C ,  7-H ) :   0.1194 B(  1-C ,  8-H ) :   0.1477
B(  1-C ,  9-H ) :   0.1477 B(  4-C ,  5-F ) :   0.7680 B(  4-C ,  6-O ) :   1.7985
B(  5-F ,  6-O ) :   0.1026

Dispersion correction           -0.001949907
FINAL SINGLE POINT ENERGY      -292.104516787258

DIPOLE MOMENT
-------------
                                X             Y             Z
Electronic contribution:      5.02650      -1.20108       6.51630
Nuclear contribution   :     -6.06116       0.51860      -6.80802
                        -----------------------------------------
Total Dipole Moment    :     -1.03465      -0.68248      -0.29172
                        -----------------------------------------
Magnitude (a.u.)       :      1.27334
Magnitude (Debye)      :      3.23657

Rotational constants in cm-1:     0.276196     0.132056     0.105465
Rotational constants in MHz :  8280.156449  3958.940601  3161.775929

                             ****ORCA TERMINATED NORMALLY****
TOTAL RUN TIME: 0 days 0 hours 0 minutes 7 seconds 712 msec
