                         Program Version 5.0.0 -  RELEASE  -
|  1> !wB97X-D3 RIJCOSX def2-SVPD def2/J TightSCF
|  2>
|  3> *xyz 0 1
|  4> C          3.34350        3.35457       -3.59200
|  5> C          2.95263        1.86308       -3.57485
|  6> C          4.25587        3.70385       -4.72605
|  7> C          3.73403        4.29378       -5.80077
|  8> N          5.51504        3.40725       -4.63718
|  9> H          6.14919        3.60120       -5.39905
| 10> H          5.81358        2.89950       -3.80879
| 11> H          2.74138        4.51311       -5.82470
| 12> H          4.28755        4.52126       -6.61434
| 13> H          3.86125        3.59725       -2.66298
| 14> H          2.44649        3.97346       -3.65656
| 15> H          2.44395        1.61721       -4.48352
| 16> H          2.30781        1.67290       -2.74242
| 17> H          3.83491        1.26414       -3.48670
| 18> *
| 19> %MaxCore 64000
| 20>
| 21> %pal nprocs 18
| 22> end
| 23>
| 24> %scf
| 25>   MaxIter 150
| 26> end
| 27>
| 28>
| 29>                          ****END OF INPUT****

CARTESIAN COORDINATES (ANGSTROEM)
---------------------------------
  C      3.343500    3.354570   -3.592000
  C      2.952630    1.863080   -3.574850
  C      4.255870    3.703850   -4.726050
  C      3.734030    4.293780   -5.800770
  N      5.515040    3.407250   -4.637180
  H      6.149190    3.601200   -5.399050
  H      5.813580    2.899500   -3.808790
  H      2.741380    4.513110   -5.824700
  H      4.287550    4.521260   -6.614340
  H      3.861250    3.597250   -2.662980
  H      2.446490    3.973460   -3.656560
  H      2.443950    1.617210   -4.483520
  H      2.307810    1.672900   -2.742420
  H      3.834910    1.264140   -3.486700

 Total Charge           Charge          ....    0
 Multiplicity           Mult            ....    1
 Number of Electrons    NEL             ....   40
 Basis Dimension        Dim             ....  172

ORBITAL ENERGIES
----------------

  NO   OCC          E(Eh)            E(eV)
   0   2.0000     -14.440976      -392.9589
   1   2.0000     -10.310328      -280.5583
   2   2.0000     -10.289588      -279.9939
   3   2.0000     -10.276761      -279.6449
   4   2.0000     -10.219661      -278.0911
   5   2.0000      -1.047294       -28.4983
   6   2.0000      -0.888492       -24.1771
   7   2.0000      -0.822291       -22.3757
   8   2.0000      -0.742966       -20.2171
   9   2.0000      -0.674348       -18.3499
  10   2.0000      -0.635434       -17.2910
  11   2.0000      -0.581982       -15.8365
  12   2.0000      -0.538192       -14.6450
  13   2.0000      -0.521616       -14.1939
  14   2.0000      -0.492003       -13.3881
  15   2.0000      -0.480418       -13.0728
  16   2.0000      -0.449171       -12.2226
  17   2.0000      -0.429814       -11.6958
  18   2.0000      -0.427005       -11.6194
  19   2.0000      -0.275492        -7.4965
  20   0.0000       0.087323         2.3762
  21   0.0000       0.117199         3.1891
  22   0.0000       0.124839         3.3970
  23   0.0000       0.128857         3.5064
  24   0.0000       0.140699         3.8286

MULLIKEN ATOMIC CHARGES
-----------------------
   0 C :   -0.201590
   1 C :    0.573315
   2 C :   -0.107906
   3 C :    0.438167
   4 N :    0.229104
   5 H :   -0.177572
   6 H :   -0.077278
   7 H :   -0.148387
   8 H :   -0.474234
   9 H :   -0.043464
  10 H :    0.070454
  11 H :   -0.054861
  12 H :    0.012570
  13 H :   -0.038319
Sum of atomic charges:   -0.0000000

LOEWDIN ATOMIC CHARGES
----------------------
   0 C :   -0.032867
   1 C :    0.131889
   2 C :   -0.271796
   3 C :    0.171060
   4 N :    0.164094
   5 H :    0.016374
   6 H :    0.010150
   7 H :   -0.083426
   8 H :   -0.090115
   9 H :    0.018326
  10 H :    0.022957
  11 H :   -0.013518
  12 H :   -0.018783
  13 H :   -0.024347

  Mayer bond orders larger than 0.100000
B(  0-C ,  1-C ) :   1.2348 B(  0-C ,  2-C ) :   1.1706 B(  0-C ,  3-C ) :   0.1514
B(  0-C ,  9-H ) :   0.8736 B(  0-C , 10-H ) :   0.8654 B(  0-C , 11-H ) :   0.1613
B(  0-C , 12-H ) :   0.1505 B(  0-C , 13-H ) :   0.1946 B(  1-C , 11-H ) :   0.8833
B(  1-C , 12-H ) :   0.8355 B(  1-C , 13-H ) :   0.8162 B(  2-C ,  3-C ) :   1.7494
B(  2-C ,  4-N ) :   1.2597 B(  2-C ,  8-H ) :   0.1509 B(  2-C ,  9-H ) :   0.1574
B(  2-C , 10-H ) :   0.1425 B(  3-C ,  4-N ) :   0.2220 B(  3-C ,  7-H ) :   0.9546
B(  3-C ,  8-H ) :   0.7604 B(  4-N ,  5-H ) :   1.2278 B(  4-N ,  6-H ) :   1.0858
B(  5-H ,  6-H ) :  -0.1238

Dispersion correction           -0.003012613
FINAL SINGLE POINT ENERGY      -212.363204274779

DIPOLE MOMENT
-------------
                                X             Y             Z
Electronic contribution:      2.32940       1.47324      -0.85355
Nuclear contribution   :     -1.79713      -1.86925       1.28073
                        -----------------------------------------
Total Dipole Moment    :      0.53228      -0.39600       0.42718
                        -----------------------------------------
Magnitude (a.u.)       :      0.78906
Magnitude (Debye)      :      2.00564

Rotational constants in cm-1:     0.269040     0.129645     0.102087
Rotational constants in MHz :  8065.609820  3886.645139  3060.489045

                             ****ORCA TERMINATED NORMALLY****
TOTAL RUN TIME: 0 days 0 hours 0 minutes 9 seconds 615 msec
