                         Program Version 5.0.0 -  RELEASE  -
|  1> !wB97X-D3 RIJCOSX def2-SVPD def2/J TightSCF
|  2>
|  3> *xyz 0 1
|  4> C          2.95263        1.86308       -3.57485
|  5> C          4.12921        0.89839       -3.41895
|  6> H          3.73369       -0.10060       -3.23763
|  7> H          4.71910        0.86256       -4.33901
|  8> C          5.01734        1.31521       -2.22130
|  9> O          4.73706        0.85411       -1.12283
| 10> F          5.92815        2.16811       -2.49136
| 11> H          2.35067        1.56005       -4.40594
| 12> H          3.32277        2.85258       -3.74453
| 13> H          2.36134        1.85149       -2.68315
| 14> *
| 15> %MaxCore 64000
| 16>
| 17> %pal nprocs 18
| 18> end
| 19>
| 20> %scf
| 21>   MaxIter 150
| 22> end
| 23>
| 24>
| 25>                          ****END OF INPUT****

CARTESIAN COORDINATES (ANGSTROEM)
---------------------------------
  C      2.952630    1.863080   -3.574850
  C      4.129210    0.898390   -3.418950
  H      3.733690   -0.100600   -3.237630
  H      4.719100    0.862560   -4.339010
  C      5.017340    1.315210   -2.221300
  O      4.737060    0.854110   -1.122830
  F      5.928150    2.168110   -2.491360
  H      2.350670    1.560050   -4.405940
  H      3.322770    2.852580   -3.744530
  H      2.361340    1.851490   -2.683150

 Total Charge           Charge          ....    0
 Multiplicity           Mult            ....    1
 Number of Electrons    NEL             ....   40
 Basis Dimension        Dim             ....  146

ORBITAL ENERGIES
----------------

  NO   OCC          E(Eh)            E(eV)
   0   2.0000     -24.868208      -676.6983
   1   2.0000     -19.261822      -524.1408
   2   2.0000     -10.474435      -285.0239
   3   2.0000     -10.322285      -280.8837
   4   2.0000     -10.299599      -280.2663
   5   2.0000      -1.410288       -38.3759
   6   2.0000      -1.163476       -31.6598
   7   2.0000      -0.913635       -24.8613
   8   2.0000      -0.791356       -21.5339
   9   2.0000      -0.745191       -20.2777
  10   2.0000      -0.653694       -17.7879
  11   2.0000      -0.639079       -17.3902
  12   2.0000      -0.611758       -16.6468
  13   2.0000      -0.567496       -15.4423
  14   2.0000      -0.541404       -14.7323
  15   2.0000      -0.505649       -13.7594
  16   2.0000      -0.485760       -13.2182
  17   2.0000      -0.469748       -12.7825
  18   2.0000      -0.459189       -12.4952
  19   2.0000      -0.396113       -10.7788
  20   0.0000       0.056058         1.5254
  21   0.0000       0.085112         2.3160
  22   0.0000       0.116283         3.1642
  23   0.0000       0.125890         3.4256
  24   0.0000       0.150392         4.0924

MULLIKEN ATOMIC CHARGES
-----------------------
   0 C :    0.439460
   1 C :   -0.391320
   2 H :    0.050712
   3 H :    0.033344
   4 C :    0.802536
   5 O :   -0.463874
   6 F :   -0.414574
   7 H :   -0.013780
   8 H :   -0.031551
   9 H :   -0.010953
Sum of atomic charges:   -0.0000000

LOEWDIN ATOMIC CHARGES
----------------------
   0 C :    0.133469
   1 C :    0.004620
   2 H :    0.032206
   3 H :    0.027392
   4 C :   -0.000913
   5 O :   -0.120464
   6 F :   -0.052586
   7 H :   -0.010040
   8 H :   -0.009460
   9 H :   -0.004225

  Mayer bond orders larger than 0.100000
B(  0-C ,  1-C ) :   1.2966 B(  0-C ,  7-H ) :   0.8849 B(  0-C ,  8-H ) :   0.8638
B(  0-C ,  9-H ) :   0.8645 B(  1-C ,  2-H ) :   0.9514 B(  1-C ,  3-H ) :   0.9507
B(  1-C ,  4-C ) :   1.0454 B(  1-C ,  7-H ) :   0.1191 B(  1-C ,  8-H ) :   0.1427
B(  1-C ,  9-H ) :   0.1521 B(  4-C ,  5-O ) :   1.8652 B(  4-C ,  6-F ) :   0.6983
B(  5-O ,  6-F ) :   0.1009

Dispersion correction           -0.001946743
FINAL SINGLE POINT ENERGY      -292.120942268752

DIPOLE MOMENT
-------------
                                X             Y             Z
Electronic contribution:      7.03043       1.00918       4.20904
Nuclear contribution   :     -7.35982      -0.91407      -5.31589
                        -----------------------------------------
Total Dipole Moment    :     -0.32938       0.09511      -1.10685
                        -----------------------------------------
Magnitude (a.u.)       :      1.15873
Magnitude (Debye)      :      2.94527

Rotational constants in cm-1:     0.275433     0.132201     0.105422
Rotational constants in MHz :  8257.268192  3963.279062  3160.465566

                             ****ORCA TERMINATED NORMALLY****
TOTAL RUN TIME: 0 days 0 hours 0 minutes 7 seconds 900 msec
