                         Program Version 5.0.0 -  RELEASE  -
|  1> !wB97X-D3 RIJCOSX def2-SVPD def2/J TightSCF
|  2>
|  3> *xyz 0 1
|  4> C          3.34350        3.35457       -3.59200
|  5> C          2.95263        1.86308       -3.57485
|  6> C          4.25587        3.70385       -4.72605
|  7> N          3.73403        4.29378       -5.80077
|  8> C          5.51504        3.40725       -4.63718
|  9> H          6.14919        3.60120       -5.39905
| 10> H          5.81358        2.89950       -3.80879
| 11> H          2.74138        4.51311       -5.82470
| 12> H          4.28755        4.52126       -6.61434
| 13> H          3.86125        3.59725       -2.66298
| 14> H          2.44649        3.97346       -3.65656
| 15> H          2.44395        1.61721       -4.48352
| 16> H          2.30781        1.67290       -2.74242
| 17> H          3.83491        1.26414       -3.48670
| 18> *
| 19> %MaxCore 64000
| 20>
| 21> %pal nprocs 18
| 22> end
| 23>
| 24> %scf
| 25>   MaxIter 150
| 26> end
| 27>
| 28>
| 29>                          ****END OF INPUT****

CARTESIAN COORDINATES (ANGSTROEM)
---------------------------------
  C      3.343500    3.354570   -3.592000
  C      2.952630    1.863080   -3.574850
  C      4.255870    3.703850   -4.726050
  N      3.734030    4.293780   -5.800770
  C      5.515040    3.407250   -4.637180
  H      6.149190    3.601200   -5.399050
  H      5.813580    2.899500   -3.808790
  H      2.741380    4.513110   -5.824700
  H      4.287550    4.521260   -6.614340
  H      3.861250    3.597250   -2.662980
  H      2.446490    3.973460   -3.656560
  H      2.443950    1.617210   -4.483520
  H      2.307810    1.672900   -2.742420
  H      3.834910    1.264140   -3.486700

 Total Charge           Charge          ....    0
 Multiplicity           Mult            ....    1
 Number of Electrons    NEL             ....   40
 Basis Dimension        Dim             ....  172

ORBITAL ENERGIES
----------------

  NO   OCC          E(Eh)            E(eV)
   0   2.0000     -14.437144      -392.8547
   1   2.0000     -10.307728      -280.4875
   2   2.0000     -10.289028      -279.9787
   3   2.0000     -10.274593      -279.5859
   4   2.0000     -10.218525      -278.0602
   5   2.0000      -1.032527       -28.0965
   6   2.0000      -0.890901       -24.2426
   7   2.0000      -0.826068       -22.4785
   8   2.0000      -0.744082       -20.2475
   9   2.0000      -0.667878       -18.1739
  10   2.0000      -0.623204       -16.9582
  11   2.0000      -0.585710       -15.9380
  12   2.0000      -0.540434       -14.7060
  13   2.0000      -0.513883       -13.9835
  14   2.0000      -0.491860       -13.3842
  15   2.0000      -0.481536       -13.1033
  16   2.0000      -0.444412       -12.0931
  17   2.0000      -0.432426       -11.7669
  18   2.0000      -0.424962       -11.5638
  19   2.0000      -0.280732        -7.6391
  20   0.0000       0.089311         2.4303
  21   0.0000       0.117186         3.1888
  22   0.0000       0.124331         3.3832
  23   0.0000       0.129833         3.5329
  24   0.0000       0.141689         3.8556

MULLIKEN ATOMIC CHARGES
-----------------------
   0 C :   -0.191960
   1 C :    0.539508
   2 C :    0.076919
   3 N :    0.046827
   4 C :    0.392896
   5 H :   -0.429193
   6 H :   -0.119530
   7 H :   -0.072321
   8 H :   -0.160736
   9 H :    0.084245
  10 H :   -0.084610
  11 H :   -0.054405
  12 H :    0.018422
  13 H :   -0.046062
Sum of atomic charges:   -0.0000000

LOEWDIN ATOMIC CHARGES
----------------------
   0 C :   -0.033310
   1 C :    0.133047
   2 C :   -0.262283
   3 N :    0.162369
   4 C :    0.161961
   5 H :   -0.078761
   6 H :   -0.070056
   7 H :   -0.000909
   8 H :    0.004680
   9 H :    0.025210
  10 H :    0.012948
  11 H :   -0.016182
  12 H :   -0.019567
  13 H :   -0.019147

  Mayer bond orders larger than 0.100000
B(  0-C ,  1-C ) :   1.2502 B(  0-C ,  2-C ) :   1.0940 B(  0-C ,  3-N ) :   0.1095
B(  0-C ,  4-C ) :   0.1680 B(  0-C ,  9-H ) :   0.8548 B(  0-C , 10-H ) :   0.8872
B(  0-C , 11-H ) :   0.1724 B(  0-C , 12-H ) :   0.1362 B(  0-C , 13-H ) :   0.1778
B(  1-C , 11-H ) :   0.8658 B(  1-C , 12-H ) :   0.8329 B(  1-C , 13-H ) :   0.8594
B(  2-C ,  3-N ) :   1.0778 B(  2-C ,  4-C ) :   1.8544 B(  2-C ,  5-H ) :   0.2027
B(  2-C ,  6-H ) :   0.1523 B(  2-C ,  8-H ) :  -0.1196 B(  2-C ,  9-H ) :   0.1077
B(  2-C , 10-H ) :   0.1334 B(  3-N ,  4-C ) :   0.2443 B(  3-N ,  7-H ) :   1.0983
B(  3-N ,  8-H ) :   1.2803 B(  4-C ,  5-H ) :   0.7600 B(  4-C ,  6-H ) :   0.8049
B(  7-H ,  8-H ) :  -0.1562

Dispersion correction           -0.002997876
FINAL SINGLE POINT ENERGY      -212.363536290480

DIPOLE MOMENT
-------------
                                X             Y             Z
Electronic contribution:      0.78405       2.26258      -1.85827
Nuclear contribution   :     -1.38463      -2.07457       1.55023
                        -----------------------------------------
Total Dipole Moment    :     -0.60057       0.18800      -0.30804
                        -----------------------------------------
Magnitude (a.u.)       :      0.70066
Magnitude (Debye)      :      1.78093

Rotational constants in cm-1:     0.272312     0.128195     0.101724
Rotational constants in MHz :  8163.717141  3843.180148  3049.598073

                             ****ORCA TERMINATED NORMALLY****
TOTAL RUN TIME: 0 days 0 hours 0 minutes 9 seconds 665 msec
