                         Program Version 5.0.0 -  RELEASE  -
|  1> !PBE0 D3BJ RIJCOSX def2-SVP def2/J TightSCF
|  2> *xyz -1 1
|  3> C          0.96805        1.63064       -3.71575
|  4> C         -0.50835        1.72268       -4.12430
|  5> S         -1.32861        0.14674       -4.43578
|  6> H         -0.59151        2.29496       -5.04722
|  7> H         -1.11411        2.23561       -3.37436
|  8> O         -2.57135        0.47573       -5.06834
|  9> O         -1.51496       -0.40051       -3.06342
| 10> O         -0.37793       -0.62756       -5.20114
| 11> H          1.51840        1.12197       -4.47946
| 12> H          1.05062        1.08971       -2.79625
| 13> H          1.36450        2.61606       -3.58668
| 14> *
| 15> %MaxCore 64000
| 16>
| 17> %pal nprocs 4
| 18> end
| 19>
| 20> %scf
| 21>   MaxIter 150
| 22> end
| 23>
| 24>
| 25>                          ****END OF INPUT****

CARTESIAN COORDINATES (ANGSTROEM)
---------------------------------
  C      0.968050    1.630640   -3.715750
  C     -0.508350    1.722680   -4.124300
  S     -1.328610    0.146740   -4.435780
  H     -0.591510    2.294960   -5.047220
  H     -1.114110    2.235610   -3.374360
  O     -2.571350    0.475730   -5.068340
  O     -1.514960   -0.400510   -3.063420
  O     -0.377930   -0.627560   -5.201140
  H      1.518400    1.121970   -4.479460
  H      1.050620    1.089710   -2.796250
  H      1.364500    2.616060   -3.586680

 Total Charge           Charge          ....   -1
 Multiplicity           Mult            ....    1
 Number of Electrons    NEL             ....   58
 Basis Dimension        Dim             ....  113

ORBITAL ENERGIES
----------------

  NO   OCC          E(Eh)            E(eV)
   0   2.0000     -88.998713     -2421.7781
   1   2.0000     -18.966537      -516.1057
   2   2.0000     -18.963270      -516.0168
   3   2.0000     -18.944605      -515.5089
   4   2.0000     -10.080408      -274.3018
   5   2.0000     -10.075743      -274.1749
   6   2.0000      -7.965465      -216.7513
   7   2.0000      -5.907186      -160.7427
   8   2.0000      -5.906904      -160.7350
   9   2.0000      -5.906780      -160.7317
  10   2.0000      -0.933591       -25.4043
  11   2.0000      -0.796300       -21.6684
  12   2.0000      -0.762766       -20.7559
  13   2.0000      -0.634902       -17.2766
  14   2.0000      -0.508473       -13.8363
  15   2.0000      -0.376809       -10.2535
  16   2.0000      -0.318283        -8.6609
  17   2.0000      -0.312895        -8.5143
  18   2.0000      -0.274640        -7.4733
  19   2.0000      -0.256795        -6.9878
  20   2.0000      -0.252482        -6.8704
  21   2.0000      -0.228329        -6.2131
  22   2.0000      -0.212995        -5.7959
  23   2.0000      -0.138433        -3.7670
  24   2.0000      -0.137808        -3.7499
  25   2.0000      -0.106552        -2.8994
  26   2.0000      -0.095906        -2.6097
  27   2.0000      -0.080841        -2.1998
  28   2.0000      -0.049254        -1.3403
  29   0.0000       0.215120         5.8537
  30   0.0000       0.266539         7.2529
  31   0.0000       0.272911         7.4263
  32   0.0000       0.279370         7.6020
  33   0.0000       0.306891         8.3509

MULLIKEN ATOMIC CHARGES
-----------------------
   0 C :   -0.030068
   1 C :   -0.153844
   2 S :    0.886983
   3 H :    0.012589
   4 H :    0.024542
   5 O :   -0.568743
   6 O :   -0.633074
   7 O :   -0.582473
   8 H :    0.029470
   9 H :    0.026771
  10 H :   -0.012153
Sum of atomic charges:   -1.0000000

LOEWDIN ATOMIC CHARGES
----------------------
   0 C :   -0.081822
   1 C :   -0.198791
   2 S :    1.087104
   3 H :    0.004668
   4 H :    0.011542
   5 O :   -0.595951
   6 O :   -0.661712
   7 O :   -0.608623
   8 H :    0.019624
   9 H :    0.019543
  10 H :    0.004418

  Mayer bond orders larger than 0.100000
B(  0-C ,  1-C ) :   1.0519 B(  0-C ,  8-H ) :   0.9676 B(  0-C ,  9-H ) :   0.9688
B(  0-C , 10-H ) :   0.9646 B(  1-C ,  2-S ) :   0.8899 B(  1-C ,  3-H ) :   0.9411
B(  1-C ,  4-H ) :   0.9449 B(  2-S ,  5-O ) :   1.6436 B(  2-S ,  6-O ) :   1.5709
B(  2-S ,  7-O ) :   1.6187

Dispersion correction           -0.008254975
FINAL SINGLE POINT ENERGY      -702.263580572847

DIPOLE MOMENT
-------------
                                X             Y             Z
Electronic contribution:     -5.68710      -5.42203      -1.97107
Nuclear contribution   :      6.64523       6.80157       2.07300
                        -----------------------------------------
Total Dipole Moment    :      0.95813       1.37954       0.10193
                        -----------------------------------------
Magnitude (a.u.)       :      1.68272
Magnitude (Debye)      :      4.27713

Rotational constants in cm-1:     0.163070     0.082807     0.081541
Rotational constants in MHz :  4888.719902  2482.497026  2444.541148

                             ****ORCA TERMINATED NORMALLY****
TOTAL RUN TIME: 0 days 0 hours 0 minutes 13 seconds 290 msec
