                         Program Version 5.0.0 -  RELEASE  -
|  1> !PBE0 D3BJ RIJCOSX def2-SVP def2/J TightSCF
|  2> *xyz 1 1
|  3> C          1.36401        0.46874       -2.81376
|  4> N          0.42884        0.32140       -1.65531
|  5> C          0.96805        1.63064       -3.71575
|  6> H          0.74858       -0.40054       -1.00134
|  7> H         -0.46105        0.02333       -2.07773
|  8> H          0.31026        1.20137       -1.13495
|  9> H          1.29485       -0.46874       -3.36468
| 10> H          2.37622        0.59740       -2.43149
| 11> H          1.65923        1.70213       -4.52942
| 12> H          0.98421        2.54058       -3.15304
| 13> H         -0.01744        1.46536       -4.09838
| 14> *
| 15> %MaxCore 64000
| 16>
| 17> %pal nprocs 4
| 18> end
| 19>
| 20> %scf
| 21>   MaxIter 150
| 22> end
| 23>
| 24>
| 25>                          ****END OF INPUT****

CARTESIAN COORDINATES (ANGSTROEM)
---------------------------------
  C      1.364010    0.468740   -2.813760
  N      0.428840    0.321400   -1.655310
  C      0.968050    1.630640   -3.715750
  H      0.748580   -0.400540   -1.001340
  H     -0.461050    0.023330   -2.077730
  H      0.310260    1.201370   -1.134950
  H      1.294850   -0.468740   -3.364680
  H      2.376220    0.597400   -2.431490
  H      1.659230    1.702130   -4.529420
  H      0.984210    2.540580   -3.153040
  H     -0.017440    1.465360   -4.098380

 Total Charge           Charge          ....    1
 Multiplicity           Mult            ....    1
 Number of Electrons    NEL             ....   26
 Basis Dimension        Dim             ....   82

ORBITAL ENERGIES
----------------

  NO   OCC          E(Eh)            E(eV)
   0   2.0000     -14.734321      -400.9413
   1   2.0000     -10.487283      -285.3735
   2   2.0000     -10.408830      -283.2387
   3   2.0000      -1.235628       -33.6231
   4   2.0000      -0.982830       -26.7442
   5   2.0000      -0.858977       -23.3740
   6   2.0000      -0.822809       -22.3898
   7   2.0000      -0.806195       -21.9377
   8   2.0000      -0.710405       -19.3311
   9   2.0000      -0.658421       -17.9165
  10   2.0000      -0.597947       -16.2710
  11   2.0000      -0.580563       -15.7979
  12   2.0000      -0.564665       -15.3653
  13   0.0000      -0.173261        -4.7147
  14   0.0000      -0.112605        -3.0641
  15   0.0000      -0.108142        -2.9427
  16   0.0000      -0.079172        -2.1544
  17   0.0000      -0.041934        -1.1411

MULLIKEN ATOMIC CHARGES
-----------------------
   0 C :   -0.086647
   1 N :   -0.027299
   2 C :   -0.086461
   3 H :    0.227054
   4 H :    0.224590
   5 H :    0.223967
   6 H :    0.121144
   7 H :    0.126795
   8 H :    0.117968
   9 H :    0.081439
  10 H :    0.077450
Sum of atomic charges:    1.0000000

LOEWDIN ATOMIC CHARGES
----------------------
   0 C :    0.046416
   1 N :    0.291956
   2 C :   -0.049332
   3 H :    0.148112
   4 H :    0.148093
   5 H :    0.145705
   6 H :    0.057038
   7 H :    0.057802
   8 H :    0.068494
   9 H :    0.043377
  10 H :    0.042338

  Mayer bond orders larger than 0.100000
B(  0-C ,  1-N ) :   0.9101 B(  0-C ,  2-C ) :   1.0905 B(  0-C ,  6-H ) :   0.9509
B(  0-C ,  7-H ) :   0.9502 B(  1-N ,  3-H ) :   0.9286 B(  1-N ,  4-H ) :   0.9346
B(  1-N ,  5-H ) :   0.9283 B(  2-C ,  8-H ) :   0.9561 B(  2-C ,  9-H ) :   0.9679
B(  2-C , 10-H ) :   0.9682

Dispersion correction           -0.005023740
FINAL SINGLE POINT ENERGY      -135.274379291758

DIPOLE MOMENT
-------------
                                X             Y             Z
Electronic contribution:     -0.37344      -0.96446       1.61555
Nuclear contribution   :     -0.20470       0.31427      -0.31587
                        -----------------------------------------
Total Dipole Moment    :     -0.57814      -0.65019       1.29968
                        -----------------------------------------
Magnitude (a.u.)       :      1.56402
Magnitude (Debye)      :      3.97543

Rotational constants in cm-1:     1.011480     0.279280     0.248378
Rotational constants in MHz : 30323.408050  8372.602834  7446.185305

                             ****ORCA TERMINATED NORMALLY****
TOTAL RUN TIME: 0 days 0 hours 0 minutes 8 seconds 480 msec
