                         Program Version 5.0.0 -  RELEASE  -
|  1> !PBE0 D3BJ RIJCOSX def2-TZVP def2/J TightSCF xyzfile
|  2>
|  3> *xyzfile 0 1 B.xyz
|  4>
|  5> %MaxCore 64000
|  6>
|  7> %pal nprocs 18
|  8> end
|  9>
| 10> %scf
| 11>   MaxIter 150
| 12> end
| 13>
| 14>
| 15>                          ****END OF INPUT****

CARTESIAN COORDINATES (ANGSTROEM)
---------------------------------
  C      1.364014    0.468742   -2.813764
  N      0.428844    0.321402   -1.655312
  C      0.968045    1.630639   -3.715749
  C     -0.508347    1.722679   -4.124300
  S     -1.328608    0.146737   -4.435781
  H     -0.591511    2.294958   -5.047219
  H     -1.114114    2.235610   -3.374362
  H      0.748578   -0.400542   -1.001345
  H     -0.461053    0.023332   -2.077731
  H      0.310258    1.201375   -1.134948
  O     -2.571347    0.475733   -5.068341
  O     -1.514963   -0.400512   -3.063420
  H      1.294847   -0.468742   -3.364684
  H      2.376216    0.597400   -2.431495
  H      1.578688    1.520652   -4.612733
  H      1.266653    2.575988   -3.250448
  O     -0.377928   -0.627558   -5.201141

 Total Charge           Charge          ....    0
 Multiplicity           Mult            ....    1
 Number of Electrons    NEL             ....   74
 Basis Dimension        Dim             ....  308

ORBITAL ENERGIES
----------------

  NO   OCC          E(Eh)            E(eV)
   0   2.0000     -89.164624     -2426.2928
   1   2.0000     -19.158690      -521.3345
   2   2.0000     -19.142166      -520.8848
   3   2.0000     -19.139813      -520.8208
   4   2.0000     -14.517634      -395.0449
   5   2.0000     -10.312622      -280.6207
   6   2.0000     -10.263721      -279.2900
   7   2.0000     -10.241556      -278.6869
   8   2.0000      -8.110463      -220.6969
   9   2.0000      -6.048134      -164.5781
  10   2.0000      -6.046930      -164.5453
  11   2.0000      -6.045523      -164.5071
  12   2.0000      -1.119620       -30.4664
  13   2.0000      -1.057169       -28.7670
  14   2.0000      -0.981835       -26.7171
  15   2.0000      -0.980208       -26.6728
  16   2.0000      -0.848505       -23.0890
  17   2.0000      -0.759121       -20.6567
  18   2.0000      -0.671858       -18.2822
  19   2.0000      -0.640130       -17.4188
  20   2.0000      -0.627724       -17.0812
  21   2.0000      -0.561405       -15.2766
  22   2.0000      -0.539193       -14.6722
  23   2.0000      -0.501821       -13.6552
  24   2.0000      -0.484395       -13.1811
  25   2.0000      -0.473533       -12.8855
  26   2.0000      -0.443248       -12.0614
  27   2.0000      -0.434625       -11.8267
  28   2.0000      -0.414264       -11.2727
  29   2.0000      -0.403925       -10.9914
  30   2.0000      -0.387621       -10.5477
  31   2.0000      -0.335487        -9.1291
  32   2.0000      -0.326656        -8.8888
  33   2.0000      -0.297461        -8.0943
  34   2.0000      -0.286483        -7.7956
  35   2.0000      -0.277370        -7.5476
  36   2.0000      -0.246927        -6.7192
  37   0.0000      -0.028774        -0.7830
  38   0.0000       0.020704         0.5634
  39   0.0000       0.035590         0.9685
  40   0.0000       0.066653         1.8137
  41   0.0000       0.074707         2.0329

MULLIKEN ATOMIC CHARGES
-----------------------
   0 C :   -0.239189
   1 N :   -0.287838
   2 C :   -0.215669
   3 C :   -0.337591
   4 S :    0.832145
   5 H :    0.148717
   6 H :    0.126871
   7 H :    0.287648
   8 H :    0.311210
   9 H :    0.276650
  10 O :   -0.468083
  11 O :   -0.563406
  12 H :    0.209265
  13 H :    0.149617
  14 H :    0.141775
  15 H :    0.124816
  16 O :   -0.496939
Sum of atomic charges:   -0.0000000

LOEWDIN ATOMIC CHARGES
----------------------
   0 C :   -0.278235
   1 N :    0.143746
   2 C :   -0.295272
   3 C :   -0.396686
   4 S :    0.426012
   5 H :    0.142975
   6 H :    0.129270
   7 H :    0.198505
   8 H :    0.139911
   9 H :    0.197770
  10 O :   -0.300097
  11 O :   -0.367574
  12 H :    0.155664
  13 H :    0.134805
  14 H :    0.160621
  15 H :    0.139558
  16 O :   -0.330973

  Mayer bond orders larger than 0.100000
B(  0-C ,  1-N ) :   0.8913 B(  0-C ,  2-C ) :   1.0116 B(  0-C , 12-H ) :   0.9403
B(  0-C , 13-H ) :   0.9543 B(  1-N ,  7-H ) :   0.8951 B(  1-N ,  8-H ) :   0.7179
B(  1-N ,  9-H ) :   0.8938 B(  2-C ,  3-C ) :   0.9821 B(  2-C , 14-H ) :   0.9456
B(  2-C , 15-H ) :   0.9528 B(  3-C ,  4-S ) :   0.8984 B(  3-C ,  5-H ) :   0.9482
B(  3-C ,  6-H ) :   0.9533 B(  4-S , 10-O ) :   1.9296 B(  4-S , 11-O ) :   1.4675
B(  4-S , 16-O ) :   1.7893 B(  8-H , 11-O ) :   0.2560

Dispersion correction           -0.015694283
FINAL SINGLE POINT ENERGY      -797.960151407520

DIPOLE MOMENT
-------------
                                X             Y             Z
Electronic contribution:     -6.94250      -4.17453      -4.30481
Nuclear contribution   :      9.95459       5.57517       7.68169
                        -----------------------------------------
Total Dipole Moment    :      3.01209       1.40064       3.37688
                        -----------------------------------------
Magnitude (a.u.)       :      4.73686
Magnitude (Debye)      :     12.04014

Rotational constants in cm-1:     0.102119     0.045768     0.041299
Rotational constants in MHz :  3061.441288  1372.093000  1238.124534

                             ****ORCA TERMINATED NORMALLY****
TOTAL RUN TIME: 0 days 0 hours 0 minutes 21 seconds 116 msec
