                         Program Version 5.0.0 -  RELEASE  -
|  1> !PBE0 D3BJ RIJCOSX def2-SVP def2/J TightSCF
|  2> *xyz 0 1
|  3> C          0.96805        1.63064       -3.71575
|  4> C         -0.50835        1.72268       -4.12430
|  5> S         -1.32861        0.14674       -4.43578
|  6> H         -0.59151        2.29496       -5.04722
|  7> H         -1.11411        2.23561       -3.37436
|  8> F         -2.57135        0.47573       -5.06834
|  9> O         -1.51496       -0.40051       -3.06342
| 10> O         -0.37793       -0.62756       -5.20114
| 11> H          1.51840        1.12197       -4.47946
| 12> H          1.05062        1.08971       -2.79625
| 13> H          1.36450        2.61606       -3.58668
| 14> *
| 15> %MaxCore 64000
| 16>
| 17> %pal nprocs 4
| 18> end
| 19>
| 20> %scf
| 21>   MaxIter 150
| 22> end
| 23>
| 24>
| 25>                          ****END OF INPUT****

CARTESIAN COORDINATES (ANGSTROEM)
---------------------------------
  C      0.968050    1.630640   -3.715750
  C     -0.508350    1.722680   -4.124300
  S     -1.328610    0.146740   -4.435780
  H     -0.591510    2.294960   -5.047220
  H     -1.114110    2.235610   -3.374360
  F     -2.571350    0.475730   -5.068340
  O     -1.514960   -0.400510   -3.063420
  O     -0.377930   -0.627560   -5.201140
  H      1.518400    1.121970   -4.479460
  H      1.050620    1.089710   -2.796250
  H      1.364500    2.616060   -3.586680

 Total Charge           Charge          ....    0
 Multiplicity           Mult            ....    1
 Number of Electrons    NEL             ....   58
 Basis Dimension        Dim             ....  113

ORBITAL ENERGIES
----------------

  NO   OCC          E(Eh)            E(eV)
   0   2.0000     -89.273763     -2429.2626
   1   2.0000     -24.894431      -677.4119
   2   2.0000     -19.215099      -522.8694
   3   2.0000     -19.197677      -522.3953
   4   2.0000     -10.288313      -279.9592
   5   2.0000     -10.249556      -278.9046
   6   2.0000      -8.242920      -224.3013
   7   2.0000      -6.188577      -168.3998
   8   2.0000      -6.182015      -168.2212
   9   2.0000      -6.180897      -168.1908
  10   2.0000      -1.411869       -38.4189
  11   2.0000      -1.124695       -30.6045
  12   2.0000      -1.016216       -27.6527
  13   2.0000      -0.834523       -22.7085
  14   2.0000      -0.754464       -20.5300
  15   2.0000      -0.691866       -18.8266
  16   2.0000      -0.607551       -16.5323
  17   2.0000      -0.605722       -16.4825
  18   2.0000      -0.565882       -15.3984
  19   2.0000      -0.504007       -13.7147
  20   2.0000      -0.492483       -13.4011
  21   2.0000      -0.448289       -12.1986
  22   2.0000      -0.441874       -12.0240
  23   2.0000      -0.418510       -11.3882
  24   2.0000      -0.397478       -10.8159
  25   2.0000      -0.389570       -10.6007
  26   2.0000      -0.337976        -9.1968
  27   2.0000      -0.320471        -8.7205
  28   2.0000      -0.306386        -8.3372
  29   0.0000       0.043931         1.1954
  30   0.0000       0.056737         1.5439
  31   0.0000       0.081894         2.2284
  32   0.0000       0.097209         2.6452
  33   0.0000       0.108415         2.9501

MULLIKEN ATOMIC CHARGES
-----------------------
   0 C :   -0.039674
   1 C :   -0.188862
   2 S :    0.962368
   3 H :    0.076245
   4 H :    0.091462
   5 F :   -0.166101
   6 O :   -0.492349
   7 O :   -0.444557
   8 H :    0.070613
   9 H :    0.071386
  10 H :    0.059470
Sum of atomic charges:   -0.0000000

LOEWDIN ATOMIC CHARGES
----------------------
   0 C :   -0.053952
   1 C :   -0.162518
   2 S :    1.145967
   3 H :    0.031065
   4 H :    0.039793
   5 F :   -0.106186
   6 O :   -0.530635
   7 O :   -0.480147
   8 H :    0.037937
   9 H :    0.039151
  10 H :    0.039525

  Mayer bond orders larger than 0.100000
B(  0-C ,  1-C ) :   1.0643 B(  0-C ,  8-H ) :   0.9685 B(  0-C ,  9-H ) :   0.9715
B(  0-C , 10-H ) :   0.9638 B(  1-C ,  2-S ) :   0.9215 B(  1-C ,  3-H ) :   0.9298
B(  1-C ,  4-H ) :   0.9313 B(  2-S ,  5-F ) :   1.0293 B(  2-S ,  6-O ) :   1.7242
B(  2-S ,  7-O ) :   1.7693

Dispersion correction           -0.007893210
FINAL SINGLE POINT ENERGY      -726.745679397731

DIPOLE MOMENT
-------------
                                X             Y             Z
Electronic contribution:     -8.36645      -5.18312      -3.25933
Nuclear contribution   :      8.31000       6.74109       2.87442
                        -----------------------------------------
Total Dipole Moment    :     -0.05644       1.55797      -0.38491
                        -----------------------------------------
Magnitude (a.u.)       :      1.60581
Magnitude (Debye)      :      4.08164

Rotational constants in cm-1:     0.158705     0.080192     0.078179
Rotational constants in MHz :  4757.865601  2404.095079  2343.752507

                             ****ORCA TERMINATED NORMALLY****
TOTAL RUN TIME: 0 days 0 hours 0 minutes 12 seconds 222 msec
