                         Program Version 5.0.0 -  RELEASE  -
|  1> !PBE0 D3BJ RIJCOSX def2-SVP def2/J TightSCF
|  2> *xyz 0 1
|  3> C          1.36401        0.46874       -2.81376
|  4> C          0.42884        0.32140       -1.65531
|  5> C          0.96805        1.63064       -3.71575
|  6> H          0.74858       -0.40054       -1.00134
|  7> H         -0.46105        0.02333       -2.07773
|  8> H          0.31026        1.20137       -1.13495
|  9> H          1.29485       -0.46874       -3.36468
| 10> H          2.37622        0.59740       -2.43149
| 11> H          1.65923        1.70213       -4.52942
| 12> H          0.98421        2.54058       -3.15304
| 13> H         -0.01744        1.46536       -4.09838
| 14> *
| 15> %MaxCore 64000
| 16>
| 17> %pal nprocs 4
| 18> end
| 19>
| 20> %scf
| 21>   MaxIter 150
| 22> end
| 23>
| 24>
| 25>                          ****END OF INPUT****

CARTESIAN COORDINATES (ANGSTROEM)
---------------------------------
  C      1.364010    0.468740   -2.813760
  C      0.428840    0.321400   -1.655310
  C      0.968050    1.630640   -3.715750
  H      0.748580   -0.400540   -1.001340
  H     -0.461050    0.023330   -2.077730
  H      0.310260    1.201370   -1.134950
  H      1.294850   -0.468740   -3.364680
  H      2.376220    0.597400   -2.431490
  H      1.659230    1.702130   -4.529420
  H      0.984210    2.540580   -3.153040
  H     -0.017440    1.465360   -4.098380

 Total Charge           Charge          ....    0
 Multiplicity           Mult            ....    1
 Number of Electrons    NEL             ....   26
 Basis Dimension        Dim             ....   82

ORBITAL ENERGIES
----------------

  NO   OCC          E(Eh)            E(eV)
   0   2.0000     -10.217645      -278.0363
   1   2.0000     -10.210031      -277.8291
   2   2.0000     -10.193569      -277.3811
   3   2.0000      -0.806670       -21.9506
   4   2.0000      -0.702621       -19.1193
   5   2.0000      -0.594692       -16.1824
   6   2.0000      -0.482839       -13.1387
   7   2.0000      -0.456603       -12.4248
   8   2.0000      -0.413995       -11.2654
   9   2.0000      -0.401105       -10.9146
  10   2.0000      -0.347993        -9.4694
  11   2.0000      -0.342442        -9.3183
  12   2.0000      -0.338040        -9.1985
  13   0.0000       0.074252         2.0205
  14   0.0000       0.124201         3.3797
  15   0.0000       0.124505         3.3880
  16   0.0000       0.130058         3.5391
  17   0.0000       0.157428         4.2838

MULLIKEN ATOMIC CHARGES
-----------------------
   0 C :   -0.151638
   1 C :    0.009495
   2 C :   -0.052976
   3 H :    0.013722
   4 H :    0.010931
   5 H :    0.012151
   6 H :    0.032306
   7 H :    0.033107
   8 H :    0.034103
   9 H :    0.030506
  10 H :    0.028294
Sum of atomic charges:   -0.0000000

LOEWDIN ATOMIC CHARGES
----------------------
   0 C :   -0.048830
   1 C :   -0.050933
   2 C :   -0.062301
   3 H :    0.016999
   4 H :    0.017688
   5 H :    0.014499
   6 H :    0.023277
   7 H :    0.020264
   8 H :    0.024293
   9 H :    0.022608
  10 H :    0.022435

  Mayer bond orders larger than 0.100000
B(  0-C ,  1-C ) :   1.0917 B(  0-C ,  2-C ) :   1.0919 B(  0-C ,  6-H ) :   0.9589
B(  0-C ,  7-H ) :   0.9585 B(  1-C ,  3-H ) :   0.9676 B(  1-C ,  4-H ) :   0.9740
B(  1-C ,  5-H ) :   0.9740 B(  2-C ,  8-H ) :   0.9719 B(  2-C ,  9-H ) :   0.9748
B(  2-C , 10-H ) :   0.9750

Dispersion correction           -0.005043461
FINAL SINGLE POINT ENERGY      -118.889574968927

DIPOLE MOMENT
-------------
                                X             Y             Z
Electronic contribution:      0.35536      -0.17622      -0.01863
Nuclear contribution   :     -0.35842       0.15752       0.02695
                        -----------------------------------------
Total Dipole Moment    :     -0.00307      -0.01870       0.00832
                        -----------------------------------------
Magnitude (a.u.)       :      0.02070
Magnitude (Debye)      :      0.05261

Rotational constants in cm-1:     1.019891     0.293671     0.260247
Rotational constants in MHz : 30575.551403  8804.039097  7802.009261

                             ****ORCA TERMINATED NORMALLY****
TOTAL RUN TIME: 0 days 0 hours 0 minutes 8 seconds 349 msec
