                         Program Version 5.0.0 -  RELEASE  -
|  1> !PBE0 D3BJ RIJCOSX def2-SVP def2/J TightSCF
|  2> *xyz 0 1
|  3> C          0.96805        1.63064       -3.71575
|  4> C         -0.50835        1.72268       -4.12430
|  5> S         -1.32861        0.14674       -4.43578
|  6> H         -0.59151        2.29496       -5.04722
|  7> H         -1.11411        2.23561       -3.37436
|  8> O         -2.57135        0.47573       -5.06834
|  9> F         -1.51496       -0.40051       -3.06342
| 10> O         -0.37793       -0.62756       -5.20114
| 11> H          1.51840        1.12197       -4.47946
| 12> H          1.05062        1.08971       -2.79625
| 13> H          1.36450        2.61606       -3.58668
| 14> *
| 15> %MaxCore 64000
| 16>
| 17> %pal nprocs 4
| 18> end
| 19>
| 20> %scf
| 21>   MaxIter 150
| 22> end
| 23>
| 24>
| 25>                          ****END OF INPUT****

CARTESIAN COORDINATES (ANGSTROEM)
---------------------------------
  C      0.968050    1.630640   -3.715750
  C     -0.508350    1.722680   -4.124300
  S     -1.328610    0.146740   -4.435780
  H     -0.591510    2.294960   -5.047220
  H     -1.114110    2.235610   -3.374360
  O     -2.571350    0.475730   -5.068340
  F     -1.514960   -0.400510   -3.063420
  O     -0.377930   -0.627560   -5.201140
  H      1.518400    1.121970   -4.479460
  H      1.050620    1.089710   -2.796250
  H      1.364500    2.616060   -3.586680

 Total Charge           Charge          ....    0
 Multiplicity           Mult            ....    1
 Number of Electrons    NEL             ....   58
 Basis Dimension        Dim             ....  113

ORBITAL ENERGIES
----------------

  NO   OCC          E(Eh)            E(eV)
   0   2.0000     -89.271981     -2429.2141
   1   2.0000     -24.865015      -676.6114
   2   2.0000     -19.219048      -522.9769
   3   2.0000     -19.215955      -522.8927
   4   2.0000     -10.287330      -279.9325
   5   2.0000     -10.251282      -278.9516
   6   2.0000      -8.240976      -224.2483
   7   2.0000      -6.186335      -168.3387
   8   2.0000      -6.180482      -168.1795
   9   2.0000      -6.179188      -168.1442
  10   2.0000      -1.362728       -37.0817
  11   2.0000      -1.141061       -31.0498
  12   2.0000      -1.045068       -28.4377
  13   2.0000      -0.836481       -22.7618
  14   2.0000      -0.734285       -19.9809
  15   2.0000      -0.683594       -18.6015
  16   2.0000      -0.590560       -16.0700
  17   2.0000      -0.572803       -15.5868
  18   2.0000      -0.557613       -15.1734
  19   2.0000      -0.504658       -13.7324
  20   2.0000      -0.489257       -13.3134
  21   2.0000      -0.466576       -12.6962
  22   2.0000      -0.445177       -12.1139
  23   2.0000      -0.416466       -11.3326
  24   2.0000      -0.412479       -11.2241
  25   2.0000      -0.391578       -10.6554
  26   2.0000      -0.349226        -9.5029
  27   2.0000      -0.337476        -9.1832
  28   2.0000      -0.328168        -8.9299
  29   0.0000       0.040064         1.0902
  30   0.0000       0.067077         1.8252
  31   0.0000       0.083907         2.2832
  32   0.0000       0.099426         2.7055
  33   0.0000       0.107982         2.9383

MULLIKEN ATOMIC CHARGES
-----------------------
   0 C :   -0.051780
   1 C :   -0.200277
   2 S :    0.976626
   3 H :    0.109392
   4 H :    0.087377
   5 O :   -0.433698
   6 F :   -0.224369
   7 O :   -0.449484
   8 H :    0.074536
   9 H :    0.052739
  10 H :    0.058938
Sum of atomic charges:   -0.0000000

LOEWDIN ATOMIC CHARGES
----------------------
   0 C :   -0.067154
   1 C :   -0.164170
   2 S :    1.154671
   3 H :    0.052090
   4 H :    0.037099
   5 O :   -0.470604
   6 F :   -0.165658
   7 O :   -0.483286
   8 H :    0.037799
   9 H :    0.030554
  10 H :    0.038658

  Mayer bond orders larger than 0.100000
B(  0-C ,  1-C ) :   1.0440 B(  0-C ,  8-H ) :   0.9683 B(  0-C ,  9-H ) :   0.9745
B(  0-C , 10-H ) :   0.9628 B(  1-C ,  2-S ) :   0.9184 B(  1-C ,  3-H ) :   0.9368
B(  1-C ,  4-H ) :   0.9336 B(  2-S ,  5-O ) :   1.7973 B(  2-S ,  6-F ) :   0.9606
B(  2-S ,  7-O ) :   1.7760

Dispersion correction           -0.007858204
FINAL SINGLE POINT ENERGY      -726.772094062186

DIPOLE MOMENT
-------------
                                X             Y             Z
Electronic contribution:     -6.58724      -6.67159       0.15198
Nuclear contribution   :      7.20921       7.65416       0.78523
                        -----------------------------------------
Total Dipole Moment    :      0.62198       0.98257       0.93722
                        -----------------------------------------
Magnitude (a.u.)       :      1.49355
Magnitude (Debye)      :      3.79629

Rotational constants in cm-1:     0.153780     0.081282     0.079816
Rotational constants in MHz :  4610.199589  2436.778679  2392.820729

                             ****ORCA TERMINATED NORMALLY****
TOTAL RUN TIME: 0 days 0 hours 0 minutes 12 seconds 184 msec
