                         Program Version 5.0.0 -  RELEASE  -
|  1> !PBE0 D3BJ RIJCOSX def2-SVP def2/J TightSCF
|  2> *xyz 0 1
|  3> C          0.96805        1.63064       -3.71575
|  4> C         -0.50835        1.72268       -4.12430
|  5> S         -1.32861        0.14674       -4.43578
|  6> H         -0.59151        2.29496       -5.04722
|  7> H         -1.11411        2.23561       -3.37436
|  8> O         -2.57135        0.47573       -5.06834
|  9> O         -1.51496       -0.40051       -3.06342
| 10> F         -0.37793       -0.62756       -5.20114
| 11> H          1.51840        1.12197       -4.47946
| 12> H          1.05062        1.08971       -2.79625
| 13> H          1.36450        2.61606       -3.58668
| 14> *
| 15> %MaxCore 64000
| 16>
| 17> %pal nprocs 4
| 18> end
| 19>
| 20> %scf
| 21>   MaxIter 150
| 22> end
| 23>
| 24>
| 25>                          ****END OF INPUT****

CARTESIAN COORDINATES (ANGSTROEM)
---------------------------------
  C      0.968050    1.630640   -3.715750
  C     -0.508350    1.722680   -4.124300
  S     -1.328610    0.146740   -4.435780
  H     -0.591510    2.294960   -5.047220
  H     -1.114110    2.235610   -3.374360
  O     -2.571350    0.475730   -5.068340
  O     -1.514960   -0.400510   -3.063420
  F     -0.377930   -0.627560   -5.201140
  H      1.518400    1.121970   -4.479460
  H      1.050620    1.089710   -2.796250
  H      1.364500    2.616060   -3.586680

 Total Charge           Charge          ....    0
 Multiplicity           Mult            ....    1
 Number of Electrons    NEL             ....   58
 Basis Dimension        Dim             ....  113

ORBITAL ENERGIES
----------------

  NO   OCC          E(Eh)            E(eV)
   0   2.0000     -89.273094     -2429.2444
   1   2.0000     -24.888571      -677.2524
   2   2.0000     -19.218977      -522.9750
   3   2.0000     -19.198081      -522.4063
   4   2.0000     -10.288057      -279.9523
   5   2.0000     -10.254927      -279.0508
   6   2.0000      -8.242258      -224.2833
   7   2.0000      -6.187959      -168.3829
   8   2.0000      -6.181395      -168.2043
   9   2.0000      -6.180227      -168.1725
  10   2.0000      -1.400905       -38.1206
  11   2.0000      -1.131037       -30.7771
  12   2.0000      -1.019433       -27.7402
  13   2.0000      -0.838726       -22.8229
  14   2.0000      -0.747304       -20.3352
  15   2.0000      -0.694059       -18.8863
  16   2.0000      -0.611909       -16.6509
  17   2.0000      -0.599342       -16.3089
  18   2.0000      -0.556701       -15.1486
  19   2.0000      -0.505446       -13.7539
  20   2.0000      -0.488804       -13.3010
  21   2.0000      -0.461871       -12.5681
  22   2.0000      -0.446533       -12.1508
  23   2.0000      -0.421872       -11.4797
  24   2.0000      -0.406153       -11.0520
  25   2.0000      -0.389906       -10.6099
  26   2.0000      -0.341578        -9.2948
  27   2.0000      -0.321330        -8.7438
  28   2.0000      -0.309557        -8.4235
  29   0.0000       0.034535         0.9398
  30   0.0000       0.068520         1.8645
  31   0.0000       0.078825         2.1449
  32   0.0000       0.102901         2.8001
  33   0.0000       0.108831         2.9614

MULLIKEN ATOMIC CHARGES
-----------------------
   0 C :   -0.059518
   1 C :   -0.190970
   2 S :    0.964418
   3 H :    0.085527
   4 H :    0.116801
   5 O :   -0.427506
   6 O :   -0.492500
   7 F :   -0.180923
   8 H :    0.050847
   9 H :    0.070399
  10 H :    0.063425
Sum of atomic charges:    0.0000000

LOEWDIN ATOMIC CHARGES
----------------------
   0 C :   -0.070029
   1 C :   -0.159097
   2 S :    1.148234
   3 H :    0.035389
   4 H :    0.056488
   5 O :   -0.466006
   6 O :   -0.530834
   7 F :   -0.119312
   8 H :    0.028299
   9 H :    0.036340
  10 H :    0.040527

  Mayer bond orders larger than 0.100000
B(  0-C ,  1-C ) :   1.0411 B(  0-C ,  8-H ) :   0.9737 B(  0-C ,  9-H ) :   0.9703
B(  0-C , 10-H ) :   0.9635 B(  1-C ,  2-S ) :   0.9242 B(  1-C ,  3-H ) :   0.9338
B(  1-C ,  4-H ) :   0.9349 B(  2-S ,  5-O ) :   1.7926 B(  2-S ,  6-O ) :   1.7249
B(  2-S ,  7-F ) :   1.0083

Dispersion correction           -0.007845164
FINAL SINGLE POINT ENERGY      -726.750914632987

DIPOLE MOMENT
-------------
                                X             Y             Z
Electronic contribution:     -4.65815      -7.03625      -3.46761
Nuclear contribution   :      6.02439       7.89075       3.01280
                        -----------------------------------------
Total Dipole Moment    :      1.36624       0.85450      -0.45481
                        -----------------------------------------
Magnitude (a.u.)       :      1.67441
Magnitude (Debye)      :      4.25601

Rotational constants in cm-1:     0.153652     0.082400     0.079295
Rotational constants in MHz :  4606.361242  2470.285703  2377.214112

                             ****ORCA TERMINATED NORMALLY****
TOTAL RUN TIME: 0 days 0 hours 0 minutes 12 seconds 248 msec
