                         Program Version 5.0.0 -  RELEASE  -
|  1> !PBE0 D3BJ RIJCOSX def2-TZVP def2/J TightSCF xyzfile
|  2>
|  3> *xyzfile 0 1 D1.xyz
|  4>
|  5> %MaxCore 64000
|  6>
|  7> %pal nprocs 18
|  8> end
|  9>
| 10> %scf
| 11>   MaxIter 150
| 12> end
| 13>
| 14>
| 15>                          ****END OF INPUT****

CARTESIAN COORDINATES (ANGSTROEM)
---------------------------------
  C      1.364014    0.468742   -2.813764
  C      0.428844    0.321402   -1.655312
  C      0.968045    1.630639   -3.715749
  C     -0.508347    1.722679   -4.124300
  S     -1.328608    0.146737   -4.435781
  H     -0.591511    2.294958   -5.047219
  H     -1.114114    2.235610   -3.374362
  H      0.748578   -0.400542   -1.001345
  H     -0.461053    0.023332   -2.077731
  H      0.310258    1.201375   -1.134948
  F     -2.571347    0.475733   -5.068341
  O     -1.514963   -0.400512   -3.063420
  H      1.294847   -0.468742   -3.364684
  H      2.376216    0.597400   -2.431495
  H      1.578688    1.520652   -4.612733
  H      1.266653    2.575988   -3.250448
  O     -0.377928   -0.627558   -5.201141

 Total Charge           Charge          ....    0
 Multiplicity           Mult            ....    1
 Number of Electrons    NEL             ....   74
 Basis Dimension        Dim             ....  308

ORBITAL ENERGIES
----------------

  NO   OCC          E(Eh)            E(eV)
   0   2.0000     -89.267906     -2429.1032
   1   2.0000     -24.902088      -677.6203
   2   2.0000     -19.224136      -523.1153
   3   2.0000     -19.211998      -522.7850
   4   2.0000     -10.281154      -279.7644
   5   2.0000     -10.242027      -278.6997
   6   2.0000     -10.205639      -277.7096
   7   2.0000     -10.146396      -276.0975
   8   2.0000      -8.214239      -223.5208
   9   2.0000      -6.154464      -167.4715
  10   2.0000      -6.148256      -167.3025
  11   2.0000      -6.148138      -167.2993
  12   2.0000      -1.429561       -38.9003
  13   2.0000      -1.139675       -31.0121
  14   2.0000      -1.043214       -28.3873
  15   2.0000      -0.853403       -23.2223
  16   2.0000      -0.797182       -21.6924
  17   2.0000      -0.745265       -20.2797
  18   2.0000      -0.697105       -18.9692
  19   2.0000      -0.627442       -17.0736
  20   2.0000      -0.617157       -16.7937
  21   2.0000      -0.597018       -16.2457
  22   2.0000      -0.564550       -15.3622
  23   2.0000      -0.521383       -14.1876
  24   2.0000      -0.508416       -13.8347
  25   2.0000      -0.475808       -12.9474
  26   2.0000      -0.471961       -12.8427
  27   2.0000      -0.436250       -11.8710
  28   2.0000      -0.417773       -11.3682
  29   2.0000      -0.413334       -11.2474
  30   2.0000      -0.398978       -10.8567
  31   2.0000      -0.368979       -10.0404
  32   2.0000      -0.359253        -9.7758
  33   2.0000      -0.334002        -9.0887
  34   2.0000      -0.332468        -9.0469
  35   2.0000      -0.327001        -8.8981
  36   2.0000      -0.289430        -7.8758
  37   0.0000       0.024388         0.6636
  38   0.0000       0.033318         0.9066
  39   0.0000       0.063391         1.7250
  40   0.0000       0.069339         1.8868
  41   0.0000       0.077312         2.1038

MULLIKEN ATOMIC CHARGES
-----------------------
   0 C :   -0.221957
   1 C :   -0.379873
   2 C :   -0.206636
   3 C :   -0.292325
   4 S :    0.819694
   5 H :    0.152705
   6 H :    0.156522
   7 H :    0.104200
   8 H :    0.179563
   9 H :    0.081963
  10 F :   -0.078649
  11 O :   -0.407098
  12 H :    0.136493
  13 H :    0.100269
  14 H :    0.121617
  15 H :    0.123709
  16 O :   -0.390197
Sum of atomic charges:   -0.0000000

LOEWDIN ATOMIC CHARGES
----------------------
   0 C :   -0.307548
   1 C :   -0.318559
   2 C :   -0.278575
   3 C :   -0.370169
   4 S :    0.530967
   5 H :    0.138524
   6 H :    0.143888
   7 H :    0.105783
   8 H :    0.087031
   9 H :    0.101002
  10 F :    0.113343
  11 O :   -0.267457
  12 H :    0.143923
  13 H :    0.134397
  14 H :    0.146428
  15 H :    0.147815
  16 O :   -0.250793

  Mayer bond orders larger than 0.100000
B(  0-C ,  1-C ) :   0.9756 B(  0-C ,  2-C ) :   1.0106 B(  0-C , 12-H ) :   0.9682
B(  0-C , 13-H ) :   0.9560 B(  1-C ,  7-H ) :   0.9672 B(  1-C ,  8-H ) :   0.9470
B(  1-C ,  9-H ) :   0.9721 B(  2-C ,  3-C ) :   0.9943 B(  2-C , 14-H ) :   0.9599
B(  2-C , 15-H ) :   0.9452 B(  3-C ,  4-S ) :   0.9323 B(  3-C ,  5-H ) :   0.9340
B(  3-C ,  6-H ) :   0.9319 B(  4-S , 10-F ) :   1.1643 B(  4-S , 11-O ) :   1.8028
B(  4-S , 16-O ) :   1.9258

Dispersion correction           -0.015340523
FINAL SINGLE POINT ENERGY      -805.863690123411

DIPOLE MOMENT
-------------
                                X             Y             Z
Electronic contribution:    -12.49411      -4.10341      -9.73956
Nuclear contribution   :     12.25227       5.48563       9.26621
                        -----------------------------------------
Total Dipole Moment    :     -0.24184       1.38222      -0.47336
                        -----------------------------------------
Magnitude (a.u.)       :      1.48091
Magnitude (Debye)      :      3.76418

Rotational constants in cm-1:     0.103176     0.044975     0.040960
Rotational constants in MHz :  3093.138469  1348.317425  1227.945122

                             ****ORCA TERMINATED NORMALLY****
TOTAL RUN TIME: 0 days 0 hours 0 minutes 23 seconds 423 msec
