                         Program Version 5.0.0 -  RELEASE  -
|  1> !PBE0 D3BJ RIJCOSX def2-TZVP def2/J TightSCF xyzfile
|  2>
|  3> *xyzfile 0 1 D3.xyz
|  4>
|  5> %MaxCore 64000
|  6>
|  7> %pal nprocs 18
|  8> end
|  9>
| 10> %scf
| 11>   MaxIter 150
| 12> end
| 13>
| 14>
| 15>                          ****END OF INPUT****

CARTESIAN COORDINATES (ANGSTROEM)
---------------------------------
  C      1.364014    0.468742   -2.813764
  C      0.428844    0.321402   -1.655312
  C      0.968045    1.630639   -3.715749
  C     -0.508347    1.722679   -4.124300
  S     -1.328608    0.146737   -4.435781
  H     -0.591511    2.294958   -5.047219
  H     -1.114114    2.235610   -3.374362
  H      0.748578   -0.400542   -1.001345
  H     -0.461053    0.023332   -2.077731
  H      0.310258    1.201375   -1.134948
  O     -2.571347    0.475733   -5.068341
  O     -1.514963   -0.400512   -3.063420
  H      1.294847   -0.468742   -3.364684
  H      2.376216    0.597400   -2.431495
  H      1.578688    1.520652   -4.612733
  H      1.266653    2.575988   -3.250448
  F     -0.377928   -0.627558   -5.201141

 Total Charge           Charge          ....    0
 Multiplicity           Mult            ....    1
 Number of Electrons    NEL             ....   74
 Basis Dimension        Dim             ....  308

ORBITAL ENERGIES
----------------

  NO   OCC          E(Eh)            E(eV)
   0   2.0000     -89.267843     -2429.1015
   1   2.0000     -24.897115      -677.4849
   2   2.0000     -19.227377      -523.2035
   3   2.0000     -19.211252      -522.7647
   4   2.0000     -10.280902      -279.7576
   5   2.0000     -10.245931      -278.8060
   6   2.0000     -10.217699      -278.0377
   7   2.0000     -10.150727      -276.2153
   8   2.0000      -8.214155      -223.5185
   9   2.0000      -6.154537      -167.4735
  10   2.0000      -6.148225      -167.3017
  11   2.0000      -6.147877      -167.2922
  12   2.0000      -1.420262       -38.6473
  13   2.0000      -1.144478       -31.1428
  14   2.0000      -1.046902       -28.4876
  15   2.0000      -0.859671       -23.3928
  16   2.0000      -0.796334       -21.6693
  17   2.0000      -0.744969       -20.2716
  18   2.0000      -0.699436       -19.0326
  19   2.0000      -0.631541       -17.1851
  20   2.0000      -0.611228       -16.6324
  21   2.0000      -0.603172       -16.4131
  22   2.0000      -0.562286       -15.3006
  23   2.0000      -0.516124       -14.0444
  24   2.0000      -0.510561       -13.8931
  25   2.0000      -0.484879       -13.1942
  26   2.0000      -0.474058       -12.8998
  27   2.0000      -0.441684       -12.0188
  28   2.0000      -0.424902       -11.5622
  29   2.0000      -0.411427       -11.1955
  30   2.0000      -0.404690       -11.0122
  31   2.0000      -0.380176       -10.3451
  32   2.0000      -0.358259        -9.7487
  33   2.0000      -0.345316        -9.3965
  34   2.0000      -0.343749        -9.3539
  35   2.0000      -0.333905        -9.0860
  36   2.0000      -0.284893        -7.7523
  37   0.0000       0.016351         0.4449
  38   0.0000       0.042573         1.1585
  39   0.0000       0.056428         1.5355
  40   0.0000       0.070291         1.9127
  41   0.0000       0.071969         1.9584

MULLIKEN ATOMIC CHARGES
-----------------------
   0 C :   -0.223906
   1 C :   -0.374717
   2 C :   -0.233288
   3 C :   -0.287852
   4 S :    0.828344
   5 H :    0.162512
   6 H :    0.170714
   7 H :    0.104191
   8 H :    0.186362
   9 H :    0.086526
  10 O :   -0.384467
  11 O :   -0.408571
  12 H :    0.105693
  13 H :    0.107822
  14 H :    0.121534
  15 H :    0.124395
  16 F :   -0.085291
Sum of atomic charges:    0.0000000

LOEWDIN ATOMIC CHARGES
----------------------
   0 C :   -0.312795
   1 C :   -0.320089
   2 C :   -0.291312
   3 C :   -0.361819
   4 S :    0.537683
   5 H :    0.142410
   6 H :    0.154969
   7 H :    0.105716
   8 H :    0.085456
   9 H :    0.102769
  10 O :   -0.242002
  11 O :   -0.263827
  12 H :    0.133356
  13 H :    0.136620
  14 H :    0.141369
  15 H :    0.147482
  16 F :    0.104016

  Mayer bond orders larger than 0.100000
B(  0-C ,  1-C ) :   0.9693 B(  0-C ,  2-C ) :   0.9953 B(  0-C , 12-H ) :   0.9780
B(  0-C , 13-H ) :   0.9557 B(  1-C ,  7-H ) :   0.9666 B(  1-C ,  8-H ) :   0.9410
B(  1-C ,  9-H ) :   0.9707 B(  2-C ,  3-C ) :   0.9854 B(  2-C , 14-H ) :   0.9665
B(  2-C , 15-H ) :   0.9437 B(  3-C ,  4-S ) :   0.9275 B(  3-C ,  5-H ) :   0.9398
B(  3-C ,  6-H ) :   0.9343 B(  4-S , 10-O ) :   1.9817 B(  4-S , 11-O ) :   1.7922
B(  4-S , 16-F ) :   1.1421

Dispersion correction           -0.015219315
FINAL SINGLE POINT ENERGY      -805.867560753098

DIPOLE MOMENT
-------------
                                X             Y             Z
Electronic contribution:     -8.68590      -5.98403      -9.92026
Nuclear contribution   :      9.83476       6.70164       9.41257
                        -----------------------------------------
Total Dipole Moment    :      1.14887       0.71760      -0.50769
                        -----------------------------------------
Magnitude (a.u.)       :      1.44658
Magnitude (Debye)      :      3.67692

Rotational constants in cm-1:     0.099832     0.045916     0.042219
Rotational constants in MHz :  2992.874960  1376.530174  1265.693813

                             ****ORCA TERMINATED NORMALLY****
TOTAL RUN TIME: 0 days 0 hours 0 minutes 23 seconds 46 msec
