                         Program Version 5.0.0 -  RELEASE  -
|  1> !PBE0 D3BJ RIJCOSX def2-SVP def2/J TightSCF
|  2> *xyz -1 1
|  3> C          4.90646       -3.10282       -5.95484
|  4> C          3.51177       -2.80621       -6.49228
|  5> H          2.73604       -3.37345       -5.97374
|  6> H          3.44490       -3.04083       -7.55528
|  7> S          3.00462       -1.09621       -6.38926
|  8> O          4.12886       -0.32965       -6.95372
|  9> O          1.78128       -1.00078       -7.13640
| 10> O          2.85155       -0.78368       -4.95679
| 11> H          5.62703       -2.52424       -6.49422
| 12> H          5.12164       -4.14387       -6.07654
| 13> H          4.95004       -2.84862       -4.91639
| 14> *
| 15>
| 16> %MaxCore 64000
| 17>
| 18> %pal nprocs 4
| 19> end
| 20>
| 21> %scf
| 22>   MaxIter 150
| 23> end
| 24>
| 25>
| 26>                          ****END OF INPUT****

CARTESIAN COORDINATES (ANGSTROEM)
---------------------------------
  C      4.906460   -3.102820   -5.954840
  C      3.511770   -2.806210   -6.492280
  H      2.736040   -3.373450   -5.973740
  H      3.444900   -3.040830   -7.555280
  S      3.004620   -1.096210   -6.389260
  O      4.128860   -0.329650   -6.953720
  O      1.781280   -1.000780   -7.136400
  O      2.851550   -0.783680   -4.956790
  H      5.627030   -2.524240   -6.494220
  H      5.121640   -4.143870   -6.076540
  H      4.950040   -2.848620   -4.916390

 Total Charge           Charge          ....   -1
 Multiplicity           Mult            ....    1
 Number of Electrons    NEL             ....   58
 Basis Dimension        Dim             ....  113

ORBITAL ENERGIES
----------------

  NO   OCC          E(Eh)            E(eV)
   0   2.0000     -88.997407     -2421.7426
   1   2.0000     -18.964069      -516.0385
   2   2.0000     -18.951399      -515.6938
   3   2.0000     -18.950152      -515.6599
   4   2.0000     -10.082756      -274.3657
   5   2.0000     -10.081361      -274.3278
   6   2.0000      -7.964177      -216.7163
   7   2.0000      -5.905787      -160.7046
   8   2.0000      -5.905680      -160.7017
   9   2.0000      -5.905512      -160.6971
  10   2.0000      -0.928164       -25.2566
  11   2.0000      -0.784929       -21.3590
  12   2.0000      -0.762928       -20.7603
  13   2.0000      -0.642254       -17.4766
  14   2.0000      -0.514977       -14.0132
  15   2.0000      -0.379017       -10.3136
  16   2.0000      -0.324571        -8.8320
  17   2.0000      -0.311457        -8.4752
  18   2.0000      -0.276510        -7.5242
  19   2.0000      -0.255868        -6.9625
  20   2.0000      -0.251530        -6.8445
  21   2.0000      -0.230192        -6.2638
  22   2.0000      -0.214486        -5.8365
  23   2.0000      -0.134376        -3.6566
  24   2.0000      -0.133712        -3.6385
  25   2.0000      -0.100213        -2.7269
  26   2.0000      -0.092009        -2.5037
  27   2.0000      -0.085001        -2.3130
  28   2.0000      -0.046263        -1.2589
  29   0.0000       0.213239         5.8025
  30   0.0000       0.263757         7.1772
  31   0.0000       0.269122         7.3232
  32   0.0000       0.277192         7.5428
  33   0.0000       0.305365         8.3094

MULLIKEN ATOMIC CHARGES
-----------------------
   0 C :   -0.025813
   1 C :   -0.151969
   2 H :    0.023398
   3 H :    0.023637
   4 S :    0.881663
   5 O :   -0.612495
   6 O :   -0.572696
   7 O :   -0.614300
   8 H :    0.031564
   9 H :   -0.010631
  10 H :    0.027641
Sum of atomic charges:   -1.0000000

LOEWDIN ATOMIC CHARGES
----------------------
   0 C :   -0.081461
   1 C :   -0.195278
   2 H :    0.010960
   3 H :    0.011180
   4 S :    1.094006
   5 O :   -0.640644
   6 O :   -0.601446
   7 O :   -0.644394
   8 H :    0.021327
   9 H :    0.005248
  10 H :    0.020502

  Mayer bond orders larger than 0.100000
B(  0-C ,  1-C ) :   1.0503 B(  0-C ,  8-H ) :   0.9656 B(  0-C ,  9-H ) :   0.9640
B(  0-C , 10-H ) :   0.9679 B(  1-C ,  2-H ) :   0.9412 B(  1-C ,  3-H ) :   0.9409
B(  1-C ,  4-S ) :   0.8903 B(  4-S ,  5-O ) :   1.5832 B(  4-S ,  6-O ) :   1.6368
B(  4-S ,  7-O ) :   1.5893

Dispersion correction           -0.008269804
FINAL SINGLE POINT ENERGY      -702.265045062207

DIPOLE MOMENT
-------------
                                X             Y             Z
Electronic contribution:     -4.42662       6.51175      -0.66860
Nuclear contribution   :      5.05690      -8.21735       0.57889
                        -----------------------------------------
Total Dipole Moment    :      0.63028      -1.70561      -0.08970
                        -----------------------------------------
Magnitude (a.u.)       :      1.82055
Magnitude (Debye)      :      4.62747

Rotational constants in cm-1:     0.162547     0.083494     0.081672
Rotational constants in MHz :  4873.033504  2503.090885  2448.458543

                             ****ORCA TERMINATED NORMALLY****
TOTAL RUN TIME: 0 days 0 hours 0 minutes 8 seconds 34 msec
