                         Program Version 5.0.0 -  RELEASE  -
|  1> !PBE0 D3BJ RIJCOSX def2-SVP def2/J TightSCF
|  2> *xyz 1 1
|  3> C          4.49059        1.15590       -2.46929
|  4> N          4.30539        1.22276       -3.90832
|  5> C          4.63192        2.24637       -4.67096
|  6> N          4.54169        2.14399       -5.98714
|  7> N          5.08409        3.39358       -4.11855
|  8> H          4.92067        3.57050       -3.13587
|  9> H          5.25465        4.19739       -4.70696
| 10> H          3.82453        0.44911       -4.35093
| 11> H          4.34337        1.24932       -6.41665
| 12> H          4.67671        2.95662       -6.57411
| 13> C          5.94213        0.93950       -2.03689
| 14> H          3.86431        0.32853       -2.13661
| 15> H          4.07623        2.04999       -1.98901
| 16> H          6.32982        0.06401       -2.51451
| 17> H          5.98308        0.81426       -0.97504
| 18> H          6.52865        1.78889       -2.31873
| 19> *
| 20>
| 21> %MaxCore 64000
| 22>
| 23> %pal nprocs 4
| 24> end
| 25>
| 26> %scf
| 27>   MaxIter 150
| 28> end
| 29>
| 30>
| 31>                          ****END OF INPUT****

CARTESIAN COORDINATES (ANGSTROEM)
---------------------------------
  C      4.490590    1.155900   -2.469290
  N      4.305390    1.222760   -3.908320
  C      4.631920    2.246370   -4.670960
  N      4.541690    2.143990   -5.987140
  N      5.084090    3.393580   -4.118550
  H      4.920670    3.570500   -3.135870
  H      5.254650    4.197390   -4.706960
  H      3.824530    0.449110   -4.350930
  H      4.343370    1.249320   -6.416650
  H      4.676710    2.956620   -6.574110
  C      5.942130    0.939500   -2.036890
  H      3.864310    0.328530   -2.136610
  H      4.076230    2.049990   -1.989010
  H      6.329820    0.064010   -2.514510
  H      5.983080    0.814260   -0.975040
  H      6.528650    1.788890   -2.318730

 Total Charge           Charge          ....    1
 Multiplicity           Mult            ....    1
 Number of Electrons    NEL             ....   48
 Basis Dimension        Dim             ....  134

ORBITAL ENERGIES
----------------

  NO   OCC          E(Eh)            E(eV)
   0   2.0000     -14.617822      -397.7712
   1   2.0000     -14.617625      -397.7658
   2   2.0000     -14.614364      -397.6771
   3   2.0000     -10.564324      -287.4699
   4   2.0000     -10.438204      -284.0380
   5   2.0000     -10.365158      -282.0503
   6   2.0000      -1.234742       -33.5990
   7   2.0000      -1.122853       -30.5544
   8   2.0000      -1.105853       -30.0918
   9   2.0000      -0.945581       -25.7306
  10   2.0000      -0.859022       -23.3752
  11   2.0000      -0.815546       -22.1921
  12   2.0000      -0.801966       -21.8226
  13   2.0000      -0.756650       -20.5895
  14   2.0000      -0.706404       -19.2222
  15   2.0000      -0.704026       -19.1575
  16   2.0000      -0.674077       -18.3426
  17   2.0000      -0.639352       -17.3976
  18   2.0000      -0.614872       -16.7315
  19   2.0000      -0.570164       -15.5150
  20   2.0000      -0.540715       -14.7136
  21   2.0000      -0.520624       -14.1669
  22   2.0000      -0.486515       -13.2387
  23   2.0000      -0.460780       -12.5385
  24   0.0000      -0.151214        -4.1147
  25   0.0000      -0.126394        -3.4394
  26   0.0000      -0.092390        -2.5141
  27   0.0000      -0.085511        -2.3269
  28   0.0000      -0.065996        -1.7958

MULLIKEN ATOMIC CHARGES
-----------------------
   0 C :   -0.036825
   1 N :   -0.175482
   2 C :    0.144506
   3 N :   -0.069780
   4 N :   -0.105244
   5 H :    0.181796
   6 H :    0.178760
   7 H :    0.180632
   8 H :    0.184138
   9 H :    0.184476
  10 C :   -0.043370
  11 H :    0.089523
  12 H :    0.078940
  13 H :    0.069519
  14 H :    0.088900
  15 H :    0.049509
Sum of atomic charges:    1.0000000

LOEWDIN ATOMIC CHARGES
----------------------
   0 C :    0.029306
   1 N :    0.028688
   2 C :    0.147296
   3 N :    0.047833
   4 N :    0.033787
   5 H :    0.108001
   6 H :    0.111193
   7 H :    0.111423
   8 H :    0.114536
   9 H :    0.114249
  10 C :   -0.056075
  11 H :    0.053671
  12 H :    0.034854
  13 H :    0.040285
  14 H :    0.052276
  15 H :    0.028678

  Mayer bond orders larger than 0.100000
B(  0-C ,  1-N ) :   0.9305 B(  0-C , 10-C ) :   1.0818 B(  0-C , 11-H ) :   0.9471
B(  0-C , 12-H ) :   0.9531 B(  1-N ,  2-C ) :   1.3705 B(  1-N ,  7-H ) :   0.9121
B(  2-C ,  3-N ) :   1.3977 B(  2-C ,  4-N ) :   1.3637 B(  3-N ,  8-H ) :   0.9233
B(  3-N ,  9-H ) :   0.9244 B(  4-N ,  5-H ) :   0.9204 B(  4-N ,  6-H ) :   0.9267
B( 10-C , 13-H ) :   0.9664 B( 10-C , 14-H ) :   0.9637 B( 10-C , 15-H ) :   0.9689

Dispersion correction           -0.010484929
FINAL SINGLE POINT ENERGY      -283.874629852824

DIPOLE MOMENT
-------------
                                X             Y             Z
Electronic contribution:     -1.83837       1.62191      -4.54438
Nuclear contribution   :      1.34333      -1.11039       3.43667
                        -----------------------------------------
Total Dipole Moment    :     -0.49505       0.51152      -1.10771
                        -----------------------------------------
Magnitude (a.u.)       :      1.31672
Magnitude (Debye)      :      3.34683

Rotational constants in cm-1:     0.227161     0.075356     0.065003
Rotational constants in MHz :  6810.114531  2259.122204  1948.738523

                             ****ORCA TERMINATED NORMALLY****
TOTAL RUN TIME: 0 days 0 hours 0 minutes 10 seconds 71 msec
