                         Program Version 5.0.0 -  RELEASE  -
|  1> !PBE0 D3BJ RIJCOSX def2-TZVP def2/J TightSCF xyzfile
|  2>
|  3> *xyzfile 0 1 B.xyz
|  4>
|  5> %MaxCore 64000
|  6>
|  7> %pal nprocs 18
|  8> end
|  9>
| 10> %scf
| 11>   MaxIter 150
| 12> end
| 13>
| 14>
| 15>                          ****END OF INPUT****

CARTESIAN COORDINATES (ANGSTROEM)
---------------------------------
  C      4.490588    1.155899   -2.469290
  N      4.305394    1.222762   -3.908317
  C      4.906458   -3.102816   -5.954844
  C      3.511771   -2.806215   -6.492283
  H      2.736044   -3.373445   -5.973736
  H      3.444904   -3.040831   -7.555281
  S      3.004618   -1.096206   -6.389259
  C      4.631918    2.246365   -4.670958
  N      4.541686    2.143990   -5.987139
  N      5.084086    3.393584   -4.118545
  H      4.920675    3.570501   -3.135870
  H      5.254652    4.197390   -4.706956
  H      3.824530    0.449113   -4.350926
  H      4.343373    1.249318   -6.416646
  H      4.676712    2.956624   -6.574113
  O      4.128856   -0.329647   -6.953717
  O      1.781285   -1.000779   -7.136399
  C      5.942129    0.939500   -2.036893
  H      3.864305    0.328532   -2.136611
  H      4.076233    2.049994   -1.989010
  C      6.462677   -3.117775   -3.944671
  C      5.024977   -3.025679   -4.437625
  H      4.423321   -3.818693   -3.977648
  H      4.579350   -2.087131   -4.108727
  H      5.201533   -4.100207   -6.296905
  H      5.605922   -2.397822   -6.413368
  C      6.559957   -0.356290   -2.559086
  H      5.967976    0.952567   -0.942444
  H      6.547184    1.788331   -2.368849
  C      6.006283   -1.615917   -1.899301
  H      7.642360   -0.318000   -2.402059
  H      6.414855   -0.403433   -3.642587
  C      6.608718   -2.917014   -2.435655
  H      6.190324   -1.561115   -0.820948
  H      4.919250   -1.651245   -2.016586
  H      7.066975   -2.374258   -4.475514
  H      6.887808   -4.089747   -4.215332
  H      6.135197   -3.755573   -1.915159
  H      7.671142   -2.955503   -2.172291
  O      2.851546   -0.783683   -4.956789

 Total Charge           Charge          ....    0
 Multiplicity           Mult            ....    1
 Number of Electrons    NEL             ....  144
 Basis Dimension        Dim             ....  671

ORBITAL ENERGIES
----------------

  NO   OCC          E(Eh)            E(eV)
   0   2.0000     -89.153554     -2425.9916
   1   2.0000     -19.142710      -520.8996
   2   2.0000     -19.142446      -520.8924
   3   2.0000     -19.127728      -520.4919
   4   2.0000     -14.458030      -393.4230
   5   2.0000     -14.428529      -392.6202
   6   2.0000     -14.424197      -392.5023
   7   2.0000     -10.389457      -282.7115
   8   2.0000     -10.286225      -279.9024
   9   2.0000     -10.240831      -278.6672
  10   2.0000     -10.224194      -278.2145
  11   2.0000     -10.217390      -278.0293
  12   2.0000     -10.212285      -277.8904
  13   2.0000     -10.210564      -277.8436
  14   2.0000     -10.205045      -277.6934
  15   2.0000     -10.202663      -277.6286
  16   2.0000     -10.195300      -277.4282
  17   2.0000      -8.099863      -220.4085
  18   2.0000      -6.036897      -164.2723
  19   2.0000      -6.036341      -164.2572
  20   2.0000      -6.035368      -164.2307
  21   2.0000      -1.108020       -30.1508
  22   2.0000      -1.079279       -29.3687
  23   2.0000      -0.974075       -26.5059
  24   2.0000      -0.971593       -26.4384
  25   2.0000      -0.964498       -26.2453
  26   2.0000      -0.953043       -25.9336
  27   2.0000      -0.847500       -23.0616
  28   2.0000      -0.821189       -22.3457
  29   2.0000      -0.793687       -21.5973
  30   2.0000      -0.756306       -20.5801
  31   2.0000      -0.720009       -19.5924
  32   2.0000      -0.694956       -18.9107
  33   2.0000      -0.665860       -18.1190
  34   2.0000      -0.643672       -17.5152
  35   2.0000      -0.632985       -17.2244
  36   2.0000      -0.610904       -16.6235
  37   2.0000      -0.592756       -16.1297
  38   2.0000      -0.567325       -15.4377
  39   2.0000      -0.559329       -15.2201
  40   2.0000      -0.553056       -15.0494
  41   2.0000      -0.528832       -14.3903
  42   2.0000      -0.518176       -14.1003
  43   2.0000      -0.498724       -13.5710
  44   2.0000      -0.491837       -13.3836
  45   2.0000      -0.478118       -13.0103
  46   2.0000      -0.472474       -12.8567
  47   2.0000      -0.462806       -12.5936
  48   2.0000      -0.447213       -12.1693
  49   2.0000      -0.443949       -12.0805
  50   2.0000      -0.437740       -11.9115
  51   2.0000      -0.427835       -11.6420
  52   2.0000      -0.418832       -11.3970
  53   2.0000      -0.410268       -11.1640
  54   2.0000      -0.400240       -10.8911
  55   2.0000      -0.392173       -10.6716
  56   2.0000      -0.376455       -10.2439
  57   2.0000      -0.368419       -10.0252
  58   2.0000      -0.358815        -9.7639
  59   2.0000      -0.345212        -9.3937
  60   2.0000      -0.336663        -9.1611
  61   2.0000      -0.333160        -9.0657
  62   2.0000      -0.328037        -8.9263
  63   2.0000      -0.323565        -8.8046
  64   2.0000      -0.320239        -8.7141
  65   2.0000      -0.317608        -8.6425
  66   2.0000      -0.312229        -8.4962
  67   2.0000      -0.297581        -8.0976
  68   2.0000      -0.281807        -7.6684
  69   2.0000      -0.273694        -7.4476
  70   2.0000      -0.264818        -7.2061
  71   2.0000      -0.238828        -6.4988
  72   0.0000      -0.008768        -0.2386
  73   0.0000       0.000355         0.0097
  74   0.0000       0.023899         0.6503
  75   0.0000       0.046516         1.2658
  76   0.0000       0.055020         1.4972

MULLIKEN ATOMIC CHARGES
-----------------------
   0 C :   -0.267793
   1 N :   -0.190438
   2 C :   -0.164218
   3 C :   -0.210566
   4 H :    0.116000
   5 H :    0.133510
   6 S :    0.834180
   7 C :    0.387188
   8 N :   -0.396055
   9 N :   -0.456340
  10 H :    0.269087
  11 H :    0.253231
  12 H :    0.252791
  13 H :    0.296580
  14 H :    0.241073
  15 O :   -0.592890
  16 O :   -0.477907
  17 C :   -0.126512
  18 H :    0.173055
  19 H :    0.130283
  20 C :   -0.202022
  21 C :   -0.292643
  22 H :    0.085832
  23 H :    0.118576
  24 H :    0.096082
  25 H :    0.113367
  26 C :   -0.248182
  27 H :    0.105831
  28 H :    0.113830
  29 C :   -0.262788
  30 H :    0.108198
  31 H :    0.134857
  32 C :   -0.129136
  33 H :    0.100251
  34 H :    0.124509
  35 H :    0.106993
  36 H :    0.100492
  37 H :    0.099041
  38 H :    0.097795
  39 O :   -0.575145
Sum of atomic charges:    0.0000000

LOEWDIN ATOMIC CHARGES
----------------------
   0 C :   -0.277715
   1 N :    0.181316
   2 C :   -0.292199
   3 C :   -0.381370
   4 H :    0.136838
   5 H :    0.138839
   6 S :    0.443191
   7 C :   -0.425975
   8 N :    0.066519
   9 N :    0.017593
  10 H :    0.181717
  11 H :    0.179964
  12 H :    0.174497
  13 H :    0.157309
  14 H :    0.178683
  15 O :   -0.371402
  16 O :   -0.314373
  17 C :   -0.273651
  18 H :    0.151004
  19 H :    0.128656
  20 C :   -0.275701
  21 C :   -0.277252
  22 H :    0.136389
  23 H :    0.137880
  24 H :    0.137022
  25 H :    0.142401
  26 C :   -0.269326
  27 H :    0.143376
  28 H :    0.135545
  29 C :   -0.274788
  30 H :    0.140415
  31 H :    0.143895
  32 C :   -0.270297
  33 H :    0.136290
  34 H :    0.137456
  35 H :    0.135537
  36 H :    0.136257
  37 H :    0.138666
  38 H :    0.136039
  39 O :   -0.369247

  Mayer bond orders larger than 0.100000
B(  0-C ,  1-N ) :   0.9248 B(  0-C , 17-C ) :   0.9689 B(  0-C , 18-H ) :   0.9610
B(  0-C , 19-H ) :   0.9720 B(  1-N ,  7-C ) :   1.4275 B(  1-N , 12-H ) :   0.7911
B(  2-C ,  3-C ) :   0.9923 B(  2-C , 21-C ) :   1.0256 B(  2-C , 24-H ) :   0.9438
B(  2-C , 25-H ) :   0.9482 B(  3-C ,  4-H ) :   0.9495 B(  3-C ,  5-H ) :   0.9488
B(  3-C ,  6-S ) :   0.9008 B(  6-S , 15-O ) :   1.5653 B(  6-S , 16-O ) :   1.9330
B(  6-S , 39-O ) :   1.5694 B(  7-C ,  8-N ) :   1.4204 B(  7-C ,  9-N ) :   1.2584
B(  8-N , 13-H ) :   0.7744 B(  8-N , 14-H ) :   0.9101 B(  9-N , 10-H ) :   0.8938
B(  9-N , 11-H ) :   0.9082 B( 12-H , 39-O ) :   0.1849 B( 13-H , 15-O ) :   0.1769
B( 17-C , 26-C ) :   0.9923 B( 17-C , 27-H ) :   0.9534 B( 17-C , 28-H ) :   0.9579
B( 20-C , 21-C ) :   0.9956 B( 20-C , 32-C ) :   0.9964 B( 20-C , 35-H ) :   0.9715
B( 20-C , 36-H ) :   0.9545 B( 21-C , 22-H ) :   0.9541 B( 21-C , 23-H ) :   0.9608
B( 26-C , 29-C ) :   1.0003 B( 26-C , 30-H ) :   0.9534 B( 26-C , 31-H ) :   0.9621
B( 29-C , 32-C ) :   1.0062 B( 29-C , 33-H ) :   0.9494 B( 29-C , 34-H ) :   0.9702
B( 32-C , 37-H ) :   0.9597 B( 32-C , 38-H ) :   0.9611

Dispersion correction           -0.042828127
FINAL SINGLE POINT ENERGY     -1182.413852132577

DIPOLE MOMENT
-------------
                                X             Y             Z
Electronic contribution:    -14.54037       8.40848     -15.35336
Nuclear contribution   :     16.79156      -5.47215      17.54258
                        -----------------------------------------
Total Dipole Moment    :      2.25119       2.93633       2.18922
                        -----------------------------------------
Magnitude (a.u.)       :      4.29914
Magnitude (Debye)      :     10.92754

Rotational constants in cm-1:     0.014207     0.012373     0.007472
Rotational constants in MHz :   425.900436   370.942493   224.006604

                             ****ORCA TERMINATED NORMALLY****
TOTAL RUN TIME: 0 days 0 hours 1 minutes 21 seconds 85 msec
