                         Program Version 5.0.0 -  RELEASE  -
|  1> !PBE0 D3BJ RIJCOSX def2-SVP def2/J TightSCF
|  2> *xyz 0 1
|  3> C          4.90646       -3.10282       -5.95484
|  4> C          3.51177       -2.80621       -6.49228
|  5> H          2.73604       -3.37345       -5.97374
|  6> H          3.44490       -3.04083       -7.55528
|  7> S          3.00462       -1.09621       -6.38926
|  8> F          4.12886       -0.32965       -6.95372
|  9> O          1.78128       -1.00078       -7.13640
| 10> O          2.85155       -0.78368       -4.95679
| 11> H          5.62703       -2.52424       -6.49422
| 12> H          5.12164       -4.14387       -6.07654
| 13> H          4.95004       -2.84862       -4.91639
| 14> *
| 15>
| 16> %MaxCore 64000
| 17>
| 18> %pal nprocs 4
| 19> end
| 20>
| 21> %scf
| 22>   MaxIter 150
| 23> end
| 24>
| 25>
| 26>                          ****END OF INPUT****

CARTESIAN COORDINATES (ANGSTROEM)
---------------------------------
  C      4.906460   -3.102820   -5.954840
  C      3.511770   -2.806210   -6.492280
  H      2.736040   -3.373450   -5.973740
  H      3.444900   -3.040830   -7.555280
  S      3.004620   -1.096210   -6.389260
  F      4.128860   -0.329650   -6.953720
  O      1.781280   -1.000780   -7.136400
  O      2.851550   -0.783680   -4.956790
  H      5.627030   -2.524240   -6.494220
  H      5.121640   -4.143870   -6.076540
  H      4.950040   -2.848620   -4.916390

 Total Charge           Charge          ....    0
 Multiplicity           Mult            ....    1
 Number of Electrons    NEL             ....   58
 Basis Dimension        Dim             ....  113

ORBITAL ENERGIES
----------------

  NO   OCC          E(Eh)            E(eV)
   0   2.0000     -89.271004     -2429.1875
   1   2.0000     -24.873090      -676.8312
   2   2.0000     -19.216160      -522.8983
   3   2.0000     -19.203336      -522.5493
   4   2.0000     -10.293174      -280.0915
   5   2.0000     -10.257143      -279.1111
   6   2.0000      -8.240099      -224.2245
   7   2.0000      -6.185646      -168.3200
   8   2.0000      -6.179392      -168.1498
   9   2.0000      -6.178197      -168.1173
  10   2.0000      -1.375641       -37.4331
  11   2.0000      -1.130911       -30.7737
  12   2.0000      -1.026219       -27.9248
  13   2.0000      -0.847180       -23.0529
  14   2.0000      -0.740282       -20.1441
  15   2.0000      -0.691725       -18.8228
  16   2.0000      -0.599582       -16.3155
  17   2.0000      -0.581468       -15.8226
  18   2.0000      -0.555932       -15.1277
  19   2.0000      -0.510039       -13.8789
  20   2.0000      -0.489192       -13.3116
  21   2.0000      -0.465493       -12.6667
  22   2.0000      -0.446667       -12.1544
  23   2.0000      -0.424445       -11.5497
  24   2.0000      -0.411110       -11.1869
  25   2.0000      -0.389181       -10.5901
  26   2.0000      -0.342684        -9.3249
  27   2.0000      -0.330297        -8.9878
  28   2.0000      -0.314263        -8.5515
  29   0.0000       0.035594         0.9686
  30   0.0000       0.067209         1.8289
  31   0.0000       0.093326         2.5395
  32   0.0000       0.099456         2.7063
  33   0.0000       0.105239         2.8637

MULLIKEN ATOMIC CHARGES
-----------------------
   0 C :   -0.055648
   1 C :   -0.189948
   2 H :    0.118138
   3 H :    0.091171
   4 S :    0.966902
   5 F :   -0.208467
   6 O :   -0.434685
   7 O :   -0.478042
   8 H :    0.053965
   9 H :    0.064656
  10 H :    0.071959
Sum of atomic charges:   -0.0000000

LOEWDIN ATOMIC CHARGES
----------------------
   0 C :   -0.069574
   1 C :   -0.157297
   2 H :    0.057584
   3 H :    0.039429
   4 S :    1.160206
   5 F :   -0.148424
   6 O :   -0.474163
   7 O :   -0.517374
   8 H :    0.030548
   9 H :    0.041234
  10 H :    0.037833

  Mayer bond orders larger than 0.100000
B(  0-C ,  1-C ) :   1.0403 B(  0-C ,  8-H ) :   0.9728 B(  0-C ,  9-H ) :   0.9628
B(  0-C , 10-H ) :   0.9692 B(  1-C ,  2-H ) :   0.9316 B(  1-C ,  3-H ) :   0.9303
B(  1-C ,  4-S ) :   0.9229 B(  4-S ,  5-F ) :   0.9742 B(  4-S ,  6-O ) :   1.7891
B(  4-S ,  7-O ) :   1.7458

Dispersion correction           -0.007860972
FINAL SINGLE POINT ENERGY      -726.766252539198

DIPOLE MOMENT
-------------
                                X             Y             Z
Electronic contribution:     -3.01311       8.22526      -1.75328
Nuclear contribution   :      4.18919      -9.36357       1.23251
                        -----------------------------------------
Total Dipole Moment    :      1.17608      -1.13831      -0.52077
                        -----------------------------------------
Magnitude (a.u.)       :      1.71759
Magnitude (Debye)      :      4.36577

Rotational constants in cm-1:     0.153152     0.082513     0.079874
Rotational constants in MHz :  4591.373714  2473.673397  2394.575279

                             ****ORCA TERMINATED NORMALLY****
TOTAL RUN TIME: 0 days 0 hours 0 minutes 8 seconds 85 msec
