                         Program Version 5.0.0 -  RELEASE  -
|  1> !PBE0 D3BJ RIJCOSX def2-SVP def2/J TightSCF
|  2> *xyz 0 1
|  3> C          4.49059        1.15590       -2.46929
|  4> C          4.30539        1.22276       -3.90832
|  5> C          4.63192        2.24637       -4.67096
|  6> N          4.54169        2.14399       -5.98714
|  7> N          5.08409        3.39358       -4.11855
|  8> H          4.92067        3.57050       -3.13587
|  9> H          5.25465        4.19739       -4.70696
| 10> H          3.82453        0.44911       -4.35093
| 11> H          4.34337        1.24932       -6.41665
| 12> H          4.67671        2.95662       -6.57411
| 13> C          5.94213        0.93950       -2.03689
| 14> H          3.86431        0.32853       -2.13661
| 15> H          4.07623        2.04999       -1.98901
| 16> H          6.32982        0.06401       -2.51451
| 17> H          5.98308        0.81426       -0.97504
| 18> H          6.52865        1.78889       -2.31873
| 19> *
| 20>
| 21> %MaxCore 64000
| 22>
| 23> %pal nprocs 4
| 24> end
| 25>
| 26> %scf
| 27>   MaxIter 150
| 28> end
| 29>
| 30>
| 31>                          ****END OF INPUT****

CARTESIAN COORDINATES (ANGSTROEM)
---------------------------------
  C      4.490590    1.155900   -2.469290
  C      4.305390    1.222760   -3.908320
  C      4.631920    2.246370   -4.670960
  N      4.541690    2.143990   -5.987140
  N      5.084090    3.393580   -4.118550
  H      4.920670    3.570500   -3.135870
  H      5.254650    4.197390   -4.706960
  H      3.824530    0.449110   -4.350930
  H      4.343370    1.249320   -6.416650
  H      4.676710    2.956620   -6.574110
  C      5.942130    0.939500   -2.036890
  H      3.864310    0.328530   -2.136610
  H      4.076230    2.049990   -1.989010
  H      6.329820    0.064010   -2.514510
  H      5.983080    0.814260   -0.975040
  H      6.528650    1.788890   -2.318730

 Total Charge           Charge          ....    0
 Multiplicity           Mult            ....    1
 Number of Electrons    NEL             ....   48
 Basis Dimension        Dim             ....  134

ORBITAL ENERGIES
----------------

  NO   OCC          E(Eh)            E(eV)
   0   2.0000     -14.387415      -391.5015
   1   2.0000     -14.385438      -391.4477
   2   2.0000     -10.265746      -279.3452
   3   2.0000     -10.199609      -277.5455
   4   2.0000     -10.189797      -277.2785
   5   2.0000     -10.142401      -275.9888
   6   2.0000      -0.969807       -26.3898
   7   2.0000      -0.877816       -23.8866
   8   2.0000      -0.780770       -21.2458
   9   2.0000      -0.701748       -19.0955
  10   2.0000      -0.624991       -17.0069
  11   2.0000      -0.585000       -15.9187
  12   2.0000      -0.550317       -14.9749
  13   2.0000      -0.515090       -14.0163
  14   2.0000      -0.482647       -13.1335
  15   2.0000      -0.443447       -12.0668
  16   2.0000      -0.427032       -11.6201
  17   2.0000      -0.396322       -10.7845
  18   2.0000      -0.389021       -10.5858
  19   2.0000      -0.356071        -9.6892
  20   2.0000      -0.332787        -9.0556
  21   2.0000      -0.320422        -8.7191
  22   2.0000      -0.267793        -7.2870
  23   2.0000      -0.158891        -4.3237
  24   0.0000       0.055832         1.5193
  25   0.0000       0.085301         2.3212
  26   0.0000       0.099715         2.7134
  27   0.0000       0.111865         3.0440
  28   0.0000       0.121455         3.3050

MULLIKEN ATOMIC CHARGES
-----------------------
   0 C :   -0.033009
   1 C :   -0.219231
   2 C :    0.031916
   3 N :   -0.110919
   4 N :   -0.146230
   5 H :    0.133469
   6 H :    0.111939
   7 H :   -0.072453
   8 H :    0.132740
   9 H :    0.110846
  10 C :   -0.003292
  11 H :    0.011737
  12 H :    0.001325
  13 H :    0.020116
  14 H :    0.014321
  15 H :    0.016726
Sum of atomic charges:   -0.0000000

LOEWDIN ATOMIC CHARGES
----------------------
   0 C :   -0.050712
   1 C :   -0.229218
   2 C :    0.026115
   3 N :   -0.024084
   4 N :   -0.034013
   5 H :    0.079385
   6 H :    0.066353
   7 H :   -0.006394
   8 H :    0.085710
   9 H :    0.066131
  10 C :   -0.064516
  11 H :    0.028011
  12 H :    0.006885
  13 H :    0.021265
  14 H :    0.014001
  15 H :    0.015080

  Mayer bond orders larger than 0.100000
B(  0-C ,  1-C ) :   1.0768 B(  0-C , 10-C ) :   1.0766 B(  0-C , 11-H ) :   0.9278
B(  0-C , 12-H ) :   0.9386 B(  1-C ,  2-C ) :   1.6793 B(  1-C ,  7-H ) :   0.9589
B(  2-C ,  3-N ) :   1.2370 B(  2-C ,  4-N ) :   1.2227 B(  3-N ,  8-H ) :   0.9397
B(  3-N ,  9-H ) :   0.9486 B(  4-N ,  5-H ) :   0.9352 B(  4-N ,  6-H ) :   0.9506
B( 10-C , 13-H ) :   0.9677 B( 10-C , 14-H ) :   0.9672 B( 10-C , 15-H ) :   0.9727

Dispersion correction           -0.010907523
FINAL SINGLE POINT ENERGY      -267.410384197510

DIPOLE MOMENT
-------------
                                X             Y             Z
Electronic contribution:     -1.24312       2.11275      -4.26229
Nuclear contribution   :      1.23062      -1.24683       3.43056
                        -----------------------------------------
Total Dipole Moment    :     -0.01250       0.86592      -0.83173
                        -----------------------------------------
Magnitude (a.u.)       :      1.20073
Magnitude (Debye)      :      3.05201

Rotational constants in cm-1:     0.231477     0.075416     0.065327
Rotational constants in MHz :  6939.497385  2260.912204  1958.442932

                             ****ORCA TERMINATED NORMALLY****
TOTAL RUN TIME: 0 days 0 hours 0 minutes 11 seconds 501 msec
