                         Program Version 5.0.0 -  RELEASE  -
|  1> !PBE0 D3BJ RIJCOSX def2-SVP def2/J TightSCF
|  2> *xyz 0 1
|  3> C          4.90646       -3.10282       -5.95484
|  4> C          3.51177       -2.80621       -6.49228
|  5> H          2.73604       -3.37345       -5.97374
|  6> H          3.44490       -3.04083       -7.55528
|  7> S          3.00462       -1.09621       -6.38926
|  8> O          4.12886       -0.32965       -6.95372
|  9> F          1.78128       -1.00078       -7.13640
| 10> O          2.85155       -0.78368       -4.95679
| 11> H          5.62703       -2.52424       -6.49422
| 12> H          5.12164       -4.14387       -6.07654
| 13> H          4.95004       -2.84862       -4.91639
| 14> *
| 15>
| 16> %MaxCore 64000
| 17>
| 18> %pal nprocs 4
| 19> end
| 20>
| 21> %scf
| 22>   MaxIter 150
| 23> end
| 24>
| 25>
| 26>                          ****END OF INPUT****

CARTESIAN COORDINATES (ANGSTROEM)
---------------------------------
  C      4.906460   -3.102820   -5.954840
  C      3.511770   -2.806210   -6.492280
  H      2.736040   -3.373450   -5.973740
  H      3.444900   -3.040830   -7.555280
  S      3.004620   -1.096210   -6.389260
  O      4.128860   -0.329650   -6.953720
  F      1.781280   -1.000780   -7.136400
  O      2.851550   -0.783680   -4.956790
  H      5.627030   -2.524240   -6.494220
  H      5.121640   -4.143870   -6.076540
  H      4.950040   -2.848620   -4.916390

 Total Charge           Charge          ....    0
 Multiplicity           Mult            ....    1
 Number of Electrons    NEL             ....   58
 Basis Dimension        Dim             ....  113

ORBITAL ENERGIES
----------------

  NO   OCC          E(Eh)            E(eV)
   0   2.0000     -89.272420     -2429.2260
   1   2.0000     -24.891882      -677.3425
   2   2.0000     -19.203176      -522.5450
   3   2.0000     -19.202734      -522.5330
   4   2.0000     -10.293990      -280.1137
   5   2.0000     -10.252237      -278.9776
   6   2.0000      -8.241586      -224.2650
   7   2.0000      -6.187248      -168.3636
   8   2.0000      -6.180657      -168.1842
   9   2.0000      -6.179568      -168.1546
  10   2.0000      -1.407752       -38.3069
  11   2.0000      -1.116438       -30.3798
  12   2.0000      -1.011480       -27.5238
  13   2.0000      -0.843786       -22.9606
  14   2.0000      -0.755135       -20.5483
  15   2.0000      -0.693759       -18.8781
  16   2.0000      -0.604782       -16.4570
  17   2.0000      -0.603685       -16.4271
  18   2.0000      -0.566797       -15.4233
  19   2.0000      -0.510943       -13.9035
  20   2.0000      -0.489686       -13.3250
  21   2.0000      -0.447319       -12.1722
  22   2.0000      -0.443298       -12.0628
  23   2.0000      -0.422051       -11.4846
  24   2.0000      -0.400852       -10.9077
  25   2.0000      -0.384450       -10.4614
  26   2.0000      -0.329061        -8.9542
  27   2.0000      -0.327945        -8.9239
  28   2.0000      -0.302004        -8.2179
  29   0.0000       0.046540         1.2664
  30   0.0000       0.055251         1.5035
  31   0.0000       0.089281         2.4294
  32   0.0000       0.093423         2.5422
  33   0.0000       0.105257         2.8642

MULLIKEN ATOMIC CHARGES
-----------------------
   0 C :   -0.038283
   1 C :   -0.182474
   2 H :    0.089833
   3 H :    0.083859
   4 S :    0.957926
   5 O :   -0.474567
   6 F :   -0.169645
   7 O :   -0.474457
   8 H :    0.074134
   9 H :    0.061516
  10 H :    0.072158
Sum of atomic charges:   -0.0000000

LOEWDIN ATOMIC CHARGES
----------------------
   0 C :   -0.053897
   1 C :   -0.159166
   2 H :    0.039025
   3 H :    0.036246
   4 S :    1.154199
   5 O :   -0.512331
   6 F :   -0.110666
   7 O :   -0.514497
   8 H :    0.040204
   9 H :    0.040631
  10 H :    0.040253

  Mayer bond orders larger than 0.100000
B(  0-C ,  1-C ) :   1.0638 B(  0-C ,  8-H ) :   0.9674 B(  0-C ,  9-H ) :   0.9631
B(  0-C , 10-H ) :   0.9702 B(  1-C ,  2-H ) :   0.9273 B(  1-C ,  3-H ) :   0.9260
B(  1-C ,  4-S ) :   0.9208 B(  4-S ,  5-O ) :   1.7366 B(  4-S ,  6-F ) :   1.0230
B(  4-S ,  7-O ) :   1.7422

Dispersion correction           -0.007906816
FINAL SINGLE POINT ENERGY      -726.749675341653

DIPOLE MOMENT
-------------
                                X             Y             Z
Electronic contribution:     -6.99051       7.10354      -2.06575
Nuclear contribution   :      6.63544      -8.66423       1.42287
                        -----------------------------------------
Total Dipole Moment    :     -0.35507      -1.56069      -0.64288
                        -----------------------------------------
Magnitude (a.u.)       :      1.72485
Magnitude (Debye)      :      4.38422

Rotational constants in cm-1:     0.158118     0.080978     0.078216
Rotational constants in MHz :  4740.271775  2427.649826  2344.849020

                             ****ORCA TERMINATED NORMALLY****
TOTAL RUN TIME: 0 days 0 hours 0 minutes 8 seconds 478 msec
