                         Program Version 5.0.0 -  RELEASE  -
|  1> !PBE0 D3BJ RIJCOSX def2-SVP def2/J TightSCF
|  2> *xyz 0 1
|  3> C          4.49059        1.15590       -2.46929
|  4> N          4.30539        1.22276       -3.90832
|  5> C          4.63192        2.24637       -4.67096
|  6> C          4.54169        2.14399       -5.98714
|  7> N          5.08409        3.39358       -4.11855
|  8> H          4.92067        3.57050       -3.13587
|  9> H          5.25465        4.19739       -4.70696
| 10> H          3.82453        0.44911       -4.35093
| 11> H          4.34337        1.24932       -6.41665
| 12> H          4.67671        2.95662       -6.57411
| 13> C          5.94213        0.93950       -2.03689
| 14> H          3.86431        0.32853       -2.13661
| 15> H          4.07623        2.04999       -1.98901
| 16> H          6.32982        0.06401       -2.51451
| 17> H          5.98308        0.81426       -0.97504
| 18> H          6.52865        1.78889       -2.31873
| 19> *
| 20>
| 21> %MaxCore 64000
| 22>
| 23> %pal nprocs 4
| 24> end
| 25>
| 26> %scf
| 27>   MaxIter 150
| 28> end
| 29>
| 30>
| 31>                          ****END OF INPUT****

CARTESIAN COORDINATES (ANGSTROEM)
---------------------------------
  C      4.490590    1.155900   -2.469290
  N      4.305390    1.222760   -3.908320
  C      4.631920    2.246370   -4.670960
  C      4.541690    2.143990   -5.987140
  N      5.084090    3.393580   -4.118550
  H      4.920670    3.570500   -3.135870
  H      5.254650    4.197390   -4.706960
  H      3.824530    0.449110   -4.350930
  H      4.343370    1.249320   -6.416650
  H      4.676710    2.956620   -6.574110
  C      5.942130    0.939500   -2.036890
  H      3.864310    0.328530   -2.136610
  H      4.076230    2.049990   -1.989010
  H      6.329820    0.064010   -2.514510
  H      5.983080    0.814260   -0.975040
  H      6.528650    1.788890   -2.318730

 Total Charge           Charge          ....    0
 Multiplicity           Mult            ....    1
 Number of Electrons    NEL             ....   48
 Basis Dimension        Dim             ....  134

ORBITAL ENERGIES
----------------

  NO   OCC          E(Eh)            E(eV)
   0   2.0000     -14.388503      -391.5311
   1   2.0000     -14.385953      -391.4617
   2   2.0000     -10.270024      -279.4616
   3   2.0000     -10.268061      -279.4081
   4   2.0000     -10.218250      -278.0527
   5   2.0000     -10.136375      -275.8248
   6   2.0000      -0.980154       -26.6713
   7   2.0000      -0.891192       -24.2506
   8   2.0000      -0.782894       -21.3036
   9   2.0000      -0.710997       -19.3472
  10   2.0000      -0.640547       -17.4302
  11   2.0000      -0.606940       -16.5157
  12   2.0000      -0.544227       -14.8092
  13   2.0000      -0.507796       -13.8178
  14   2.0000      -0.489479       -13.3194
  15   2.0000      -0.457578       -12.4513
  16   2.0000      -0.432672       -11.7736
  17   2.0000      -0.410584       -11.1726
  18   2.0000      -0.388533       -10.5725
  19   2.0000      -0.382931       -10.4201
  20   2.0000      -0.366669        -9.9776
  21   2.0000      -0.360537        -9.8107
  22   2.0000      -0.258543        -7.0353
  23   2.0000      -0.163586        -4.4514
  24   0.0000       0.053863         1.4657
  25   0.0000       0.078882         2.1465
  26   0.0000       0.095919         2.6101
  27   0.0000       0.111849         3.0436
  28   0.0000       0.121571         3.3081

MULLIKEN ATOMIC CHARGES
-----------------------
   0 C :    0.003202
   1 N :   -0.197893
   2 C :    0.020567
   3 C :   -0.116446
   4 N :   -0.150063
   5 H :    0.115481
   6 H :    0.132357
   7 H :    0.136441
   8 H :   -0.041211
   9 H :   -0.041792
  10 C :   -0.024951
  11 H :    0.032371
  12 H :    0.029113
  13 H :    0.038354
  14 H :    0.030324
  15 H :    0.034146
Sum of atomic charges:    0.0000000

LOEWDIN ATOMIC CHARGES
----------------------
   0 C :    0.020035
   1 N :   -0.029614
   2 C :    0.033896
   3 C :   -0.258951
   4 N :   -0.033438
   5 H :    0.063617
   6 H :    0.084521
   7 H :    0.087807
   8 H :   -0.006142
   9 H :   -0.006350
  10 C :   -0.072509
  11 H :    0.028442
  12 H :    0.013007
  13 H :    0.027548
  14 H :    0.025036
  15 H :    0.023096

  Mayer bond orders larger than 0.100000
B(  0-C ,  1-N ) :   1.0204 B(  0-C , 10-C ) :   1.0723 B(  0-C , 11-H ) :   0.9560
B(  0-C , 12-H ) :   0.9519 B(  1-N ,  2-C ) :   1.1894 B(  1-N ,  7-H ) :   0.9305
B(  2-C ,  3-C ) :   1.7543 B(  2-C ,  4-N ) :   1.1989 B(  3-C ,  8-H ) :   0.9402
B(  3-C ,  9-H ) :   0.9404 B(  4-N ,  5-H ) :   0.9468 B(  4-N ,  6-H ) :   0.9437
B( 10-C , 13-H ) :   0.9668 B( 10-C , 14-H ) :   0.9640 B( 10-C , 15-H ) :   0.9666

Dispersion correction           -0.010814643
FINAL SINGLE POINT ENERGY      -267.403370041763

DIPOLE MOMENT
-------------
                                X             Y             Z
Electronic contribution:     -1.43808       1.13309      -1.93719
Nuclear contribution   :      1.28075      -1.05140       2.98955
                        -----------------------------------------
Total Dipole Moment    :     -0.15734       0.08170       1.05236
                        -----------------------------------------
Magnitude (a.u.)       :      1.06719
Magnitude (Debye)      :      2.71258

Rotational constants in cm-1:     0.229858     0.078444     0.067377
Rotational constants in MHz :  6890.979812  2351.691803  2019.910665

                             ****ORCA TERMINATED NORMALLY****
TOTAL RUN TIME: 0 days 0 hours 0 minutes 10 seconds 765 msec
