                         Program Version 5.0.0 -  RELEASE  -
|  1> !PBE0 D3BJ RIJCOSX def2-SVP def2/J TightSCF
|  2> *xyz 0 1
|  3> C          4.90646       -3.10282       -5.95484
|  4> C          3.51177       -2.80621       -6.49228
|  5> H          2.73604       -3.37345       -5.97374
|  6> H          3.44490       -3.04083       -7.55528
|  7> S          3.00462       -1.09621       -6.38926
|  8> O          4.12886       -0.32965       -6.95372
|  9> O          1.78128       -1.00078       -7.13640
| 10> F          2.85155       -0.78368       -4.95679
| 11> H          5.62703       -2.52424       -6.49422
| 12> H          5.12164       -4.14387       -6.07654
| 13> H          4.95004       -2.84862       -4.91639
| 14> *
| 15>
| 16> %MaxCore 64000
| 17>
| 18> %pal nprocs 4
| 19> end
| 20>
| 21> %scf
| 22>   MaxIter 150
| 23> end
| 24>
| 25>
| 26>                          ****END OF INPUT****

CARTESIAN COORDINATES (ANGSTROEM)
---------------------------------
  C      4.906460   -3.102820   -5.954840
  C      3.511770   -2.806210   -6.492280
  H      2.736040   -3.373450   -5.973740
  H      3.444900   -3.040830   -7.555280
  S      3.004620   -1.096210   -6.389260
  O      4.128860   -0.329650   -6.953720
  O      1.781280   -1.000780   -7.136400
  F      2.851550   -0.783680   -4.956790
  H      5.627030   -2.524240   -6.494220
  H      5.121640   -4.143870   -6.076540
  H      4.950040   -2.848620   -4.916390

 Total Charge           Charge          ....    0
 Multiplicity           Mult            ....    1
 Number of Electrons    NEL             ....   58
 Basis Dimension        Dim             ....  113

ORBITAL ENERGIES
----------------

  NO   OCC          E(Eh)            E(eV)
   0   2.0000     -89.271313     -2429.1959
   1   2.0000     -24.872429      -676.8132
   2   2.0000     -19.216473      -522.9068
   3   2.0000     -19.204394      -522.5781
   4   2.0000     -10.293081      -280.0890
   5   2.0000     -10.253962      -279.0245
   6   2.0000      -8.240378      -224.2321
   7   2.0000      -6.185873      -168.3262
   8   2.0000      -6.179679      -168.1576
   9   2.0000      -6.178536      -168.1265
  10   2.0000      -1.374479       -37.4015
  11   2.0000      -1.131269       -30.7834
  12   2.0000      -1.028316       -27.9819
  13   2.0000      -0.844715       -22.9859
  14   2.0000      -0.739549       -20.1242
  15   2.0000      -0.690463       -18.7885
  16   2.0000      -0.596675       -16.2364
  17   2.0000      -0.580224       -15.7887
  18   2.0000      -0.558013       -15.1843
  19   2.0000      -0.508283       -13.8311
  20   2.0000      -0.491564       -13.3761
  21   2.0000      -0.465870       -12.6770
  22   2.0000      -0.443571       -12.0702
  23   2.0000      -0.420319       -11.4375
  24   2.0000      -0.411350       -11.1934
  25   2.0000      -0.387225       -10.5369
  26   2.0000      -0.343025        -9.3342
  27   2.0000      -0.331249        -9.0137
  28   2.0000      -0.316218        -8.6047
  29   0.0000       0.036580         0.9954
  30   0.0000       0.063468         1.7271
  31   0.0000       0.092827         2.5259
  32   0.0000       0.098065         2.6685
  33   0.0000       0.104918         2.8550

MULLIKEN ATOMIC CHARGES
-----------------------
   0 C :   -0.050622
   1 C :   -0.191875
   2 H :    0.088642
   3 H :    0.117207
   4 S :    0.968355
   5 O :   -0.478123
   6 O :   -0.435954
   7 F :   -0.208412
   8 H :    0.076744
   9 H :    0.061209
  10 H :    0.052828
Sum of atomic charges:   -0.0000000

LOEWDIN ATOMIC CHARGES
----------------------
   0 C :   -0.067849
   1 C :   -0.157926
   2 H :    0.037934
   3 H :    0.057173
   4 S :    1.160027
   5 O :   -0.514534
   6 O :   -0.474873
   7 F :   -0.150385
   8 H :    0.039343
   9 H :    0.039851
  10 H :    0.031239

  Mayer bond orders larger than 0.100000
B(  0-C ,  1-C ) :   1.0420 B(  0-C ,  8-H ) :   0.9671 B(  0-C ,  9-H ) :   0.9618
B(  0-C , 10-H ) :   0.9736 B(  1-C ,  2-H ) :   0.9306 B(  1-C ,  3-H ) :   0.9310
B(  1-C ,  4-S ) :   0.9204 B(  4-S ,  5-O ) :   1.7417 B(  4-S ,  6-O ) :   1.7902
B(  4-S ,  7-F ) :   0.9767

Dispersion correction           -0.007873002
FINAL SINGLE POINT ENERGY      -726.766864878029

DIPOLE MOMENT
-------------
                                X             Y             Z
Electronic contribution:     -5.18649       7.46847       1.63546
Nuclear contribution   :      5.52019      -8.89046      -0.84835
                        -----------------------------------------
Total Dipole Moment    :      0.33370      -1.42198       0.78711
                        -----------------------------------------
Magnitude (a.u.)       :      1.65920
Magnitude (Debye)      :      4.21734

Rotational constants in cm-1:     0.153332     0.082132     0.079755
Rotational constants in MHz :  4596.775407  2462.251277  2391.008596

                             ****ORCA TERMINATED NORMALLY****
TOTAL RUN TIME: 0 days 0 hours 0 minutes 8 seconds 99 msec
