                         Program Version 5.0.0 -  RELEASE  -
|  1> !PBE0 D3BJ RIJCOSX def2-SVP def2/J TightSCF
|  2> *xyz 0 1
|  3> C          4.49059        1.15590       -2.46929
|  4> N          4.30539        1.22276       -3.90832
|  5> C          4.63192        2.24637       -4.67096
|  6> N          4.54169        2.14399       -5.98714
|  7> C          5.08409        3.39358       -4.11855
|  8> H          4.92067        3.57050       -3.13587
|  9> H          5.25465        4.19739       -4.70696
| 10> H          3.82453        0.44911       -4.35093
| 11> H          4.34337        1.24932       -6.41665
| 12> H          4.67671        2.95662       -6.57411
| 13> C          5.94213        0.93950       -2.03689
| 14> H          3.86431        0.32853       -2.13661
| 15> H          4.07623        2.04999       -1.98901
| 16> H          6.32982        0.06401       -2.51451
| 17> H          5.98308        0.81426       -0.97504
| 18> H          6.52865        1.78889       -2.31873
| 19> *
| 20>
| 21> %MaxCore 64000
| 22>
| 23> %pal nprocs 4
| 24> end
| 25>
| 26> %scf
| 27>   MaxIter 150
| 28> end
| 29>
| 30>
| 31>                          ****END OF INPUT****

CARTESIAN COORDINATES (ANGSTROEM)
---------------------------------
  C      4.490590    1.155900   -2.469290
  N      4.305390    1.222760   -3.908320
  C      4.631920    2.246370   -4.670960
  N      4.541690    2.143990   -5.987140
  C      5.084090    3.393580   -4.118550
  H      4.920670    3.570500   -3.135870
  H      5.254650    4.197390   -4.706960
  H      3.824530    0.449110   -4.350930
  H      4.343370    1.249320   -6.416650
  H      4.676710    2.956620   -6.574110
  C      5.942130    0.939500   -2.036890
  H      3.864310    0.328530   -2.136610
  H      4.076230    2.049990   -1.989010
  H      6.329820    0.064010   -2.514510
  H      5.983080    0.814260   -0.975040
  H      6.528650    1.788890   -2.318730

 Total Charge           Charge          ....    0
 Multiplicity           Mult            ....    1
 Number of Electrons    NEL             ....   48
 Basis Dimension        Dim             ....  134

ORBITAL ENERGIES
----------------

  NO   OCC          E(Eh)            E(eV)
   0   2.0000     -14.391859      -391.6224
   1   2.0000     -14.388406      -391.5284
   2   2.0000     -10.270804      -279.4828
   3   2.0000     -10.260592      -279.2049
   4   2.0000     -10.206889      -277.7436
   5   2.0000     -10.135217      -275.7933
   6   2.0000      -0.983594       -26.7649
   7   2.0000      -0.898184       -24.4408
   8   2.0000      -0.763031       -20.7631
   9   2.0000      -0.714316       -19.4375
  10   2.0000      -0.649599       -17.6765
  11   2.0000      -0.569890       -15.5075
  12   2.0000      -0.562708       -15.3121
  13   2.0000      -0.529397       -14.4056
  14   2.0000      -0.479743       -13.0545
  15   2.0000      -0.447406       -12.1745
  16   2.0000      -0.421642       -11.4735
  17   2.0000      -0.402525       -10.9533
  18   2.0000      -0.386934       -10.5290
  19   2.0000      -0.369813       -10.0631
  20   2.0000      -0.367556       -10.0017
  21   2.0000      -0.351872        -9.5749
  22   2.0000      -0.254729        -6.9315
  23   2.0000      -0.162687        -4.4269
  24   0.0000       0.055773         1.5177
  25   0.0000       0.084210         2.2915
  26   0.0000       0.094645         2.5754
  27   0.0000       0.110209         2.9989
  28   0.0000       0.128323         3.4919

MULLIKEN ATOMIC CHARGES
-----------------------
   0 C :    0.031175
   1 N :   -0.214714
   2 C :    0.017119
   3 N :   -0.125245
   4 C :   -0.141095
   5 H :   -0.026662
   6 H :   -0.048180
   7 H :    0.112843
   8 H :    0.111461
   9 H :    0.138023
  10 C :   -0.027809
  11 H :    0.023317
  12 H :    0.045534
  13 H :    0.024601
  14 H :    0.028864
  15 H :    0.050767
Sum of atomic charges:    0.0000000

LOEWDIN ATOMIC CHARGES
----------------------
   0 C :    0.033827
   1 N :   -0.029318
   2 C :    0.032149
   3 N :   -0.020998
   4 C :   -0.277333
   5 H :   -0.006724
   6 H :   -0.009110
   7 H :    0.068173
   8 H :    0.066189
   9 H :    0.087059
  10 C :   -0.068675
  11 H :    0.023324
  12 H :    0.023437
  13 H :    0.021679
  14 H :    0.025116
  15 H :    0.031205

  Mayer bond orders larger than 0.100000
B(  0-C ,  1-N ) :   1.0064 B(  0-C , 10-C ) :   1.0891 B(  0-C , 11-H ) :   0.9579
B(  0-C , 12-H ) :   0.9449 B(  1-N ,  2-C ) :   1.1758 B(  1-N ,  7-H ) :   0.9382
B(  2-C ,  3-N ) :   1.2317 B(  2-C ,  4-C ) :   1.7146 B(  3-N ,  8-H ) :   0.9507
B(  3-N ,  9-H ) :   0.9417 B(  4-C ,  5-H ) :   0.9370 B(  4-C ,  6-H ) :   0.9455
B( 10-C , 13-H ) :   0.9665 B( 10-C , 14-H ) :   0.9661 B( 10-C , 15-H ) :   0.9650

Dispersion correction           -0.010882335
FINAL SINGLE POINT ENERGY      -267.401894338639

DIPOLE MOMENT
-------------
                                X             Y             Z
Electronic contribution:     -1.94317      -0.18570      -3.95274
Nuclear contribution   :      1.39581      -0.78630       3.38596
                        -----------------------------------------
Total Dipole Moment    :     -0.54736      -0.97201      -0.56677
                        -----------------------------------------
Magnitude (a.u.)       :      1.25125
Magnitude (Debye)      :      3.18043

Rotational constants in cm-1:     0.239249     0.075811     0.066261
Rotational constants in MHz :  7172.504830  2272.756282  1986.457543

                             ****ORCA TERMINATED NORMALLY****
TOTAL RUN TIME: 0 days 0 hours 0 minutes 11 seconds 303 msec
