                         Program Version 5.0.0 -  RELEASE  -
|  1> !PBE0 D3BJ RIJCOSX def2-TZVP def2/J TightSCF xyzfile
|  2>
|  3> *xyzfile 0 1 D1.xyz
|  4>
|  5> %MaxCore 64000
|  6>
|  7> %pal nprocs 18
|  8> end
|  9>
| 10> %scf
| 11>   MaxIter 150
| 12> end
| 13>
| 14>
| 15>                          ****END OF INPUT****

CARTESIAN COORDINATES (ANGSTROEM)
---------------------------------
  C      4.490588    1.155899   -2.469290
  C      4.305394    1.222762   -3.908317
  C      4.906458   -3.102816   -5.954844
  C      3.511771   -2.806215   -6.492283
  H      2.736044   -3.373445   -5.973736
  H      3.444904   -3.040831   -7.555281
  S      3.004618   -1.096206   -6.389259
  C      4.631918    2.246365   -4.670958
  N      4.541686    2.143990   -5.987139
  N      5.084086    3.393584   -4.118545
  H      4.920675    3.570501   -3.135870
  H      5.254652    4.197390   -4.706956
  H      3.824530    0.449113   -4.350926
  H      4.343373    1.249318   -6.416646
  H      4.676712    2.956624   -6.574113
  F      4.128856   -0.329647   -6.953717
  O      1.781285   -1.000779   -7.136399
  C      5.942129    0.939500   -2.036893
  H      3.864305    0.328532   -2.136611
  H      4.076233    2.049994   -1.989010
  C      6.462677   -3.117775   -3.944671
  C      5.024977   -3.025679   -4.437625
  H      4.423321   -3.818693   -3.977648
  H      4.579350   -2.087131   -4.108727
  H      5.201533   -4.100207   -6.296905
  H      5.605922   -2.397822   -6.413368
  C      6.559957   -0.356290   -2.559086
  H      5.967976    0.952567   -0.942444
  H      6.547184    1.788331   -2.368849
  C      6.006283   -1.615917   -1.899301
  H      7.642360   -0.318000   -2.402059
  H      6.414855   -0.403433   -3.642587
  C      6.608718   -2.917014   -2.435655
  H      6.190324   -1.561115   -0.820948
  H      4.919250   -1.651245   -2.016586
  H      7.066975   -2.374258   -4.475514
  H      6.887808   -4.089747   -4.215332
  H      6.135197   -3.755573   -1.915159
  H      7.671142   -2.955503   -2.172291
  O      2.851546   -0.783683   -4.956789

 Total Charge           Charge          ....    0
 Multiplicity           Mult            ....    1
 Number of Electrons    NEL             ....  144
 Basis Dimension        Dim             ....  671

ORBITAL ENERGIES
----------------

  NO   OCC          E(Eh)            E(eV)
   0   2.0000     -89.268039     -2429.1068
   1   2.0000     -24.896886      -677.4787
   2   2.0000     -19.228124      -523.2239
   3   2.0000     -19.215556      -522.8819
   4   2.0000     -14.369665      -391.0185
   5   2.0000     -14.365468      -390.9043
   6   2.0000     -10.286066      -279.8981
   7   2.0000     -10.250248      -278.9234
   8   2.0000     -10.245209      -278.7863
   9   2.0000     -10.219469      -278.0859
  10   2.0000     -10.215151      -277.9684
  11   2.0000     -10.208744      -277.7940
  12   2.0000     -10.199370      -277.5390
  13   2.0000     -10.192167      -277.3430
  14   2.0000     -10.187035      -277.2033
  15   2.0000     -10.180118      -277.0151
  16   2.0000     -10.111966      -275.1606
  17   2.0000      -8.214670      -223.5325
  18   2.0000      -6.155262      -167.4932
  19   2.0000      -6.148491      -167.3089
  20   2.0000      -6.148299      -167.3037
  21   2.0000      -1.413108       -38.4526
  22   2.0000      -1.146738       -31.2043
  23   2.0000      -1.050037       -28.5730
  24   2.0000      -0.973026       -26.4774
  25   2.0000      -0.883350       -24.0372
  26   2.0000      -0.867021       -23.5929
  27   2.0000      -0.828791       -22.5525
  28   2.0000      -0.800173       -21.7738
  29   2.0000      -0.774639       -21.0790
  30   2.0000      -0.748624       -20.3711
  31   2.0000      -0.722968       -19.6730
  32   2.0000      -0.691467       -18.8158
  33   2.0000      -0.659887       -17.9564
  34   2.0000      -0.634031       -17.2528
  35   2.0000      -0.626812       -17.0564
  36   2.0000      -0.610718       -16.6185
  37   2.0000      -0.599997       -16.3267
  38   2.0000      -0.578935       -15.7536
  39   2.0000      -0.576341       -15.6830
  40   2.0000      -0.557871       -15.1804
  41   2.0000      -0.542274       -14.7560
  42   2.0000      -0.514247       -13.9934
  43   2.0000      -0.507733       -13.8161
  44   2.0000      -0.500190       -13.6109
  45   2.0000      -0.487178       -13.2568
  46   2.0000      -0.476247       -12.9593
  47   2.0000      -0.467931       -12.7331
  48   2.0000      -0.463959       -12.6250
  49   2.0000      -0.461151       -12.5485
  50   2.0000      -0.439227       -11.9520
  51   2.0000      -0.432024       -11.7560
  52   2.0000      -0.428882       -11.6705
  53   2.0000      -0.418766       -11.3952
  54   2.0000      -0.404580       -11.0092
  55   2.0000      -0.393281       -10.7017
  56   2.0000      -0.392523       -10.6811
  57   2.0000      -0.381706       -10.3868
  58   2.0000      -0.377623       -10.2756
  59   2.0000      -0.364930        -9.9303
  60   2.0000      -0.361644        -9.8408
  61   2.0000      -0.353971        -9.6320
  62   2.0000      -0.348931        -9.4949
  63   2.0000      -0.334057        -9.0902
  64   2.0000      -0.332185        -9.0392
  65   2.0000      -0.325947        -8.8695
  66   2.0000      -0.318185        -8.6582
  67   2.0000      -0.309421        -8.4198
  68   2.0000      -0.302160        -8.2222
  69   2.0000      -0.287435        -7.8215
  70   2.0000      -0.263947        -7.1824
  71   2.0000      -0.153117        -4.1665
  72   0.0000       0.010048         0.2734
  73   0.0000       0.039096         1.0639
  74   0.0000       0.043522         1.1843
  75   0.0000       0.053807         1.4642
  76   0.0000       0.056317         1.5325

MULLIKEN ATOMIC CHARGES
-----------------------
   0 C :   -0.294138
   1 C :   -0.352512
   2 C :   -0.207702
   3 C :   -0.224098
   4 H :    0.162926
   5 H :    0.164264
   6 S :    0.822922
   7 C :    0.310129
   8 N :   -0.480658
   9 N :   -0.491628
  10 H :    0.247306
  11 H :    0.212615
  12 H :    0.124812
  13 H :    0.234504
  14 H :    0.214496
  15 F :   -0.129641
  16 O :   -0.388856
  17 C :   -0.097987
  18 H :    0.105657
  19 H :    0.086140
  20 C :   -0.206544
  21 C :   -0.308984
  22 H :    0.096543
  23 H :    0.161548
  24 H :    0.122844
  25 H :    0.121054
  26 C :   -0.192360
  27 H :    0.071455
  28 H :    0.095677
  29 C :   -0.268227
  30 H :    0.090374
  31 H :    0.106807
  32 C :   -0.127876
  33 H :    0.098292
  34 H :    0.120528
  35 H :    0.112924
  36 H :    0.099946
  37 H :    0.094387
  38 H :    0.098389
  39 O :   -0.405331
Sum of atomic charges:   -0.0000000

LOEWDIN ATOMIC CHARGES
----------------------
   0 C :   -0.289801
   1 C :   -0.287484
   2 C :   -0.289249
   3 C :   -0.363586
   4 H :    0.156896
   5 H :    0.145089
   6 S :    0.546948
   7 C :   -0.468498
   8 N :   -0.021316
   9 N :   -0.023687
  10 H :    0.173021
  11 H :    0.157212
  12 H :    0.109588
  13 H :    0.149857
  14 H :    0.158908
  15 F :    0.074582
  16 O :   -0.244417
  17 C :   -0.267844
  18 H :    0.143722
  19 H :    0.126942
  20 C :   -0.274338
  21 C :   -0.275505
  22 H :    0.139308
  23 H :    0.146598
  24 H :    0.146857
  25 H :    0.141770
  26 C :   -0.271024
  27 H :    0.129397
  28 H :    0.134058
  29 C :   -0.273523
  30 H :    0.133848
  31 H :    0.137451
  32 C :   -0.270884
  33 H :    0.136774
  34 H :    0.136128
  35 H :    0.137752
  36 H :    0.135065
  37 H :    0.136225
  38 H :    0.137314
  39 O :   -0.250155

  Mayer bond orders larger than 0.100000
B(  0-C ,  1-C ) :   1.0163 B(  0-C , 17-C ) :   0.9767 B(  0-C , 18-H ) :   0.9852
B(  0-C , 19-H ) :   0.9667 B(  1-C ,  7-C ) :   1.6588 B(  1-C , 12-H ) :   0.9571
B(  2-C ,  3-C ) :   0.9836 B(  2-C , 21-C ) :   0.9883 B(  2-C , 24-H ) :   0.9422
B(  2-C , 25-H ) :   0.9664 B(  3-C ,  4-H ) :   0.9347 B(  3-C ,  5-H ) :   0.9432
B(  3-C ,  6-S ) :   0.9180 B(  6-S , 15-F ) :   1.0556 B(  6-S , 16-O ) :   1.9964
B(  6-S , 39-O ) :   1.8471 B(  7-C ,  8-N ) :   1.1757 B(  7-C ,  9-N ) :   1.1585
B(  8-N , 13-H ) :   0.9013 B(  8-N , 14-H ) :   0.9185 B(  9-N , 10-H ) :   0.9067
B(  9-N , 11-H ) :   0.9242 B( 17-C , 26-C ) :   1.0181 B( 17-C , 27-H ) :   0.9561
B( 17-C , 28-H ) :   0.9503 B( 20-C , 21-C ) :   1.0041 B( 20-C , 32-C ) :   1.0058
B( 20-C , 35-H ) :   0.9663 B( 20-C , 36-H ) :   0.9550 B( 21-C , 22-H ) :   0.9525
B( 21-C , 23-H ) :   0.9616 B( 26-C , 29-C ) :   0.9983 B( 26-C , 30-H ) :   0.9565
B( 26-C , 31-H ) :   0.9529 B( 29-C , 32-C ) :   0.9957 B( 29-C , 33-H ) :   0.9512
B( 29-C , 34-H ) :   0.9752 B( 32-C , 37-H ) :   0.9622 B( 32-C , 38-H ) :   0.9577

Dispersion correction           -0.042847723
FINAL SINGLE POINT ENERGY     -1190.258494367441

DIPOLE MOMENT
-------------
                                X             Y             Z
Electronic contribution:    -16.33767       4.94864     -21.50088
Nuclear contribution   :     17.24138      -5.45913      20.34076
                        -----------------------------------------
Total Dipole Moment    :      0.90371      -0.51049      -1.16012
                        -----------------------------------------
Magnitude (a.u.)       :      1.55666
Magnitude (Debye)      :      3.95670

Rotational constants in cm-1:     0.014201     0.012275     0.007453
Rotational constants in MHz :   425.728191   368.008875   223.435232

                             ****ORCA TERMINATED NORMALLY****
TOTAL RUN TIME: 0 days 0 hours 1 minutes 32 seconds 658 msec
