                         Program Version 5.0.0 -  RELEASE  -
|  1> !PBE0 D3BJ RIJCOSX def2-TZVP def2/J TightSCF xyzfile
|  2>
|  3> *xyzfile 0 1 D2.xyz
|  4>
|  5> %MaxCore 64000
|  6>
|  7> %pal nprocs 18
|  8> end
|  9>
| 10> %scf
| 11>   MaxIter 150
| 12> end
| 13>
| 14>
| 15>                          ****END OF INPUT****

CARTESIAN COORDINATES (ANGSTROEM)
---------------------------------
  C      4.490588    1.155899   -2.469290
  N      4.305394    1.222762   -3.908317
  C      4.906458   -3.102816   -5.954844
  C      3.511771   -2.806215   -6.492283
  H      2.736044   -3.373445   -5.973736
  H      3.444904   -3.040831   -7.555281
  S      3.004618   -1.096206   -6.389259
  C      4.631918    2.246365   -4.670958
  C      4.541686    2.143990   -5.987139
  N      5.084086    3.393584   -4.118545
  H      4.920675    3.570501   -3.135870
  H      5.254652    4.197390   -4.706956
  H      3.824530    0.449113   -4.350926
  H      4.343373    1.249318   -6.416646
  H      4.676712    2.956624   -6.574113
  F      4.128856   -0.329647   -6.953717
  O      1.781285   -1.000779   -7.136399
  C      5.942129    0.939500   -2.036893
  H      3.864305    0.328532   -2.136611
  H      4.076233    2.049994   -1.989010
  C      6.462677   -3.117775   -3.944671
  C      5.024977   -3.025679   -4.437625
  H      4.423321   -3.818693   -3.977648
  H      4.579350   -2.087131   -4.108727
  H      5.201533   -4.100207   -6.296905
  H      5.605922   -2.397822   -6.413368
  C      6.559957   -0.356290   -2.559086
  H      5.967976    0.952567   -0.942444
  H      6.547184    1.788331   -2.368849
  C      6.006283   -1.615917   -1.899301
  H      7.642360   -0.318000   -2.402059
  H      6.414855   -0.403433   -3.642587
  C      6.608718   -2.917014   -2.435655
  H      6.190324   -1.561115   -0.820948
  H      4.919250   -1.651245   -2.016586
  H      7.066975   -2.374258   -4.475514
  H      6.887808   -4.089747   -4.215332
  H      6.135197   -3.755573   -1.915159
  H      7.671142   -2.955503   -2.172291
  O      2.851546   -0.783683   -4.956789

 Total Charge           Charge          ....    0
 Multiplicity           Mult            ....    1
 Number of Electrons    NEL             ....  144
 Basis Dimension        Dim             ....  671

ORBITAL ENERGIES
----------------

  NO   OCC          E(Eh)            E(eV)
   0   2.0000     -89.271463     -2429.2000
   1   2.0000     -24.883218      -677.1068
   2   2.0000     -19.228468      -523.2332
   3   2.0000     -19.226714      -523.1855
   4   2.0000     -14.368033      -390.9741
   5   2.0000     -14.355265      -390.6266
   6   2.0000     -10.288085      -279.9530
   7   2.0000     -10.253775      -279.0194
   8   2.0000     -10.249130      -278.8930
   9   2.0000     -10.243826      -278.7487
  10   2.0000     -10.227138      -278.2946
  11   2.0000     -10.222819      -278.1771
  12   2.0000     -10.218756      -278.0665
  13   2.0000     -10.213712      -277.9292
  14   2.0000     -10.209743      -277.8212
  15   2.0000     -10.209435      -277.8129
  16   2.0000     -10.112045      -275.1627
  17   2.0000      -8.217690      -223.6147
  18   2.0000      -6.158040      -167.5688
  19   2.0000      -6.151858      -167.4006
  20   2.0000      -6.151423      -167.3887
  21   2.0000      -1.400716       -38.1154
  22   2.0000      -1.149649       -31.2835
  23   2.0000      -1.056855       -28.7585
  24   2.0000      -0.976932       -26.5837
  25   2.0000      -0.891191       -24.2506
  26   2.0000      -0.871139       -23.7049
  27   2.0000      -0.837232       -22.7823
  28   2.0000      -0.807393       -21.9703
  29   2.0000      -0.772144       -21.0111
  30   2.0000      -0.749443       -20.3934
  31   2.0000      -0.722438       -19.6585
  32   2.0000      -0.699661       -19.0387
  33   2.0000      -0.667573       -18.1656
  34   2.0000      -0.643080       -17.4991
  35   2.0000      -0.619340       -16.8531
  36   2.0000      -0.609131       -16.5753
  37   2.0000      -0.600917       -16.3518
  38   2.0000      -0.597190       -16.2504
  39   2.0000      -0.575237       -15.6530
  40   2.0000      -0.571059       -15.5393
  41   2.0000      -0.532489       -14.4898
  42   2.0000      -0.516086       -14.0434
  43   2.0000      -0.505840       -13.7646
  44   2.0000      -0.497640       -13.5415
  45   2.0000      -0.495015       -13.4701
  46   2.0000      -0.481458       -13.1011
  47   2.0000      -0.479795       -13.0559
  48   2.0000      -0.473204       -12.8765
  49   2.0000      -0.456694       -12.4273
  50   2.0000      -0.450005       -12.2452
  51   2.0000      -0.445235       -12.1155
  52   2.0000      -0.434695       -11.8286
  53   2.0000      -0.413697       -11.2573
  54   2.0000      -0.406740       -11.0680
  55   2.0000      -0.405870       -11.0443
  56   2.0000      -0.394799       -10.7430
  57   2.0000      -0.385601       -10.4927
  58   2.0000      -0.381050       -10.3689
  59   2.0000      -0.374975       -10.2036
  60   2.0000      -0.369758       -10.0616
  61   2.0000      -0.363653        -9.8955
  62   2.0000      -0.355229        -9.6663
  63   2.0000      -0.352684        -9.5970
  64   2.0000      -0.345622        -9.4048
  65   2.0000      -0.340009        -9.2521
  66   2.0000      -0.336364        -9.1529
  67   2.0000      -0.325722        -8.8633
  68   2.0000      -0.323752        -8.8097
  69   2.0000      -0.319384        -8.6909
  70   2.0000      -0.248658        -6.7663
  71   2.0000      -0.158423        -4.3109
  72   0.0000       0.013697         0.3727
  73   0.0000       0.039961         1.0874
  74   0.0000       0.042462         1.1554
  75   0.0000       0.050275         1.3681
  76   0.0000       0.051410         1.3989

MULLIKEN ATOMIC CHARGES
-----------------------
   0 C :   -0.260479
   1 N :   -0.270607
   2 C :   -0.211064
   3 C :   -0.227507
   4 H :    0.161243
   5 H :    0.168608
   6 S :    0.850525
   7 C :    0.382834
   8 C :   -0.606354
   9 N :   -0.498261
  10 H :    0.228845
  11 H :    0.236438
  12 H :    0.211817
  13 H :    0.106444
  14 H :    0.091124
  15 F :   -0.094862
  16 O :   -0.385941
  17 C :   -0.080319
  18 H :    0.136176
  19 H :    0.117177
  20 C :   -0.213285
  21 C :   -0.296065
  22 H :    0.099666
  23 H :    0.135520
  24 H :    0.123873
  25 H :    0.129784
  26 C :   -0.248489
  27 H :    0.083491
  28 H :    0.111261
  29 C :   -0.260313
  30 H :    0.102616
  31 H :    0.120638
  32 C :   -0.131310
  33 H :    0.103187
  34 H :    0.116192
  35 H :    0.118603
  36 H :    0.104419
  37 H :    0.098557
  38 H :    0.103186
  39 O :   -0.457370
Sum of atomic charges:    0.0000000

LOEWDIN ATOMIC CHARGES
----------------------
   0 C :   -0.300230
   1 N :    0.125335
   2 C :   -0.288296
   3 C :   -0.363171
   4 H :    0.155747
   5 H :    0.147164
   6 S :    0.560558
   7 C :   -0.467485
   8 C :   -0.368575
   9 N :   -0.019489
  10 H :    0.159630
  11 H :    0.173010
  12 H :    0.164168
  13 H :    0.081705
  14 H :    0.094302
  15 F :    0.091193
  16 O :   -0.239212
  17 C :   -0.274997
  18 H :    0.136640
  19 H :    0.124404
  20 C :   -0.273558
  21 C :   -0.276432
  22 H :    0.139842
  23 H :    0.141389
  24 H :    0.147502
  25 H :    0.144218
  26 C :   -0.271447
  27 H :    0.136082
  28 H :    0.137951
  29 C :   -0.274830
  30 H :    0.138219
  31 H :    0.140146
  32 C :   -0.269544
  33 H :    0.137788
  34 H :    0.134613
  35 H :    0.138815
  36 H :    0.136820
  37 H :    0.137580
  38 H :    0.138680
  39 O :   -0.276233

  Mayer bond orders larger than 0.100000
B(  0-C ,  1-N ) :   0.9682 B(  0-C , 17-C ) :   0.9582 B(  0-C , 18-H ) :   0.9757
B(  0-C , 19-H ) :   0.9759 B(  1-N ,  7-C ) :   1.2193 B(  1-N , 12-H ) :   0.8752
B(  2-C ,  3-C ) :   0.9832 B(  2-C , 21-C ) :   0.9919 B(  2-C , 24-H ) :   0.9418
B(  2-C , 25-H ) :   0.9644 B(  3-C ,  4-H ) :   0.9350 B(  3-C ,  5-H ) :   0.9429
B(  3-C ,  6-S ) :   0.9215 B(  6-S , 15-F ) :   1.1110 B(  6-S , 16-O ) :   2.0000
B(  6-S , 39-O ) :   1.7637 B(  7-C ,  8-C ) :   1.5921 B(  7-C ,  9-N ) :   1.1418
B(  8-C , 13-H ) :   1.0182 B(  8-C , 14-H ) :   0.9853 B(  9-N , 10-H ) :   0.9116
B(  9-N , 11-H ) :   0.9192 B( 12-H , 39-O ) :   0.1057 B( 17-C , 26-C ) :   0.9992
B( 17-C , 27-H ) :   0.9508 B( 17-C , 28-H ) :   0.9482 B( 20-C , 21-C ) :   1.0027
B( 20-C , 32-C ) :   1.0006 B( 20-C , 35-H ) :   0.9684 B( 20-C , 36-H ) :   0.9544
B( 21-C , 22-H ) :   0.9523 B( 21-C , 23-H ) :   0.9636 B( 26-C , 29-C ) :   0.9991
B( 26-C , 30-H ) :   0.9545 B( 26-C , 31-H ) :   0.9591 B( 29-C , 32-C ) :   0.9992
B( 29-C , 33-H ) :   0.9507 B( 29-C , 34-H ) :   0.9738 B( 32-C , 37-H ) :   0.9623
B( 32-C , 38-H ) :   0.9587

Dispersion correction           -0.042641802
FINAL SINGLE POINT ENERGY     -1190.263596868685

DIPOLE MOMENT
-------------
                                X             Y             Z
Electronic contribution:    -16.39217       3.99185     -19.61778
Nuclear contribution   :     17.27667      -5.32157      20.03034
                        -----------------------------------------
Total Dipole Moment    :      0.88449      -1.32971       0.41255
                        -----------------------------------------
Magnitude (a.u.)       :      1.64944
Magnitude (Debye)      :      4.19255

Rotational constants in cm-1:     0.014355     0.012269     0.007481
Rotational constants in MHz :   430.360270   367.823451   224.273399

                             ****ORCA TERMINATED NORMALLY****
TOTAL RUN TIME: 0 days 0 hours 1 minutes 30 seconds 808 msec
