                         Program Version 5.0.0 -  RELEASE  -
|  1> !PBE0 D3BJ RIJCOSX def2-TZVP def2/J TightSCF xyzfile
|  2>
|  3> *xyzfile 0 1 D3.xyz
|  4>
|  5> %MaxCore 64000
|  6>
|  7> %pal nprocs 18
|  8> end
|  9>
| 10> %scf
| 11>   MaxIter 150
| 12> end
| 13>
| 14>
| 15>                          ****END OF INPUT****

CARTESIAN COORDINATES (ANGSTROEM)
---------------------------------
  C      4.490588    1.155899   -2.469290
  N      4.305394    1.222762   -3.908317
  C      4.906458   -3.102816   -5.954844
  C      3.511771   -2.806215   -6.492283
  H      2.736044   -3.373445   -5.973736
  H      3.444904   -3.040831   -7.555281
  S      3.004618   -1.096206   -6.389259
  C      4.631918    2.246365   -4.670958
  N      4.541686    2.143990   -5.987139
  C      5.084086    3.393584   -4.118545
  H      4.920675    3.570501   -3.135870
  H      5.254652    4.197390   -4.706956
  H      3.824530    0.449113   -4.350926
  H      4.343373    1.249318   -6.416646
  H      4.676712    2.956624   -6.574113
  F      4.128856   -0.329647   -6.953717
  O      1.781285   -1.000779   -7.136399
  C      5.942129    0.939500   -2.036893
  H      3.864305    0.328532   -2.136611
  H      4.076233    2.049994   -1.989010
  C      6.462677   -3.117775   -3.944671
  C      5.024977   -3.025679   -4.437625
  H      4.423321   -3.818693   -3.977648
  H      4.579350   -2.087131   -4.108727
  H      5.201533   -4.100207   -6.296905
  H      5.605922   -2.397822   -6.413368
  C      6.559957   -0.356290   -2.559086
  H      5.967976    0.952567   -0.942444
  H      6.547184    1.788331   -2.368849
  C      6.006283   -1.615917   -1.899301
  H      7.642360   -0.318000   -2.402059
  H      6.414855   -0.403433   -3.642587
  C      6.608718   -2.917014   -2.435655
  H      6.190324   -1.561115   -0.820948
  H      4.919250   -1.651245   -2.016586
  H      7.066975   -2.374258   -4.475514
  H      6.887808   -4.089747   -4.215332
  H      6.135197   -3.755573   -1.915159
  H      7.671142   -2.955503   -2.172291
  O      2.851546   -0.783683   -4.956789

 Total Charge           Charge          ....    0
 Multiplicity           Mult            ....    1
 Number of Electrons    NEL             ....  144
 Basis Dimension        Dim             ....  671

ORBITAL ENERGIES
----------------

  NO   OCC          E(Eh)            E(eV)
   0   2.0000     -89.287780     -2429.6440
   1   2.0000     -24.912593      -677.9061
   2   2.0000     -19.245182      -523.6880
   3   2.0000     -19.242006      -523.6016
   4   2.0000     -14.366565      -390.9341
   5   2.0000     -14.356886      -390.6707
   6   2.0000     -10.300528      -280.2916
   7   2.0000     -10.262693      -279.2621
   8   2.0000     -10.248767      -278.8831
   9   2.0000     -10.235285      -278.5163
  10   2.0000     -10.232749      -278.4473
  11   2.0000     -10.225954      -278.2624
  12   2.0000     -10.219109      -278.0761
  13   2.0000     -10.211609      -277.8720
  14   2.0000     -10.205386      -277.7027
  15   2.0000     -10.199366      -277.5389
  16   2.0000     -10.113644      -275.2062
  17   2.0000      -8.234391      -224.0692
  18   2.0000      -6.174984      -168.0299
  19   2.0000      -6.168321      -167.8485
  20   2.0000      -6.167930      -167.8379
  21   2.0000      -1.429092       -38.8876
  22   2.0000      -1.166512       -31.7424
  23   2.0000      -1.072548       -29.1855
  24   2.0000      -0.979975       -26.6665
  25   2.0000      -0.897288       -24.4165
  26   2.0000      -0.881243       -23.9798
  27   2.0000      -0.839684       -22.8490
  28   2.0000      -0.805650       -21.9228
  29   2.0000      -0.779476       -21.2106
  30   2.0000      -0.750424       -20.4201
  31   2.0000      -0.721391       -19.6301
  32   2.0000      -0.708860       -19.2891
  33   2.0000      -0.677622       -18.4390
  34   2.0000      -0.650159       -17.6917
  35   2.0000      -0.636550       -17.3214
  36   2.0000      -0.626964       -17.0606
  37   2.0000      -0.612345       -16.6628
  38   2.0000      -0.598748       -16.2928
  39   2.0000      -0.579077       -15.7575
  40   2.0000      -0.557002       -15.1568
  41   2.0000      -0.543059       -14.7774
  42   2.0000      -0.533918       -14.5287
  43   2.0000      -0.518202       -14.1010
  44   2.0000      -0.511114       -13.9081
  45   2.0000      -0.498442       -13.5633
  46   2.0000      -0.490248       -13.3403
  47   2.0000      -0.481366       -13.0986
  48   2.0000      -0.471123       -12.8199
  49   2.0000      -0.460039       -12.5183
  50   2.0000      -0.450117       -12.2483
  51   2.0000      -0.446406       -12.1473
  52   2.0000      -0.435140       -11.8408
  53   2.0000      -0.422930       -11.5085
  54   2.0000      -0.408121       -11.1055
  55   2.0000      -0.402512       -10.9529
  56   2.0000      -0.399401       -10.8683
  57   2.0000      -0.390885       -10.6365
  58   2.0000      -0.381605       -10.3840
  59   2.0000      -0.379668       -10.3313
  60   2.0000      -0.372662       -10.1407
  61   2.0000      -0.363518        -9.8918
  62   2.0000      -0.363406        -9.8888
  63   2.0000      -0.355922        -9.6851
  64   2.0000      -0.348745        -9.4898
  65   2.0000      -0.345604        -9.4044
  66   2.0000      -0.340900        -9.2763
  67   2.0000      -0.324558        -8.8317
  68   2.0000      -0.322929        -8.7874
  69   2.0000      -0.314056        -8.5459
  70   2.0000      -0.243325        -6.6212
  71   2.0000      -0.156707        -4.2642
  72   0.0000      -0.003472        -0.0945
  73   0.0000       0.029034         0.7901
  74   0.0000       0.042259         1.1499
  75   0.0000       0.044696         1.2162
  76   0.0000       0.046282         1.2594

MULLIKEN ATOMIC CHARGES
-----------------------
   0 C :   -0.204492
   1 N :   -0.283003
   2 C :   -0.216220
   3 C :   -0.222226
   4 H :    0.167443
   5 H :    0.171617
   6 S :    0.835848
   7 C :    0.347486
   8 N :   -0.493556
   9 C :   -0.567652
  10 H :    0.107901
  11 H :    0.076797
  12 H :    0.188338
  13 H :    0.212403
  14 H :    0.244563
  15 F :   -0.122196
  16 O :   -0.376418
  17 C :   -0.096689
  18 H :    0.128451
  19 H :    0.124141
  20 C :   -0.211382
  21 C :   -0.298899
  22 H :    0.102340
  23 H :    0.137234
  24 H :    0.128344
  25 H :    0.126670
  26 C :   -0.241436
  27 H :    0.084410
  28 H :    0.132718
  29 C :   -0.261474
  30 H :    0.102548
  31 H :    0.101653
  32 C :   -0.131775
  33 H :    0.104115
  34 H :    0.114988
  35 H :    0.117392
  36 H :    0.105010
  37 H :    0.098260
  38 H :    0.104040
  39 O :   -0.437293
Sum of atomic charges:   -0.0000000

LOEWDIN ATOMIC CHARGES
----------------------
   0 C :   -0.282518
   1 N :    0.120862
   2 C :   -0.288306
   3 C :   -0.360951
   4 H :    0.158258
   5 H :    0.147985
   6 S :    0.552178
   7 C :   -0.477007
   8 N :   -0.017095
   9 C :   -0.366724
  10 H :    0.097104
  11 H :    0.090461
  12 H :    0.153517
  13 H :    0.137201
  14 H :    0.176785
  15 F :    0.077222
  16 O :   -0.233826
  17 C :   -0.269471
  18 H :    0.133000
  19 H :    0.133275
  20 C :   -0.273532
  21 C :   -0.276553
  22 H :    0.140635
  23 H :    0.141679
  24 H :    0.149043
  25 H :    0.142782
  26 C :   -0.272867
  27 H :    0.136773
  28 H :    0.146028
  29 C :   -0.275175
  30 H :    0.137919
  31 H :    0.134917
  32 C :   -0.269680
  33 H :    0.138406
  34 H :    0.133847
  35 H :    0.138503
  36 H :    0.136816
  37 H :    0.137293
  38 H :    0.139111
  39 O :   -0.267896

  Mayer bond orders larger than 0.100000
B(  0-C ,  1-N ) :   0.9700 B(  0-C , 17-C ) :   0.9839 B(  0-C , 18-H ) :   0.9753
B(  0-C , 19-H ) :   0.9607 B(  1-N ,  7-C ) :   1.1950 B(  1-N , 12-H ) :   0.8795
B(  2-C ,  3-C ) :   0.9818 B(  2-C , 21-C ) :   0.9862 B(  2-C , 24-H ) :   0.9409
B(  2-C , 25-H ) :   0.9673 B(  3-C ,  4-H ) :   0.9324 B(  3-C ,  5-H ) :   0.9419
B(  3-C ,  6-S ) :   0.9187 B(  6-S , 15-F ) :   1.0702 B(  6-S , 16-O ) :   2.0061
B(  6-S , 39-O ) :   1.7867 B(  7-C ,  8-N ) :   1.1530 B(  7-C ,  9-C ) :   1.6409
B(  8-N , 13-H ) :   0.9048 B(  8-N , 14-H ) :   0.9148 B(  9-C , 10-H ) :   0.9892
B(  9-C , 11-H ) :   0.9913 B( 17-C , 26-C ) :   1.0063 B( 17-C , 27-H ) :   0.9574
B( 17-C , 28-H ) :   0.9421 B( 20-C , 21-C ) :   1.0032 B( 20-C , 32-C ) :   1.0016
B( 20-C , 35-H ) :   0.9676 B( 20-C , 36-H ) :   0.9544 B( 21-C , 22-H ) :   0.9519
B( 21-C , 23-H ) :   0.9647 B( 26-C , 29-C ) :   0.9972 B( 26-C , 30-H ) :   0.9552
B( 26-C , 31-H ) :   0.9577 B( 29-C , 32-C ) :   0.9966 B( 29-C , 33-H ) :   0.9511
B( 29-C , 34-H ) :   0.9746 B( 32-C , 37-H ) :   0.9625 B( 32-C , 38-H ) :   0.9583

Dispersion correction           -0.042574266
FINAL SINGLE POINT ENERGY     -1190.265081459449

DIPOLE MOMENT
-------------
                                X             Y             Z
Electronic contribution:    -16.90966       2.68407     -21.37634
Nuclear contribution   :     17.35766      -5.13497      20.30937
                        -----------------------------------------
Total Dipole Moment    :      0.44800      -2.45090      -1.06697
                        -----------------------------------------
Magnitude (a.u.)       :      2.71036
Magnitude (Debye)      :      6.88919

Rotational constants in cm-1:     0.014431     0.012329     0.007535
Rotational constants in MHz :   432.628327   369.619539   225.898827

                             ****ORCA TERMINATED NORMALLY****
TOTAL RUN TIME: 0 days 0 hours 1 minutes 43 seconds 884 msec
