                         Program Version 5.0.0 -  RELEASE  -
|  1> !PBE0 D3BJ RIJCOSX def2-TZVP def2/J TightSCF xyzfile
|  2>
|  3> *xyzfile 0 1 D4.xyz
|  4>
|  5> %MaxCore 64000
|  6>
|  7> %pal nprocs 18
|  8> end
|  9>
| 10> %scf
| 11>   MaxIter 150
| 12> end
| 13>
| 14>
| 15>                          ****END OF INPUT****

CARTESIAN COORDINATES (ANGSTROEM)
---------------------------------
  C      4.490588    1.155899   -2.469290
  C      4.305394    1.222762   -3.908317
  C      4.906458   -3.102816   -5.954844
  C      3.511771   -2.806215   -6.492283
  H      2.736044   -3.373445   -5.973736
  H      3.444904   -3.040831   -7.555281
  S      3.004618   -1.096206   -6.389259
  C      4.631918    2.246365   -4.670958
  N      4.541686    2.143990   -5.987139
  N      5.084086    3.393584   -4.118545
  H      4.920675    3.570501   -3.135870
  H      5.254652    4.197390   -4.706956
  H      3.824530    0.449113   -4.350926
  H      4.343373    1.249318   -6.416646
  H      4.676712    2.956624   -6.574113
  O      4.128856   -0.329647   -6.953717
  F      1.781285   -1.000779   -7.136399
  C      5.942129    0.939500   -2.036893
  H      3.864305    0.328532   -2.136611
  H      4.076233    2.049994   -1.989010
  C      6.462677   -3.117775   -3.944671
  C      5.024977   -3.025679   -4.437625
  H      4.423321   -3.818693   -3.977648
  H      4.579350   -2.087131   -4.108727
  H      5.201533   -4.100207   -6.296905
  H      5.605922   -2.397822   -6.413368
  C      6.559957   -0.356290   -2.559086
  H      5.967976    0.952567   -0.942444
  H      6.547184    1.788331   -2.368849
  C      6.006283   -1.615917   -1.899301
  H      7.642360   -0.318000   -2.402059
  H      6.414855   -0.403433   -3.642587
  C      6.608718   -2.917014   -2.435655
  H      6.190324   -1.561115   -0.820948
  H      4.919250   -1.651245   -2.016586
  H      7.066975   -2.374258   -4.475514
  H      6.887808   -4.089747   -4.215332
  H      6.135197   -3.755573   -1.915159
  H      7.671142   -2.955503   -2.172291
  O      2.851546   -0.783683   -4.956789

 Total Charge           Charge          ....    0
 Multiplicity           Mult            ....    1
 Number of Electrons    NEL             ....  144
 Basis Dimension        Dim             ....  671

ORBITAL ENERGIES
----------------

  NO   OCC          E(Eh)            E(eV)
   0   2.0000     -89.276537     -2429.3381
   1   2.0000     -24.907315      -677.7625
   2   2.0000     -19.229729      -523.2675
   3   2.0000     -19.220391      -523.0134
   4   2.0000     -14.357528      -390.6882
   5   2.0000     -14.338003      -390.1569
   6   2.0000     -10.289984      -280.0047
   7   2.0000     -10.248240      -278.8688
   8   2.0000     -10.230550      -278.3874
   9   2.0000     -10.216042      -277.9926
  10   2.0000     -10.210704      -277.8474
  11   2.0000     -10.204385      -277.6754
  12   2.0000     -10.194079      -277.3950
  13   2.0000     -10.184691      -277.1395
  14   2.0000     -10.179087      -276.9870
  15   2.0000     -10.171484      -276.7802
  16   2.0000     -10.099050      -274.8091
  17   2.0000      -8.222867      -223.7556
  18   2.0000      -6.163099      -167.7065
  19   2.0000      -6.156936      -167.5388
  20   2.0000      -6.156660      -167.5312
  21   2.0000      -1.433195       -38.9992
  22   2.0000      -1.143423       -31.1141
  23   2.0000      -1.046389       -28.4737
  24   2.0000      -0.955261       -25.9940
  25   2.0000      -0.867222       -23.5983
  26   2.0000      -0.862683       -23.4748
  27   2.0000      -0.825456       -22.4618
  28   2.0000      -0.796077       -21.6623
  29   2.0000      -0.775529       -21.1032
  30   2.0000      -0.745615       -20.2892
  31   2.0000      -0.718370       -19.5478
  32   2.0000      -0.684117       -18.6158
  33   2.0000      -0.654728       -17.8161
  34   2.0000      -0.631258       -17.1774
  35   2.0000      -0.622613       -16.9422
  36   2.0000      -0.608206       -16.5501
  37   2.0000      -0.601435       -16.3659
  38   2.0000      -0.586186       -15.9509
  39   2.0000      -0.566090       -15.4041
  40   2.0000      -0.550141       -14.9701
  41   2.0000      -0.532215       -14.4823
  42   2.0000      -0.516814       -14.0632
  43   2.0000      -0.510650       -13.8955
  44   2.0000      -0.492399       -13.3989
  45   2.0000      -0.481318       -13.0973
  46   2.0000      -0.478907       -13.0317
  47   2.0000      -0.464640       -12.6435
  48   2.0000      -0.458168       -12.4674
  49   2.0000      -0.444561       -12.0971
  50   2.0000      -0.436442       -11.8762
  51   2.0000      -0.424069       -11.5395
  52   2.0000      -0.422821       -11.5055
  53   2.0000      -0.417246       -11.3538
  54   2.0000      -0.394713       -10.7407
  55   2.0000      -0.389343       -10.5945
  56   2.0000      -0.384605       -10.4656
  57   2.0000      -0.377129       -10.2622
  58   2.0000      -0.364724        -9.9247
  59   2.0000      -0.360388        -9.8066
  60   2.0000      -0.355166        -9.6646
  61   2.0000      -0.346630        -9.4323
  62   2.0000      -0.340855        -9.2751
  63   2.0000      -0.332029        -9.0350
  64   2.0000      -0.328534        -8.9399
  65   2.0000      -0.325104        -8.8465
  66   2.0000      -0.312300        -8.4981
  67   2.0000      -0.303408        -8.2562
  68   2.0000      -0.294810        -8.0222
  69   2.0000      -0.280690        -7.6380
  70   2.0000      -0.246365        -6.7039
  71   2.0000      -0.138835        -3.7779
  72   0.0000       0.021162         0.5759
  73   0.0000       0.029729         0.8090
  74   0.0000       0.050843         1.3835
  75   0.0000       0.055000         1.4966
  76   0.0000       0.059180         1.6104

MULLIKEN ATOMIC CHARGES
-----------------------
   0 C :   -0.280844
   1 C :   -0.355132
   2 C :   -0.190761
   3 C :   -0.218343
   4 H :    0.147068
   5 H :    0.155224
   6 S :    0.847200
   7 C :    0.278253
   8 N :   -0.477754
   9 N :   -0.493620
  10 H :    0.242637
  11 H :    0.210327
  12 H :    0.150372
  13 H :    0.255662
  14 H :    0.200746
  15 O :   -0.455388
  16 F :   -0.080804
  17 C :   -0.091445
  18 H :    0.098224
  19 H :    0.079836
  20 C :   -0.211774
  21 C :   -0.309938
  22 H :    0.091050
  23 H :    0.161652
  24 H :    0.121309
  25 H :    0.142334
  26 C :   -0.201833
  27 H :    0.065500
  28 H :    0.094998
  29 C :   -0.266312
  30 H :    0.087357
  31 H :    0.121809
  32 C :   -0.125902
  33 H :    0.096231
  34 H :    0.117200
  35 H :    0.118660
  36 H :    0.097001
  37 H :    0.091460
  38 H :    0.097399
  39 O :   -0.409656
Sum of atomic charges:   -0.0000000

LOEWDIN ATOMIC CHARGES
----------------------
   0 C :   -0.293746
   1 C :   -0.290594
   2 C :   -0.276310
   3 C :   -0.369783
   4 H :    0.145458
   5 H :    0.142401
   6 S :    0.552327
   7 C :   -0.468288
   8 N :   -0.018033
   9 N :   -0.027184
  10 H :    0.170469
  11 H :    0.155953
  12 H :    0.112052
  13 H :    0.147338
  14 H :    0.153383
  15 O :   -0.272798
  16 F :    0.113649
  17 C :   -0.268642
  18 H :    0.141359
  19 H :    0.124870
  20 C :   -0.273267
  21 C :   -0.273116
  22 H :    0.137336
  23 H :    0.148139
  24 H :    0.148105
  25 H :    0.151905
  26 C :   -0.271035
  27 H :    0.127589
  28 H :    0.134106
  29 C :   -0.274061
  30 H :    0.133164
  31 H :    0.140650
  32 C :   -0.271342
  33 H :    0.136032
  34 H :    0.135285
  35 H :    0.139902
  36 H :    0.134324
  37 H :    0.135203
  38 H :    0.137144
  39 O :   -0.249947

  Mayer bond orders larger than 0.100000
B(  0-C ,  1-C ) :   1.0100 B(  0-C , 17-C ) :   0.9776 B(  0-C , 18-H ) :   0.9864
B(  0-C , 19-H ) :   0.9632 B(  1-C ,  7-C ) :   1.6681 B(  1-C , 12-H ) :   0.9596
B(  2-C ,  3-C ) :   0.9951 B(  2-C , 21-C ) :   1.0179 B(  2-C , 24-H ) :   0.9401
B(  2-C , 25-H ) :   0.9506 B(  3-C ,  4-H ) :   0.9300 B(  3-C ,  5-H ) :   0.9315
B(  3-C ,  6-S ) :   0.9273 B(  6-S , 15-O ) :   1.7898 B(  6-S , 16-F ) :   1.1648
B(  6-S , 39-O ) :   1.8664 B(  7-C ,  8-N ) :   1.2123 B(  7-C ,  9-N ) :   1.1499
B(  8-N , 13-H ) :   0.8577 B(  8-N , 14-H ) :   0.9242 B(  9-N , 10-H ) :   0.9084
B(  9-N , 11-H ) :   0.9247 B( 17-C , 26-C ) :   1.0179 B( 17-C , 27-H ) :   0.9541
B( 17-C , 28-H ) :   0.9498 B( 20-C , 21-C ) :   1.0130 B( 20-C , 32-C ) :   1.0058
B( 20-C , 35-H ) :   0.9662 B( 20-C , 36-H ) :   0.9544 B( 21-C , 22-H ) :   0.9531
B( 21-C , 23-H ) :   0.9565 B( 26-C , 29-C ) :   0.9984 B( 26-C , 30-H ) :   0.9559
B( 26-C , 31-H ) :   0.9535 B( 29-C , 32-C ) :   0.9963 B( 29-C , 33-H ) :   0.9516
B( 29-C , 34-H ) :   0.9753 B( 32-C , 37-H ) :   0.9622 B( 32-C , 38-H ) :   0.9573

Dispersion correction           -0.043115344
FINAL SINGLE POINT ENERGY     -1190.254803223273

DIPOLE MOMENT
-------------
                                X             Y             Z
Electronic contribution:    -20.59652       3.61729     -22.06559
Nuclear contribution   :     19.99734      -4.67125      20.55522
                        -----------------------------------------
Total Dipole Moment    :     -0.59918      -1.05396      -1.51037
                        -----------------------------------------
Magnitude (a.u.)       :      1.93677
Magnitude (Debye)      :      4.92287

Rotational constants in cm-1:     0.014213     0.012058     0.007367
Rotational constants in MHz :   426.102180   361.491761   220.844824

                             ****ORCA TERMINATED NORMALLY****
TOTAL RUN TIME: 0 days 0 hours 1 minutes 41 seconds 501 msec
