                         Program Version 5.0.0 -  RELEASE  -
|  1> !PBE0 D3BJ RIJCOSX def2-TZVP def2/J TightSCF xyzfile
|  2>
|  3> *xyzfile 0 1 D5.xyz
|  4>
|  5> %MaxCore 64000
|  6>
|  7> %pal nprocs 18
|  8> end
|  9>
| 10> %scf
| 11>   MaxIter 150
| 12> end
| 13>
| 14>
| 15>                          ****END OF INPUT****

CARTESIAN COORDINATES (ANGSTROEM)
---------------------------------
  C      4.490588    1.155899   -2.469290
  N      4.305394    1.222762   -3.908317
  C      4.906458   -3.102816   -5.954844
  C      3.511771   -2.806215   -6.492283
  H      2.736044   -3.373445   -5.973736
  H      3.444904   -3.040831   -7.555281
  S      3.004618   -1.096206   -6.389259
  C      4.631918    2.246365   -4.670958
  C      4.541686    2.143990   -5.987139
  N      5.084086    3.393584   -4.118545
  H      4.920675    3.570501   -3.135870
  H      5.254652    4.197390   -4.706956
  H      3.824530    0.449113   -4.350926
  H      4.343373    1.249318   -6.416646
  H      4.676712    2.956624   -6.574113
  O      4.128856   -0.329647   -6.953717
  F      1.781285   -1.000779   -7.136399
  C      5.942129    0.939500   -2.036893
  H      3.864305    0.328532   -2.136611
  H      4.076233    2.049994   -1.989010
  C      6.462677   -3.117775   -3.944671
  C      5.024977   -3.025679   -4.437625
  H      4.423321   -3.818693   -3.977648
  H      4.579350   -2.087131   -4.108727
  H      5.201533   -4.100207   -6.296905
  H      5.605922   -2.397822   -6.413368
  C      6.559957   -0.356290   -2.559086
  H      5.967976    0.952567   -0.942444
  H      6.547184    1.788331   -2.368849
  C      6.006283   -1.615917   -1.899301
  H      7.642360   -0.318000   -2.402059
  H      6.414855   -0.403433   -3.642587
  C      6.608718   -2.917014   -2.435655
  H      6.190324   -1.561115   -0.820948
  H      4.919250   -1.651245   -2.016586
  H      7.066975   -2.374258   -4.475514
  H      6.887808   -4.089747   -4.215332
  H      6.135197   -3.755573   -1.915159
  H      7.671142   -2.955503   -2.172291
  O      2.851546   -0.783683   -4.956789

 Total Charge           Charge          ....    0
 Multiplicity           Mult            ....    1
 Number of Electrons    NEL             ....  144
 Basis Dimension        Dim             ....  671

ORBITAL ENERGIES
----------------

  NO   OCC          E(Eh)            E(eV)
   0   2.0000     -89.276286     -2429.3313
   1   2.0000     -24.906418      -677.7381
   2   2.0000     -19.228968      -523.2468
   3   2.0000     -19.218830      -522.9710
   4   2.0000     -14.354433      -390.6040
   5   2.0000     -14.343046      -390.2941
   6   2.0000     -10.290756      -280.0257
   7   2.0000     -10.251122      -278.9472
   8   2.0000     -10.235416      -278.5198
   9   2.0000     -10.231366      -278.4096
  10   2.0000     -10.223272      -278.1894
  11   2.0000     -10.218148      -278.0499
  12   2.0000     -10.214279      -277.9447
  13   2.0000     -10.208420      -277.7852
  14   2.0000     -10.202332      -277.6196
  15   2.0000     -10.201688      -277.6020
  16   2.0000     -10.088073      -274.5104
  17   2.0000      -8.222546      -223.7469
  18   2.0000      -6.162776      -167.6977
  19   2.0000      -6.156582      -167.5291
  20   2.0000      -6.156387      -167.5238
  21   2.0000      -1.432027       -38.9674
  22   2.0000      -1.142716       -31.0949
  23   2.0000      -1.045532       -28.4504
  24   2.0000      -0.963439       -26.2165
  25   2.0000      -0.878685       -23.9102
  26   2.0000      -0.868392       -23.6302
  27   2.0000      -0.833162       -22.6715
  28   2.0000      -0.803996       -21.8778
  29   2.0000      -0.774289       -21.0695
  30   2.0000      -0.748438       -20.3660
  31   2.0000      -0.720358       -19.6019
  32   2.0000      -0.690146       -18.7798
  33   2.0000      -0.662546       -18.0288
  34   2.0000      -0.639689       -17.4068
  35   2.0000      -0.621923       -16.9234
  36   2.0000      -0.609190       -16.5769
  37   2.0000      -0.608280       -16.5521
  38   2.0000      -0.594504       -16.1773
  39   2.0000      -0.576589       -15.6898
  40   2.0000      -0.564511       -15.3611
  41   2.0000      -0.528743       -14.3878
  42   2.0000      -0.518728       -14.1153
  43   2.0000      -0.504713       -13.7340
  44   2.0000      -0.492092       -13.3905
  45   2.0000      -0.487365       -13.2619
  46   2.0000      -0.476509       -12.9665
  47   2.0000      -0.475674       -12.9438
  48   2.0000      -0.462745       -12.5919
  49   2.0000      -0.455521       -12.3954
  50   2.0000      -0.443961       -12.0808
  51   2.0000      -0.437397       -11.9022
  52   2.0000      -0.427750       -11.6397
  53   2.0000      -0.410400       -11.1675
  54   2.0000      -0.401182       -10.9167
  55   2.0000      -0.398214       -10.8359
  56   2.0000      -0.388332       -10.5670
  57   2.0000      -0.383350       -10.4315
  58   2.0000      -0.371050       -10.0968
  59   2.0000      -0.367132        -9.9902
  60   2.0000      -0.364856        -9.9282
  61   2.0000      -0.357734        -9.7344
  62   2.0000      -0.348600        -9.4859
  63   2.0000      -0.343170        -9.3381
  64   2.0000      -0.336946        -9.1688
  65   2.0000      -0.330405        -8.9908
  66   2.0000      -0.320923        -8.7328
  67   2.0000      -0.319129        -8.6839
  68   2.0000      -0.313149        -8.5212
  69   2.0000      -0.302689        -8.2366
  70   2.0000      -0.236319        -6.4306
  71   2.0000      -0.140457        -3.8220
  72   0.0000       0.020759         0.5649
  73   0.0000       0.028473         0.7748
  74   0.0000       0.048054         1.3076
  75   0.0000       0.053139         1.4460
  76   0.0000       0.056896         1.5482

MULLIKEN ATOMIC CHARGES
-----------------------
   0 C :   -0.258639
   1 N :   -0.272009
   2 C :   -0.193145
   3 C :   -0.221207
   4 H :    0.143453
   5 H :    0.159220
   6 S :    0.854738
   7 C :    0.362081
   8 C :   -0.623528
   9 N :   -0.502654
  10 H :    0.222856
  11 H :    0.233495
  12 H :    0.229752
  13 H :    0.162148
  14 H :    0.079711
  15 O :   -0.405553
  16 F :   -0.078939
  17 C :   -0.074190
  18 H :    0.129225
  19 H :    0.111979
  20 C :   -0.218243
  21 C :   -0.297152
  22 H :    0.094018
  23 H :    0.137160
  24 H :    0.122145
  25 H :    0.148520
  26 C :   -0.255389
  27 H :    0.077966
  28 H :    0.110274
  29 C :   -0.259103
  30 H :    0.099632
  31 H :    0.134587
  32 C :   -0.129219
  33 H :    0.101086
  34 H :    0.113046
  35 H :    0.123869
  36 H :    0.101438
  37 H :    0.095664
  38 H :    0.102083
  39 O :   -0.461180
Sum of atomic charges:   -0.0000000

LOEWDIN ATOMIC CHARGES
----------------------
   0 C :   -0.303708
   1 N :    0.124221
   2 C :   -0.275530
   3 C :   -0.370780
   4 H :    0.143397
   5 H :    0.144224
   6 S :    0.555900
   7 C :   -0.473704
   8 C :   -0.358045
   9 N :   -0.026490
  10 H :    0.156303
  11 H :    0.171248
  12 H :    0.167931
  13 H :    0.085844
  14 H :    0.090626
  15 O :   -0.245899
  16 F :    0.116503
  17 C :   -0.275458
  18 H :    0.134377
  19 H :    0.122847
  20 C :   -0.272560
  21 C :   -0.273999
  22 H :    0.137872
  23 H :    0.143040
  24 H :    0.148620
  25 H :    0.153655
  26 C :   -0.271398
  27 H :    0.134412
  28 H :    0.138033
  29 C :   -0.275358
  30 H :    0.137552
  31 H :    0.143156
  32 C :   -0.270024
  33 H :    0.137019
  34 H :    0.133780
  35 H :    0.140816
  36 H :    0.136057
  37 H :    0.136572
  38 H :    0.138464
  39 O :   -0.279517

  Mayer bond orders larger than 0.100000
B(  0-C ,  1-N ) :   0.9779 B(  0-C , 17-C ) :   0.9580 B(  0-C , 18-H ) :   0.9771
B(  0-C , 19-H ) :   0.9745 B(  1-N ,  7-C ) :   1.2121 B(  1-N , 12-H ) :   0.8770
B(  2-C ,  3-C ) :   0.9959 B(  2-C , 21-C ) :   1.0218 B(  2-C , 24-H ) :   0.9398
B(  2-C , 25-H ) :   0.9484 B(  3-C ,  4-H ) :   0.9291 B(  3-C ,  5-H ) :   0.9319
B(  3-C ,  6-S ) :   0.9303 B(  6-S , 15-O ) :   1.8594 B(  6-S , 16-F ) :   1.1698
B(  6-S , 39-O ) :   1.7810 B(  7-C ,  8-C ) :   1.6077 B(  7-C ,  9-N ) :   1.1269
B(  8-C , 13-H ) :   0.9925 B(  8-C , 14-H ) :   0.9895 B(  9-N , 10-H ) :   0.9137
B(  9-N , 11-H ) :   0.9201 B( 17-C , 26-C ) :   0.9990 B( 17-C , 27-H ) :   0.9493
B( 17-C , 28-H ) :   0.9471 B( 20-C , 21-C ) :   1.0113 B( 20-C , 32-C ) :   1.0006
B( 20-C , 35-H ) :   0.9682 B( 20-C , 36-H ) :   0.9539 B( 21-C , 22-H ) :   0.9531
B( 21-C , 23-H ) :   0.9586 B( 26-C , 29-C ) :   0.9994 B( 26-C , 30-H ) :   0.9541
B( 26-C , 31-H ) :   0.9576 B( 29-C , 32-C ) :   0.9998 B( 29-C , 33-H ) :   0.9512
B( 29-C , 34-H ) :   0.9739 B( 32-C , 37-H ) :   0.9623 B( 32-C , 38-H ) :   0.9584

Dispersion correction           -0.042910259
FINAL SINGLE POINT ENERGY     -1190.246238654018

DIPOLE MOMENT
-------------
                                X             Y             Z
Electronic contribution:    -20.62903       2.69115     -20.20241
Nuclear contribution   :     20.03262      -4.53368      20.24480
                        -----------------------------------------
Total Dipole Moment    :     -0.59640      -1.84253       0.04239
                        -----------------------------------------
Magnitude (a.u.)       :      1.93712
Magnitude (Debye)      :      4.92376

Rotational constants in cm-1:     0.014367     0.012055     0.007393
Rotational constants in MHz :   430.711297   361.391195   221.649333

                             ****ORCA TERMINATED NORMALLY****
TOTAL RUN TIME: 0 days 0 hours 1 minutes 43 seconds 467 msec
