                         Program Version 5.0.0 -  RELEASE  -
|  1> !LC-BLYP RIJCOSX def2-TZVP def2/J TightSCF
|  2> *xyz -1 1
|  3> C          4.08422        1.74208       -2.11472
|  4> C          4.26524        2.50052       -0.79589
|  5> H          4.86853        3.39267       -0.98113
|  6> H          3.30764        2.82457       -0.38781
|  7> C          4.98224        1.65026        0.24742
|  8> O          4.36806        1.38927        1.31371
|  9> O          6.12892        1.23351       -0.04562
| 10> H          3.57911        2.36849       -2.81997
| 11> H          3.50424        0.85965       -1.94198
| 12> H          5.04288        1.46841       -2.50327
| 13> *
| 14> %MaxCore 64000
| 15> %pal nprocs 8
| 16> end
| 17> %scf
| 18>   MaxIter 150
| 19> end
| 20>
| 21>
| 22>                          ****END OF INPUT****

CARTESIAN COORDINATES (ANGSTROEM)
---------------------------------
  C      4.084220    1.742080   -2.114720
  C      4.265240    2.500520   -0.795890
  H      4.868530    3.392670   -0.981130
  H      3.307640    2.824570   -0.387810
  C      4.982240    1.650260    0.247420
  O      4.368060    1.389270    1.313710
  O      6.128920    1.233510   -0.045620
  H      3.579110    2.368490   -2.819970
  H      3.504240    0.859650   -1.941980
  H      5.042880    1.468410   -2.503270

 Total Charge           Charge          ....   -1
 Multiplicity           Mult            ....    1
 Number of Electrons    NEL             ....   40
 Basis Dimension        Dim             ....  185

ORBITAL ENERGIES
----------------

  NO   OCC          E(Eh)            E(eV)
   0   2.0000     -18.660979      -507.7910
   1   2.0000     -18.660556      -507.7795
   2   2.0000      -9.943961      -270.5889
   3   2.0000      -9.902237      -269.4536
   4   2.0000      -9.889892      -269.1177
   5   2.0000      -0.904118       -24.6023
   6   2.0000      -0.809150       -22.0181
   7   2.0000      -0.712777       -19.3957
   8   2.0000      -0.579362       -15.7652
   9   2.0000      -0.423337       -11.5196
  10   2.0000      -0.396130       -10.7793
  11   2.0000      -0.357672        -9.7328
  12   2.0000      -0.330307        -8.9881
  13   2.0000      -0.311066        -8.4645
  14   2.0000      -0.303563        -8.2604
  15   2.0000      -0.271455        -7.3867
  16   2.0000      -0.258999        -7.0477
  17   2.0000      -0.138253        -3.7621
  18   2.0000      -0.132354        -3.6015
  19   2.0000      -0.117677        -3.2022
  20   0.0000       0.247233         6.7275
  21   0.0000       0.288756         7.8574
  22   0.0000       0.312740         8.5101
  23   0.0000       0.313892         8.5414
  24   0.0000       0.334099         9.0913

MULLIKEN ATOMIC CHARGES
-----------------------
   0 C :   -0.379143
   1 C :   -0.174267
   2 H :    0.055085
   3 H :    0.058382
   4 C :    0.068719
   5 O :   -0.460602
   6 O :   -0.461692
   7 H :    0.071332
   8 H :    0.106996
   9 H :    0.115189
Sum of atomic charges:   -1.0000000

LOEWDIN ATOMIC CHARGES
----------------------
   0 C :   -0.337625
   1 C :   -0.300263
   2 H :    0.124969
   3 H :    0.121419
   4 C :   -0.728557
   5 O :   -0.105862
   6 O :   -0.101214
   7 H :    0.097572
   8 H :    0.113432
   9 H :    0.116129

  Mayer bond orders larger than 0.100000
B(  0-C ,  1-C ) :   0.9324 B(  0-C ,  7-H ) :   0.9788 B(  0-C ,  8-H ) :   0.9836
B(  0-C ,  9-H ) :   0.9707 B(  1-C ,  2-H ) :   0.9635 B(  1-C ,  3-H ) :   0.9625
B(  1-C ,  4-C ) :   0.9162 B(  4-C ,  5-O ) :   1.9753 B(  4-C ,  6-O ) :   1.9230

FINAL SINGLE POINT ENERGY      -267.347370051321

DIPOLE MOMENT
-------------
                                X             Y             Z
Electronic contribution:      2.44340      -1.48141       5.14163
Nuclear contribution   :     -3.31311       2.28398      -6.76358
                        -----------------------------------------
Total Dipole Moment    :     -0.86971       0.80257      -1.62195
                        -----------------------------------------
Magnitude (a.u.)       :      2.00779
Magnitude (Debye)      :      5.10340

Rotational constants in cm-1:     0.309287     0.135287     0.107346
Rotational constants in MHz :  9272.201029  4055.789113  3218.155789

                             ****ORCA TERMINATED NORMALLY****
TOTAL RUN TIME: 0 days 0 hours 0 minutes 11 seconds 95 msec
