                         Program Version 5.0.0 -  RELEASE  -
|  1> !LC-BLYP RIJCOSX def2-TZVP def2/J TightSCF
|  2> *xyz 1 1
|  3> C          3.91385       -1.65829        3.01513
|  4> N          5.03927       -0.90115        2.49282
|  5> C          6.21038       -1.41726        2.17824
|  6> N          6.53591       -2.67712        2.55608
|  7> N          7.07675       -0.70082        1.47891
|  8> H          7.95464       -1.12155        1.20755
|  9> H          6.75616        0.10664        0.96028
| 10> H          4.84217        0.01761        2.11519
| 11> H          5.99388       -3.12692        3.28278
| 12> C          3.13916       -2.37657        1.91061
| 13> H          3.26723       -0.93940        3.52069
| 14> H          4.24720       -2.35509        3.79006
| 15> H          7.49844       -2.97548        2.46878
| 16> H          2.82969       -1.66654        1.17238
| 17> H          2.27790       -2.85264        2.33072
| 18> H          3.76754       -3.11338        1.45548
| 19> *
| 20> %MaxCore 64000
| 21> %pal nprocs 8
| 22> end
| 23> %scf
| 24>   MaxIter 150
| 25> end
| 26>
| 27>
| 28>                          ****END OF INPUT****

CARTESIAN COORDINATES (ANGSTROEM)
---------------------------------
  C      3.913850   -1.658290    3.015130
  N      5.039270   -0.901150    2.492820
  C      6.210380   -1.417260    2.178240
  N      6.535910   -2.677120    2.556080
  N      7.076750   -0.700820    1.478910
  H      7.954640   -1.121550    1.207550
  H      6.756160    0.106640    0.960280
  H      4.842170    0.017610    2.115190
  H      5.993880   -3.126920    3.282780
  C      3.139160   -2.376570    1.910610
  H      3.267230   -0.939400    3.520690
  H      4.247200   -2.355090    3.790060
  H      7.498440   -2.975480    2.468780
  H      2.829690   -1.666540    1.172380
  H      2.277900   -2.852640    2.330720
  H      3.767540   -3.113380    1.455480

 Total Charge           Charge          ....    1
 Multiplicity           Mult            ....    1
 Number of Electrons    NEL             ....   48
 Basis Dimension        Dim             ....  246

ORBITAL ENERGIES
----------------

  NO   OCC          E(Eh)            E(eV)
   0   2.0000     -14.395309      -391.7163
   1   2.0000     -14.393033      -391.6543
   2   2.0000     -14.390677      -391.5902
   3   2.0000     -10.406991      -283.1886
   4   2.0000     -10.276577      -279.6399
   5   2.0000     -10.202161      -277.6149
   6   2.0000      -1.318855       -35.8879
   7   2.0000      -1.209827       -32.9211
   8   2.0000      -1.192725       -32.4557
   9   2.0000      -1.040404       -28.3108
  10   2.0000      -0.948406       -25.8074
  11   2.0000      -0.910055       -24.7639
  12   2.0000      -0.893319       -24.3084
  13   2.0000      -0.849323       -23.1112
  14   2.0000      -0.795102       -21.6358
  15   2.0000      -0.787045       -21.4166
  16   2.0000      -0.762345       -20.7445
  17   2.0000      -0.736690       -20.0464
  18   2.0000      -0.705954       -19.2100
  19   2.0000      -0.665734       -18.1155
  20   2.0000      -0.631953       -17.1963
  21   2.0000      -0.610895       -16.6233
  22   2.0000      -0.578365       -15.7381
  23   2.0000      -0.547993       -14.9116
  24   0.0000      -0.091001        -2.4763
  25   0.0000      -0.083632        -2.2757
  26   0.0000      -0.056692        -1.5427
  27   0.0000      -0.046451        -1.2640
  28   0.0000      -0.022208        -0.6043

MULLIKEN ATOMIC CHARGES
-----------------------
   0 C :   -0.258598
   1 N :   -0.204850
   2 C :    0.370293
   3 N :   -0.382414
   4 N :   -0.365439
   5 H :    0.281304
   6 H :    0.281391
   7 H :    0.255499
   8 H :    0.278071
   9 C :   -0.351828
  10 H :    0.192970
  11 H :    0.150030
  12 H :    0.274915
  13 H :    0.152373
  14 H :    0.178971
  15 H :    0.147311
Sum of atomic charges:    1.0000000

LOEWDIN ATOMIC CHARGES
----------------------
   0 C :   -0.294782
   1 N :    0.178219
   2 C :   -0.407504
   3 N :    0.050149
   4 N :    0.068187
   5 H :    0.200227
   6 H :    0.200523
   7 H :    0.213842
   8 H :    0.194247
   9 C :   -0.296209
  10 H :    0.156823
  11 H :    0.141463
  12 H :    0.196633
  13 H :    0.130225
  14 H :    0.140894
  15 H :    0.127064

  Mayer bond orders larger than 0.100000
B(  0-C ,  1-N ) :   0.8687 B(  0-C ,  9-C ) :   0.9229 B(  0-C , 10-H ) :   0.9628
B(  0-C , 11-H ) :   0.9770 B(  1-N ,  2-C ) :   1.3981 B(  1-N ,  7-H ) :   0.9082
B(  2-C ,  3-N ) :   1.3066 B(  2-C ,  4-N ) :   1.3321 B(  3-N ,  8-H ) :   0.8952
B(  3-N , 12-H ) :   0.9043 B(  4-N ,  5-H ) :   0.9022 B(  4-N ,  6-H ) :   0.9018
B(  9-C , 13-H ) :   0.9641 B(  9-C , 14-H ) :   0.9701 B(  9-C , 15-H ) :   0.9597

FINAL SINGLE POINT ENERGY      -283.779512467532

DIPOLE MOMENT
-------------
                                X             Y             Z
Electronic contribution:      4.72226       1.92059       0.07293
Nuclear contribution   :     -3.67981      -1.62355      -0.28562
                        -----------------------------------------
Total Dipole Moment    :      1.04245       0.29705      -0.21269
                        -----------------------------------------
Magnitude (a.u.)       :      1.10462
Magnitude (Debye)      :      2.80771

Rotational constants in cm-1:     0.222027     0.074735     0.065694
Rotational constants in MHz :  6656.200457  2240.503315  1969.451902

                             ****ORCA TERMINATED NORMALLY****
TOTAL RUN TIME: 0 days 0 hours 0 minutes 17 seconds 673 msec
