                         Program Version 5.0.0 -  RELEASE  -
|  1> !LC-BLYP RIJCOSX def2-TZVP def2/J TightSCF xyzfile
|  2>
|  3> *xyzfile 0 1 B.xyz
|  4>
|  5> %MaxCore 64000
|  6>
|  7> %pal nprocs 18
|  8> end
|  9>
| 10> %scf
| 11>   MaxIter 150
| 12> end
| 13>
| 14>
| 15>                          ****END OF INPUT****

CARTESIAN COORDINATES (ANGSTROEM)
---------------------------------
  C      3.913853   -1.658291    3.015134
  N      5.039266   -0.901154    2.492821
  C      4.084215    1.742081   -2.114724
  C      4.265245    2.500518   -0.795890
  H      4.868534    3.392674   -0.981134
  H      3.307640    2.824571   -0.387809
  C      4.982240    1.650257    0.247422
  C      6.210384   -1.417261    2.178244
  N      6.535913   -2.677122    2.556078
  N      7.076754   -0.700820    1.478906
  H      7.954643   -1.121554    1.207554
  H      6.756161    0.106637    0.960278
  H      4.842168    0.017609    2.115191
  H      5.993876   -3.126918    3.282784
  H      7.498441   -2.975482    2.468776
  O      4.368065    1.389270    1.313706
  O      6.128919    1.233512   -0.045620
  C      3.139159   -2.376572    1.910609
  H      3.267235   -0.939401    3.520693
  H      4.247195   -2.355095    3.790065
  C      1.997274    0.430918   -1.399218
  C      3.412746    0.376886   -1.965497
  H      4.047407   -0.246590   -1.326706
  H      3.390774   -0.118719   -2.942839
  H      5.068475    1.598504   -2.565728
  H      3.503356    2.363939   -2.804565
  C      2.399946   -1.389579    1.009490
  H      2.440750   -3.087118    2.362976
  H      3.844475   -2.970462    1.318677
  C      2.070177   -1.936705   -0.372401
  H      1.481611   -1.061542    1.509912
  H      3.008628   -0.490001    0.897451
  C      1.322238   -0.935775   -1.256413
  H      1.472747   -2.850902   -0.283997
  H      3.003539   -2.234041   -0.862535
  H      1.376444    1.058920   -2.047420
  H      2.015341    0.929780   -0.426535
  H      0.316648   -0.787213   -0.848278
  H      1.185611   -1.379252   -2.248613

 Total Charge           Charge          ....    0
 Multiplicity           Mult            ....    1
 Number of Electrons    NEL             ....  126
 Basis Dimension        Dim             ....  634

ORBITAL ENERGIES
----------------

  NO   OCC          E(Eh)            E(eV)
   0   2.0000     -18.856317      -513.1065
   1   2.0000     -18.855010      -513.0709
   2   2.0000     -14.235242      -387.3606
   3   2.0000     -14.200605      -386.4181
   4   2.0000     -14.194204      -386.2439
   5   2.0000     -10.230019      -278.3730
   6   2.0000     -10.129237      -275.6306
   7   2.0000     -10.125246      -275.5220
   8   2.0000     -10.075131      -274.1583
   9   2.0000     -10.052872      -273.5525
  10   2.0000     -10.052290      -273.5367
  11   2.0000     -10.048769      -273.4409
  12   2.0000     -10.039560      -273.1903
  13   2.0000     -10.038094      -273.1504
  14   2.0000     -10.037354      -273.1303
  15   2.0000     -10.028931      -272.9011
  16   2.0000      -1.143297       -31.1107
  17   2.0000      -1.101128       -29.9632
  18   2.0000      -1.036124       -28.1944
  19   2.0000      -1.020521       -27.7698
  20   2.0000      -1.004131       -27.3238
  21   2.0000      -0.921406       -25.0727
  22   2.0000      -0.896581       -24.3972
  23   2.0000      -0.867566       -23.6077
  24   2.0000      -0.826937       -22.5021
  25   2.0000      -0.788309       -21.4510
  26   2.0000      -0.769846       -20.9486
  27   2.0000      -0.740148       -20.1404
  28   2.0000      -0.723654       -19.6916
  29   2.0000      -0.710816       -19.3423
  30   2.0000      -0.682344       -18.5675
  31   2.0000      -0.676121       -18.3982
  32   2.0000      -0.646011       -17.5789
  33   2.0000      -0.626750       -17.0547
  34   2.0000      -0.622952       -16.9514
  35   2.0000      -0.605178       -16.4677
  36   2.0000      -0.577284       -15.7087
  37   2.0000      -0.572550       -15.5799
  38   2.0000      -0.565986       -15.4013
  39   2.0000      -0.559710       -15.2305
  40   2.0000      -0.546297       -14.8655
  41   2.0000      -0.526177       -14.3180
  42   2.0000      -0.525955       -14.3120
  43   2.0000      -0.520124       -14.1533
  44   2.0000      -0.509825       -13.8731
  45   2.0000      -0.501421       -13.6444
  46   2.0000      -0.485086       -13.1999
  47   2.0000      -0.473267       -12.8783
  48   2.0000      -0.465497       -12.6668
  49   2.0000      -0.455394       -12.3919
  50   2.0000      -0.446500       -12.1499
  51   2.0000      -0.438860       -11.9420
  52   2.0000      -0.425080       -11.5670
  53   2.0000      -0.416696       -11.3389
  54   2.0000      -0.412274       -11.2186
  55   2.0000      -0.406067       -11.0496
  56   2.0000      -0.395000       -10.7485
  57   2.0000      -0.390338       -10.6216
  58   2.0000      -0.382709       -10.4140
  59   2.0000      -0.371807       -10.1174
  60   2.0000      -0.331045        -9.0082
  61   2.0000      -0.319536        -8.6950
  62   2.0000      -0.314904        -8.5690
  63   0.0000       0.052560         1.4302
  64   0.0000       0.081690         2.2229
  65   0.0000       0.087328         2.3763
  66   0.0000       0.106280         2.8920
  67   0.0000       0.118109         3.2139

MULLIKEN ATOMIC CHARGES
-----------------------
   0 C :   -0.290678
   1 N :   -0.188460
   2 C :   -0.217765
   3 C :   -0.251367
   4 H :    0.123664
   5 H :    0.134065
   6 C :    0.230087
   7 C :    0.326893
   8 N :   -0.421031
   9 N :   -0.354917
  10 H :    0.225286
  11 H :    0.272209
  12 H :    0.260650
  13 H :    0.251696
  14 H :    0.243762
  15 O :   -0.472021
  16 O :   -0.465003
  17 C :   -0.196564
  18 H :    0.177719
  19 H :    0.134591
  20 C :   -0.300820
  21 C :   -0.277939
  22 H :    0.135879
  23 H :    0.116481
  24 H :    0.128755
  25 H :    0.113025
  26 C :   -0.278668
  27 H :    0.131000
  28 H :    0.134480
  29 C :   -0.282730
  30 H :    0.126124
  31 H :    0.155062
  32 C :   -0.224575
  33 H :    0.121536
  34 H :    0.139389
  35 H :    0.122119
  36 H :    0.168348
  37 H :    0.125497
  38 H :    0.124224
Sum of atomic charges:   -0.0000000

LOEWDIN ATOMIC CHARGES
----------------------
   0 C :   -0.285749
   1 N :    0.181151
   2 C :   -0.275368
   3 C :   -0.248324
   4 H :    0.146946
   5 H :    0.139552
   6 C :   -0.650989
   7 C :   -0.429489
   8 N :    0.005961
   9 N :    0.059414
  10 H :    0.175890
  11 H :    0.149807
  12 H :    0.171195
  13 H :    0.178921
  14 H :    0.179533
  15 O :   -0.047154
  16 O :   -0.033969
  17 C :   -0.276528
  18 H :    0.153740
  19 H :    0.127440
  20 C :   -0.279118
  21 C :   -0.277338
  22 H :    0.142024
  23 H :    0.137695
  24 H :    0.143713
  25 H :    0.136084
  26 C :   -0.277469
  27 H :    0.141343
  28 H :    0.142172
  29 C :   -0.283580
  30 H :    0.142093
  31 H :    0.150655
  32 C :   -0.278432
  33 H :    0.137243
  34 H :    0.138610
  35 H :    0.139330
  36 H :    0.145088
  37 H :    0.139124
  38 H :    0.138784

  Mayer bond orders larger than 0.100000
B(  0-C ,  1-N ) :   0.9163 B(  0-C , 17-C ) :   0.8770 B(  0-C , 18-H ) :   0.9766
B(  0-C , 19-H ) :   1.0101 B(  1-N ,  7-C ) :   1.4416 B(  1-N , 12-H ) :   0.7689
B(  2-C ,  3-C ) :   0.9158 B(  2-C , 21-C ) :   0.9513 B(  2-C , 24-H ) :   0.9786
B(  2-C , 25-H ) :   0.9795 B(  3-C ,  4-H ) :   0.9684 B(  3-C ,  5-H ) :   0.9947
B(  3-C ,  6-C ) :   0.9198 B(  6-C , 15-O ) :   1.6849 B(  6-C , 16-O ) :   1.7136
B(  7-C ,  8-N ) :   1.2149 B(  7-C ,  9-N ) :   1.4057 B(  8-N , 13-H ) :   0.9088
B(  8-N , 14-H ) :   0.9209 B(  9-N , 10-H ) :   0.9260 B(  9-N , 11-H ) :   0.7534
B( 11-H , 16-O ) :   0.2477 B( 12-H , 15-O ) :   0.2402 B( 17-C , 26-C ) :   0.8849
B( 17-C , 27-H ) :   0.9757 B( 17-C , 28-H ) :   0.9876 B( 20-C , 21-C ) :   0.8714
B( 20-C , 32-C ) :   0.9254 B( 20-C , 35-H ) :   0.9818 B( 20-C , 36-H ) :   0.9837
B( 21-C , 22-H ) :   0.9794 B( 21-C , 23-H ) :   0.9835 B( 26-C , 29-C ) :   0.8848
B( 26-C , 30-H ) :   0.9753 B( 26-C , 31-H ) :   0.9809 B( 29-C , 32-C ) :   0.9399
B( 29-C , 33-H ) :   0.9883 B( 29-C , 34-H ) :   0.9853 B( 32-C , 37-H ) :   0.9939
B( 32-C , 38-H ) :   0.9906

FINAL SINGLE POINT ENERGY      -746.194017023670

DIPOLE MOMENT
-------------
                                X             Y             Z
Electronic contribution:     12.33272       3.28614       7.68622
Nuclear contribution   :    -11.44764      -6.21818      -6.18483
                        -----------------------------------------
Total Dipole Moment    :      0.88508      -2.93204       1.50139
                        -----------------------------------------
Magnitude (a.u.)       :      3.41092
Magnitude (Debye)      :      8.66987

Rotational constants in cm-1:     0.020281     0.013510     0.009451
Rotational constants in MHz :   608.005987   405.034308   283.324538

                             ****ORCA TERMINATED NORMALLY****
TOTAL RUN TIME: 0 days 0 hours 1 minutes 44 seconds 765 msec
