                         Program Version 5.0.0 -  RELEASE  -
|  1> !LC-BLYP RIJCOSX def2-TZVP def2/J TightSCF
|  2> *xyz 0 1
|  3> C          4.08422        1.74208       -2.11472
|  4> C          4.26524        2.50052       -0.79589
|  5> H          4.86853        3.39267       -0.98113
|  6> H          3.30764        2.82457       -0.38781
|  7> C          4.98224        1.65026        0.24742
|  8> F          4.36806        1.38927        1.31371
|  9> O          6.12892        1.23351       -0.04562
| 10> H          3.57911        2.36849       -2.81997
| 11> H          3.50424        0.85965       -1.94198
| 12> H          5.04288        1.46841       -2.50327
| 13> *
| 14> %MaxCore 64000
| 15> %pal nprocs 8
| 16> end
| 17> %scf
| 18>   MaxIter 150
| 19> end
| 20>
| 21>
| 22>                          ****END OF INPUT****

CARTESIAN COORDINATES (ANGSTROEM)
---------------------------------
  C      4.084220    1.742080   -2.114720
  C      4.265240    2.500520   -0.795890
  H      4.868530    3.392670   -0.981130
  H      3.307640    2.824570   -0.387810
  C      4.982240    1.650260    0.247420
  F      4.368060    1.389270    1.313710
  O      6.128920    1.233510   -0.045620
  H      3.579110    2.368490   -2.819970
  H      3.504240    0.859650   -1.941980
  H      5.042880    1.468410   -2.503270

 Total Charge           Charge          ....    0
 Multiplicity           Mult            ....    1
 Number of Electrons    NEL             ....   40
 Basis Dimension        Dim             ....  185

ORBITAL ENERGIES
----------------

  NO   OCC          E(Eh)            E(eV)
   0   2.0000     -24.522854      -667.3008
   1   2.0000     -18.943655      -515.4831
   2   2.0000     -10.248852      -278.8855
   3   2.0000     -10.101379      -274.8725
   4   2.0000     -10.073107      -274.1032
   5   2.0000      -1.396923       -38.0122
   6   2.0000      -1.126640       -30.6574
   7   2.0000      -0.912198       -24.8222
   8   2.0000      -0.796424       -21.6718
   9   2.0000      -0.743940       -20.2436
  10   2.0000      -0.656317       -17.8593
  11   2.0000      -0.639262       -17.3952
  12   2.0000      -0.612979       -16.6800
  13   2.0000      -0.571349       -15.5472
  14   2.0000      -0.537904       -14.6371
  15   2.0000      -0.501970       -13.6593
  16   2.0000      -0.479674       -13.0526
  17   2.0000      -0.473991       -12.8980
  18   2.0000      -0.448569       -12.2062
  19   2.0000      -0.393941       -10.7197
  20   0.0000       0.052788         1.4364
  21   0.0000       0.098861         2.6902
  22   0.0000       0.137094         3.7305
  23   0.0000       0.153148         4.1674
  24   0.0000       0.163466         4.4481

MULLIKEN ATOMIC CHARGES
-----------------------
   0 C :   -0.402745
   1 C :   -0.259007
   2 H :    0.150353
   3 H :    0.131030
   4 C :    0.286802
   5 F :   -0.065209
   6 O :   -0.274960
   7 H :    0.138835
   8 H :    0.136533
   9 H :    0.158367
Sum of atomic charges:   -0.0000000

LOEWDIN ATOMIC CHARGES
----------------------
   0 C :   -0.300274
   1 C :   -0.269863
   2 H :    0.159477
   3 H :    0.142810
   4 C :   -0.525002
   5 F :    0.335889
   6 O :    0.078066
   7 H :    0.123975
   8 H :    0.124625
   9 H :    0.130297

  Mayer bond orders larger than 0.100000
B(  0-C ,  1-C ) :   0.9369 B(  0-C ,  7-H ) :   0.9747 B(  0-C ,  8-H ) :   0.9728
B(  0-C ,  9-H ) :   0.9662 B(  1-C ,  2-H ) :   0.9479 B(  1-C ,  3-H ) :   0.9629
B(  1-C ,  4-C ) :   0.9595 B(  4-C ,  5-F ) :   1.2123 B(  4-C ,  6-O ) :   2.1078

FINAL SINGLE POINT ENERGY      -291.903735086583

DIPOLE MOMENT
-------------
                                X             Y             Z
Electronic contribution:      1.91612      -2.03332       8.14064
Nuclear contribution   :     -2.87511       2.61564      -8.50037
                        -----------------------------------------
Total Dipole Moment    :     -0.95898       0.58231      -0.35972
                        -----------------------------------------
Magnitude (a.u.)       :      1.17819
Magnitude (Debye)      :      2.99472

Rotational constants in cm-1:     0.297822     0.128965     0.102219
Rotational constants in MHz :  8928.481997  3866.271686  3064.463504

                             ****ORCA TERMINATED NORMALLY****
TOTAL RUN TIME: 0 days 0 hours 0 minutes 12 seconds 543 msec
