                         Program Version 5.0.0 -  RELEASE  -
|  1> !LC-BLYP RIJCOSX def2-TZVP def2/J TightSCF
|  2> *xyz 0 1
|  3> C          3.91385       -1.65829        3.01513
|  4> C          5.03927       -0.90115        2.49282
|  5> C          6.21038       -1.41726        2.17824
|  6> N          6.53591       -2.67712        2.55608
|  7> N          7.07675       -0.70082        1.47891
|  8> H          7.95464       -1.12155        1.20755
|  9> H          6.75616        0.10664        0.96028
| 10> H          4.84217        0.01761        2.11519
| 11> H          5.99388       -3.12692        3.28278
| 12> C          3.13916       -2.37657        1.91061
| 13> H          3.26723       -0.93940        3.52069
| 14> H          4.24720       -2.35509        3.79006
| 15> H          7.49844       -2.97548        2.46878
| 16> H          2.82969       -1.66654        1.17238
| 17> H          2.27790       -2.85264        2.33072
| 18> H          3.76754       -3.11338        1.45548
| 19> *
| 20> %MaxCore 64000
| 21> %pal nprocs 8
| 22> end
| 23> %scf
| 24>   MaxIter 150
| 25> end
| 26>
| 27>
| 28>                          ****END OF INPUT****

CARTESIAN COORDINATES (ANGSTROEM)
---------------------------------
  C      3.913850   -1.658290    3.015130
  C      5.039270   -0.901150    2.492820
  C      6.210380   -1.417260    2.178240
  N      6.535910   -2.677120    2.556080
  N      7.076750   -0.700820    1.478910
  H      7.954640   -1.121550    1.207550
  H      6.756160    0.106640    0.960280
  H      4.842170    0.017610    2.115190
  H      5.993880   -3.126920    3.282780
  C      3.139160   -2.376570    1.910610
  H      3.267230   -0.939400    3.520690
  H      4.247200   -2.355090    3.790060
  H      7.498440   -2.975480    2.468780
  H      2.829690   -1.666540    1.172380
  H      2.277900   -2.852640    2.330720
  H      3.767540   -3.113380    1.455480

 Total Charge           Charge          ....    0
 Multiplicity           Mult            ....    1
 Number of Electrons    NEL             ....   48
 Basis Dimension        Dim             ....  246

ORBITAL ENERGIES
----------------

  NO   OCC          E(Eh)            E(eV)
   0   2.0000     -14.167496      -385.5172
   1   2.0000     -14.165099      -385.4519
   2   2.0000     -10.110706      -275.1263
   3   2.0000     -10.041152      -273.2336
   4   2.0000     -10.028961      -272.9019
   5   2.0000      -9.987163      -271.7645
   6   2.0000      -1.060292       -28.8520
   7   2.0000      -0.969551       -26.3828
   8   2.0000      -0.881578       -23.9890
   9   2.0000      -0.799720       -21.7615
  10   2.0000      -0.722336       -19.6558
  11   2.0000      -0.681607       -18.5475
  12   2.0000      -0.644257       -17.5311
  13   2.0000      -0.613506       -16.6943
  14   2.0000      -0.571846       -15.5607
  15   2.0000      -0.540363       -14.7040
  16   2.0000      -0.523984       -14.2583
  17   2.0000      -0.492459       -13.4005
  18   2.0000      -0.482185       -13.1209
  19   2.0000      -0.454390       -12.3646
  20   2.0000      -0.424645       -11.5552
  21   2.0000      -0.414654       -11.2833
  22   2.0000      -0.365480        -9.9452
  23   2.0000      -0.252540        -6.8720
  24   0.0000       0.083699         2.2776
  25   0.0000       0.115650         3.1470
  26   0.0000       0.122389         3.3304
  27   0.0000       0.147010         4.0004
  28   0.0000       0.151945         4.1346

MULLIKEN ATOMIC CHARGES
-----------------------
   0 C :   -0.294844
   1 C :   -0.349396
   2 C :    0.332555
   3 N :   -0.449923
   4 N :   -0.437747
   5 H :    0.211063
   6 H :    0.238172
   7 H :    0.094018
   8 H :    0.234578
   9 C :   -0.333393
  10 H :    0.115553
  11 H :    0.077471
  12 H :    0.210212
  13 H :    0.116218
  14 H :    0.114140
  15 H :    0.121322
Sum of atomic charges:    0.0000000

LOEWDIN ATOMIC CHARGES
----------------------
   0 C :   -0.315478
   1 C :   -0.286674
   2 C :   -0.457430
   3 N :   -0.029433
   4 N :   -0.014257
   5 H :    0.162712
   6 H :    0.178675
   7 H :    0.123540
   8 H :    0.172654
   9 C :   -0.315017
  10 H :    0.142567
  11 H :    0.127889
  12 H :    0.161022
  13 H :    0.118363
  14 H :    0.112486
  15 H :    0.118382

  Mayer bond orders larger than 0.100000
B(  0-C ,  1-C ) :   1.0027 B(  0-C ,  9-C ) :   0.9089 B(  0-C , 10-H ) :   1.0023
B(  0-C , 11-H ) :   0.9835 B(  1-C ,  2-C ) :   1.6497 B(  1-C ,  7-H ) :   1.0129
B(  2-C ,  3-N ) :   1.1219 B(  2-C ,  4-N ) :   1.1348 B(  3-N ,  8-H ) :   0.9246
B(  3-N , 12-H ) :   0.9347 B(  4-N ,  5-H ) :   0.9373 B(  4-N ,  6-H ) :   0.9283
B(  9-C , 13-H ) :   0.9798 B(  9-C , 14-H ) :   0.9843 B(  9-C , 15-H ) :   0.9764

FINAL SINGLE POINT ENERGY      -267.300273648904

DIPOLE MOMENT
-------------
                                X             Y             Z
Electronic contribution:      4.68064       1.20932      -0.04843
Nuclear contribution   :     -3.74303      -1.46908      -0.23637
                        -----------------------------------------
Total Dipole Moment    :      0.93761      -0.25976      -0.28481
                        -----------------------------------------
Magnitude (a.u.)       :      1.01376
Magnitude (Debye)      :      2.57676

Rotational constants in cm-1:     0.225937     0.074877     0.065953
Rotational constants in MHz :  6773.424301  2244.750632  1977.214101

                             ****ORCA TERMINATED NORMALLY****
TOTAL RUN TIME: 0 days 0 hours 0 minutes 21 seconds 446 msec
