                         Program Version 5.0.0 -  RELEASE  -
|  1> !LC-BLYP RIJCOSX def2-TZVP def2/J TightSCF
|  2> *xyz 0 1
|  3> C          4.08422        1.74208       -2.11472
|  4> C          4.26524        2.50052       -0.79589
|  5> H          4.86853        3.39267       -0.98113
|  6> H          3.30764        2.82457       -0.38781
|  7> C          4.98224        1.65026        0.24742
|  8> O          4.36806        1.38927        1.31371
|  9> F          6.12892        1.23351       -0.04562
| 10> H          3.57911        2.36849       -2.81997
| 11> H          3.50424        0.85965       -1.94198
| 12> H          5.04288        1.46841       -2.50327
| 13> *
| 14> %MaxCore 64000
| 15> %pal nprocs 8
| 16> end
| 17> %scf
| 18>   MaxIter 150
| 19> end
| 20>
| 21>
| 22>                          ****END OF INPUT****

CARTESIAN COORDINATES (ANGSTROEM)
---------------------------------
  C      4.084220    1.742080   -2.114720
  C      4.265240    2.500520   -0.795890
  H      4.868530    3.392670   -0.981130
  H      3.307640    2.824570   -0.387810
  C      4.982240    1.650260    0.247420
  O      4.368060    1.389270    1.313710
  F      6.128920    1.233510   -0.045620
  H      3.579110    2.368490   -2.819970
  H      3.504240    0.859650   -1.941980
  H      5.042880    1.468410   -2.503270

 Total Charge           Charge          ....    0
 Multiplicity           Mult            ....    1
 Number of Electrons    NEL             ....   40
 Basis Dimension        Dim             ....  185

ORBITAL ENERGIES
----------------

  NO   OCC          E(Eh)            E(eV)
   0   2.0000     -24.524121      -667.3353
   1   2.0000     -18.942907      -515.4627
   2   2.0000     -10.248403      -278.8732
   3   2.0000     -10.100996      -274.8621
   4   2.0000     -10.077790      -274.2306
   5   2.0000      -1.399580       -38.0845
   6   2.0000      -1.123455       -30.5708
   7   2.0000      -0.916263       -24.9328
   8   2.0000      -0.793926       -21.6038
   9   2.0000      -0.749494       -20.3948
  10   2.0000      -0.659358       -17.9420
  11   2.0000      -0.645268       -17.5586
  12   2.0000      -0.606177       -16.4949
  13   2.0000      -0.571175       -15.5425
  14   2.0000      -0.538510       -14.6536
  15   2.0000      -0.505790       -13.7632
  16   2.0000      -0.484335       -13.1794
  17   2.0000      -0.476701       -12.9717
  18   2.0000      -0.452139       -12.3033
  19   2.0000      -0.388640       -10.5754
  20   0.0000       0.056456         1.5363
  21   0.0000       0.095126         2.5885
  22   0.0000       0.135731         3.6934
  23   0.0000       0.154741         4.2107
  24   0.0000       0.167610         4.5609

MULLIKEN ATOMIC CHARGES
-----------------------
   0 C :   -0.407828
   1 C :   -0.255856
   2 H :    0.138772
   3 H :    0.153109
   4 C :    0.279481
   5 O :   -0.274607
   6 F :   -0.065629
   7 H :    0.143513
   8 H :    0.147607
   9 H :    0.141438
Sum of atomic charges:    0.0000000

LOEWDIN ATOMIC CHARGES
----------------------
   0 C :   -0.306328
   1 C :   -0.265572
   2 H :    0.152131
   3 H :    0.155271
   4 C :   -0.528255
   5 O :    0.072349
   6 F :    0.342899
   7 H :    0.125916
   8 H :    0.127059
   9 H :    0.124530

  Mayer bond orders larger than 0.100000
B(  0-C ,  1-C ) :   0.9236 B(  0-C ,  7-H ) :   0.9747 B(  0-C ,  8-H ) :   0.9699
B(  0-C ,  9-H ) :   0.9691 B(  1-C ,  2-H ) :   0.9462 B(  1-C ,  3-H ) :   0.9679
B(  1-C ,  4-C ) :   0.9747 B(  4-C ,  5-O ) :   2.1316 B(  4-C ,  6-F ) :   1.1986

FINAL SINGLE POINT ENERGY      -291.902863768857

DIPOLE MOMENT
-------------
                                X             Y             Z
Electronic contribution:      4.83846      -2.28203       5.85250
Nuclear contribution   :     -4.79499       2.78546      -7.01827
                        -----------------------------------------
Total Dipole Moment    :      0.04346       0.50343      -1.16577
                        -----------------------------------------
Magnitude (a.u.)       :      1.27057
Magnitude (Debye)      :      3.22954

Rotational constants in cm-1:     0.286098     0.133492     0.103343
Rotational constants in MHz :  8577.003657  4001.981591  3098.148068

                             ****ORCA TERMINATED NORMALLY****
TOTAL RUN TIME: 0 days 0 hours 0 minutes 12 seconds 702 msec
