                         Program Version 5.0.0 -  RELEASE  -
|  1> !LC-BLYP RIJCOSX def2-TZVP def2/J TightSCF
|  2> *xyz 0 1
|  3> C          3.91385       -1.65829        3.01513
|  4> N          5.03927       -0.90115        2.49282
|  5> C          6.21038       -1.41726        2.17824
|  6> C          6.53591       -2.67712        2.55608
|  7> N          7.07675       -0.70082        1.47891
|  8> H          7.95464       -1.12155        1.20755
|  9> H          6.75616        0.10664        0.96028
| 10> H          4.84217        0.01761        2.11519
| 11> H          5.99388       -3.12692        3.28278
| 12> C          3.13916       -2.37657        1.91061
| 13> H          3.26723       -0.93940        3.52069
| 14> H          4.24720       -2.35509        3.79006
| 15> H          7.49844       -2.97548        2.46878
| 16> H          2.82969       -1.66654        1.17238
| 17> H          2.27790       -2.85264        2.33072
| 18> H          3.76754       -3.11338        1.45548
| 19> *
| 20> %MaxCore 64000
| 21> %pal nprocs 8
| 22> end
| 23> %scf
| 24>   MaxIter 150
| 25> end
| 26>
| 27>
| 28>                          ****END OF INPUT****

CARTESIAN COORDINATES (ANGSTROEM)
---------------------------------
  C      3.913850   -1.658290    3.015130
  N      5.039270   -0.901150    2.492820
  C      6.210380   -1.417260    2.178240
  C      6.535910   -2.677120    2.556080
  N      7.076750   -0.700820    1.478910
  H      7.954640   -1.121550    1.207550
  H      6.756160    0.106640    0.960280
  H      4.842170    0.017610    2.115190
  H      5.993880   -3.126920    3.282780
  C      3.139160   -2.376570    1.910610
  H      3.267230   -0.939400    3.520690
  H      4.247200   -2.355090    3.790060
  H      7.498440   -2.975480    2.468780
  H      2.829690   -1.666540    1.172380
  H      2.277900   -2.852640    2.330720
  H      3.767540   -3.113380    1.455480

 Total Charge           Charge          ....    0
 Multiplicity           Mult            ....    1
 Number of Electrons    NEL             ....   48
 Basis Dimension        Dim             ....  246

ORBITAL ENERGIES
----------------

  NO   OCC          E(Eh)            E(eV)
   0   2.0000     -14.173061      -385.6686
   1   2.0000     -14.169483      -385.5712
   2   2.0000     -10.118198      -275.3302
   3   2.0000     -10.100546      -274.8498
   4   2.0000     -10.047691      -273.4116
   5   2.0000      -9.976842      -271.4837
   6   2.0000      -1.074707       -29.2443
   7   2.0000      -0.991171       -26.9711
   8   2.0000      -0.861991       -23.4560
   9   2.0000      -0.812621       -22.1125
  10   2.0000      -0.749489       -20.3946
  11   2.0000      -0.669277       -18.2120
  12   2.0000      -0.656548       -17.8656
  13   2.0000      -0.624164       -16.9844
  14   2.0000      -0.570662       -15.5285
  15   2.0000      -0.543850       -14.7989
  16   2.0000      -0.523555       -14.2467
  17   2.0000      -0.499071       -13.5804
  18   2.0000      -0.478333       -13.0161
  19   2.0000      -0.467029       -12.7085
  20   2.0000      -0.463967       -12.6252
  21   2.0000      -0.441960       -12.0263
  22   2.0000      -0.349683        -9.5154
  23   2.0000      -0.257358        -7.0031
  24   0.0000       0.082740         2.2515
  25   0.0000       0.113746         3.0952
  26   0.0000       0.128942         3.5087
  27   0.0000       0.141182         3.8418
  28   0.0000       0.154671         4.2088

MULLIKEN ATOMIC CHARGES
-----------------------
   0 C :   -0.201184
   1 N :   -0.261299
   2 C :    0.307863
   3 C :   -0.537137
   4 N :   -0.432083
   5 H :    0.243030
   6 H :    0.210048
   7 H :    0.189606
   8 H :    0.082490
   9 C :   -0.345408
  10 H :    0.132244
  11 H :    0.138934
  12 H :    0.082688
  13 H :    0.108450
  14 H :    0.124262
  15 H :    0.157495
Sum of atomic charges:   -0.0000000

LOEWDIN ATOMIC CHARGES
----------------------
   0 C :   -0.309745
   1 N :    0.122233
   2 C :   -0.467762
   3 C :   -0.371792
   4 N :   -0.008524
   5 H :    0.180515
   6 H :    0.162256
   7 H :    0.180302
   8 H :    0.097627
   9 C :   -0.318036
  10 H :    0.133585
  11 H :    0.139507
  12 H :    0.095725
  13 H :    0.115641
  14 H :    0.120455
  15 H :    0.128014

  Mayer bond orders larger than 0.100000
B(  0-C ,  1-N ) :   0.9262 B(  0-C ,  9-C ) :   0.9225 B(  0-C , 10-H ) :   0.9838
B(  0-C , 11-H ) :   0.9769 B(  1-N ,  2-C ) :   1.2000 B(  1-N ,  7-H ) :   0.9386
B(  2-C ,  3-C ) :   1.6241 B(  2-C ,  4-N ) :   1.1497 B(  3-C ,  8-H ) :   1.0141
B(  3-C , 12-H ) :   1.0013 B(  4-N ,  5-H ) :   0.9287 B(  4-N ,  6-H ) :   0.9322
B(  9-C , 13-H ) :   0.9743 B(  9-C , 14-H ) :   0.9771 B(  9-C , 15-H ) :   0.9694

FINAL SINGLE POINT ENERGY      -267.291541371406

DIPOLE MOMENT
-------------
                                X             Y             Z
Electronic contribution:      3.06586       2.87537      -0.23916
Nuclear contribution   :     -3.42552      -1.84584      -0.22295
                        -----------------------------------------
Total Dipole Moment    :     -0.35967       1.02953      -0.46212
                        -----------------------------------------
Magnitude (a.u.)       :      1.18442
Magnitude (Debye)      :      3.01056

Rotational constants in cm-1:     0.233526     0.075277     0.067092
Rotational constants in MHz :  7000.931279  2256.752901  2011.361214

                             ****ORCA TERMINATED NORMALLY****
TOTAL RUN TIME: 0 days 0 hours 0 minutes 27 seconds 2 msec
