                         Program Version 5.0.0 -  RELEASE  -
|  1> !LC-BLYP RIJCOSX def2-TZVP def2/J TightSCF
|  2> *xyz 0 1
|  3> C          3.91385       -1.65829        3.01513
|  4> N          5.03927       -0.90115        2.49282
|  5> C          6.21038       -1.41726        2.17824
|  6> N          6.53591       -2.67712        2.55608
|  7> C          7.07675       -0.70082        1.47891
|  8> H          7.95464       -1.12155        1.20755
|  9> H          6.75616        0.10664        0.96028
| 10> H          4.84217        0.01761        2.11519
| 11> H          5.99388       -3.12692        3.28278
| 12> C          3.13916       -2.37657        1.91061
| 13> H          3.26723       -0.93940        3.52069
| 14> H          4.24720       -2.35509        3.79006
| 15> H          7.49844       -2.97548        2.46878
| 16> H          2.82969       -1.66654        1.17238
| 17> H          2.27790       -2.85264        2.33072
| 18> H          3.76754       -3.11338        1.45548
| 19> *
| 20> %MaxCore 64000
| 21> %pal nprocs 8
| 22> end
| 23> %scf
| 24>   MaxIter 150
| 25> end
| 26>
| 27>
| 28>                          ****END OF INPUT****

CARTESIAN COORDINATES (ANGSTROEM)
---------------------------------
  C      3.913850   -1.658290    3.015130
  N      5.039270   -0.901150    2.492820
  C      6.210380   -1.417260    2.178240
  N      6.535910   -2.677120    2.556080
  C      7.076750   -0.700820    1.478910
  H      7.954640   -1.121550    1.207550
  H      6.756160    0.106640    0.960280
  H      4.842170    0.017610    2.115190
  H      5.993880   -3.126920    3.282780
  C      3.139160   -2.376570    1.910610
  H      3.267230   -0.939400    3.520690
  H      4.247200   -2.355090    3.790060
  H      7.498440   -2.975480    2.468780
  H      2.829690   -1.666540    1.172380
  H      2.277900   -2.852640    2.330720
  H      3.767540   -3.113380    1.455480

 Total Charge           Charge          ....    0
 Multiplicity           Mult            ....    1
 Number of Electrons    NEL             ....   48
 Basis Dimension        Dim             ....  246

ORBITAL ENERGIES
----------------

  NO   OCC          E(Eh)            E(eV)
   0   2.0000     -14.169321      -385.5668
   1   2.0000     -14.167558      -385.5189
   2   2.0000     -10.115189      -275.2483
   3   2.0000     -10.109327      -275.0888
   4   2.0000     -10.055675      -273.6288
   5   2.0000      -9.976182      -271.4657
   6   2.0000      -1.070122       -29.1195
   7   2.0000      -0.983645       -26.7663
   8   2.0000      -0.880136       -23.9497
   9   2.0000      -0.808885       -22.0109
  10   2.0000      -0.737189       -20.0599
  11   2.0000      -0.705919       -19.2090
  12   2.0000      -0.641107       -17.4454
  13   2.0000      -0.602659       -16.3992
  14   2.0000      -0.578893       -15.7525
  15   2.0000      -0.543065       -14.7775
  16   2.0000      -0.537641       -14.6300
  17   2.0000      -0.506983       -13.7957
  18   2.0000      -0.480913       -13.0863
  19   2.0000      -0.470650       -12.8070
  20   2.0000      -0.461781       -12.5657
  21   2.0000      -0.454759       -12.3746
  22   2.0000      -0.353753        -9.6261
  23   2.0000      -0.256774        -6.9872
  24   0.0000       0.085829         2.3355
  25   0.0000       0.110761         3.0140
  26   0.0000       0.123907         3.3717
  27   0.0000       0.138817         3.7774
  28   0.0000       0.156163         4.2494

MULLIKEN ATOMIC CHARGES
-----------------------
   0 C :   -0.236799
   1 N :   -0.252034
   2 C :    0.340466
   3 N :   -0.455284
   4 C :   -0.540366
   5 H :    0.079969
   6 H :    0.087274
   7 H :    0.218364
   8 H :    0.213236
   9 C :   -0.326628
  10 H :    0.139189
  11 H :    0.113586
  12 H :    0.236801
  13 H :    0.122306
  14 H :    0.123042
  15 H :    0.136877
Sum of atomic charges:   -0.0000000

LOEWDIN ATOMIC CHARGES
----------------------
   0 C :   -0.326665
   1 N :    0.125010
   2 C :   -0.460044
   3 N :   -0.025158
   4 C :   -0.352954
   5 H :    0.098776
   6 H :    0.099058
   7 H :    0.196695
   8 H :    0.159310
   9 C :   -0.318559
  10 H :    0.136314
  11 H :    0.128053
  12 H :    0.176927
  13 H :    0.120168
  14 H :    0.119809
  15 H :    0.123259

  Mayer bond orders larger than 0.100000
B(  0-C ,  1-N ) :   0.9527 B(  0-C ,  9-C ) :   0.9091 B(  0-C , 10-H ) :   0.9855
B(  0-C , 11-H ) :   0.9885 B(  1-N ,  2-C ) :   1.2033 B(  1-N ,  7-H ) :   0.9319
B(  2-C ,  3-N ) :   1.1198 B(  2-C ,  4-C ) :   1.6328 B(  3-N ,  8-H ) :   0.9287
B(  3-N , 12-H ) :   0.9304 B(  4-C ,  5-H ) :   1.0182 B(  4-C ,  6-H ) :   1.0099
B(  9-C , 13-H ) :   0.9729 B(  9-C , 14-H ) :   0.9746 B(  9-C , 15-H ) :   0.9695

FINAL SINGLE POINT ENERGY      -267.291909079647

DIPOLE MOMENT
-------------
                                X             Y             Z
Electronic contribution:      2.51777       0.90133       0.98610
Nuclear contribution   :     -3.31079      -1.42658      -0.45147
                        -----------------------------------------
Total Dipole Moment    :     -0.79302      -0.52525       0.53463
                        -----------------------------------------
Magnitude (a.u.)       :      1.09114
Magnitude (Debye)      :      2.77347

Rotational constants in cm-1:     0.225507     0.077571     0.068070
Rotational constants in MHz :  6760.542142  2325.533779  2040.680522

                             ****ORCA TERMINATED NORMALLY****
TOTAL RUN TIME: 0 days 0 hours 0 minutes 26 seconds 742 msec
