                         Program Version 5.0.0 -  RELEASE  -
|  1> !LC-BLYP RIJCOSX def2-TZVP def2/J TightSCF xyzfile
|  2>
|  3> *xyzfile 0 1 D1.xyz
|  4>
|  5> %MaxCore 64000
|  6>
|  7> %pal nprocs 18
|  8> end
|  9>
| 10> %scf
| 11>   MaxIter 150
| 12> end
| 13>
| 14>
| 15>                          ****END OF INPUT****

CARTESIAN COORDINATES (ANGSTROEM)
---------------------------------
  C      3.913853   -1.658291    3.015134
  C      5.039266   -0.901154    2.492821
  C      4.084215    1.742081   -2.114724
  C      4.265245    2.500518   -0.795890
  H      4.868534    3.392674   -0.981134
  H      3.307640    2.824571   -0.387809
  C      4.982240    1.650257    0.247422
  C      6.210384   -1.417261    2.178244
  N      6.535913   -2.677122    2.556078
  N      7.076754   -0.700820    1.478906
  H      7.954643   -1.121554    1.207554
  H      6.756161    0.106637    0.960278
  H      4.842168    0.017609    2.115191
  H      5.993876   -3.126918    3.282784
  H      7.498441   -2.975482    2.468776
  F      4.368065    1.389270    1.313706
  O      6.128919    1.233512   -0.045620
  C      3.139159   -2.376572    1.910609
  H      3.267235   -0.939401    3.520693
  H      4.247195   -2.355095    3.790065
  C      1.997274    0.430918   -1.399218
  C      3.412746    0.376886   -1.965497
  H      4.047407   -0.246590   -1.326706
  H      3.390774   -0.118719   -2.942839
  H      5.068475    1.598504   -2.565728
  H      3.503356    2.363939   -2.804565
  C      2.399946   -1.389579    1.009490
  H      2.440750   -3.087118    2.362976
  H      3.844475   -2.970462    1.318677
  C      2.070177   -1.936705   -0.372401
  H      1.481611   -1.061542    1.509912
  H      3.008628   -0.490001    0.897451
  C      1.322238   -0.935775   -1.256413
  H      1.472747   -2.850902   -0.283997
  H      3.003539   -2.234041   -0.862535
  H      1.376444    1.058920   -2.047420
  H      2.015341    0.929780   -0.426535
  H      0.316648   -0.787213   -0.848278
  H      1.185611   -1.379252   -2.248613

 Total Charge           Charge          ....    0
 Multiplicity           Mult            ....    1
 Number of Electrons    NEL             ....  126
 Basis Dimension        Dim             ....  634

ORBITAL ENERGIES
----------------

  NO   OCC          E(Eh)            E(eV)
   0   2.0000     -24.537463      -667.6983
   1   2.0000     -18.966791      -516.1126
   2   2.0000     -14.151359      -385.0781
   3   2.0000     -14.125145      -384.3647
   4   2.0000     -10.270255      -279.4678
   5   2.0000     -10.106590      -275.0143
   6   2.0000     -10.091525      -274.6043
   7   2.0000     -10.086274      -274.4615
   8   2.0000     -10.070293      -274.0266
   9   2.0000     -10.065145      -273.8865
  10   2.0000     -10.059067      -273.7211
  11   2.0000     -10.051063      -273.5033
  12   2.0000     -10.044413      -273.3224
  13   2.0000     -10.035644      -273.0838
  14   2.0000     -10.030290      -272.9381
  15   2.0000      -9.962571      -271.0953
  16   2.0000      -1.416247       -38.5380
  17   2.0000      -1.154820       -31.4243
  18   2.0000      -1.037351       -28.2278
  19   2.0000      -0.947084       -25.7715
  20   2.0000      -0.942232       -25.6394
  21   2.0000      -0.913711       -24.8633
  22   2.0000      -0.884053       -24.0563
  23   2.0000      -0.854540       -23.2532
  24   2.0000      -0.816360       -22.2143
  25   2.0000      -0.793950       -21.6045
  26   2.0000      -0.767787       -20.8926
  27   2.0000      -0.743685       -20.2367
  28   2.0000      -0.712479       -19.3875
  29   2.0000      -0.694836       -18.9074
  30   2.0000      -0.676868       -18.4185
  31   2.0000      -0.667220       -18.1560
  32   2.0000      -0.661284       -17.9945
  33   2.0000      -0.658535       -17.9197
  34   2.0000      -0.630456       -17.1556
  35   2.0000      -0.618253       -16.8235
  36   2.0000      -0.593754       -16.1569
  37   2.0000      -0.587236       -15.9795
  38   2.0000      -0.583963       -15.8904
  39   2.0000      -0.565245       -15.3811
  40   2.0000      -0.550393       -14.9770
  41   2.0000      -0.538314       -14.6483
  42   2.0000      -0.530525       -14.4363
  43   2.0000      -0.521107       -14.1801
  44   2.0000      -0.516191       -14.0463
  45   2.0000      -0.511453       -13.9173
  46   2.0000      -0.493632       -13.4324
  47   2.0000      -0.490871       -13.3573
  48   2.0000      -0.472460       -12.8563
  49   2.0000      -0.464943       -12.6517
  50   2.0000      -0.464494       -12.6395
  51   2.0000      -0.459444       -12.5021
  52   2.0000      -0.447614       -12.1802
  53   2.0000      -0.435567       -11.8524
  54   2.0000      -0.432801       -11.7771
  55   2.0000      -0.419697       -11.4205
  56   2.0000      -0.407717       -11.0945
  57   2.0000      -0.403494       -10.9796
  58   2.0000      -0.399986       -10.8842
  59   2.0000      -0.394319       -10.7300
  60   2.0000      -0.387039       -10.5319
  61   2.0000      -0.341606        -9.2956
  62   2.0000      -0.234183        -6.3724
  63   0.0000       0.033937         0.9235
  64   0.0000       0.091810         2.4983
  65   0.0000       0.101855         2.7716
  66   0.0000       0.109927         2.9913
  67   0.0000       0.112581         3.0635

MULLIKEN ATOMIC CHARGES
-----------------------
   0 C :   -0.357943
   1 C :   -0.402125
   2 C :   -0.231924
   3 C :   -0.304727
   4 H :    0.171379
   5 H :    0.169964
   6 C :    0.342273
   7 C :    0.330027
   8 N :   -0.448517
   9 N :   -0.431430
  10 H :    0.193655
  11 H :    0.238097
  12 H :    0.107766
  13 H :    0.228032
  14 H :    0.206963
  15 F :   -0.057539
  16 O :   -0.308110
  17 C :   -0.151963
  18 H :    0.113354
  19 H :    0.104405
  20 C :   -0.292164
  21 C :   -0.329742
  22 H :    0.175127
  23 H :    0.137327
  24 H :    0.156685
  25 H :    0.139713
  26 C :   -0.208663
  27 H :    0.104267
  28 H :    0.122630
  29 C :   -0.297155
  30 H :    0.124017
  31 H :    0.072131
  32 C :   -0.225701
  33 H :    0.128539
  34 H :    0.145424
  35 H :    0.131027
  36 H :    0.145516
  37 H :    0.130699
  38 H :    0.128686
Sum of atomic charges:    0.0000000

LOEWDIN ATOMIC CHARGES
----------------------
   0 C :   -0.297464
   1 C :   -0.302560
   2 C :   -0.265189
   3 C :   -0.237711
   4 H :    0.164341
   5 H :    0.148777
   6 C :   -0.495400
   7 C :   -0.461851
   8 N :   -0.032478
   9 N :   -0.017361
  10 H :    0.156047
  11 H :    0.142987
  12 H :    0.115182
  13 H :    0.169546
  14 H :    0.158978
  15 F :    0.363550
  16 O :    0.102290
  17 C :   -0.268712
  18 H :    0.144708
  19 H :    0.129957
  20 C :   -0.281491
  21 C :   -0.276021
  22 H :    0.147820
  23 H :    0.145783
  24 H :    0.150149
  25 H :    0.145901
  26 C :   -0.277181
  27 H :    0.130588
  28 H :    0.142183
  29 C :   -0.281983
  30 H :    0.138694
  31 H :    0.136373
  32 C :   -0.277523
  33 H :    0.140795
  34 H :    0.139587
  35 H :    0.140883
  36 H :    0.136898
  37 H :    0.141118
  38 H :    0.139791

  Mayer bond orders larger than 0.100000
B(  0-C ,  1-C ) :   0.9716 B(  0-C , 17-C ) :   0.8825 B(  0-C , 18-H ) :   1.0024
B(  0-C , 19-H ) :   1.0131 B(  1-C ,  7-C ) :   1.5896 B(  1-C , 12-H ) :   1.0450
B(  2-C ,  3-C ) :   0.9048 B(  2-C , 21-C ) :   0.9345 B(  2-C , 24-H ) :   0.9804
B(  2-C , 25-H ) :   0.9771 B(  3-C ,  4-H ) :   0.9586 B(  3-C ,  5-H ) :   0.9785
B(  3-C ,  6-C ) :   0.9327 B(  6-C , 15-F ) :   1.1777 B(  6-C , 16-O ) :   1.9550
B(  7-C ,  8-N ) :   1.1225 B(  7-C ,  9-N ) :   1.1913 B(  8-N , 13-H ) :   0.9242
B(  8-N , 14-H ) :   0.9356 B(  9-N , 10-H ) :   0.9401 B(  9-N , 11-H ) :   0.8650
B( 11-H , 16-O ) :   0.1296 B( 17-C , 26-C ) :   0.9467 B( 17-C , 27-H ) :   0.9808
B( 17-C , 28-H ) :   0.9839 B( 20-C , 21-C ) :   0.8617 B( 20-C , 32-C ) :   0.9366
B( 20-C , 35-H ) :   0.9815 B( 20-C , 36-H ) :   0.9842 B( 21-C , 22-H ) :   0.9768
B( 21-C , 23-H ) :   0.9808 B( 26-C , 29-C ) :   0.8918 B( 26-C , 30-H ) :   0.9729
B( 26-C , 31-H ) :   0.9813 B( 29-C , 32-C ) :   0.9256 B( 29-C , 33-H ) :   0.9883
B( 29-C , 34-H ) :   0.9896 B( 32-C , 37-H ) :   0.9924 B( 32-C , 38-H ) :   0.9919

FINAL SINGLE POINT ENERGY      -754.058404056072

DIPOLE MOMENT
-------------
                                X             Y             Z
Electronic contribution:     11.36328       8.94104       5.89985
Nuclear contribution   :    -11.48003      -8.36271      -6.78621
                        -----------------------------------------
Total Dipole Moment    :     -0.11675       0.57832      -0.88637
                        -----------------------------------------
Magnitude (a.u.)       :      1.06477
Magnitude (Debye)      :      2.70643

Rotational constants in cm-1:     0.020055     0.013548     0.009477
Rotational constants in MHz :   601.234832   406.162779   284.104317

                             ****ORCA TERMINATED NORMALLY****
TOTAL RUN TIME: 0 days 0 hours 1 minutes 45 seconds 781 msec
