                         Program Version 5.0.0 -  RELEASE  -
|  1> !LC-BLYP RIJCOSX def2-TZVP def2/J TightSCF xyzfile
|  2>
|  3> *xyzfile 0 1 D2.xyz
|  4>
|  5> %MaxCore 64000
|  6>
|  7> %pal nprocs 18
|  8> end
|  9>
| 10> %scf
| 11>   MaxIter 150
| 12> end
| 13>
| 14>
| 15>                          ****END OF INPUT****

CARTESIAN COORDINATES (ANGSTROEM)
---------------------------------
  C      3.913853   -1.658291    3.015134
  N      5.039266   -0.901154    2.492821
  C      4.084215    1.742081   -2.114724
  C      4.265245    2.500518   -0.795890
  H      4.868534    3.392674   -0.981134
  H      3.307640    2.824571   -0.387809
  C      4.982240    1.650257    0.247422
  C      6.210384   -1.417261    2.178244
  C      6.535913   -2.677122    2.556078
  N      7.076754   -0.700820    1.478906
  H      7.954643   -1.121554    1.207554
  H      6.756161    0.106637    0.960278
  H      4.842168    0.017609    2.115191
  H      5.993876   -3.126918    3.282784
  H      7.498441   -2.975482    2.468776
  F      4.368065    1.389270    1.313706
  O      6.128919    1.233512   -0.045620
  C      3.139159   -2.376572    1.910609
  H      3.267235   -0.939401    3.520693
  H      4.247195   -2.355095    3.790065
  C      1.997274    0.430918   -1.399218
  C      3.412746    0.376886   -1.965497
  H      4.047407   -0.246590   -1.326706
  H      3.390774   -0.118719   -2.942839
  H      5.068475    1.598504   -2.565728
  H      3.503356    2.363939   -2.804565
  C      2.399946   -1.389579    1.009490
  H      2.440750   -3.087118    2.362976
  H      3.844475   -2.970462    1.318677
  C      2.070177   -1.936705   -0.372401
  H      1.481611   -1.061542    1.509912
  H      3.008628   -0.490001    0.897451
  C      1.322238   -0.935775   -1.256413
  H      1.472747   -2.850902   -0.283997
  H      3.003539   -2.234041   -0.862535
  H      1.376444    1.058920   -2.047420
  H      2.015341    0.929780   -0.426535
  H      0.316648   -0.787213   -0.848278
  H      1.185611   -1.379252   -2.248613

 Total Charge           Charge          ....    0
 Multiplicity           Mult            ....    1
 Number of Electrons    NEL             ....  126
 Basis Dimension        Dim             ....  634

ORBITAL ENERGIES
----------------

  NO   OCC          E(Eh)            E(eV)
   0   2.0000     -24.566796      -668.4965
   1   2.0000     -18.983383      -516.5641
   2   2.0000     -14.150066      -385.0429
   3   2.0000     -14.126848      -384.4111
   4   2.0000     -10.287301      -279.9317
   5   2.0000     -10.119446      -275.3641
   6   2.0000     -10.096479      -274.7392
   7   2.0000     -10.095113      -274.7020
   8   2.0000     -10.087613      -274.4979
   9   2.0000     -10.080409      -274.3019
  10   2.0000     -10.075378      -274.1650
  11   2.0000     -10.068852      -273.9874
  12   2.0000     -10.062465      -273.8136
  13   2.0000     -10.061077      -273.7758
  14   2.0000     -10.052021      -273.5294
  15   2.0000      -9.956512      -270.9305
  16   2.0000      -1.443880       -39.2900
  17   2.0000      -1.171381       -31.8749
  18   2.0000      -1.051836       -28.6219
  19   2.0000      -0.966756       -26.3068
  20   2.0000      -0.954728       -25.9795
  21   2.0000      -0.923058       -25.1177
  22   2.0000      -0.887280       -24.1441
  23   2.0000      -0.853397       -23.2221
  24   2.0000      -0.823800       -22.4167
  25   2.0000      -0.800697       -21.7881
  26   2.0000      -0.786218       -21.3941
  27   2.0000      -0.765054       -20.8182
  28   2.0000      -0.729651       -19.8548
  29   2.0000      -0.708691       -19.2845
  30   2.0000      -0.698891       -19.0178
  31   2.0000      -0.685604       -18.6562
  32   2.0000      -0.677172       -18.4268
  33   2.0000      -0.657862       -17.9013
  34   2.0000      -0.639450       -17.4003
  35   2.0000      -0.618141       -16.8205
  36   2.0000      -0.604489       -16.4490
  37   2.0000      -0.597129       -16.2487
  38   2.0000      -0.594419       -16.1750
  39   2.0000      -0.574450       -15.6316
  40   2.0000      -0.559498       -15.2247
  41   2.0000      -0.553110       -15.0509
  42   2.0000      -0.537425       -14.6241
  43   2.0000      -0.534054       -14.5324
  44   2.0000      -0.522782       -14.2256
  45   2.0000      -0.513188       -13.9646
  46   2.0000      -0.505599       -13.7580
  47   2.0000      -0.493701       -13.4343
  48   2.0000      -0.483551       -13.1581
  49   2.0000      -0.477630       -12.9970
  50   2.0000      -0.472041       -12.8449
  51   2.0000      -0.462793       -12.5932
  52   2.0000      -0.459891       -12.5143
  53   2.0000      -0.448907       -12.2154
  54   2.0000      -0.444250       -12.0887
  55   2.0000      -0.436550       -11.8791
  56   2.0000      -0.426580       -11.6078
  57   2.0000      -0.415761       -11.3134
  58   2.0000      -0.414836       -11.2883
  59   2.0000      -0.412458       -11.2236
  60   2.0000      -0.407513       -11.0890
  61   2.0000      -0.324477        -8.8295
  62   2.0000      -0.236835        -6.4446
  63   0.0000       0.017297         0.4707
  64   0.0000       0.081176         2.2089
  65   0.0000       0.100468         2.7339
  66   0.0000       0.103165         2.8073
  67   0.0000       0.109050         2.9674

MULLIKEN ATOMIC CHARGES
-----------------------
   0 C :   -0.274243
   1 N :   -0.262442
   2 C :   -0.236055
   3 C :   -0.306350
   4 H :    0.177769
   5 H :    0.172939
   6 C :    0.332202
   7 C :    0.300436
   8 C :   -0.558158
   9 N :   -0.436442
  10 H :    0.225320
  11 H :    0.220304
  12 H :    0.191935
  13 H :    0.074890
  14 H :    0.077340
  15 F :   -0.084689
  16 O :   -0.287695
  17 C :   -0.150333
  18 H :    0.141459
  19 H :    0.158766
  20 C :   -0.291230
  21 C :   -0.330992
  22 H :    0.172381
  23 H :    0.143415
  24 H :    0.162575
  25 H :    0.144304
  26 C :   -0.243328
  27 H :    0.120232
  28 H :    0.157590
  29 C :   -0.298257
  30 H :    0.127589
  31 H :    0.052432
  32 C :   -0.229097
  33 H :    0.135369
  34 H :    0.154242
  35 H :    0.135904
  36 H :    0.141902
  37 H :    0.133949
  38 H :    0.134064
Sum of atomic charges:   -0.0000000

LOEWDIN ATOMIC CHARGES
----------------------
   0 C :   -0.289542
   1 N :    0.119130
   2 C :   -0.263386
   3 C :   -0.236698
   4 H :    0.166537
   5 H :    0.149415
   6 C :   -0.500216
   7 C :   -0.471017
   8 C :   -0.387782
   9 N :   -0.013869
  10 H :    0.173329
  11 H :    0.133187
  12 H :    0.160333
  13 H :    0.094192
  14 H :    0.093280
  15 F :    0.354364
  16 O :    0.111917
  17 C :   -0.273295
  18 H :    0.135833
  19 H :    0.141451
  20 C :   -0.281523
  21 C :   -0.275493
  22 H :    0.146754
  23 H :    0.147765
  24 H :    0.151706
  25 H :    0.147551
  26 C :   -0.284092
  27 H :    0.139073
  28 H :    0.151824
  29 C :   -0.279895
  30 H :    0.139689
  31 H :    0.129306
  32 C :   -0.276419
  33 H :    0.143133
  34 H :    0.142142
  35 H :    0.142326
  36 H :    0.135402
  37 H :    0.141929
  38 H :    0.141661

  Mayer bond orders larger than 0.100000
B(  0-C ,  1-N ) :   0.9545 B(  0-C , 17-C ) :   0.8805 B(  0-C , 18-H ) :   0.9945
B(  0-C , 19-H ) :   0.9951 B(  1-N ,  7-C ) :   1.1960 B(  1-N , 12-H ) :   0.9232
B(  2-C ,  3-C ) :   0.9035 B(  2-C , 21-C ) :   0.9323 B(  2-C , 24-H ) :   0.9802
B(  2-C , 25-H ) :   0.9762 B(  3-C ,  4-H ) :   0.9574 B(  3-C ,  5-H ) :   0.9759
B(  3-C ,  6-C ) :   0.9367 B(  6-C , 15-F ) :   1.1328 B(  6-C , 16-O ) :   1.9816
B(  7-C ,  8-C ) :   1.5954 B(  7-C ,  9-N ) :   1.1823 B(  8-C , 13-H ) :   1.0068
B(  8-C , 14-H ) :   1.0036 B(  9-N , 10-H ) :   0.9364 B(  9-N , 11-H ) :   0.8761
B( 11-H , 16-O ) :   0.1173 B( 17-C , 26-C ) :   0.9197 B( 17-C , 27-H ) :   0.9784
B( 17-C , 28-H ) :   0.9767 B( 20-C , 21-C ) :   0.8567 B( 20-C , 32-C ) :   0.9344
B( 20-C , 35-H ) :   0.9808 B( 20-C , 36-H ) :   0.9856 B( 21-C , 22-H ) :   0.9770
B( 21-C , 23-H ) :   0.9803 B( 26-C , 29-C ) :   0.8949 B( 26-C , 30-H ) :   0.9685
B( 26-C , 31-H ) :   0.9862 B( 29-C , 32-C ) :   0.9215 B( 29-C , 33-H ) :   0.9883
B( 29-C , 34-H ) :   0.9882 B( 32-C , 37-H ) :   0.9927 B( 32-C , 38-H ) :   0.9909

FINAL SINGLE POINT ENERGY      -754.055583560925

DIPOLE MOMENT
-------------
                                X             Y             Z
Electronic contribution:      9.74776      10.59652       5.49084
Nuclear contribution   :    -11.22009      -8.67117      -6.77523
                        -----------------------------------------
Total Dipole Moment    :     -1.47233       1.92536      -1.28439
                        -----------------------------------------
Magnitude (a.u.)       :      2.74307
Magnitude (Debye)      :      6.97233

Rotational constants in cm-1:     0.020086     0.013778     0.009581
Rotational constants in MHz :   602.172053   413.051122   287.243919

                             ****ORCA TERMINATED NORMALLY****
TOTAL RUN TIME: 0 days 0 hours 1 minutes 31 seconds 387 msec
