                         Program Version 5.0.0 -  RELEASE  -
|  1> !LC-BLYP RIJCOSX def2-TZVP def2/J TightSCF xyzfile
|  2>
|  3> *xyzfile 0 1 D3.xyz
|  4>
|  5> %MaxCore 64000
|  6>
|  7> %pal nprocs 18
|  8> end
|  9>
| 10> %scf
| 11>   MaxIter 150
| 12> end
| 13>
| 14>
| 15>                          ****END OF INPUT****

CARTESIAN COORDINATES (ANGSTROEM)
---------------------------------
  C      3.913853   -1.658291    3.015134
  N      5.039266   -0.901154    2.492821
  C      4.084215    1.742081   -2.114724
  C      4.265245    2.500518   -0.795890
  H      4.868534    3.392674   -0.981134
  H      3.307640    2.824571   -0.387809
  C      4.982240    1.650257    0.247422
  C      6.210384   -1.417261    2.178244
  N      6.535913   -2.677122    2.556078
  C      7.076754   -0.700820    1.478906
  H      7.954643   -1.121554    1.207554
  H      6.756161    0.106637    0.960278
  H      4.842168    0.017609    2.115191
  H      5.993876   -3.126918    3.282784
  H      7.498441   -2.975482    2.468776
  F      4.368065    1.389270    1.313706
  O      6.128919    1.233512   -0.045620
  C      3.139159   -2.376572    1.910609
  H      3.267235   -0.939401    3.520693
  H      4.247195   -2.355095    3.790065
  C      1.997274    0.430918   -1.399218
  C      3.412746    0.376886   -1.965497
  H      4.047407   -0.246590   -1.326706
  H      3.390774   -0.118719   -2.942839
  H      5.068475    1.598504   -2.565728
  H      3.503356    2.363939   -2.804565
  C      2.399946   -1.389579    1.009490
  H      2.440750   -3.087118    2.362976
  H      3.844475   -2.970462    1.318677
  C      2.070177   -1.936705   -0.372401
  H      1.481611   -1.061542    1.509912
  H      3.008628   -0.490001    0.897451
  C      1.322238   -0.935775   -1.256413
  H      1.472747   -2.850902   -0.283997
  H      3.003539   -2.234041   -0.862535
  H      1.376444    1.058920   -2.047420
  H      2.015341    0.929780   -0.426535
  H      0.316648   -0.787213   -0.848278
  H      1.185611   -1.379252   -2.248613

 Total Charge           Charge          ....    0
 Multiplicity           Mult            ....    1
 Number of Electrons    NEL             ....  126
 Basis Dimension        Dim             ....  634

ORBITAL ENERGIES
----------------

  NO   OCC          E(Eh)            E(eV)
   0   2.0000     -24.547811      -667.9799
   1   2.0000     -18.952841      -515.7330
   2   2.0000     -14.148259      -384.9937
   3   2.0000     -14.145767      -384.9259
   4   2.0000     -10.262198      -279.2486
   5   2.0000     -10.104510      -274.9577
   6   2.0000     -10.095543      -274.7137
   7   2.0000     -10.090675      -274.5812
   8   2.0000     -10.085013      -274.4272
   9   2.0000     -10.071859      -274.0692
  10   2.0000     -10.069772      -274.0124
  11   2.0000     -10.066282      -273.9175
  12   2.0000     -10.062538      -273.8156
  13   2.0000     -10.062222      -273.8070
  14   2.0000     -10.058586      -273.7080
  15   2.0000      -9.939681      -270.4725
  16   2.0000      -1.424933       -38.7744
  17   2.0000      -1.142680       -31.0939
  18   2.0000      -1.051149       -28.6032
  19   2.0000      -0.967173       -26.3181
  20   2.0000      -0.944947       -25.7133
  21   2.0000      -0.918325       -24.9889
  22   2.0000      -0.888229       -24.1699
  23   2.0000      -0.850144       -23.1336
  24   2.0000      -0.824085       -22.4245
  25   2.0000      -0.797099       -21.6902
  26   2.0000      -0.774027       -21.0623
  27   2.0000      -0.752712       -20.4823
  28   2.0000      -0.718032       -19.5387
  29   2.0000      -0.708450       -19.2779
  30   2.0000      -0.689681       -18.7672
  31   2.0000      -0.679266       -18.4838
  32   2.0000      -0.670611       -18.2482
  33   2.0000      -0.650577       -17.7031
  34   2.0000      -0.636366       -17.3164
  35   2.0000      -0.614310       -16.7162
  36   2.0000      -0.598733       -16.2924
  37   2.0000      -0.590048       -16.0560
  38   2.0000      -0.578189       -15.7333
  39   2.0000      -0.567293       -15.4368
  40   2.0000      -0.560158       -15.2427
  41   2.0000      -0.546561       -14.8727
  42   2.0000      -0.536154       -14.5895
  43   2.0000      -0.532734       -14.4964
  44   2.0000      -0.520492       -14.1633
  45   2.0000      -0.503837       -13.7101
  46   2.0000      -0.499400       -13.5894
  47   2.0000      -0.489319       -13.3150
  48   2.0000      -0.476995       -12.9797
  49   2.0000      -0.471093       -12.8191
  50   2.0000      -0.467088       -12.7101
  51   2.0000      -0.463960       -12.6250
  52   2.0000      -0.455526       -12.3955
  53   2.0000      -0.447759       -12.1841
  54   2.0000      -0.442433       -12.0392
  55   2.0000      -0.433436       -11.7944
  56   2.0000      -0.426345       -11.6014
  57   2.0000      -0.414992       -11.2925
  58   2.0000      -0.412270       -11.2184
  59   2.0000      -0.409089       -11.1319
  60   2.0000      -0.366751        -9.9798
  61   2.0000      -0.336160        -9.1474
  62   2.0000      -0.232631        -6.3302
  63   0.0000       0.038847         1.0571
  64   0.0000       0.089509         2.4357
  65   0.0000       0.101080         2.7505
  66   0.0000       0.104565         2.8454
  67   0.0000       0.109118         2.9693

MULLIKEN ATOMIC CHARGES
-----------------------
   0 C :   -0.312572
   1 N :   -0.256317
   2 C :   -0.231722
   3 C :   -0.307633
   4 H :    0.172757
   5 H :    0.163685
   6 C :    0.315045
   7 C :    0.334501
   8 N :   -0.461825
   9 C :   -0.535017
  10 H :    0.069619
  11 H :    0.082575
  12 H :    0.221284
  13 H :    0.206109
  14 H :    0.232050
  15 F :   -0.099814
  16 O :   -0.241540
  17 C :   -0.145256
  18 H :    0.148122
  19 H :    0.136993
  20 C :   -0.292286
  21 C :   -0.331662
  22 H :    0.178832
  23 H :    0.138768
  24 H :    0.160747
  25 H :    0.138114
  26 C :   -0.233630
  27 H :    0.117298
  28 H :    0.140929
  29 C :   -0.299567
  30 H :    0.129680
  31 H :    0.059844
  32 C :   -0.227797
  33 H :    0.132192
  34 H :    0.155862
  35 H :    0.134076
  36 H :    0.142138
  37 H :    0.132400
  38 H :    0.133015
Sum of atomic charges:    0.0000000

LOEWDIN ATOMIC CHARGES
----------------------
   0 C :   -0.307799
   1 N :    0.119233
   2 C :   -0.264278
   3 C :   -0.240704
   4 H :    0.164531
   5 H :    0.145852
   6 C :   -0.508412
   7 C :   -0.472131
   8 N :   -0.033418
   9 C :   -0.353149
  10 H :    0.094126
  11 H :    0.087328
  12 H :    0.172290
  13 H :    0.155135
  14 H :    0.173907
  15 F :    0.346166
  16 O :    0.130480
  17 C :   -0.277339
  18 H :    0.138631
  19 H :    0.129871
  20 C :   -0.281475
  21 C :   -0.275665
  22 H :    0.148360
  23 H :    0.146285
  24 H :    0.151945
  25 H :    0.145353
  26 C :   -0.281121
  27 H :    0.137445
  28 H :    0.147279
  29 C :   -0.280274
  30 H :    0.140416
  31 H :    0.132910
  32 C :   -0.276624
  33 H :    0.141870
  34 H :    0.142574
  35 H :    0.141933
  36 H :    0.135685
  37 H :    0.141265
  38 H :    0.141516

  Mayer bond orders larger than 0.100000
B(  0-C ,  1-N ) :   0.9722 B(  0-C , 17-C ) :   0.8535 B(  0-C , 18-H ) :   0.9955
B(  0-C , 19-H ) :   1.0117 B(  1-N ,  7-C ) :   1.1965 B(  1-N , 12-H ) :   0.9162
B(  2-C ,  3-C ) :   0.9086 B(  2-C , 21-C ) :   0.9373 B(  2-C , 24-H ) :   0.9781
B(  2-C , 25-H ) :   0.9774 B(  3-C ,  4-H ) :   0.9608 B(  3-C ,  5-H ) :   0.9769
B(  3-C ,  6-C ) :   0.9340 B(  6-C , 15-F ) :   1.1034 B(  6-C , 16-O ) :   2.0470
B(  7-C ,  8-N ) :   1.0949 B(  7-C ,  9-C ) :   1.6318 B(  8-N , 13-H ) :   0.9297
B(  8-N , 14-H ) :   0.9325 B(  9-C , 10-H ) :   1.0111 B(  9-C , 11-H ) :   1.0324
B( 17-C , 26-C ) :   0.9180 B( 17-C , 27-H ) :   0.9731 B( 17-C , 28-H ) :   0.9809
B( 20-C , 21-C ) :   0.8575 B( 20-C , 32-C ) :   0.9330 B( 20-C , 35-H ) :   0.9812
B( 20-C , 36-H ) :   0.9866 B( 21-C , 22-H ) :   0.9749 B( 21-C , 23-H ) :   0.9809
B( 26-C , 29-C ) :   0.8949 B( 26-C , 30-H ) :   0.9696 B( 26-C , 31-H ) :   0.9857
B( 29-C , 32-C ) :   0.9251 B( 29-C , 33-H ) :   0.9881 B( 29-C , 34-H ) :   0.9868
B( 32-C , 37-H ) :   0.9934 B( 32-C , 38-H ) :   0.9903

FINAL SINGLE POINT ENERGY      -754.035215779335

DIPOLE MOMENT
-------------
                                X             Y             Z
Electronic contribution:      9.46289       8.66333       6.70547
Nuclear contribution   :    -11.12616      -8.32792      -6.96231
                        -----------------------------------------
Total Dipole Moment    :     -1.66326       0.33541      -0.25684
                        -----------------------------------------
Magnitude (a.u.)       :      1.71607
Magnitude (Debye)      :      4.36191

Rotational constants in cm-1:     0.020226     0.013574     0.009520
Rotational constants in MHz :   606.360011   406.923773   285.390769

                             ****ORCA TERMINATED NORMALLY****
TOTAL RUN TIME: 0 days 0 hours 1 minutes 57 seconds 451 msec
