                         Program Version 5.0.0 -  RELEASE  -
|  1> !LC-BLYP RIJCOSX def2-TZVP def2/J TightSCF xyzfile
|  2>
|  3> *xyzfile 0 1 D6.xyz
|  4>
|  5> %MaxCore 64000
|  6>
|  7> %pal nprocs 18
|  8> end
|  9>
| 10> %scf
| 11>   MaxIter 150
| 12> end
| 13>
| 14>
| 15>                          ****END OF INPUT****

CARTESIAN COORDINATES (ANGSTROEM)
---------------------------------
  C      3.913853   -1.658291    3.015134
  N      5.039266   -0.901154    2.492821
  C      4.084215    1.742081   -2.114724
  C      4.265245    2.500518   -0.795890
  H      4.868534    3.392674   -0.981134
  H      3.307640    2.824571   -0.387809
  C      4.982240    1.650257    0.247422
  C      6.210384   -1.417261    2.178244
  N      6.535913   -2.677122    2.556078
  C      7.076754   -0.700820    1.478906
  H      7.954643   -1.121554    1.207554
  H      6.756161    0.106637    0.960278
  H      4.842168    0.017609    2.115191
  H      5.993876   -3.126918    3.282784
  H      7.498441   -2.975482    2.468776
  O      4.368065    1.389270    1.313706
  F      6.128919    1.233512   -0.045620
  C      3.139159   -2.376572    1.910609
  H      3.267235   -0.939401    3.520693
  H      4.247195   -2.355095    3.790065
  C      1.997274    0.430918   -1.399218
  C      3.412746    0.376886   -1.965497
  H      4.047407   -0.246590   -1.326706
  H      3.390774   -0.118719   -2.942839
  H      5.068475    1.598504   -2.565728
  H      3.503356    2.363939   -2.804565
  C      2.399946   -1.389579    1.009490
  H      2.440750   -3.087118    2.362976
  H      3.844475   -2.970462    1.318677
  C      2.070177   -1.936705   -0.372401
  H      1.481611   -1.061542    1.509912
  H      3.008628   -0.490001    0.897451
  C      1.322238   -0.935775   -1.256413
  H      1.472747   -2.850902   -0.283997
  H      3.003539   -2.234041   -0.862535
  H      1.376444    1.058920   -2.047420
  H      2.015341    0.929780   -0.426535
  H      0.316648   -0.787213   -0.848278
  H      1.185611   -1.379252   -2.248613

 Total Charge           Charge          ....    0
 Multiplicity           Mult            ....    1
 Number of Electrons    NEL             ....  126
 Basis Dimension        Dim             ....  634

ORBITAL ENERGIES
----------------

  NO   OCC          E(Eh)            E(eV)
   0   2.0000     -24.536848      -667.6816
   1   2.0000     -18.966497      -516.1046
   2   2.0000     -14.149920      -385.0389
   3   2.0000     -14.132183      -384.5562
   4   2.0000     -10.270332      -279.4700
   5   2.0000     -10.106952      -275.0241
   6   2.0000     -10.094548      -274.6866
   7   2.0000     -10.090629      -274.5800
   8   2.0000     -10.086959      -274.4801
   9   2.0000     -10.074693      -274.1463
  10   2.0000     -10.066730      -273.9297
  11   2.0000     -10.062853      -273.8242
  12   2.0000     -10.057223      -273.6709
  13   2.0000     -10.052147      -273.5328
  14   2.0000     -10.051903      -273.5262
  15   2.0000      -9.951068      -270.7823
  16   2.0000      -1.417036       -38.5595
  17   2.0000      -1.152677       -31.3659
  18   2.0000      -1.046371       -28.4732
  19   2.0000      -0.963492       -26.2179
  20   2.0000      -0.947589       -25.7852
  21   2.0000      -0.915941       -24.9240
  22   2.0000      -0.884460       -24.0674
  23   2.0000      -0.847788       -23.0695
  24   2.0000      -0.822021       -22.3683
  25   2.0000      -0.784696       -21.3527
  26   2.0000      -0.779637       -21.2150
  27   2.0000      -0.747191       -20.3321
  28   2.0000      -0.719419       -19.5764
  29   2.0000      -0.703301       -19.1378
  30   2.0000      -0.681750       -18.5514
  31   2.0000      -0.675651       -18.3854
  32   2.0000      -0.671541       -18.2736
  33   2.0000      -0.657610       -17.8945
  34   2.0000      -0.628240       -17.0953
  35   2.0000      -0.613575       -16.6962
  36   2.0000      -0.595591       -16.2069
  37   2.0000      -0.591387       -16.0925
  38   2.0000      -0.579246       -15.7621
  39   2.0000      -0.567399       -15.4397
  40   2.0000      -0.558962       -15.2101
  41   2.0000      -0.537750       -14.6329
  42   2.0000      -0.535808       -14.5801
  43   2.0000      -0.527888       -14.3646
  44   2.0000      -0.519585       -14.1386
  45   2.0000      -0.513633       -13.9767
  46   2.0000      -0.496465       -13.5095
  47   2.0000      -0.486608       -13.2413
  48   2.0000      -0.483389       -13.1537
  49   2.0000      -0.475751       -12.9459
  50   2.0000      -0.469621       -12.7790
  51   2.0000      -0.454433       -12.3658
  52   2.0000      -0.451596       -12.2886
  53   2.0000      -0.441030       -12.0010
  54   2.0000      -0.438736       -11.9386
  55   2.0000      -0.433473       -11.7954
  56   2.0000      -0.421835       -11.4787
  57   2.0000      -0.410280       -11.1643
  58   2.0000      -0.408375       -11.1125
  59   2.0000      -0.404142       -10.9973
  60   2.0000      -0.395866       -10.7721
  61   2.0000      -0.331456        -9.0194
  62   2.0000      -0.236386        -6.4324
  63   0.0000       0.035827         0.9749
  64   0.0000       0.088682         2.4132
  65   0.0000       0.103253         2.8097
  66   0.0000       0.107453         2.9239
  67   0.0000       0.109711         2.9854

MULLIKEN ATOMIC CHARGES
-----------------------
   0 C :   -0.302049
   1 N :   -0.253666
   2 C :   -0.263880
   3 C :   -0.304518
   4 H :    0.167948
   5 H :    0.181193
   6 C :    0.355067
   7 C :    0.330699
   8 N :   -0.459582
   9 C :   -0.525455
  10 H :    0.074154
  11 H :    0.032066
  12 H :    0.244153
  13 H :    0.211026
  14 H :    0.230275
  15 O :   -0.326228
  16 F :   -0.049497
  17 C :   -0.151773
  18 H :    0.148937
  19 H :    0.130445
  20 C :   -0.297391
  21 C :   -0.309969
  22 H :    0.166577
  23 H :    0.139562
  24 H :    0.157541
  25 H :    0.143810
  26 C :   -0.256958
  27 H :    0.114491
  28 H :    0.134524
  29 C :   -0.294389
  30 H :    0.124606
  31 H :    0.104911
  32 C :   -0.230337
  33 H :    0.129739
  34 H :    0.148861
  35 H :    0.131536
  36 H :    0.161156
  37 H :    0.132216
  38 H :    0.130198
Sum of atomic charges:    0.0000000

LOEWDIN ATOMIC CHARGES
----------------------
   0 C :   -0.306408
   1 N :    0.126708
   2 C :   -0.271398
   3 C :   -0.234691
   4 H :    0.159137
   5 H :    0.158293
   6 C :   -0.494091
   7 C :   -0.465174
   8 N :   -0.029540
   9 C :   -0.376375
  10 H :    0.094362
  11 H :    0.087178
  12 H :    0.166129
  13 H :    0.157571
  14 H :    0.173106
  15 O :    0.089091
  16 F :    0.375000
  17 C :   -0.278643
  18 H :    0.140870
  19 H :    0.127183
  20 C :   -0.279685
  21 C :   -0.274957
  22 H :    0.146325
  23 H :    0.146024
  24 H :    0.147191
  25 H :    0.147253
  26 C :   -0.280003
  27 H :    0.136188
  28 H :    0.145014
  29 C :   -0.281872
  30 H :    0.140123
  31 H :    0.140791
  32 C :   -0.276885
  33 H :    0.140787
  34 H :    0.140367
  35 H :    0.141185
  36 H :    0.142014
  37 H :    0.141634
  38 H :    0.140197

  Mayer bond orders larger than 0.100000
B(  0-C ,  1-N ) :   0.9742 B(  0-C , 17-C ) :   0.8606 B(  0-C , 18-H ) :   0.9926
B(  0-C , 19-H ) :   1.0128 B(  1-N ,  7-C ) :   1.2312 B(  1-N , 12-H ) :   0.8698
B(  2-C ,  3-C ) :   0.8941 B(  2-C , 21-C ) :   0.9210 B(  2-C , 24-H ) :   0.9875
B(  2-C , 25-H ) :   0.9759 B(  3-C ,  4-H ) :   0.9611 B(  3-C ,  5-H ) :   0.9843
B(  3-C ,  6-C ) :   0.9391 B(  6-C , 15-O ) :   1.9421 B(  6-C , 16-F ) :   1.1774
B(  7-C ,  8-N ) :   1.1091 B(  7-C ,  9-C ) :   1.6132 B(  8-N , 13-H ) :   0.9286
B(  8-N , 14-H ) :   0.9333 B(  9-C , 10-H ) :   1.0073 B(  9-C , 11-H ) :   1.0423
B( 12-H , 15-O ) :   0.1193 B( 17-C , 26-C ) :   0.9114 B( 17-C , 27-H ) :   0.9737
B( 17-C , 28-H ) :   0.9818 B( 20-C , 21-C ) :   0.8598 B( 20-C , 32-C ) :   0.9331
B( 20-C , 35-H ) :   0.9804 B( 20-C , 36-H ) :   0.9825 B( 21-C , 22-H ) :   0.9781
B( 21-C , 23-H ) :   0.9803 B( 26-C , 29-C ) :   0.8867 B( 26-C , 30-H ) :   0.9738
B( 26-C , 31-H ) :   0.9870 B( 29-C , 32-C ) :   0.9272 B( 29-C , 33-H ) :   0.9883
B( 29-C , 34-H ) :   0.9886 B( 32-C , 37-H ) :   0.9922 B( 32-C , 38-H ) :   0.9918

FINAL SINGLE POINT ENERGY      -754.048883053794

DIPOLE MOMENT
-------------
                                X             Y             Z
Electronic contribution:     12.40138       8.51046       4.40485
Nuclear contribution   :    -13.25777      -8.13937      -5.31678
                        -----------------------------------------
Total Dipole Moment    :     -0.85638       0.37109      -0.91192
                        -----------------------------------------
Magnitude (a.u.)       :      1.30488
Magnitude (Debye)      :      3.31673

Rotational constants in cm-1:     0.020021     0.013636     0.009443
Rotational constants in MHz :   600.208195   408.782966   283.102361

                             ****ORCA TERMINATED NORMALLY****
TOTAL RUN TIME: 0 days 0 hours 1 minutes 49 seconds 397 msec
