                         Program Version 5.0.0 -  RELEASE  -
|  1> !wB97X-D3 RIJCOSX def2-TZVP def2/J TightSCF
|  2> *xyz -1 1
|  3> C         -0.77894        0.17197        1.80496
|  4> C         -0.60249       -0.63071        0.49224
|  5> H          0.31389       -1.24035        0.60350
|  6> H         -0.36383        0.11332       -0.30117
|  7> O         -1.71206       -1.37684        0.20253
|  8> H         -1.65864        0.77733        1.73736
|  9> H          0.07466        0.79896        1.95712
| 10> H         -0.87474       -0.50584        2.62734
| 11> *
| 12> %MaxCore 64000
| 13>
| 14> %pal nprocs 4
| 15> end
| 16>
| 17> %scf
| 18>   MaxIter 150
| 19> end
| 20>
| 21>
| 22>                          ****END OF INPUT****

CARTESIAN COORDINATES (ANGSTROEM)
---------------------------------
  C     -0.778940    0.171970    1.804960
  C     -0.602490   -0.630710    0.492240
  H      0.313890   -1.240350    0.603500
  H     -0.363830    0.113320   -0.301170
  O     -1.712060   -1.376840    0.202530
  H     -1.658640    0.777330    1.737360
  H      0.074660    0.798960    1.957120
  H     -0.874740   -0.505840    2.627340

 Total Charge           Charge          ....   -1
 Multiplicity           Mult            ....    1
 Number of Electrons    NEL             ....   26
 Basis Dimension        Dim             ....  123

ORBITAL ENERGIES
----------------

  NO   OCC          E(Eh)            E(eV)
   0   2.0000     -18.869871      -513.4753
   1   2.0000     -10.078745      -274.2566
   2   2.0000     -10.056608      -273.6542
   3   2.0000      -0.777819       -21.1655
   4   2.0000      -0.630444       -17.1553
   5   2.0000      -0.473202       -12.8765
   6   2.0000      -0.343047        -9.3348
   7   2.0000      -0.318569        -8.6687
   8   2.0000      -0.258891        -7.0448
   9   2.0000      -0.244676        -6.6580
  10   2.0000      -0.192982        -5.2513
  11   2.0000      -0.044305        -1.2056
  12   2.0000      -0.043515        -1.1841
  13   0.0000       0.294960         8.0263
  14   0.0000       0.331184         9.0120
  15   0.0000       0.357298         9.7226
  16   0.0000       0.362258         9.8575
  17   0.0000       0.393383        10.7045

MULLIKEN ATOMIC CHARGES
-----------------------
   0 C :   -0.181347
   1 C :    0.096029
   2 H :   -0.077233
   3 H :   -0.080355
   4 O :   -0.802720
   5 H :    0.034986
   6 H :   -0.022159
   7 H :    0.032799
Sum of atomic charges:   -1.0000000

LOEWDIN ATOMIC CHARGES
----------------------
   0 C :   -0.362236
   1 C :   -0.548134
   2 H :    0.052272
   3 H :    0.051202
   4 O :   -0.441352
   5 H :    0.088041
   6 H :    0.073332
   7 H :    0.086875

  Mayer bond orders larger than 0.100000
B(  0-C ,  1-C ) :   0.9077 B(  0-C ,  4-O ) :  -0.1783 B(  0-C ,  5-H ) :   0.9756
B(  0-C ,  6-H ) :   0.9424 B(  0-C ,  7-H ) :   0.9778 B(  1-C ,  2-H ) :   0.9238
B(  1-C ,  3-H ) :   0.9253 B(  1-C ,  4-O ) :   1.5799

Dispersion correction           -0.000861350
FINAL SINGLE POINT ENERGY      -154.431577559961

DIPOLE MOMENT
-------------
                                X             Y             Z
Electronic contribution:     -1.70870      -1.89446      -1.49788
Nuclear contribution   :      2.47835       2.80827       2.30058
                        -----------------------------------------
Total Dipole Moment    :      0.76965       0.91381       0.80270
                        -----------------------------------------
Magnitude (a.u.)       :      1.43935
Magnitude (Debye)      :      3.65855

Rotational constants in cm-1:     1.255775     0.327783     0.287473
Rotational constants in MHz : 37647.186859  9826.677683  8618.224821

                             ****ORCA TERMINATED NORMALLY****
TOTAL RUN TIME: 0 days 0 hours 0 minutes 14 seconds 217 msec
