                         Program Version 5.0.0 -  RELEASE  -
|  1> !wB97X-D3 RIJCOSX def2-TZVP def2/J TightSCF
|  2> *xyz 1 1
|  3> C         -2.12050        0.88520        1.78951
|  4> C         -0.77894        0.17197        1.80496
|  5> H         -2.32419        1.47265        2.68608
|  6> H         -2.18770        1.54127        0.91948
|  7> N         -3.17690       -0.15948        1.61070
|  8> H         -4.06474        0.23127        1.28675
|  9> H         -3.34407       -0.67151        2.48493
| 10> H         -2.71686       -0.78189        0.93588
| 11> H         -0.65708       -0.37837        0.89547
| 12> H         -0.74207       -0.50050        2.63642
| 13> H          0.00707        0.89251        1.89389
| 14> *
| 15> %MaxCore 64000
| 16>
| 17> %pal nprocs 4
| 18> end
| 19>
| 20> %scf
| 21>   MaxIter 150
| 22> end
| 23>
| 24>
| 25>                          ****END OF INPUT****

CARTESIAN COORDINATES (ANGSTROEM)
---------------------------------
  C     -2.120500    0.885200    1.789510
  C     -0.778940    0.171970    1.804960
  H     -2.324190    1.472650    2.686080
  H     -2.187700    1.541270    0.919480
  N     -3.176900   -0.159480    1.610700
  H     -4.064740    0.231270    1.286750
  H     -3.344070   -0.671510    2.484930
  H     -2.716860   -0.781890    0.935880
  H     -0.657080   -0.378370    0.895470
  H     -0.742070   -0.500500    2.636420
  H      0.007070    0.892510    1.893890

 Total Charge           Charge          ....    1
 Multiplicity           Mult            ....    1
 Number of Electrons    NEL             ....   26
 Basis Dimension        Dim             ....  141

ORBITAL ENERGIES
----------------

  NO   OCC          E(Eh)            E(eV)
   0   2.0000     -14.755771      -401.5250
   1   2.0000     -10.530781      -286.5571
   2   2.0000     -10.452807      -284.4353
   3   2.0000      -1.333920       -36.2978
   4   2.0000      -1.083197       -29.4753
   5   2.0000      -0.955905       -26.0115
   6   2.0000      -0.906999       -24.6807
   7   2.0000      -0.896247       -24.3881
   8   2.0000      -0.790566       -21.5124
   9   2.0000      -0.743889       -20.2422
  10   2.0000      -0.680497       -18.5173
  11   2.0000      -0.673125       -18.3167
  12   2.0000      -0.651319       -17.7233
  13   0.0000      -0.106599        -2.9007
  14   0.0000      -0.046163        -1.2562
  15   0.0000      -0.044822        -1.2197
  16   0.0000      -0.024973        -0.6796
  17   0.0000       0.008546         0.2325

MULLIKEN ATOMIC CHARGES
-----------------------
   0 C :   -0.200229
   1 C :   -0.379683
   2 H :    0.197151
   3 H :    0.188032
   4 N :   -0.298318
   5 H :    0.343301
   6 H :    0.337053
   7 H :    0.327112
   8 H :    0.144606
   9 H :    0.155014
  10 H :    0.185961
Sum of atomic charges:    1.0000000

LOEWDIN ATOMIC CHARGES
----------------------
   0 C :   -0.271983
   1 C :   -0.279923
   2 H :    0.151058
   3 H :    0.153203
   4 N :    0.169223
   5 H :    0.220523
   6 H :    0.223115
   7 H :    0.227633
   8 H :    0.128238
   9 H :    0.131174
  10 H :    0.147740

  Mayer bond orders larger than 0.100000
B(  0-C ,  1-C ) :   0.9948 B(  0-C ,  2-H ) :   0.9512 B(  0-C ,  3-H ) :   0.9510
B(  0-C ,  4-N ) :   0.8730 B(  1-C ,  8-H ) :   0.9572 B(  1-C ,  9-H ) :   0.9618
B(  1-C , 10-H ) :   0.9600 B(  4-N ,  5-H ) :   0.8694 B(  4-N ,  6-H ) :   0.8731
B(  4-N ,  7-H ) :   0.8723

Dispersion correction           -0.001457138
FINAL SINGLE POINT ENERGY      -135.547323088017

DIPOLE MOMENT
-------------
                                X             Y             Z
Electronic contribution:     -1.84497      -0.15954      -0.05905
Nuclear contribution   :      0.50278      -0.30871      -0.06979
                        -----------------------------------------
Total Dipole Moment    :     -1.34219      -0.46826      -0.12884
                        -----------------------------------------
Magnitude (a.u.)       :      1.42735
Magnitude (Debye)      :      3.62805

Rotational constants in cm-1:     0.963746     0.295157     0.256910
Rotational constants in MHz : 28892.375247  8848.576767  7701.963879

                             ****ORCA TERMINATED NORMALLY****
TOTAL RUN TIME: 0 days 0 hours 0 minutes 16 seconds 476 msec
