                         Program Version 5.0.0 -  RELEASE  -
|  1> !wB97X-D3 RIJCOSX def2-TZVP def2/J TightSCF xyzfile
|  2>
|  3> *xyzfile 0 1 B.xyz
|  4>
|  5> %MaxCore 64000
|  6>
|  7> %pal nprocs 18
|  8> end
|  9>
| 10> %scf
| 11>   MaxIter 150
| 12> end
| 13>
| 14>
| 15>                          ****END OF INPUT****

CARTESIAN COORDINATES (ANGSTROEM)
---------------------------------
  C     -2.120502    0.885196    1.789506
  C     -0.778939    0.171966    1.804965
  H     -2.324193    1.472649    2.686078
  H     -2.187698    1.541272    0.919482
  N     -3.176900   -0.159484    1.610700
  H      0.015695    0.910767    1.939153
  H     -0.743553   -0.506827    2.665420
  C     -0.602493   -0.630712    0.492240
  H      0.313894   -1.240346    0.603498
  H     -0.363829    0.113322   -0.301169
  O     -1.712061   -1.376836    0.202535
  H     -4.064736    0.231272    1.286754
  H     -3.344073   -0.671511    2.484928
  H     -2.716861   -0.781886    0.935880

 Total Charge           Charge          ....    0
 Multiplicity           Mult            ....    1
 Number of Electrons    NEL             ....   42
 Basis Dimension        Dim             ....  209

ORBITAL ENERGIES
----------------

  NO   OCC          E(Eh)            E(eV)
   0   2.0000     -19.091949      -519.5183
   1   2.0000     -14.502775      -394.6406
   2   2.0000     -10.338544      -281.3261
   3   2.0000     -10.268658      -279.4244
   4   2.0000     -10.266831      -279.3747
   5   2.0000      -1.108673       -30.1685
   6   2.0000      -1.004152       -27.3244
   7   2.0000      -0.885883       -24.1061
   8   2.0000      -0.765719       -20.8363
   9   2.0000      -0.698021       -18.9941
  10   2.0000      -0.675248       -18.3744
  11   2.0000      -0.648510       -17.6469
  12   2.0000      -0.585563       -15.9340
  13   2.0000      -0.535356       -14.5678
  14   2.0000      -0.500488       -13.6190
  15   2.0000      -0.497632       -13.5413
  16   2.0000      -0.452262       -12.3067
  17   2.0000      -0.433363       -11.7924
  18   2.0000      -0.408009       -11.1025
  19   2.0000      -0.271351        -7.3838
  20   2.0000      -0.264111        -7.1868
  21   0.0000       0.076585         2.0840
  22   0.0000       0.120585         3.2813
  23   0.0000       0.129916         3.5352
  24   0.0000       0.162275         4.4157
  25   0.0000       0.176076         4.7913

MULLIKEN ATOMIC CHARGES
-----------------------
   0 C :   -0.138528
   1 C :   -0.240933
   2 H :    0.129632
   3 H :    0.136814
   4 N :   -0.317464
   5 H :    0.102603
   6 H :    0.085114
   7 C :    0.063725
   8 H :    0.039937
   9 H :    0.012570
  10 O :   -0.704571
  11 H :    0.267972
  12 H :    0.266787
  13 H :    0.296344
Sum of atomic charges:    0.0000000

LOEWDIN ATOMIC CHARGES
----------------------
   0 C :   -0.271288
   1 C :   -0.294230
   2 H :    0.123905
   3 H :    0.140710
   4 N :    0.129697
   5 H :    0.136333
   6 H :    0.129256
   7 C :   -0.467497
   8 H :    0.100537
   9 H :    0.092346
  10 O :   -0.290655
  11 H :    0.182682
  12 H :    0.189099
  13 H :    0.099105

  Mayer bond orders larger than 0.100000
B(  0-C ,  1-C ) :   0.9847 B(  0-C ,  2-H ) :   0.9765 B(  0-C ,  3-H ) :   0.9645
B(  0-C ,  4-N ) :   0.8988 B(  1-C ,  5-H ) :   0.9658 B(  1-C ,  6-H ) :   0.9689
B(  1-C ,  7-C ) :   0.9666 B(  4-N , 11-H ) :   0.9024 B(  4-N , 12-H ) :   0.9041
B(  4-N , 13-H ) :   0.6146 B(  7-C ,  8-H ) :   0.9573 B(  7-C ,  9-H ) :   0.9447
B(  7-C , 10-O ) :   1.2258 B( 10-O , 13-H ) :   0.4169

Dispersion correction           -0.003272664
FINAL SINGLE POINT ENERGY      -249.683381350822

DIPOLE MOMENT
-------------
                                X             Y             Z
Electronic contribution:     -1.56531      -1.45752      -0.77511
Nuclear contribution   :      0.08650       3.01678       2.47433
                        -----------------------------------------
Total Dipole Moment    :     -1.47881       1.55926       1.69922
                        -----------------------------------------
Magnitude (a.u.)       :      2.73962
Magnitude (Debye)      :      6.96355

Rotational constants in cm-1:     0.238796     0.156489     0.106146
Rotational constants in MHz :  7158.916762  4691.413084  3182.185740

                             ****ORCA TERMINATED NORMALLY****
TOTAL RUN TIME: 0 days 0 hours 0 minutes 12 seconds 510 msec
