                         Program Version 5.0.0 -  RELEASE  -
|  1> !wB97X-D3 RIJCOSX def2-TZVP def2/J TightSCF
|  2> *xyz 0 1
|  3> C         -0.77894        0.17197        1.80496
|  4> C         -0.60249       -0.63071        0.49224
|  5> H          0.31389       -1.24035        0.60350
|  6> H         -0.36383        0.11332       -0.30117
|  7> F         -1.71206       -1.37684        0.20253
|  8> H         -1.65864        0.77733        1.73736
|  9> H          0.07466        0.79896        1.95712
| 10> H         -0.87474       -0.50584        2.62734
| 11> *
| 12> %MaxCore 64000
| 13>
| 14> %pal nprocs 4
| 15> end
| 16>
| 17> %scf
| 18>   MaxIter 150
| 19> end
| 20>
| 21>
| 22>                          ****END OF INPUT****

CARTESIAN COORDINATES (ANGSTROEM)
---------------------------------
  C     -0.778940    0.171970    1.804960
  C     -0.602490   -0.630710    0.492240
  H      0.313890   -1.240350    0.603500
  H     -0.363830    0.113320   -0.301170
  F     -1.712060   -1.376840    0.202530
  H     -1.658640    0.777330    1.737360
  H      0.074660    0.798960    1.957120
  H     -0.874740   -0.505840    2.627340

 Total Charge           Charge          ....    0
 Multiplicity           Mult            ....    1
 Number of Electrons    NEL             ....   26
 Basis Dimension        Dim             ....  123

ORBITAL ENERGIES
----------------

  NO   OCC          E(Eh)            E(eV)
   0   2.0000     -24.769326      -674.0076
   1   2.0000     -10.354058      -281.7482
   2   2.0000     -10.267798      -279.4010
   3   2.0000      -1.313200       -35.7340
   4   2.0000      -0.878025       -23.8923
   5   2.0000      -0.742484       -20.2040
   6   2.0000      -0.609450       -16.5840
   7   2.0000      -0.598284       -16.2801
   8   2.0000      -0.558217       -15.1899
   9   2.0000      -0.503294       -13.6953
  10   2.0000      -0.497180       -13.5289
  11   2.0000      -0.428923       -11.6716
  12   2.0000      -0.426336       -11.6012
  13   0.0000       0.124333         3.3833
  14   0.0000       0.162888         4.4324
  15   0.0000       0.182868         4.9761
  16   0.0000       0.185466         5.0468
  17   0.0000       0.197514         5.3746

MULLIKEN ATOMIC CHARGES
-----------------------
   0 C :   -0.331052
   1 C :    0.047770
   2 H :    0.087857
   3 H :    0.086864
   4 F :   -0.235729
   5 H :    0.118545
   6 H :    0.109000
   7 H :    0.116747
Sum of atomic charges:    0.0000000

LOEWDIN ATOMIC CHARGES
----------------------
   0 C :   -0.308442
   1 C :   -0.365591
   2 H :    0.114925
   3 H :    0.116229
   4 F :    0.093889
   5 H :    0.115747
   6 H :    0.118704
   7 H :    0.114539

  Mayer bond orders larger than 0.100000
B(  0-C ,  1-C ) :   0.9945 B(  0-C ,  5-H ) :   0.9729 B(  0-C ,  6-H ) :   0.9625
B(  0-C ,  7-H ) :   0.9742 B(  1-C ,  2-H ) :   0.9706 B(  1-C ,  3-H ) :   0.9718
B(  1-C ,  4-F ) :   0.9926

Dispersion correction           -0.000877435
FINAL SINGLE POINT ENERGY      -179.085392466444

DIPOLE MOMENT
-------------
                                X             Y             Z
Electronic contribution:     -2.74071      -3.29835      -2.83044
Nuclear contribution   :      3.27800       3.70743       3.04146
                        -----------------------------------------
Total Dipole Moment    :      0.53730       0.40909       0.21101
                        -----------------------------------------
Magnitude (a.u.)       :      0.70751
Magnitude (Debye)      :      1.79834

Rotational constants in cm-1:     1.234437     0.305084     0.268865
Rotational constants in MHz : 37007.496448  9146.194083  8060.380630

                             ****ORCA TERMINATED NORMALLY****
TOTAL RUN TIME: 0 days 0 hours 0 minutes 12 seconds 67 msec
