                         Program Version 5.0.0 -  RELEASE  -
|  1> !wB97X-D3 RIJCOSX def2-TZVP def2/J TightSCF
|  2> *xyz 0 1
|  3> C         -2.12050        0.88520        1.78951
|  4> C         -0.77894        0.17197        1.80496
|  5> H         -2.32419        1.47265        2.68608
|  6> H         -2.18770        1.54127        0.91948
|  7> C         -3.17690       -0.15948        1.61070
|  8> H         -4.06474        0.23127        1.28675
|  9> H         -3.34407       -0.67151        2.48493
| 10> H         -2.71686       -0.78189        0.93588
| 11> H         -0.65708       -0.37837        0.89547
| 12> H         -0.74207       -0.50050        2.63642
| 13> H          0.00707        0.89251        1.89389
| 14> *
| 15> %MaxCore 64000
| 16>
| 17> %pal nprocs 4
| 18> end
| 19>
| 20> %scf
| 21>   MaxIter 150
| 22> end
| 23>
| 24>
| 25>                          ****END OF INPUT****

CARTESIAN COORDINATES (ANGSTROEM)
---------------------------------
  C     -2.120500    0.885200    1.789510
  C     -0.778940    0.171970    1.804960
  H     -2.324190    1.472650    2.686080
  H     -2.187700    1.541270    0.919480
  C     -3.176900   -0.159480    1.610700
  H     -4.064740    0.231270    1.286750
  H     -3.344070   -0.671510    2.484930
  H     -2.716860   -0.781890    0.935880
  H     -0.657080   -0.378370    0.895470
  H     -0.742070   -0.500500    2.636420
  H      0.007070    0.892510    1.893890

 Total Charge           Charge          ....    0
 Multiplicity           Mult            ....    1
 Number of Electrons    NEL             ....   26
 Basis Dimension        Dim             ....  141

ORBITAL ENERGIES
----------------

  NO   OCC          E(Eh)            E(eV)
   0   2.0000     -10.260218      -279.1947
   1   2.0000     -10.251028      -278.9446
   2   2.0000     -10.230428      -278.3841
   3   2.0000      -0.912921       -24.8419
   4   2.0000      -0.799702       -21.7610
   5   2.0000      -0.695577       -18.9276
   6   2.0000      -0.574035       -15.6203
   7   2.0000      -0.554252       -15.0820
   8   2.0000      -0.497108       -13.5270
   9   2.0000      -0.481415       -13.1000
  10   2.0000      -0.433711       -11.8019
  11   2.0000      -0.424686       -11.5563
  12   2.0000      -0.420944       -11.4545
  13   0.0000       0.123749         3.3674
  14   0.0000       0.165224         4.4960
  15   0.0000       0.172285         4.6881
  16   0.0000       0.176876         4.8130
  17   0.0000       0.195365         5.3162

MULLIKEN ATOMIC CHARGES
-----------------------
   0 C :   -0.147329
   1 C :   -0.338551
   2 H :    0.086041
   3 H :    0.082254
   4 C :   -0.304002
   5 H :    0.107918
   6 H :    0.105878
   7 H :    0.085027
   8 H :    0.106686
   9 H :    0.106615
  10 H :    0.109465
Sum of atomic charges:    0.0000000

LOEWDIN ATOMIC CHARGES
----------------------
   0 C :   -0.319156
   1 C :   -0.306756
   2 H :    0.125913
   3 H :    0.130891
   4 C :   -0.299094
   5 H :    0.103030
   6 H :    0.106487
   7 H :    0.114881
   8 H :    0.114705
   9 H :    0.116032
  10 H :    0.113066

  Mayer bond orders larger than 0.100000
B(  0-C ,  1-C ) :   0.9799 B(  0-C ,  2-H ) :   0.9747 B(  0-C ,  3-H ) :   0.9768
B(  0-C ,  4-C ) :   0.9652 B(  1-C ,  8-H ) :   0.9798 B(  1-C ,  9-H ) :   0.9784
B(  1-C , 10-H ) :   0.9830 B(  4-C ,  5-H ) :   0.9842 B(  4-C ,  6-H ) :   0.9852
B(  4-C ,  7-H ) :   0.9812

Dispersion correction           -0.001406904
FINAL SINGLE POINT ENERGY      -119.134071873010

DIPOLE MOMENT
-------------
                                X             Y             Z
Electronic contribution:     -0.14576       0.47520       0.11404
Nuclear contribution   :      0.13334      -0.45108      -0.10852
                        -----------------------------------------
Total Dipole Moment    :     -0.01242       0.02412       0.00553
                        -----------------------------------------
Magnitude (a.u.)       :      0.02768
Magnitude (Debye)      :      0.07036

Rotational constants in cm-1:     0.972269     0.310387     0.269029
Rotational constants in MHz : 29147.878530  9305.178981  8065.286472

                             ****ORCA TERMINATED NORMALLY****
TOTAL RUN TIME: 0 days 0 hours 0 minutes 15 seconds 987 msec
