                         Program Version 5.0.0 -  RELEASE  -
|  1> !wB97X-D3 RIJCOSX def2-TZVP def2/J TightSCF xyzfile
|  2>
|  3> *xyzfile 0 1 D.xyz
|  4>
|  5> %MaxCore 64000
|  6>
|  7> %pal nprocs 18
|  8> end
|  9>
| 10> %scf
| 11>   MaxIter 150
| 12> end
| 13>
| 14>
| 15>                          ****END OF INPUT****

CARTESIAN COORDINATES (ANGSTROEM)
---------------------------------
  C     -2.120502    0.885196    1.789506
  C     -0.778939    0.171966    1.804965
  H     -2.324193    1.472649    2.686078
  H     -2.187698    1.541272    0.919482
  C     -3.176900   -0.159484    1.610700
  H      0.015695    0.910767    1.939153
  H     -0.743553   -0.506827    2.665420
  C     -0.602493   -0.630712    0.492240
  H      0.313894   -1.240346    0.603498
  H     -0.363829    0.113322   -0.301169
  F     -1.712061   -1.376836    0.202535
  H     -4.064736    0.231272    1.286754
  H     -3.344073   -0.671511    2.484928
  H     -2.716861   -0.781886    0.935880

 Total Charge           Charge          ....    0
 Multiplicity           Mult            ....    1
 Number of Electrons    NEL             ....   42
 Basis Dimension        Dim             ....  209

ORBITAL ENERGIES
----------------

  NO   OCC          E(Eh)            E(eV)
   0   2.0000     -24.788985      -674.5426
   1   2.0000     -10.361997      -281.9643
   2   2.0000     -10.278765      -279.6994
   3   2.0000     -10.258272      -279.1418
   4   2.0000     -10.194748      -277.4132
   5   2.0000      -1.346822       -36.6489
   6   2.0000      -0.923579       -25.1319
   7   2.0000      -0.849369       -23.1125
   8   2.0000      -0.748824       -20.3765
   9   2.0000      -0.700894       -19.0723
  10   2.0000      -0.634090       -17.2545
  11   2.0000      -0.628976       -17.1153
  12   2.0000      -0.590853       -16.0779
  13   2.0000      -0.539991       -14.6939
  14   2.0000      -0.512052       -13.9336
  15   2.0000      -0.502604       -13.6766
  16   2.0000      -0.474228       -12.9044
  17   2.0000      -0.440750       -11.9934
  18   2.0000      -0.420531       -11.4432
  19   2.0000      -0.416234       -11.3263
  20   2.0000      -0.367930       -10.0119
  21   0.0000       0.117867         3.2073
  22   0.0000       0.149943         4.0801
  23   0.0000       0.154904         4.2152
  24   0.0000       0.170752         4.6464
  25   0.0000       0.183080         4.9819

MULLIKEN ATOMIC CHARGES
-----------------------
   0 C :   -0.162214
   1 C :   -0.227795
   2 H :    0.092886
   3 H :    0.081373
   4 C :   -0.397480
   5 H :    0.115339
   6 H :    0.104482
   7 C :    0.020435
   8 H :    0.105395
   9 H :    0.094711
  10 F :   -0.180895
  11 H :    0.092542
  12 H :    0.089642
  13 H :    0.171580
Sum of atomic charges:    0.0000000

LOEWDIN ATOMIC CHARGES
----------------------
   0 C :   -0.302052
   1 C :   -0.275276
   2 H :    0.126905
   3 H :    0.133939
   4 C :   -0.315201
   5 H :    0.138947
   6 H :    0.137307
   7 C :   -0.327660
   8 H :    0.122646
   9 H :    0.124958
  10 F :    0.157707
  11 H :    0.098459
  12 H :    0.101244
  13 H :    0.078077

  Mayer bond orders larger than 0.100000
B(  0-C ,  1-C ) :   0.9709 B(  0-C ,  2-H ) :   0.9718 B(  0-C ,  3-H ) :   0.9796
B(  0-C ,  4-C ) :   0.9567 B(  1-C ,  5-H ) :   0.9623 B(  1-C ,  6-H ) :   0.9711
B(  1-C ,  7-C ) :   1.0016 B(  4-C , 11-H ) :   0.9793 B(  4-C , 12-H ) :   0.9847
B(  4-C , 13-H ) :   0.9591 B(  7-C ,  8-H ) :   0.9669 B(  7-C ,  9-H ) :   0.9729
B(  7-C , 10-F ) :   0.9582

Dispersion correction           -0.003160716
FINAL SINGLE POINT ENERGY      -257.659583316837

DIPOLE MOMENT
-------------
                                X             Y             Z
Electronic contribution:      0.89578      -4.20613      -3.74265
Nuclear contribution   :     -0.20666       4.43855       3.76066
                        -----------------------------------------
Total Dipole Moment    :      0.68912       0.23241       0.01801
                        -----------------------------------------
Magnitude (a.u.)       :      0.72748
Magnitude (Debye)      :      1.84910

Rotational constants in cm-1:     0.236353     0.155239     0.105045
Rotational constants in MHz :  7085.692869  4653.957069  3149.180346

                             ****ORCA TERMINATED NORMALLY****
TOTAL RUN TIME: 0 days 0 hours 0 minutes 15 seconds 84 msec
