                         Program Version 5.0.0 -  RELEASE  -
|  1> !LC-BLYP RIJCOSX def2-TZVP def2/J TightSCF
|  2> *xyz -1 1
|  3> C         -1.10433        0.25137       -2.86006
|  4> C         -0.71189        0.84252       -4.21834
|  5> H          0.15463        1.49980       -4.13091
|  6> H         -1.53813        1.45922       -4.58267
|  7> C         -0.39762       -0.20587       -5.28802
|  8> O          0.61717       -0.00535       -5.99827
|  9> O         -1.13317       -1.22138       -5.34147
| 10> H         -1.95489       -0.38644       -2.98099
| 11> H         -1.34603        1.04362       -2.18269
| 12> H         -0.28606       -0.31581       -2.46809
| 13> *
| 14>
| 15> %MaxCore 64000
| 16>
| 17> %pal nprocs 4
| 18> end
| 19>
| 20> %scf
| 21>   MaxIter 150
| 22> end
| 23>
| 24>
| 25>                          ****END OF INPUT****

CARTESIAN COORDINATES (ANGSTROEM)
---------------------------------
  C     -1.104330    0.251370   -2.860060
  C     -0.711890    0.842520   -4.218340
  H      0.154630    1.499800   -4.130910
  H     -1.538130    1.459220   -4.582670
  C     -0.397620   -0.205870   -5.288020
  O      0.617170   -0.005350   -5.998270
  O     -1.133170   -1.221380   -5.341470
  H     -1.954890   -0.386440   -2.980990
  H     -1.346030    1.043620   -2.182690
  H     -0.286060   -0.315810   -2.468090

 Total Charge           Charge          ....   -1
 Multiplicity           Mult            ....    1
 Number of Electrons    NEL             ....   40
 Basis Dimension        Dim             ....  185

ORBITAL ENERGIES
----------------

  NO   OCC          E(Eh)            E(eV)
   0   2.0000     -18.662238      -507.8253
   1   2.0000     -18.660783      -507.7857
   2   2.0000      -9.944904      -270.6146
   3   2.0000      -9.900159      -269.3970
   4   2.0000      -9.890209      -269.1263
   5   2.0000      -0.905170       -24.6309
   6   2.0000      -0.810769       -22.0621
   7   2.0000      -0.710957       -19.3461
   8   2.0000      -0.578946       -15.7539
   9   2.0000      -0.420845       -11.4518
  10   2.0000      -0.396555       -10.7908
  11   2.0000      -0.357849        -9.7376
  12   2.0000      -0.328919        -8.9503
  13   2.0000      -0.312945        -8.5157
  14   2.0000      -0.302040        -8.2189
  15   2.0000      -0.272759        -7.4222
  16   2.0000      -0.257493        -7.0067
  17   2.0000      -0.139297        -3.7905
  18   2.0000      -0.132885        -3.6160
  19   2.0000      -0.118840        -3.2338
  20   0.0000       0.246693         6.7129
  21   0.0000       0.288860         7.8603
  22   0.0000       0.309795         8.4299
  23   0.0000       0.313951         8.5431
  24   0.0000       0.333385         9.0719

MULLIKEN ATOMIC CHARGES
-----------------------
   0 C :   -0.364281
   1 C :   -0.195535
   2 H :    0.064865
   3 H :    0.056590
   4 C :    0.069192
   5 O :   -0.456477
   6 O :   -0.458198
   7 H :    0.114101
   8 H :    0.068908
   9 H :    0.100834
Sum of atomic charges:   -1.0000000

LOEWDIN ATOMIC CHARGES
----------------------
   0 C :   -0.341444
   1 C :   -0.302713
   2 H :    0.123866
   3 H :    0.125923
   4 C :   -0.728254
   5 O :   -0.101729
   6 O :   -0.099817
   7 H :    0.115529
   8 H :    0.096823
   9 H :    0.111815

  Mayer bond orders larger than 0.100000
B(  0-C ,  1-C ) :   0.9198 B(  0-C ,  7-H ) :   0.9712 B(  0-C ,  8-H ) :   0.9764
B(  0-C ,  9-H ) :   0.9820 B(  1-C ,  2-H ) :   0.9681 B(  1-C ,  3-H ) :   0.9647
B(  1-C ,  4-C ) :   0.9208 B(  4-C ,  5-O ) :   1.9769 B(  4-C ,  6-O ) :   1.9269

FINAL SINGLE POINT ENERGY      -267.347846357162

DIPOLE MOMENT
-------------
                                X             Y             Z
Electronic contribution:      1.56427      -2.38371      -5.26828
Nuclear contribution   :     -2.09607       3.44215       6.87744
                        -----------------------------------------
Total Dipole Moment    :     -0.53180       1.05843       1.60915
                        -----------------------------------------
Magnitude (a.u.)       :      1.99812
Magnitude (Debye)      :      5.07881

Rotational constants in cm-1:     0.324698     0.133739     0.103466
Rotational constants in MHz :  9734.203431  4009.406827  3101.846422

                             ****ORCA TERMINATED NORMALLY****
TOTAL RUN TIME: 0 days 0 hours 0 minutes 19 seconds 272 msec
