                         Program Version 5.0.0 -  RELEASE  -
|  1> !LC-BLYP RIJCOSX def2-TZVP def2/J TightSCF
|  2> *xyz 1 1
|  3> C          2.23447       -2.98975       -2.39762
|  4> N          2.75680       -2.94555       -3.76503
|  5> C          1.98721       -2.59045       -4.81898
|  6> N          0.74322       -3.01749       -4.91352
|  7> N          2.49964       -1.84860       -5.80324
|  8> H          3.30978       -1.29282       -5.55895
|  9> H          1.80103       -1.30430       -6.28913
| 10> H          3.71612       -2.62880       -3.82953
| 11> H          0.39583       -3.62775       -4.18502
| 12> H          0.03920       -2.45438       -5.37137
| 13> C          2.19120       -1.61950       -1.71549
| 14> H          2.87278       -3.66637       -1.82801
| 15> H          1.24619       -3.44744       -2.40784
| 16> H          1.56387       -0.96046       -2.27853
| 17> H          3.18033       -1.21449       -1.66568
| 18> H          1.79916       -1.72608       -0.72562
| 19> *
| 20>
| 21> %MaxCore 64000
| 22>
| 23> %pal nprocs 4
| 24> end
| 25>
| 26> %scf
| 27>   MaxIter 150
| 28> end
| 29>
| 30>
| 31>                          ****END OF INPUT****

CARTESIAN COORDINATES (ANGSTROEM)
---------------------------------
  C      2.234470   -2.989750   -2.397620
  N      2.756800   -2.945550   -3.765030
  C      1.987210   -2.590450   -4.818980
  N      0.743220   -3.017490   -4.913520
  N      2.499640   -1.848600   -5.803240
  H      3.309780   -1.292820   -5.558950
  H      1.801030   -1.304300   -6.289130
  H      3.716120   -2.628800   -3.829530
  H      0.395830   -3.627750   -4.185020
  H      0.039200   -2.454380   -5.371370
  C      2.191200   -1.619500   -1.715490
  H      2.872780   -3.666370   -1.828010
  H      1.246190   -3.447440   -2.407840
  H      1.563870   -0.960460   -2.278530
  H      3.180330   -1.214490   -1.665680
  H      1.799160   -1.726080   -0.725620

 Total Charge           Charge          ....    1
 Multiplicity           Mult            ....    1
 Number of Electrons    NEL             ....   48
 Basis Dimension        Dim             ....  246

ORBITAL ENERGIES
----------------

  NO   OCC          E(Eh)            E(eV)
   0   2.0000     -14.399737      -391.8368
   1   2.0000     -14.395827      -391.7304
   2   2.0000     -14.393562      -391.6687
   3   2.0000     -10.411887      -283.3218
   4   2.0000     -10.277835      -279.6741
   5   2.0000     -10.208647      -277.7914
   6   2.0000      -1.323460       -36.0132
   7   2.0000      -1.209541       -32.9133
   8   2.0000      -1.204674       -32.7808
   9   2.0000      -1.038901       -28.2699
  10   2.0000      -0.950392       -25.8615
  11   2.0000      -0.913570       -24.8595
  12   2.0000      -0.892970       -24.2990
  13   2.0000      -0.846653       -23.0386
  14   2.0000      -0.807245       -21.9663
  15   2.0000      -0.787081       -21.4176
  16   2.0000      -0.756115       -20.5749
  17   2.0000      -0.727977       -19.8093
  18   2.0000      -0.707450       -19.2507
  19   2.0000      -0.673459       -18.3257
  20   2.0000      -0.636043       -17.3076
  21   2.0000      -0.615411       -16.7462
  22   2.0000      -0.589507       -16.0413
  23   2.0000      -0.549323       -14.9478
  24   0.0000      -0.114399        -3.1130
  25   0.0000      -0.089703        -2.4409
  26   0.0000      -0.058663        -1.5963
  27   0.0000      -0.043925        -1.1953
  28   0.0000      -0.023668        -0.6440

MULLIKEN ATOMIC CHARGES
-----------------------
   0 C :   -0.227528
   1 N :   -0.225137
   2 C :    0.317711
   3 N :   -0.339787
   4 N :   -0.316579
   5 H :    0.271023
   6 H :    0.268290
   7 H :    0.249590
   8 H :    0.280719
   9 H :    0.284831
  10 C :   -0.374378
  11 H :    0.198840
  12 H :    0.136830
  13 H :    0.134969
  14 H :    0.159113
  15 H :    0.181494
Sum of atomic charges:    1.0000000

LOEWDIN ATOMIC CHARGES
----------------------
   0 C :   -0.297700
   1 N :    0.156618
   2 C :   -0.411248
   3 N :    0.087206
   4 N :    0.061573
   5 H :    0.197944
   6 H :    0.201554
   7 H :    0.207758
   8 H :    0.199991
   9 H :    0.201795
  10 C :   -0.296833
  11 H :    0.155842
  12 H :    0.138540
  13 H :    0.123824
  14 H :    0.130317
  15 H :    0.142819

  Mayer bond orders larger than 0.100000
B(  0-C ,  1-N ) :   0.8700 B(  0-C , 10-C ) :   0.9256 B(  0-C , 11-H ) :   0.9628
B(  0-C , 12-H ) :   0.9838 B(  1-N ,  2-C ) :   1.3473 B(  1-N ,  7-H ) :   0.9114
B(  2-C ,  3-N ) :   1.3390 B(  2-C ,  4-N ) :   1.3330 B(  3-N ,  8-H ) :   0.9023
B(  3-N ,  9-H ) :   0.8927 B(  4-N ,  5-H ) :   0.9021 B(  4-N ,  6-H ) :   0.8996
B( 10-C , 13-H ) :   0.9591 B( 10-C , 14-H ) :   0.9640 B( 10-C , 15-H ) :   0.9662

FINAL SINGLE POINT ENERGY      -283.766546106198

DIPOLE MOMENT
-------------
                                X             Y             Z
Electronic contribution:      0.17507      -1.65636      -5.19211
Nuclear contribution   :     -0.59121       2.30298       4.63196
                        -----------------------------------------
Total Dipole Moment    :     -0.41613       0.64662      -0.56015
                        -----------------------------------------
Magnitude (a.u.)       :      0.95135
Magnitude (Debye)      :      2.41813

Rotational constants in cm-1:     0.205874     0.074757     0.066901
Rotational constants in MHz :  6171.937773  2241.151057  2005.629823

                             ****ORCA TERMINATED NORMALLY****
TOTAL RUN TIME: 0 days 0 hours 0 minutes 36 seconds 547 msec
