                         Program Version 5.0.0 -  RELEASE  -
|  1> !LC-BLYP RIJCOSX def2-TZVP def2/J TightSCF
|  2> *xyz 0 1
|  3> C         -1.10433        0.25137       -2.86006
|  4> C         -0.71189        0.84252       -4.21834
|  5> H          0.15463        1.49980       -4.13091
|  6> H         -1.53813        1.45922       -4.58267
|  7> C         -0.39762       -0.20587       -5.28802
|  8> F          0.61717       -0.00535       -5.99827
|  9> O         -1.13317       -1.22138       -5.34147
| 10> H         -1.95489       -0.38644       -2.98099
| 11> H         -1.34603        1.04362       -2.18269
| 12> H         -0.28606       -0.31581       -2.46809
| 13> *
| 14>
| 15> %MaxCore 64000
| 16>
| 17> %pal nprocs 4
| 18> end
| 19>
| 20> %scf
| 21>   MaxIter 150
| 22> end
| 23>
| 24>
| 25>                          ****END OF INPUT****

CARTESIAN COORDINATES (ANGSTROEM)
---------------------------------
  C     -1.104330    0.251370   -2.860060
  C     -0.711890    0.842520   -4.218340
  H      0.154630    1.499800   -4.130910
  H     -1.538130    1.459220   -4.582670
  C     -0.397620   -0.205870   -5.288020
  F      0.617170   -0.005350   -5.998270
  O     -1.133170   -1.221380   -5.341470
  H     -1.954890   -0.386440   -2.980990
  H     -1.346030    1.043620   -2.182690
  H     -0.286060   -0.315810   -2.468090

 Total Charge           Charge          ....    0
 Multiplicity           Mult            ....    1
 Number of Electrons    NEL             ....   40
 Basis Dimension        Dim             ....  185

ORBITAL ENERGIES
----------------

  NO   OCC          E(Eh)            E(eV)
   0   2.0000     -24.523808      -667.3267
   1   2.0000     -18.944209      -515.4981
   2   2.0000     -10.249704      -278.9086
   3   2.0000     -10.101934      -274.8876
   4   2.0000     -10.070272      -274.0260
   5   2.0000      -1.399241       -38.0753
   6   2.0000      -1.126613       -30.6567
   7   2.0000      -0.909883       -24.7592
   8   2.0000      -0.798136       -21.7184
   9   2.0000      -0.742668       -20.2090
  10   2.0000      -0.657398       -17.8887
  11   2.0000      -0.640761       -17.4360
  12   2.0000      -0.612136       -16.6571
  13   2.0000      -0.571322       -15.5465
  14   2.0000      -0.537267       -14.6198
  15   2.0000      -0.497967       -13.5504
  16   2.0000      -0.476675       -12.9710
  17   2.0000      -0.474662       -12.9162
  18   2.0000      -0.449652       -12.2357
  19   2.0000      -0.394477       -10.7343
  20   0.0000       0.054333         1.4785
  21   0.0000       0.096230         2.6185
  22   0.0000       0.137209         3.7337
  23   0.0000       0.154557         4.2057
  24   0.0000       0.163648         4.4531

MULLIKEN ATOMIC CHARGES
-----------------------
   0 C :   -0.391953
   1 C :   -0.274062
   2 H :    0.135554
   3 H :    0.148240
   4 C :    0.288985
   5 F :   -0.062725
   6 O :   -0.273950
   7 H :    0.156323
   8 H :    0.136787
   9 H :    0.136801
Sum of atomic charges:   -0.0000000

LOEWDIN ATOMIC CHARGES
----------------------
   0 C :   -0.301717
   1 C :   -0.272075
   2 H :    0.144715
   3 H :    0.159415
   4 C :   -0.526690
   5 F :    0.340504
   6 O :    0.077856
   7 H :    0.129921
   8 H :    0.123319
   9 H :    0.124753

  Mayer bond orders larger than 0.100000
B(  0-C ,  1-C ) :   0.9407 B(  0-C ,  7-H ) :   0.9649 B(  0-C ,  8-H ) :   0.9729
B(  0-C ,  9-H ) :   0.9749 B(  1-C ,  2-H ) :   0.9658 B(  1-C ,  3-H ) :   0.9394
B(  1-C ,  4-C ) :   0.9644 B(  4-C ,  5-F ) :   1.2149 B(  4-C ,  6-O ) :   2.1077

FINAL SINGLE POINT ENERGY      -291.903554653981

DIPOLE MOMENT
-------------
                                X             Y             Z
Electronic contribution:      3.60551      -2.35198      -7.71799
Nuclear contribution   :     -3.36368       3.36392       8.24820
                        -----------------------------------------
Total Dipole Moment    :      0.24183       1.01193       0.53021
                        -----------------------------------------
Magnitude (a.u.)       :      1.16774
Magnitude (Debye)      :      2.96815

Rotational constants in cm-1:     0.315013     0.126712     0.098430
Rotational constants in MHz :  9443.861322  3798.734540  2950.846388

                             ****ORCA TERMINATED NORMALLY****
TOTAL RUN TIME: 0 days 0 hours 0 minutes 20 seconds 897 msec
