                         Program Version 5.0.0 -  RELEASE  -
|  1> !LC-BLYP RIJCOSX def2-TZVP def2/J TightSCF
|  2> *xyz 0 1
|  3> C          2.23447       -2.98975       -2.39762
|  4> C          2.75680       -2.94555       -3.76503
|  5> C          1.98721       -2.59045       -4.81898
|  6> N          0.74322       -3.01749       -4.91352
|  7> N          2.49964       -1.84860       -5.80324
|  8> H          3.30978       -1.29282       -5.55895
|  9> H          1.80103       -1.30430       -6.28913
| 10> H          3.71612       -2.62880       -3.82953
| 11> H          0.39583       -3.62775       -4.18502
| 12> H          0.03920       -2.45438       -5.37137
| 13> C          2.19120       -1.61950       -1.71549
| 14> H          2.87278       -3.66637       -1.82801
| 15> H          1.24619       -3.44744       -2.40784
| 16> H          1.56387       -0.96046       -2.27853
| 17> H          3.18033       -1.21449       -1.66568
| 18> H          1.79916       -1.72608       -0.72562
| 19> *
| 20>
| 21> %MaxCore 64000
| 22>
| 23> %pal nprocs 4
| 24> end
| 25>
| 26> %scf
| 27>   MaxIter 150
| 28> end
| 29>
| 30>
| 31>                          ****END OF INPUT****

CARTESIAN COORDINATES (ANGSTROEM)
---------------------------------
  C      2.234470   -2.989750   -2.397620
  C      2.756800   -2.945550   -3.765030
  C      1.987210   -2.590450   -4.818980
  N      0.743220   -3.017490   -4.913520
  N      2.499640   -1.848600   -5.803240
  H      3.309780   -1.292820   -5.558950
  H      1.801030   -1.304300   -6.289130
  H      3.716120   -2.628800   -3.829530
  H      0.395830   -3.627750   -4.185020
  H      0.039200   -2.454380   -5.371370
  C      2.191200   -1.619500   -1.715490
  H      2.872780   -3.666370   -1.828010
  H      1.246190   -3.447440   -2.407840
  H      1.563870   -0.960460   -2.278530
  H      3.180330   -1.214490   -1.665680
  H      1.799160   -1.726080   -0.725620

 Total Charge           Charge          ....    0
 Multiplicity           Mult            ....    1
 Number of Electrons    NEL             ....   48
 Basis Dimension        Dim             ....  246

ORBITAL ENERGIES
----------------

  NO   OCC          E(Eh)            E(eV)
   0   2.0000     -14.174324      -385.7030
   1   2.0000     -14.169848      -385.5812
   2   2.0000     -10.118686      -275.3434
   3   2.0000     -10.044184      -273.3161
   4   2.0000     -10.035123      -273.0696
   5   2.0000      -9.991973      -271.8954
   6   2.0000      -1.072770       -29.1915
   7   2.0000      -0.980542       -26.6819
   8   2.0000      -0.882714       -24.0199
   9   2.0000      -0.799657       -21.7598
  10   2.0000      -0.725914       -19.7531
  11   2.0000      -0.686256       -18.6740
  12   2.0000      -0.648575       -17.6486
  13   2.0000      -0.612085       -16.6557
  14   2.0000      -0.569996       -15.5104
  15   2.0000      -0.557768       -15.1776
  16   2.0000      -0.517282       -14.0760
  17   2.0000      -0.498760       -13.5719
  18   2.0000      -0.474285       -12.9060
  19   2.0000      -0.461073       -12.5464
  20   2.0000      -0.425480       -11.5779
  21   2.0000      -0.417276       -11.3547
  22   2.0000      -0.375542       -10.2190
  23   2.0000      -0.253189        -6.8896
  24   0.0000       0.076446         2.0802
  25   0.0000       0.114086         3.1045
  26   0.0000       0.123020         3.3476
  27   0.0000       0.133811         3.6412
  28   0.0000       0.144909         3.9432

MULLIKEN ATOMIC CHARGES
-----------------------
   0 C :   -0.239914
   1 C :   -0.390352
   2 C :    0.275935
   3 N :   -0.406065
   4 N :   -0.398476
   5 H :    0.236863
   6 H :    0.203339
   7 H :    0.086284
   8 H :    0.238187
   9 H :    0.211790
  10 C :   -0.337101
  11 H :    0.118538
  12 H :    0.057338
  13 H :    0.107586
  14 H :    0.115834
  15 H :    0.120215
Sum of atomic charges:    0.0000000

LOEWDIN ATOMIC CHARGES
----------------------
   0 C :   -0.324508
   1 C :   -0.290326
   2 C :   -0.468980
   3 N :    0.002306
   4 N :   -0.019404
   5 H :    0.176761
   6 H :    0.164897
   7 H :    0.119649
   8 H :    0.178759
   9 H :    0.161852
  10 C :   -0.314784
  11 H :    0.139575
  12 H :    0.126794
  13 H :    0.114974
  14 H :    0.117582
  15 H :    0.114854

  Mayer bond orders larger than 0.100000
B(  0-C ,  1-C ) :   0.9984 B(  0-C , 10-C ) :   0.9094 B(  0-C , 11-H ) :   0.9930
B(  0-C , 12-H ) :   0.9819 B(  1-C ,  2-C ) :   1.5936 B(  1-C ,  7-H ) :   1.0479
B(  2-C ,  3-N ) :   1.1495 B(  2-C ,  4-N ) :   1.1443 B(  3-N ,  8-H ) :   0.9318
B(  3-N ,  9-H ) :   0.9209 B(  4-N ,  5-H ) :   0.9295 B(  4-N ,  6-H ) :   0.9336
B( 10-C , 13-H ) :   0.9793 B( 10-C , 14-H ) :   0.9782 B( 10-C , 15-H ) :   0.9824

FINAL SINGLE POINT ENERGY      -267.289105481054

DIPOLE MOMENT
-------------
                                X             Y             Z
Electronic contribution:     -0.36575      -1.34011      -5.01888
Nuclear contribution   :     -0.44240       2.20379       4.66256
                        -----------------------------------------
Total Dipole Moment    :     -0.80815       0.86368      -0.35632
                        -----------------------------------------
Magnitude (a.u.)       :      1.23531
Magnitude (Debye)      :      3.13992

Rotational constants in cm-1:     0.209447     0.075194     0.066975
Rotational constants in MHz :  6279.068019  2254.272519  2007.845458

                             ****ORCA TERMINATED NORMALLY****
TOTAL RUN TIME: 0 days 0 hours 0 minutes 40 seconds 212 msec
