                         Program Version 5.0.0 -  RELEASE  -
|  1> !LC-BLYP RIJCOSX def2-TZVP def2/J TightSCF
|  2> *xyz 0 1
|  3> C         -1.10433        0.25137       -2.86006
|  4> C         -0.71189        0.84252       -4.21834
|  5> H          0.15463        1.49980       -4.13091
|  6> H         -1.53813        1.45922       -4.58267
|  7> C         -0.39762       -0.20587       -5.28802
|  8> O          0.61717       -0.00535       -5.99827
|  9> F         -1.13317       -1.22138       -5.34147
| 10> H         -1.95489       -0.38644       -2.98099
| 11> H         -1.34603        1.04362       -2.18269
| 12> H         -0.28606       -0.31581       -2.46809
| 13> *
| 14>
| 15> %MaxCore 64000
| 16>
| 17> %pal nprocs 4
| 18> end
| 19>
| 20> %scf
| 21>   MaxIter 150
| 22> end
| 23>
| 24>
| 25>                          ****END OF INPUT****

CARTESIAN COORDINATES (ANGSTROEM)
---------------------------------
  C     -1.104330    0.251370   -2.860060
  C     -0.711890    0.842520   -4.218340
  H      0.154630    1.499800   -4.130910
  H     -1.538130    1.459220   -4.582670
  C     -0.397620   -0.205870   -5.288020
  O      0.617170   -0.005350   -5.998270
  F     -1.133170   -1.221380   -5.341470
  H     -1.954890   -0.386440   -2.980990
  H     -1.346030    1.043620   -2.182690
  H     -0.286060   -0.315810   -2.468090

 Total Charge           Charge          ....    0
 Multiplicity           Mult            ....    1
 Number of Electrons    NEL             ....   40
 Basis Dimension        Dim             ....  185

ORBITAL ENERGIES
----------------

  NO   OCC          E(Eh)            E(eV)
   0   2.0000     -24.524642      -667.3494
   1   2.0000     -18.942939      -515.4636
   2   2.0000     -10.248935      -278.8877
   3   2.0000     -10.101060      -274.8638
   4   2.0000     -10.076218      -274.1878
   5   2.0000      -1.399728       -38.0885
   6   2.0000      -1.125420       -30.6242
   7   2.0000      -0.914179       -24.8761
   8   2.0000      -0.792997       -21.5785
   9   2.0000      -0.750212       -20.4143
  10   2.0000      -0.659347       -17.9418
  11   2.0000      -0.648461       -17.6455
  12   2.0000      -0.601649       -16.3717
  13   2.0000      -0.572293       -15.5729
  14   2.0000      -0.536920       -14.6103
  15   2.0000      -0.504225       -13.7207
  16   2.0000      -0.486322       -13.2335
  17   2.0000      -0.478160       -13.0114
  18   2.0000      -0.449892       -12.2422
  19   2.0000      -0.389181       -10.5901
  20   0.0000       0.056919         1.5488
  21   0.0000       0.091356         2.4859
  22   0.0000       0.136490         3.7141
  23   0.0000       0.156906         4.2696
  24   0.0000       0.164743         4.4829

MULLIKEN ATOMIC CHARGES
-----------------------
   0 C :   -0.398646
   1 C :   -0.272415
   2 H :    0.157160
   3 H :    0.142764
   4 C :    0.282147
   5 O :   -0.270906
   6 F :   -0.065447
   7 H :    0.138522
   8 H :    0.142450
   9 H :    0.144371
Sum of atomic charges:   -0.0000000

LOEWDIN ATOMIC CHARGES
----------------------
   0 C :   -0.310536
   1 C :   -0.267805
   2 H :    0.156990
   3 H :    0.155547
   4 C :   -0.527808
   5 O :    0.075774
   6 F :    0.343020
   7 H :    0.123747
   8 H :    0.125601
   9 H :    0.125469

  Mayer bond orders larger than 0.100000
B(  0-C ,  1-C ) :   0.9219 B(  0-C ,  7-H ) :   0.9674 B(  0-C ,  8-H ) :   0.9738
B(  0-C ,  9-H ) :   0.9718 B(  1-C ,  2-H ) :   0.9685 B(  1-C ,  3-H ) :   0.9434
B(  1-C ,  4-C ) :   0.9766 B(  4-C ,  5-O ) :   2.1324 B(  4-C ,  6-F ) :   1.1995

FINAL SINGLE POINT ENERGY      -291.902581683934

DIPOLE MOMENT
-------------
                                X             Y             Z
Electronic contribution:      0.68200      -4.36107      -6.59385
Nuclear contribution   :     -1.45527       4.68977       7.53208
                        -----------------------------------------
Total Dipole Moment    :     -0.77327       0.32870       0.93823
                        -----------------------------------------
Magnitude (a.u.)       :      1.25947
Magnitude (Debye)      :      3.20132

Rotational constants in cm-1:     0.298240     0.132464     0.099915
Rotational constants in MHz :  8940.998095  3971.171647  2995.369122

                             ****ORCA TERMINATED NORMALLY****
TOTAL RUN TIME: 0 days 0 hours 0 minutes 20 seconds 849 msec
