                         Program Version 5.0.0 -  RELEASE  -
|  1> !LC-BLYP RIJCOSX def2-TZVP def2/J TightSCF
|  2> *xyz 0 1
|  3> C          2.23447       -2.98975       -2.39762
|  4> N          2.75680       -2.94555       -3.76503
|  5> C          1.98721       -2.59045       -4.81898
|  6> C          0.74322       -3.01749       -4.91352
|  7> N          2.49964       -1.84860       -5.80324
|  8> H          3.30978       -1.29282       -5.55895
|  9> H          1.80103       -1.30430       -6.28913
| 10> H          3.71612       -2.62880       -3.82953
| 11> H          0.39583       -3.62775       -4.18502
| 12> H          0.03920       -2.45438       -5.37137
| 13> C          2.19120       -1.61950       -1.71549
| 14> H          2.87278       -3.66637       -1.82801
| 15> H          1.24619       -3.44744       -2.40784
| 16> H          1.56387       -0.96046       -2.27853
| 17> H          3.18033       -1.21449       -1.66568
| 18> H          1.79916       -1.72608       -0.72562
| 19> *
| 20>
| 21> %MaxCore 64000
| 22>
| 23> %pal nprocs 4
| 24> end
| 25>
| 26> %scf
| 27>   MaxIter 150
| 28> end
| 29>
| 30>
| 31>                          ****END OF INPUT****

CARTESIAN COORDINATES (ANGSTROEM)
---------------------------------
  C      2.234470   -2.989750   -2.397620
  N      2.756800   -2.945550   -3.765030
  C      1.987210   -2.590450   -4.818980
  C      0.743220   -3.017490   -4.913520
  N      2.499640   -1.848600   -5.803240
  H      3.309780   -1.292820   -5.558950
  H      1.801030   -1.304300   -6.289130
  H      3.716120   -2.628800   -3.829530
  H      0.395830   -3.627750   -4.185020
  H      0.039200   -2.454380   -5.371370
  C      2.191200   -1.619500   -1.715490
  H      2.872780   -3.666370   -1.828010
  H      1.246190   -3.447440   -2.407840
  H      1.563870   -0.960460   -2.278530
  H      3.180330   -1.214490   -1.665680
  H      1.799160   -1.726080   -0.725620

 Total Charge           Charge          ....    0
 Multiplicity           Mult            ....    1
 Number of Electrons    NEL             ....   48
 Basis Dimension        Dim             ....  246

ORBITAL ENERGIES
----------------

  NO   OCC          E(Eh)            E(eV)
   0   2.0000     -14.171166      -385.6170
   1   2.0000     -14.168647      -385.5485
   2   2.0000     -10.116094      -275.2729
   3   2.0000     -10.100641      -274.8524
   4   2.0000     -10.056532      -273.6521
   5   2.0000      -9.984458      -271.6909
   6   2.0000      -1.070123       -29.1195
   7   2.0000      -0.990701       -26.9583
   8   2.0000      -0.864697       -23.5296
   9   2.0000      -0.822101       -22.3705
  10   2.0000      -0.749017       -20.3818
  11   2.0000      -0.667837       -18.1728
  12   2.0000      -0.649794       -17.6818
  13   2.0000      -0.616673       -16.7805
  14   2.0000      -0.567038       -15.4299
  15   2.0000      -0.551296       -15.0015
  16   2.0000      -0.521133       -14.1807
  17   2.0000      -0.498527       -13.5656
  18   2.0000      -0.495509       -13.4835
  19   2.0000      -0.470347       -12.7988
  20   2.0000      -0.461260       -12.5515
  21   2.0000      -0.445796       -12.1307
  22   2.0000      -0.351085        -9.5535
  23   2.0000      -0.271354        -7.3839
  24   0.0000       0.081353         2.2137
  25   0.0000       0.115223         3.1354
  26   0.0000       0.123264         3.3542
  27   0.0000       0.139222         3.7884
  28   0.0000       0.147338         4.0093

MULLIKEN ATOMIC CHARGES
-----------------------
   0 C :   -0.169701
   1 N :   -0.275649
   2 C :    0.287108
   3 C :   -0.496397
   4 N :   -0.404660
   5 H :    0.198707
   6 H :    0.232596
   7 H :    0.183924
   8 H :    0.072599
   9 H :    0.095541
  10 C :   -0.378306
  11 H :    0.134602
  12 H :    0.133196
  13 H :    0.140225
  14 H :    0.116872
  15 H :    0.129343
Sum of atomic charges:    0.0000000

LOEWDIN ATOMIC CHARGES
----------------------
   0 C :   -0.313539
   1 N :    0.103264
   2 C :   -0.468796
   3 C :   -0.326341
   4 N :   -0.022619
   5 H :    0.157318
   6 H :    0.180609
   7 H :    0.174592
   8 H :    0.102596
   9 H :    0.101204
  10 C :   -0.321496
  11 H :    0.132689
  12 H :    0.139381
  13 H :    0.123192
  14 H :    0.115388
  15 H :    0.122560

  Mayer bond orders larger than 0.100000
B(  0-C ,  1-N ) :   0.9307 B(  0-C , 10-C ) :   0.9334 B(  0-C , 11-H ) :   0.9828
B(  0-C , 12-H ) :   0.9804 B(  1-N ,  2-C ) :   1.1335 B(  1-N ,  7-H ) :   0.9429
B(  2-C ,  3-C ) :   1.6208 B(  2-C ,  4-N ) :   1.1478 B(  3-C ,  8-H ) :   1.0269
B(  3-C ,  9-H ) :   0.9802 B(  4-N ,  5-H ) :   0.9322 B(  4-N ,  6-H ) :   0.9273
B( 10-C , 13-H ) :   0.9710 B( 10-C , 14-H ) :   0.9746 B( 10-C , 15-H ) :   0.9760

FINAL SINGLE POINT ENERGY      -267.285259121618

DIPOLE MOMENT
-------------
                                X             Y             Z
Electronic contribution:      1.52638      -1.21318      -3.83787
Nuclear contribution   :     -0.86957       2.18853       4.41892
                        -----------------------------------------
Total Dipole Moment    :      0.65681       0.97535       0.58105
                        -----------------------------------------
Magnitude (a.u.)       :      1.31161
Magnitude (Debye)      :      3.33385

Rotational constants in cm-1:     0.214718     0.075736     0.068547
Rotational constants in MHz :  6437.075121  2270.519635  2054.974198

                             ****ORCA TERMINATED NORMALLY****
TOTAL RUN TIME: 0 days 0 hours 0 minutes 35 seconds 230 msec
