                         Program Version 5.0.0 -  RELEASE  -
|  1> !LC-BLYP RIJCOSX def2-TZVP def2/J TightSCF
|  2> *xyz 0 1
|  3> C          2.23447       -2.98975       -2.39762
|  4> N          2.75680       -2.94555       -3.76503
|  5> C          1.98721       -2.59045       -4.81898
|  6> N          0.74322       -3.01749       -4.91352
|  7> C          2.49964       -1.84860       -5.80324
|  8> H          3.30978       -1.29282       -5.55895
|  9> H          1.80103       -1.30430       -6.28913
| 10> H          3.71612       -2.62880       -3.82953
| 11> H          0.39583       -3.62775       -4.18502
| 12> H          0.03920       -2.45438       -5.37137
| 13> C          2.19120       -1.61950       -1.71549
| 14> H          2.87278       -3.66637       -1.82801
| 15> H          1.24619       -3.44744       -2.40784
| 16> H          1.56387       -0.96046       -2.27853
| 17> H          3.18033       -1.21449       -1.66568
| 18> H          1.79916       -1.72608       -0.72562
| 19> *
| 20>
| 21> %MaxCore 64000
| 22>
| 23> %pal nprocs 4
| 24> end
| 25>
| 26> %scf
| 27>   MaxIter 150
| 28> end
| 29>
| 30>
| 31>                          ****END OF INPUT****

CARTESIAN COORDINATES (ANGSTROEM)
---------------------------------
  C      2.234470   -2.989750   -2.397620
  N      2.756800   -2.945550   -3.765030
  C      1.987210   -2.590450   -4.818980
  N      0.743220   -3.017490   -4.913520
  C      2.499640   -1.848600   -5.803240
  H      3.309780   -1.292820   -5.558950
  H      1.801030   -1.304300   -6.289130
  H      3.716120   -2.628800   -3.829530
  H      0.395830   -3.627750   -4.185020
  H      0.039200   -2.454380   -5.371370
  C      2.191200   -1.619500   -1.715490
  H      2.872780   -3.666370   -1.828010
  H      1.246190   -3.447440   -2.407840
  H      1.563870   -0.960460   -2.278530
  H      3.180330   -1.214490   -1.665680
  H      1.799160   -1.726080   -0.725620

 Total Charge           Charge          ....    0
 Multiplicity           Mult            ....    1
 Number of Electrons    NEL             ....   48
 Basis Dimension        Dim             ....  246

ORBITAL ENERGIES
----------------

  NO   OCC          E(Eh)            E(eV)
   0   2.0000     -14.171803      -385.6344
   1   2.0000     -14.170211      -385.5910
   2   2.0000     -10.119704      -275.3711
   3   2.0000     -10.109404      -275.0909
   4   2.0000     -10.060618      -273.7633
   5   2.0000      -9.979613      -271.5591
   6   2.0000      -1.072247       -29.1773
   7   2.0000      -0.990524       -26.9535
   8   2.0000      -0.877469       -23.8771
   9   2.0000      -0.815594       -22.1934
  10   2.0000      -0.738217       -20.0879
  11   2.0000      -0.707710       -19.2578
  12   2.0000      -0.645613       -17.5680
  13   2.0000      -0.597093       -16.2477
  14   2.0000      -0.593839       -16.1592
  15   2.0000      -0.541838       -14.7442
  16   2.0000      -0.532922       -14.5015
  17   2.0000      -0.505201       -13.7472
  18   2.0000      -0.477265       -12.9871
  19   2.0000      -0.469421       -12.7736
  20   2.0000      -0.464945       -12.6518
  21   2.0000      -0.454114       -12.3571
  22   2.0000      -0.354015        -9.6332
  23   2.0000      -0.266005        -7.2384
  24   0.0000       0.083227         2.2647
  25   0.0000       0.110013         2.9936
  26   0.0000       0.119931         3.2635
  27   0.0000       0.130298         3.5456
  28   0.0000       0.146053         3.9743

MULLIKEN ATOMIC CHARGES
-----------------------
   0 C :   -0.204622
   1 N :   -0.260916
   2 C :    0.242948
   3 N :   -0.411299
   4 C :   -0.438834
   5 H :    0.065962
   6 H :    0.061620
   7 H :    0.215866
   8 H :    0.213380
   9 H :    0.240631
  10 C :   -0.358037
  11 H :    0.142622
  12 H :    0.101574
  13 H :    0.136089
  14 H :    0.125401
  15 H :    0.127616
Sum of atomic charges:   -0.0000000

LOEWDIN ATOMIC CHARGES
----------------------
   0 C :   -0.327972
   1 N :    0.104118
   2 C :   -0.468166
   3 N :    0.004940
   4 C :   -0.356127
   5 H :    0.098141
   6 H :    0.102972
   7 H :    0.191183
   8 H :    0.164076
   9 H :    0.178683
  10 C :   -0.318213
  11 H :    0.134438
  12 H :    0.126765
  13 H :    0.123379
  14 H :    0.119839
  15 H :    0.121944

  Mayer bond orders larger than 0.100000
B(  0-C ,  1-N ) :   0.9584 B(  0-C , 10-C ) :   0.9209 B(  0-C , 11-H ) :   0.9827
B(  0-C , 12-H ) :   0.9902 B(  1-N ,  2-C ) :   1.1732 B(  1-N ,  7-H ) :   0.9350
B(  2-C ,  3-N ) :   1.1194 B(  2-C ,  4-C ) :   1.7248 B(  3-N ,  8-H ) :   0.9417
B(  3-N ,  9-H ) :   0.9231 B(  4-C ,  5-H ) :   1.0181 B(  4-C ,  6-H ) :   1.0035
B( 10-C , 13-H ) :   0.9706 B( 10-C , 14-H ) :   0.9733 B( 10-C , 15-H ) :   0.9741

FINAL SINGLE POINT ENERGY      -267.279863194703

DIPOLE MOMENT
-------------
                                X             Y             Z
Electronic contribution:     -0.14951      -2.39696      -2.93097
Nuclear contribution   :     -0.49695       2.43650       4.23017
                        -----------------------------------------
Total Dipole Moment    :     -0.64647       0.03954       1.29920
                        -----------------------------------------
Magnitude (a.u.)       :      1.45169
Magnitude (Debye)      :      3.68990

Rotational constants in cm-1:     0.211102     0.077011     0.069221
Rotational constants in MHz :  6328.667765  2308.731604  2075.192956

                             ****ORCA TERMINATED NORMALLY****
TOTAL RUN TIME: 0 days 0 hours 0 minutes 37 seconds 141 msec
