                         Program Version 5.0.0 -  RELEASE  -
|  1> !LC-BLYP RIJCOSX def2-TZVP def2/J TightSCF xyzfile
|  2>
|  3> *xyzfile 0 1 D1.xyz
|  4>
|  5> %MaxCore 64000
|  6>
|  7> %pal nprocs 18
|  8> end
|  9>
| 10> %scf
| 11>   MaxIter 150
| 12> end
| 13>
| 14>
| 15>                          ****END OF INPUT****

CARTESIAN COORDINATES (ANGSTROEM)
---------------------------------
  C      2.234473   -2.989754   -2.397622
  C      2.756799   -2.945553   -3.765029
  C     -1.104325    0.251374   -2.860056
  C     -0.711893    0.842517   -4.218344
  H      0.154626    1.499800   -4.130909
  H     -1.538134    1.459222   -4.582671
  C     -0.397624   -0.205875   -5.288018
  C      1.987208   -2.590451   -4.818975
  N      0.743221   -3.017493   -4.913524
  N      2.499636   -1.848598   -5.803241
  H      3.309780   -1.292818   -5.558947
  H      1.801025   -1.304298   -6.289129
  H      3.716116   -2.628797   -3.829533
  H      0.395828   -3.627747   -4.185024
  H      0.039201   -2.454383   -5.371367
  F      0.617165   -0.005348   -5.998273
  O     -1.133173   -1.221380   -5.341465
  C      2.191199   -1.619503   -1.715492
  H      2.872783   -3.666368   -1.828014
  H      1.246188   -3.447444   -2.407842
  C      1.298729   -0.554314   -2.359773
  H      1.872917   -1.787955   -0.681310
  H      3.216809   -1.238432   -1.654428
  C     -0.196255   -0.863365   -2.325763
  H      1.612531   -0.371346   -3.393065
  H      1.480944    0.388638   -1.834444
  H     -0.404105   -1.761825   -2.909448
  H     -0.490439   -1.087880   -1.294131
  H     -1.143842    1.066711   -2.129680
  H     -2.114401   -0.156834   -2.930323

 Total Charge           Charge          ....    0
 Multiplicity           Mult            ....    1
 Number of Electrons    NEL             ....  102
 Basis Dimension        Dim             ....  505

ORBITAL ENERGIES
----------------

  NO   OCC          E(Eh)            E(eV)
   0   2.0000     -24.560561      -668.3268
   1   2.0000     -18.977852      -516.4136
   2   2.0000     -14.156372      -385.2145
   3   2.0000     -14.146851      -384.9554
   4   2.0000     -10.280673      -279.7513
   5   2.0000     -10.115021      -275.2437
   6   2.0000     -10.107059      -275.0271
   7   2.0000     -10.088318      -274.5171
   8   2.0000     -10.067428      -273.9486
   9   2.0000     -10.063663      -273.8462
  10   2.0000     -10.050735      -273.4944
  11   2.0000     -10.039589      -273.1911
  12   2.0000      -9.981315      -271.6054
  13   2.0000      -1.437942       -39.1284
  14   2.0000      -1.165636       -31.7186
  15   2.0000      -1.059195       -28.8222
  16   2.0000      -0.965932       -26.2844
  17   2.0000      -0.942800       -25.6549
  18   2.0000      -0.900929       -24.5155
  19   2.0000      -0.863425       -23.4950
  20   2.0000      -0.818226       -22.2651
  21   2.0000      -0.797148       -21.6915
  22   2.0000      -0.761293       -20.7158
  23   2.0000      -0.723433       -19.6856
  24   2.0000      -0.700567       -19.0634
  25   2.0000      -0.689199       -18.7541
  26   2.0000      -0.676471       -18.4077
  27   2.0000      -0.657510       -17.8918
  28   2.0000      -0.649663       -17.6782
  29   2.0000      -0.623315       -16.9613
  30   2.0000      -0.599078       -16.3017
  31   2.0000      -0.590759       -16.0754
  32   2.0000      -0.582403       -15.8480
  33   2.0000      -0.559036       -15.2121
  34   2.0000      -0.548804       -14.9337
  35   2.0000      -0.542795       -14.7702
  36   2.0000      -0.526810       -14.3352
  37   2.0000      -0.513778       -13.9806
  38   2.0000      -0.497477       -13.5370
  39   2.0000      -0.489969       -13.3327
  40   2.0000      -0.479117       -13.0374
  41   2.0000      -0.471619       -12.8334
  42   2.0000      -0.458013       -12.4632
  43   2.0000      -0.446072       -12.1382
  44   2.0000      -0.436079       -11.8663
  45   2.0000      -0.425835       -11.5876
  46   2.0000      -0.414175       -11.2703
  47   2.0000      -0.408099       -11.1049
  48   2.0000      -0.400967       -10.9109
  49   2.0000      -0.356745        -9.7075
  50   2.0000      -0.242539        -6.5998
  51   0.0000       0.022569         0.6141
  52   0.0000       0.082660         2.2493
  53   0.0000       0.106356         2.8941
  54   0.0000       0.112513         3.0616
  55   0.0000       0.113739         3.0950

MULLIKEN ATOMIC CHARGES
-----------------------
   0 C :   -0.301175
   1 C :   -0.313270
   2 C :   -0.228012
   3 C :   -0.317329
   4 H :    0.167555
   5 H :    0.173640
   6 C :    0.302347
   7 C :    0.067643
   8 N :   -0.341388
   9 N :   -0.339543
  10 H :    0.231633
  11 H :    0.194772
  12 H :    0.081703
  13 H :    0.225187
  14 H :    0.223054
  15 F :   -0.080940
  16 O :   -0.277782
  17 C :   -0.197206
  18 H :    0.126319
  19 H :    0.097535
  20 C :   -0.234967
  21 H :    0.116862
  22 H :    0.118464
  23 C :   -0.288448
  24 H :    0.112015
  25 H :    0.128001
  26 H :    0.124400
  27 H :    0.135419
  28 H :    0.142867
  29 H :    0.150642
Sum of atomic charges:   -0.0000000

LOEWDIN ATOMIC CHARGES
----------------------
   0 C :   -0.302710
   1 C :   -0.291806
   2 C :   -0.265310
   3 C :   -0.243277
   4 H :    0.151667
   5 H :    0.165541
   6 C :   -0.513001
   7 C :   -0.489796
   8 N :    0.016229
   9 N :   -0.016956
  10 H :    0.172428
  11 H :    0.149830
  12 H :    0.118237
  13 H :    0.173021
  14 H :    0.143627
  15 F :    0.350941
  16 O :    0.094032
  17 C :   -0.269243
  18 H :    0.143306
  19 H :    0.131366
  20 C :   -0.275783
  21 H :    0.137552
  22 H :    0.140132
  23 C :   -0.277897
  24 H :    0.137824
  25 H :    0.140693
  26 H :    0.138527
  27 H :    0.144744
  28 H :    0.146668
  29 H :    0.149414

  Mayer bond orders larger than 0.100000
B(  0-C ,  1-C ) :   0.9437 B(  0-C , 17-C ) :   0.9067 B(  0-C , 18-H ) :   1.0017
B(  0-C , 19-H ) :   0.9921 B(  1-C ,  7-C ) :   1.6484 B(  1-C , 12-H ) :   1.0418
B(  2-C ,  3-C ) :   0.9058 B(  2-C , 23-C ) :   0.9304 B(  2-C , 28-H ) :   0.9772
B(  2-C , 29-H ) :   0.9803 B(  3-C ,  4-H ) :   0.9619 B(  3-C ,  5-H ) :   0.9496
B(  3-C ,  6-C ) :   0.9608 B(  6-C , 15-F ) :   1.1595 B(  6-C , 16-O ) :   2.0318
B(  7-C ,  8-N ) :   1.2111 B(  7-C ,  9-N ) :   1.1539 B(  8-N , 13-H ) :   0.9324
B(  8-N , 14-H ) :   0.8839 B(  9-N , 10-H ) :   0.9316 B(  9-N , 11-H ) :   0.9377
B( 17-C , 20-C ) :   0.9536 B( 17-C , 21-H ) :   0.9838 B( 17-C , 22-H ) :   0.9868
B( 20-C , 23-C ) :   0.8576 B( 20-C , 24-H ) :   0.9684 B( 20-C , 25-H ) :   0.9838
B( 23-C , 26-H ) :   0.9837 B( 23-C , 27-H ) :   0.9839

FINAL SINGLE POINT ENERGY      -636.429404373456

DIPOLE MOMENT
-------------
                                X             Y             Z
Electronic contribution:     -3.11522       2.27851     -14.52828
Nuclear contribution   :      2.31842      -0.27661      14.74721
                        -----------------------------------------
Total Dipole Moment    :     -0.79679       2.00190       0.21893
                        -----------------------------------------
Magnitude (a.u.)       :      2.16574
Magnitude (Debye)      :      5.50487

Rotational constants in cm-1:     0.032691     0.023990     0.017099
Rotational constants in MHz :   980.050971   719.190545   512.606858

                             ****ORCA TERMINATED NORMALLY****
TOTAL RUN TIME: 0 days 0 hours 1 minutes 8 seconds 25 msec
