                         Program Version 5.0.0 -  RELEASE  -
|  1> !LC-BLYP RIJCOSX def2-TZVP def2/J TightSCF xyzfile
|  2>
|  3> *xyzfile 0 1 D2.xyz
|  4>
|  5> %MaxCore 64000
|  6>
|  7> %pal nprocs 18
|  8> end
|  9>
| 10> %scf
| 11>   MaxIter 150
| 12> end
| 13>
| 14>
| 15>                          ****END OF INPUT****

CARTESIAN COORDINATES (ANGSTROEM)
---------------------------------
  C      2.234473   -2.989754   -2.397622
  N      2.756799   -2.945553   -3.765029
  C     -1.104325    0.251374   -2.860056
  C     -0.711893    0.842517   -4.218344
  H      0.154626    1.499800   -4.130909
  H     -1.538134    1.459222   -4.582671
  C     -0.397624   -0.205875   -5.288018
  C      1.987208   -2.590451   -4.818975
  C      0.743221   -3.017493   -4.913524
  N      2.499636   -1.848598   -5.803241
  H      3.309780   -1.292818   -5.558947
  H      1.801025   -1.304298   -6.289129
  H      3.716116   -2.628797   -3.829533
  H      0.395828   -3.627747   -4.185024
  H      0.039201   -2.454383   -5.371367
  F      0.617165   -0.005348   -5.998273
  O     -1.133173   -1.221380   -5.341465
  C      2.191199   -1.619503   -1.715492
  H      2.872783   -3.666368   -1.828014
  H      1.246188   -3.447444   -2.407842
  C      1.298729   -0.554314   -2.359773
  H      1.872917   -1.787955   -0.681310
  H      3.216809   -1.238432   -1.654428
  C     -0.196255   -0.863365   -2.325763
  H      1.612531   -0.371346   -3.393065
  H      1.480944    0.388638   -1.834444
  H     -0.404105   -1.761825   -2.909448
  H     -0.490439   -1.087880   -1.294131
  H     -1.143842    1.066711   -2.129680
  H     -2.114401   -0.156834   -2.930323

 Total Charge           Charge          ....    0
 Multiplicity           Mult            ....    1
 Number of Electrons    NEL             ....  102
 Basis Dimension        Dim             ....  505

ORBITAL ENERGIES
----------------

  NO   OCC          E(Eh)            E(eV)
   0   2.0000     -24.542974      -667.8483
   1   2.0000     -18.952317      -515.7188
   2   2.0000     -14.161789      -385.3619
   3   2.0000     -14.153920      -385.1477
   4   2.0000     -10.258643      -279.1519
   5   2.0000     -10.104179      -274.9487
   6   2.0000     -10.101302      -274.8704
   7   2.0000     -10.095464      -274.7115
   8   2.0000     -10.081740      -274.3381
   9   2.0000     -10.070276      -274.0261
  10   2.0000     -10.069600      -274.0078
  11   2.0000     -10.063449      -273.8404
  12   2.0000      -9.962283      -271.0875
  13   2.0000      -1.420184       -38.6452
  14   2.0000      -1.140462       -31.0336
  15   2.0000      -1.060317       -28.8527
  16   2.0000      -0.983017       -26.7493
  17   2.0000      -0.934871       -25.4391
  18   2.0000      -0.895418       -24.3656
  19   2.0000      -0.843829       -22.9618
  20   2.0000      -0.815784       -22.1986
  21   2.0000      -0.799213       -21.7477
  22   2.0000      -0.770139       -20.9565
  23   2.0000      -0.728259       -19.8169
  24   2.0000      -0.697184       -18.9713
  25   2.0000      -0.676897       -18.4193
  26   2.0000      -0.654163       -17.8007
  27   2.0000      -0.649724       -17.6799
  28   2.0000      -0.637918       -17.3586
  29   2.0000      -0.629720       -17.1356
  30   2.0000      -0.600262       -16.3339
  31   2.0000      -0.590130       -16.0583
  32   2.0000      -0.576692       -15.6926
  33   2.0000      -0.553562       -15.0632
  34   2.0000      -0.548386       -14.9223
  35   2.0000      -0.528299       -14.3757
  36   2.0000      -0.518802       -14.1173
  37   2.0000      -0.511600       -13.9213
  38   2.0000      -0.499465       -13.5911
  39   2.0000      -0.485254       -13.2044
  40   2.0000      -0.476495       -12.9661
  41   2.0000      -0.465718       -12.6728
  42   2.0000      -0.462938       -12.5972
  43   2.0000      -0.453646       -12.3443
  44   2.0000      -0.445381       -12.1194
  45   2.0000      -0.428339       -11.6557
  46   2.0000      -0.419537       -11.4162
  47   2.0000      -0.415782       -11.3140
  48   2.0000      -0.383775       -10.4431
  49   2.0000      -0.341029        -9.2799
  50   2.0000      -0.256761        -6.9868
  51   0.0000       0.042389         1.1535
  52   0.0000       0.081346         2.2135
  53   0.0000       0.098770         2.6877
  54   0.0000       0.108269         2.9461
  55   0.0000       0.121589         3.3086

MULLIKEN ATOMIC CHARGES
-----------------------
   0 C :   -0.236627
   1 N :   -0.232204
   2 C :   -0.229543
   3 C :   -0.320338
   4 H :    0.158362
   5 H :    0.168830
   6 C :    0.302948
   7 C :    0.162670
   8 C :   -0.525964
   9 N :   -0.353197
  10 H :    0.194462
  11 H :    0.218558
  12 H :    0.181764
  13 H :    0.086838
  14 H :    0.140560
  15 F :   -0.094698
  16 O :   -0.247441
  17 C :   -0.254044
  18 H :    0.150275
  19 H :    0.158446
  20 C :   -0.223582
  21 H :    0.123965
  22 H :    0.127284
  23 C :   -0.284217
  24 H :    0.111762
  25 H :    0.130473
  26 H :    0.168550
  27 H :    0.128811
  28 H :    0.137780
  29 H :    0.149513
Sum of atomic charges:    0.0000000

LOEWDIN ATOMIC CHARGES
----------------------
   0 C :   -0.291605
   1 N :    0.106417
   2 C :   -0.265455
   3 C :   -0.246337
   4 H :    0.147883
   5 H :    0.163447
   6 C :   -0.517638
   7 C :   -0.495477
   8 C :   -0.313652
   9 N :   -0.024917
  10 H :    0.152603
  11 H :    0.163602
  12 H :    0.173213
  13 H :    0.099250
  14 H :    0.097925
  15 F :    0.345270
  16 O :    0.111016
  17 C :   -0.280993
  18 H :    0.136765
  19 H :    0.142534
  20 C :   -0.276312
  21 H :    0.143846
  22 H :    0.137866
  23 C :   -0.276509
  24 H :    0.138792
  25 H :    0.141391
  26 H :    0.150028
  27 H :    0.142349
  28 H :    0.144323
  29 H :    0.150375

  Mayer bond orders larger than 0.100000
B(  0-C ,  1-N ) :   0.9135 B(  0-C , 17-C ) :   0.9271 B(  0-C , 18-H ) :   0.9943
B(  0-C , 19-H ) :   0.9852 B(  1-N ,  7-C ) :   1.1290 B(  1-N , 12-H ) :   0.9360
B(  2-C ,  3-C ) :   0.9102 B(  2-C , 23-C ) :   0.9371 B(  2-C , 28-H ) :   0.9797
B(  2-C , 29-H ) :   0.9776 B(  3-C ,  4-H ) :   0.9634 B(  3-C ,  5-H ) :   0.9540
B(  3-C ,  6-C ) :   0.9555 B(  6-C , 15-F ) :   1.1379 B(  6-C , 16-O ) :   2.0797
B(  7-C ,  8-C ) :   1.5801 B(  7-C ,  9-N ) :   1.1559 B(  8-C , 13-H ) :   1.0395
B(  8-C , 14-H ) :   0.9998 B(  9-N , 10-H ) :   0.9355 B(  9-N , 11-H ) :   0.9253
B( 17-C , 20-C ) :   0.9401 B( 17-C , 21-H ) :   0.9791 B( 17-C , 22-H ) :   0.9894
B( 20-C , 23-C ) :   0.8526 B( 20-C , 24-H ) :   0.9700 B( 20-C , 25-H ) :   0.9850
B( 23-C , 26-H ) :   0.9782 B( 23-C , 27-H ) :   0.9828

FINAL SINGLE POINT ENERGY      -636.409893335402

DIPOLE MOMENT
-------------
                                X             Y             Z
Electronic contribution:     -1.47257       2.20632     -13.53276
Nuclear contribution   :      2.00823      -0.28769      14.57028
                        -----------------------------------------
Total Dipole Moment    :      0.53566       1.91863       1.03752
                        -----------------------------------------
Magnitude (a.u.)       :      2.24600
Magnitude (Debye)      :      5.70888

Rotational constants in cm-1:     0.033070     0.023715     0.016943
Rotational constants in MHz :   991.423248   710.957140   507.940500

                             ****ORCA TERMINATED NORMALLY****
TOTAL RUN TIME: 0 days 0 hours 1 minutes 7 seconds 932 msec
