                         Program Version 5.0.0 -  RELEASE  -
|  1> !LC-BLYP RIJCOSX def2-TZVP def2/J TightSCF xyzfile
|  2>
|  3> *xyzfile 0 1 D4.xyz
|  4>
|  5> %MaxCore 64000
|  6>
|  7> %pal nprocs 18
|  8> end
|  9>
| 10> %scf
| 11>   MaxIter 150
| 12> end
| 13>
| 14>
| 15>                          ****END OF INPUT****

CARTESIAN COORDINATES (ANGSTROEM)
---------------------------------
  C      2.234473   -2.989754   -2.397622
  C      2.756799   -2.945553   -3.765029
  C     -1.104325    0.251374   -2.860056
  C     -0.711893    0.842517   -4.218344
  H      0.154626    1.499800   -4.130909
  H     -1.538134    1.459222   -4.582671
  C     -0.397624   -0.205875   -5.288018
  C      1.987208   -2.590451   -4.818975
  N      0.743221   -3.017493   -4.913524
  N      2.499636   -1.848598   -5.803241
  H      3.309780   -1.292818   -5.558947
  H      1.801025   -1.304298   -6.289129
  H      3.716116   -2.628797   -3.829533
  H      0.395828   -3.627747   -4.185024
  H      0.039201   -2.454383   -5.371367
  O      0.617165   -0.005348   -5.998273
  F     -1.133173   -1.221380   -5.341465
  C      2.191199   -1.619503   -1.715492
  H      2.872783   -3.666368   -1.828014
  H      1.246188   -3.447444   -2.407842
  C      1.298729   -0.554314   -2.359773
  H      1.872917   -1.787955   -0.681310
  H      3.216809   -1.238432   -1.654428
  C     -0.196255   -0.863365   -2.325763
  H      1.612531   -0.371346   -3.393065
  H      1.480944    0.388638   -1.834444
  H     -0.404105   -1.761825   -2.909448
  H     -0.490439   -1.087880   -1.294131
  H     -1.143842    1.066711   -2.129680
  H     -2.114401   -0.156834   -2.930323

 Total Charge           Charge          ....    0
 Multiplicity           Mult            ....    1
 Number of Electrons    NEL             ....  102
 Basis Dimension        Dim             ....  505

ORBITAL ENERGIES
----------------

  NO   OCC          E(Eh)            E(eV)
   0   2.0000     -24.561016      -668.3392
   1   2.0000     -18.977495      -516.4039
   2   2.0000     -14.159284      -385.2937
   3   2.0000     -14.141007      -384.7964
   4   2.0000     -10.279668      -279.7240
   5   2.0000     -10.113823      -275.2111
   6   2.0000     -10.105500      -274.9846
   7   2.0000     -10.092148      -274.6213
   8   2.0000     -10.073109      -274.1032
   9   2.0000     -10.062040      -273.8020
  10   2.0000     -10.050209      -273.4801
  11   2.0000     -10.039823      -273.1975
  12   2.0000      -9.979889      -271.5666
  13   2.0000      -1.439237       -39.1636
  14   2.0000      -1.163197       -31.6522
  15   2.0000      -1.057293       -28.7704
  16   2.0000      -0.963590       -26.2206
  17   2.0000      -0.946659       -25.7599
  18   2.0000      -0.901156       -24.5217
  19   2.0000      -0.862575       -23.4719
  20   2.0000      -0.814078       -22.1522
  21   2.0000      -0.797114       -21.6906
  22   2.0000      -0.765010       -20.8170
  23   2.0000      -0.724978       -19.7277
  24   2.0000      -0.707184       -19.2435
  25   2.0000      -0.689784       -18.7700
  26   2.0000      -0.678979       -18.4760
  27   2.0000      -0.668999       -18.2044
  28   2.0000      -0.633058       -17.2264
  29   2.0000      -0.622532       -16.9400
  30   2.0000      -0.594155       -16.1678
  31   2.0000      -0.592507       -16.1229
  32   2.0000      -0.582024       -15.8377
  33   2.0000      -0.552857       -15.0440
  34   2.0000      -0.545718       -14.8498
  35   2.0000      -0.542158       -14.7529
  36   2.0000      -0.534879       -14.5548
  37   2.0000      -0.507749       -13.8166
  38   2.0000      -0.501940       -13.6585
  39   2.0000      -0.497446       -13.5362
  40   2.0000      -0.485851       -13.2207
  41   2.0000      -0.466005       -12.6806
  42   2.0000      -0.461945       -12.5702
  43   2.0000      -0.445114       -12.1122
  44   2.0000      -0.436943       -11.8898
  45   2.0000      -0.424201       -11.5431
  46   2.0000      -0.415157       -11.2970
  47   2.0000      -0.404736       -11.0134
  48   2.0000      -0.401832       -10.9344
  49   2.0000      -0.355962        -9.6862
  50   2.0000      -0.241049        -6.5593
  51   0.0000       0.025922         0.7054
  52   0.0000       0.079618         2.1665
  53   0.0000       0.105501         2.8708
  54   0.0000       0.111764         3.0412
  55   0.0000       0.116454         3.1689

MULLIKEN ATOMIC CHARGES
-----------------------
   0 C :   -0.300909
   1 C :   -0.314792
   2 C :   -0.256024
   3 C :   -0.308889
   4 H :    0.182672
   5 H :    0.170204
   6 C :    0.302581
   7 C :    0.073697
   8 N :   -0.350011
   9 N :   -0.330628
  10 H :    0.226209
  11 H :    0.215688
  12 H :    0.084769
  13 H :    0.230111
  14 H :    0.203704
  15 O :   -0.295054
  16 F :   -0.073179
  17 C :   -0.194403
  18 H :    0.127000
  19 H :    0.091398
  20 C :   -0.249663
  21 H :    0.114464
  22 H :    0.120544
  23 C :   -0.281089
  24 H :    0.145102
  25 H :    0.128527
  26 H :    0.103022
  27 H :    0.138323
  28 H :    0.146076
  29 H :    0.150551
Sum of atomic charges:   -0.0000000

LOEWDIN ATOMIC CHARGES
----------------------
   0 C :   -0.304274
   1 C :   -0.290870
   2 C :   -0.274927
   3 C :   -0.239207
   4 H :    0.162830
   5 H :    0.162037
   6 C :   -0.515518
   7 C :   -0.486173
   8 N :    0.010889
   9 N :   -0.009950
  10 H :    0.171883
  11 H :    0.150097
  12 H :    0.119447
  13 H :    0.172989
  14 H :    0.145644
  15 O :    0.088801
  16 F :    0.354911
  17 C :   -0.269646
  18 H :    0.143253
  19 H :    0.129353
  20 C :   -0.275470
  21 H :    0.136534
  22 H :    0.141078
  23 C :   -0.280487
  24 H :    0.145124
  25 H :    0.141212
  26 H :    0.132456
  27 H :    0.145339
  28 H :    0.148071
  29 H :    0.144575

  Mayer bond orders larger than 0.100000
B(  0-C ,  1-C ) :   0.9446 B(  0-C , 17-C ) :   0.9027 B(  0-C , 18-H ) :   1.0028
B(  0-C , 19-H ) :   0.9939 B(  1-C ,  7-C ) :   1.6491 B(  1-C , 12-H ) :   1.0407
B(  2-C ,  3-C ) :   0.8825 B(  2-C , 23-C ) :   0.9105 B(  2-C , 28-H ) :   0.9732
B(  2-C , 29-H ) :   0.9921 B(  3-C ,  4-H ) :   0.9676 B(  3-C ,  5-H ) :   0.9534
B(  3-C ,  6-C ) :   0.9614 B(  6-C , 15-O ) :   2.0262 B(  6-C , 16-F ) :   1.1633
B(  7-C ,  8-N ) :   1.1741 B(  7-C ,  9-N ) :   1.1916 B(  8-N , 13-H ) :   0.9297
B(  8-N , 14-H ) :   0.9171 B(  9-N , 10-H ) :   0.9338 B(  9-N , 11-H ) :   0.9124
B( 17-C , 20-C ) :   0.9488 B( 17-C , 21-H ) :   0.9840 B( 17-C , 22-H ) :   0.9863
B( 20-C , 23-C ) :   0.8476 B( 20-C , 24-H ) :   0.9656 B( 20-C , 25-H ) :   0.9836
B( 23-C , 26-H ) :   0.9924 B( 23-C , 27-H ) :   0.9830

FINAL SINGLE POINT ENERGY      -636.429351545938

DIPOLE MOMENT
-------------
                                X             Y             Z
Electronic contribution:     -6.03868       0.25851     -13.41845
Nuclear contribution   :      4.38568       1.15960      13.97148
                        -----------------------------------------
Total Dipole Moment    :     -1.65300       1.41811       0.55303
                        -----------------------------------------
Magnitude (a.u.)       :      2.24706
Magnitude (Debye)      :      5.71158

Rotational constants in cm-1:     0.032892     0.023844     0.017123
Rotational constants in MHz :   986.091711   714.821905   513.334630

                             ****ORCA TERMINATED NORMALLY****
TOTAL RUN TIME: 0 days 0 hours 1 minutes 5 seconds 70 msec
