                         Program Version 5.0.0 -  RELEASE  -
|  1> !LC-BLYP RIJCOSX def2-TZVP def2/J TightSCF xyzfile
|  2>
|  3> *xyzfile 0 1 D5.xyz
|  4>
|  5> %MaxCore 64000
|  6>
|  7> %pal nprocs 18
|  8> end
|  9>
| 10> %scf
| 11>   MaxIter 150
| 12> end
| 13>
| 14>
| 15>                          ****END OF INPUT****

CARTESIAN COORDINATES (ANGSTROEM)
---------------------------------
  C      2.234473   -2.989754   -2.397622
  N      2.756799   -2.945553   -3.765029
  C     -1.104325    0.251374   -2.860056
  C     -0.711893    0.842517   -4.218344
  H      0.154626    1.499800   -4.130909
  H     -1.538134    1.459222   -4.582671
  C     -0.397624   -0.205875   -5.288018
  C      1.987208   -2.590451   -4.818975
  C      0.743221   -3.017493   -4.913524
  N      2.499636   -1.848598   -5.803241
  H      3.309780   -1.292818   -5.558947
  H      1.801025   -1.304298   -6.289129
  H      3.716116   -2.628797   -3.829533
  H      0.395828   -3.627747   -4.185024
  H      0.039201   -2.454383   -5.371367
  O      0.617165   -0.005348   -5.998273
  F     -1.133173   -1.221380   -5.341465
  C      2.191199   -1.619503   -1.715492
  H      2.872783   -3.666368   -1.828014
  H      1.246188   -3.447444   -2.407842
  C      1.298729   -0.554314   -2.359773
  H      1.872917   -1.787955   -0.681310
  H      3.216809   -1.238432   -1.654428
  C     -0.196255   -0.863365   -2.325763
  H      1.612531   -0.371346   -3.393065
  H      1.480944    0.388638   -1.834444
  H     -0.404105   -1.761825   -2.909448
  H     -0.490439   -1.087880   -1.294131
  H     -1.143842    1.066711   -2.129680
  H     -2.114401   -0.156834   -2.930323

 Total Charge           Charge          ....    0
 Multiplicity           Mult            ....    1
 Number of Electrons    NEL             ....  102
 Basis Dimension        Dim             ....  505

ORBITAL ENERGIES
----------------

  NO   OCC          E(Eh)            E(eV)
   0   2.0000     -24.532435      -667.5615
   1   2.0000     -18.959790      -515.9221
   2   2.0000     -14.162121      -385.3709
   3   2.0000     -14.140906      -384.7936
   4   2.0000     -10.263085      -279.2727
   5   2.0000     -10.104253      -274.9507
   6   2.0000     -10.103181      -274.9215
   7   2.0000     -10.096321      -274.7349
   8   2.0000     -10.086195      -274.4593
   9   2.0000     -10.069656      -274.0093
  10   2.0000     -10.068963      -273.9904
  11   2.0000     -10.068722      -273.9838
  12   2.0000      -9.969074      -271.2723
  13   2.0000      -1.411914       -38.4201
  14   2.0000      -1.145809       -31.1791
  15   2.0000      -1.056623       -28.7522
  16   2.0000      -0.976729       -26.5781
  17   2.0000      -0.939149       -25.5555
  18   2.0000      -0.895741       -24.3744
  19   2.0000      -0.844013       -22.9668
  20   2.0000      -0.812986       -22.1225
  21   2.0000      -0.795995       -21.6601
  22   2.0000      -0.769040       -20.9266
  23   2.0000      -0.728529       -19.8243
  24   2.0000      -0.696025       -18.9398
  25   2.0000      -0.680559       -18.5190
  26   2.0000      -0.660337       -17.9687
  27   2.0000      -0.648346       -17.6424
  28   2.0000      -0.633930       -17.2501
  29   2.0000      -0.622282       -16.9332
  30   2.0000      -0.594023       -16.1642
  31   2.0000      -0.588310       -16.0087
  32   2.0000      -0.580446       -15.7947
  33   2.0000      -0.555420       -15.1137
  34   2.0000      -0.548122       -14.9151
  35   2.0000      -0.524689       -14.2775
  36   2.0000      -0.517287       -14.0761
  37   2.0000      -0.514047       -13.9879
  38   2.0000      -0.494483       -13.4556
  39   2.0000      -0.492405       -13.3990
  40   2.0000      -0.478368       -13.0171
  41   2.0000      -0.471439       -12.8285
  42   2.0000      -0.458215       -12.4687
  43   2.0000      -0.456543       -12.4232
  44   2.0000      -0.442889       -12.0516
  45   2.0000      -0.427765       -11.6401
  46   2.0000      -0.427560       -11.6345
  47   2.0000      -0.417224       -11.3532
  48   2.0000      -0.400493       -10.8980
  49   2.0000      -0.335575        -9.1315
  50   2.0000      -0.259427        -7.0594
  51   0.0000       0.042421         1.1543
  52   0.0000       0.083417         2.2699
  53   0.0000       0.096597         2.6285
  54   0.0000       0.111710         3.0398
  55   0.0000       0.120141         3.2692

MULLIKEN ATOMIC CHARGES
-----------------------
   0 C :   -0.234252
   1 N :   -0.232346
   2 C :   -0.256110
   3 C :   -0.311718
   4 H :    0.174697
   5 H :    0.166490
   6 C :    0.319658
   7 C :    0.169470
   8 C :   -0.525041
   9 N :   -0.341188
  10 H :    0.190519
  11 H :    0.239832
  12 H :    0.185209
  13 H :    0.092087
  14 H :    0.094777
  15 O :   -0.314996
  16 F :   -0.052882
  17 C :   -0.254961
  18 H :    0.151044
  19 H :    0.154275
  20 C :   -0.237544
  21 H :    0.122665
  22 H :    0.129290
  23 C :   -0.278164
  24 H :    0.143347
  25 H :    0.130619
  26 H :    0.152236
  27 H :    0.131219
  28 H :    0.141607
  29 H :    0.150162
Sum of atomic charges:    0.0000000

LOEWDIN ATOMIC CHARGES
----------------------
   0 C :   -0.292193
   1 N :    0.109257
   2 C :   -0.274498
   3 C :   -0.240375
   4 H :    0.159867
   5 H :    0.160660
   6 C :   -0.509113
   7 C :   -0.485523
   8 C :   -0.333025
   9 N :   -0.013356
  10 H :    0.153176
  11 H :    0.163726
  12 H :    0.174992
  13 H :    0.098139
  14 H :    0.093598
  15 O :    0.079664
  16 F :    0.364123
  17 C :   -0.281128
  18 H :    0.136845
  19 H :    0.141360
  20 C :   -0.275954
  21 H :    0.143149
  22 H :    0.138808
  23 C :   -0.279377
  24 H :    0.145850
  25 H :    0.141865
  26 H :    0.144873
  27 H :    0.142783
  28 H :    0.145915
  29 H :    0.145890

  Mayer bond orders larger than 0.100000
B(  0-C ,  1-N ) :   0.9157 B(  0-C , 17-C ) :   0.9258 B(  0-C , 18-H ) :   0.9944
B(  0-C , 19-H ) :   0.9870 B(  1-N ,  7-C ) :   1.1427 B(  1-N , 12-H ) :   0.9349
B(  2-C ,  3-C ) :   0.8854 B(  2-C , 23-C ) :   0.9181 B(  2-C , 28-H ) :   0.9760
B(  2-C , 29-H ) :   0.9893 B(  3-C ,  4-H ) :   0.9695 B(  3-C ,  5-H ) :   0.9560
B(  3-C ,  6-C ) :   0.9590 B(  6-C , 15-O ) :   2.0033 B(  6-C , 16-F ) :   1.2009
B(  7-C ,  8-C ) :   1.5558 B(  7-C ,  9-N ) :   1.1996 B(  8-C , 13-H ) :   1.0374
B(  8-C , 14-H ) :   1.0189 B(  9-N , 10-H ) :   0.9354 B(  9-N , 11-H ) :   0.8965
B( 17-C , 20-C ) :   0.9378 B( 17-C , 21-H ) :   0.9798 B( 17-C , 22-H ) :   0.9888
B( 20-C , 23-C ) :   0.8448 B( 20-C , 24-H ) :   0.9653 B( 20-C , 25-H ) :   0.9845
B( 23-C , 26-H ) :   0.9878 B( 23-C , 27-H ) :   0.9826

FINAL SINGLE POINT ENERGY      -636.420339681640

DIPOLE MOMENT
-------------
                                X             Y             Z
Electronic contribution:     -4.35069       0.23702     -12.39511
Nuclear contribution   :      4.07548       1.14852      13.79455
                        -----------------------------------------
Total Dipole Moment    :     -0.27521       1.38554       1.39944
                        -----------------------------------------
Magnitude (a.u.)       :      1.98844
Magnitude (Debye)      :      5.05421

Rotational constants in cm-1:     0.033274     0.023559     0.016968
Rotational constants in MHz :   997.539108   706.293545   508.690532

                             ****ORCA TERMINATED NORMALLY****
TOTAL RUN TIME: 0 days 0 hours 1 minutes 11 seconds 369 msec
