                         Program Version 5.0.0 -  RELEASE  -
|  1> !LC-BLYP RIJCOSX def2-TZVP def2/J TightSCF xyzfile
|  2>
|  3> *xyzfile 0 1 D6.xyz
|  4>
|  5> %MaxCore 64000
|  6>
|  7> %pal nprocs 18
|  8> end
|  9>
| 10> %scf
| 11>   MaxIter 150
| 12> end
| 13>
| 14>
| 15>                          ****END OF INPUT****

CARTESIAN COORDINATES (ANGSTROEM)
---------------------------------
  C      2.234473   -2.989754   -2.397622
  N      2.756799   -2.945553   -3.765029
  C     -1.104325    0.251374   -2.860056
  C     -0.711893    0.842517   -4.218344
  H      0.154626    1.499800   -4.130909
  H     -1.538134    1.459222   -4.582671
  C     -0.397624   -0.205875   -5.288018
  C      1.987208   -2.590451   -4.818975
  N      0.743221   -3.017493   -4.913524
  C      2.499636   -1.848598   -5.803241
  H      3.309780   -1.292818   -5.558947
  H      1.801025   -1.304298   -6.289129
  H      3.716116   -2.628797   -3.829533
  H      0.395828   -3.627747   -4.185024
  H      0.039201   -2.454383   -5.371367
  O      0.617165   -0.005348   -5.998273
  F     -1.133173   -1.221380   -5.341465
  C      2.191199   -1.619503   -1.715492
  H      2.872783   -3.666368   -1.828014
  H      1.246188   -3.447444   -2.407842
  C      1.298729   -0.554314   -2.359773
  H      1.872917   -1.787955   -0.681310
  H      3.216809   -1.238432   -1.654428
  C     -0.196255   -0.863365   -2.325763
  H      1.612531   -0.371346   -3.393065
  H      1.480944    0.388638   -1.834444
  H     -0.404105   -1.761825   -2.909448
  H     -0.490439   -1.087880   -1.294131
  H     -1.143842    1.066711   -2.129680
  H     -2.114401   -0.156834   -2.930323

 Total Charge           Charge          ....    0
 Multiplicity           Mult            ....    1
 Number of Electrons    NEL             ....  102
 Basis Dimension        Dim             ....  505

ORBITAL ENERGIES
----------------

  NO   OCC          E(Eh)            E(eV)
   0   2.0000     -24.546824      -667.9530
   1   2.0000     -18.956424      -515.8305
   2   2.0000     -14.159614      -385.3027
   3   2.0000     -14.156080      -385.2065
   4   2.0000     -10.260182      -279.1937
   5   2.0000     -10.105790      -274.9925
   6   2.0000     -10.102782      -274.9107
   7   2.0000     -10.102692      -274.9082
   8   2.0000     -10.090475      -274.5758
   9   2.0000     -10.077568      -274.2246
  10   2.0000     -10.072050      -274.0744
  11   2.0000     -10.070594      -274.0348
  12   2.0000      -9.956408      -270.9276
  13   2.0000      -1.425402       -38.7872
  14   2.0000      -1.141904       -31.0728
  15   2.0000      -1.061433       -28.8831
  16   2.0000      -0.981882       -26.7184
  17   2.0000      -0.943922       -25.6854
  18   2.0000      -0.900632       -24.5075
  19   2.0000      -0.851918       -23.1819
  20   2.0000      -0.818238       -22.2654
  21   2.0000      -0.789976       -21.4963
  22   2.0000      -0.770937       -20.9783
  23   2.0000      -0.726903       -19.7800
  24   2.0000      -0.713344       -19.4111
  25   2.0000      -0.691034       -18.8040
  26   2.0000      -0.673418       -18.3246
  27   2.0000      -0.664807       -18.0903
  28   2.0000      -0.635424       -17.2908
  29   2.0000      -0.614725       -16.7275
  30   2.0000      -0.601692       -16.3729
  31   2.0000      -0.588681       -16.0188
  32   2.0000      -0.574767       -15.6402
  33   2.0000      -0.564763       -15.3680
  34   2.0000      -0.550416       -14.9776
  35   2.0000      -0.541845       -14.7444
  36   2.0000      -0.517886       -14.0924
  37   2.0000      -0.512438       -13.9442
  38   2.0000      -0.493308       -13.4236
  39   2.0000      -0.485572       -13.2131
  40   2.0000      -0.482086       -13.1182
  41   2.0000      -0.471773       -12.8376
  42   2.0000      -0.467931       -12.7330
  43   2.0000      -0.460378       -12.5275
  44   2.0000      -0.437804       -11.9132
  45   2.0000      -0.431876       -11.7520
  46   2.0000      -0.430167       -11.7054
  47   2.0000      -0.422257       -11.4902
  48   2.0000      -0.385206       -10.4820
  49   2.0000      -0.342563        -9.3216
  50   2.0000      -0.248805        -6.7703
  51   0.0000       0.042118         1.1461
  52   0.0000       0.080652         2.1946
  53   0.0000       0.099365         2.7039
  54   0.0000       0.100209         2.7268
  55   0.0000       0.117589         3.1998

MULLIKEN ATOMIC CHARGES
-----------------------
   0 C :   -0.273666
   1 N :   -0.217678
   2 C :   -0.255488
   3 C :   -0.316840
   4 H :    0.181259
   5 H :    0.166185
   6 C :    0.296701
   7 C :    0.096769
   8 N :   -0.372582
   9 C :   -0.379607
  10 H :    0.063386
  11 H :    0.084146
  12 H :    0.212964
  13 H :    0.209595
  14 H :    0.223670
  15 O :   -0.250863
  16 F :   -0.086105
  17 C :   -0.229275
  18 H :    0.157695
  19 H :    0.130684
  20 C :   -0.267995
  21 H :    0.119767
  22 H :    0.135415
  23 C :   -0.274523
  24 H :    0.182430
  25 H :    0.134025
  26 H :    0.101813
  27 H :    0.134641
  28 H :    0.144265
  29 H :    0.149210
Sum of atomic charges:    0.0000000

LOEWDIN ATOMIC CHARGES
----------------------
   0 C :   -0.307232
   1 N :    0.107595
   2 C :   -0.275405
   3 C :   -0.241525
   4 H :    0.162326
   5 H :    0.160347
   6 C :   -0.525084
   7 C :   -0.491321
   8 N :    0.011014
   9 C :   -0.345663
  10 H :    0.095323
  11 H :    0.101252
  12 H :    0.190597
  13 H :    0.158440
  14 H :    0.157903
  15 O :    0.117190
  16 F :    0.346907
  17 C :   -0.280579
  18 H :    0.138082
  19 H :    0.129417
  20 C :   -0.275066
  21 H :    0.142148
  22 H :    0.142319
  23 C :   -0.282572
  24 H :    0.153298
  25 H :    0.143519
  26 H :    0.131557
  27 H :    0.143500
  28 H :    0.146982
  29 H :    0.144731

  Mayer bond orders larger than 0.100000
B(  0-C ,  1-N ) :   0.9475 B(  0-C , 17-C ) :   0.9075 B(  0-C , 18-H ) :   0.9963
B(  0-C , 19-H ) :   0.9988 B(  1-N ,  7-C ) :   1.1775 B(  1-N , 12-H ) :   0.9298
B(  2-C ,  3-C ) :   0.8810 B(  2-C , 23-C ) :   0.9176 B(  2-C , 28-H ) :   0.9745
B(  2-C , 29-H ) :   0.9912 B(  3-C ,  4-H ) :   0.9687 B(  3-C ,  5-H ) :   0.9567
B(  3-C ,  6-C ) :   0.9622 B(  6-C , 15-O ) :   2.0799 B(  6-C , 16-F ) :   1.1414
B(  7-C ,  8-N ) :   1.1202 B(  7-C ,  9-C ) :   1.7107 B(  8-N , 13-H ) :   0.9394
B(  8-N , 14-H ) :   0.9101 B(  9-C , 10-H ) :   1.0104 B(  9-C , 11-H ) :   1.0114
B( 17-C , 20-C ) :   0.9297 B( 17-C , 21-H ) :   0.9778 B( 17-C , 22-H ) :   0.9848
B( 20-C , 23-C ) :   0.8419 B( 20-C , 24-H ) :   0.9619 B( 20-C , 25-H ) :   0.9813
B( 23-C , 26-H ) :   0.9922 B( 23-C , 27-H ) :   0.9800

FINAL SINGLE POINT ENERGY      -636.405239917949

DIPOLE MOMENT
-------------
                                X             Y             Z
Electronic contribution:     -5.71740      -0.68022     -11.68549
Nuclear contribution   :      4.34606       1.32859      13.65749
                        -----------------------------------------
Total Dipole Moment    :     -1.37133       0.64837       1.97199
                        -----------------------------------------
Magnitude (a.u.)       :      2.48791
Magnitude (Debye)      :      6.32376

Rotational constants in cm-1:     0.033551     0.023540     0.017085
Rotational constants in MHz :  1005.818710   705.725032   512.192443

                             ****ORCA TERMINATED NORMALLY****
TOTAL RUN TIME: 0 days 0 hours 1 minutes 8 seconds 882 msec
