                         Program Version 5.0.0 -  RELEASE  -
|  1> !CAM-B3LYP RIJCOSX def2-SVPD def2/J TightSCF
|  2> *xyz -1 1
|  3> C         -1.36646        2.47911       -4.31393
|  4> C         -2.35773        2.30686       -3.13675
|  5> O         -3.44376        2.84652       -3.25274
|  6> O         -1.97092        1.58304       -2.15123
|  7> H         -1.80853        3.10058       -5.06443
|  8> H         -1.13980        1.52081       -4.73248
|  9> H         -0.46612        2.93495       -3.95827
| 10> *
| 11> %MaxCore 64000
| 12>
| 13> %pal nprocs 4
| 14> end
| 15>
| 16> %scf
| 17>   MaxIter 150
| 18> end
| 19>
| 20>
| 21>                          ****END OF INPUT****

CARTESIAN COORDINATES (ANGSTROEM)
---------------------------------
  C     -1.366460    2.479110   -4.313930
  C     -2.357730    2.306860   -3.136750
  O     -3.443760    2.846520   -3.252740
  O     -1.970920    1.583040   -2.151230
  H     -1.808530    3.100580   -5.064430
  H     -1.139800    1.520810   -4.732480
  H     -0.466120    2.934950   -3.958270

 Total Charge           Charge          ....   -1
 Multiplicity           Mult            ....    1
 Number of Electrons    NEL             ....   32
 Basis Dimension        Dim             ....  110

ORBITAL ENERGIES
----------------

  NO   OCC          E(Eh)            E(eV)
   0   2.0000     -18.956167      -515.8235
   1   2.0000     -18.943768      -515.4861
   2   2.0000     -10.148376      -276.1513
   3   2.0000     -10.071578      -274.0616
   4   2.0000      -0.899998       -24.4902
   5   2.0000      -0.796173       -21.6650
   6   2.0000      -0.616746       -16.7825
   7   2.0000      -0.372632       -10.1398
   8   2.0000      -0.329748        -8.9729
   9   2.0000      -0.314944        -8.5701
  10   2.0000      -0.299840        -8.1591
  11   2.0000      -0.256808        -6.9881
  12   2.0000      -0.239996        -6.5306
  13   2.0000      -0.112686        -3.0663
  14   2.0000      -0.108187        -2.9439
  15   2.0000      -0.094838        -2.5807
  16   0.0000       0.199656         5.4329
  17   0.0000       0.238223         6.4824
  18   0.0000       0.259281         7.0554
  19   0.0000       0.269749         7.3402
  20   0.0000       0.294273         8.0076

MULLIKEN ATOMIC CHARGES
-----------------------
   0 C :    0.661640
   1 C :   -0.018450
   2 O :   -0.549860
   3 O :   -0.694280
   4 H :   -0.146251
   5 H :   -0.126456
   6 H :   -0.126343
Sum of atomic charges:   -1.0000000

LOEWDIN ATOMIC CHARGES
----------------------
   0 C :    0.146813
   1 C :   -0.342419
   2 O :   -0.310885
   3 O :   -0.366249
   4 H :   -0.046684
   5 H :   -0.039742
   6 H :   -0.040834

  Mayer bond orders larger than 0.100000
B(  0-C ,  1-C ) :   1.1780 B(  0-C ,  4-H ) :   0.8427 B(  0-C ,  5-H ) :   0.7956
B(  0-C ,  6-H ) :   0.7906 B(  1-C ,  2-O ) :   1.5899 B(  1-C ,  3-O ) :   1.4771
B(  1-C ,  4-H ) :   0.2647 B(  1-C ,  5-H ) :   0.1766 B(  1-C ,  6-H ) :   0.1805

FINAL SINGLE POINT ENERGY      -228.281011871888

DIPOLE MOMENT
-------------
                                X             Y             Z
Electronic contribution:     -2.41133      -0.32519       2.66946
Nuclear contribution   :      3.20990       0.60513      -3.84153
                        -----------------------------------------
Total Dipole Moment    :      0.79858       0.27994      -1.17207
                        -----------------------------------------
Magnitude (a.u.)       :      1.44563
Magnitude (Debye)      :      3.67449

Rotational constants in cm-1:     0.394521     0.330294     0.185888
Rotational constants in MHz : 11827.441786  9901.964904  5572.768963

                             ****ORCA TERMINATED NORMALLY****
TOTAL RUN TIME: 0 days 0 hours 0 minutes 10 seconds 491 msec
