                         Program Version 5.0.0 -  RELEASE  -
|  1> !CAM-B3LYP RIJCOSX def2-SVPD def2/J TightSCF
|  2> *xyz 1 1
|  3> C          0.64866        1.00359       -3.64560
|  4> N          0.28128        0.67645       -2.24018
|  5> H          0.39079       -0.31925       -2.02649
|  6> H         -0.69269        0.99010       -2.13812
|  7> H          0.85421        1.21221       -1.57528
|  8> H          0.03905        0.43387       -4.31545
|  9> H          1.67860        0.76457       -3.80989
| 10> H          0.49232        2.04741       -3.82138
| 11> *
| 12> %MaxCore 64000
| 13>
| 14> %pal nprocs 4
| 15> end
| 16>
| 17> %scf
| 18>   MaxIter 150
| 19> end
| 20>
| 21>
| 22>                          ****END OF INPUT****

CARTESIAN COORDINATES (ANGSTROEM)
---------------------------------
  C      0.648660    1.003590   -3.645600
  N      0.281280    0.676450   -2.240180
  H      0.390790   -0.319250   -2.026490
  H     -0.692690    0.990100   -2.138120
  H      0.854210    1.212210   -1.575280
  H      0.039050    0.433870   -4.315450
  H      1.678600    0.764570   -3.809890
  H      0.492320    2.047410   -3.821380

 Total Charge           Charge          ....    1
 Multiplicity           Mult            ....    1
 Number of Electrons    NEL             ....   18
 Basis Dimension        Dim             ....   88

ORBITAL ENERGIES
----------------

  NO   OCC          E(Eh)            E(eV)
   0   2.0000     -14.755159      -401.5083
   1   2.0000     -10.518658      -286.2272
   2   2.0000      -1.301946       -35.4278
   3   2.0000      -1.012837       -27.5607
   4   2.0000      -0.890132       -24.2217
   5   2.0000      -0.880658       -23.9639
   6   2.0000      -0.782826       -21.3018
   7   2.0000      -0.697087       -18.9687
   8   2.0000      -0.694874       -18.9085
   9   0.0000      -0.169326        -4.6076
  10   0.0000      -0.100938        -2.7467
  11   0.0000      -0.096096        -2.6149
  12   0.0000      -0.094021        -2.5584
  13   0.0000      -0.051982        -1.4145

MULLIKEN ATOMIC CHARGES
-----------------------
   0 C :    1.091096
   1 N :   -0.715323
   2 H :    0.322481
   3 H :    0.363025
   4 H :    0.336773
   5 H :   -0.129307
   6 H :   -0.146828
   7 H :   -0.121918
Sum of atomic charges:    1.0000000

LOEWDIN ATOMIC CHARGES
----------------------
   0 C :    0.278843
   1 N :    0.316579
   2 H :    0.109829
   3 H :    0.108361
   4 H :    0.110703
   5 H :    0.025761
   6 H :    0.023737
   7 H :    0.026187

  Mayer bond orders larger than 0.100000
B(  0-C ,  1-N ) :   0.8358 B(  0-C ,  5-H ) :   0.8656 B(  0-C ,  6-H ) :   0.8842
B(  0-C ,  7-H ) :   0.8582 B(  1-N ,  2-H ) :   0.8307 B(  1-N ,  3-H ) :   0.7824
B(  1-N ,  4-H ) :   0.8174 B(  1-N ,  5-H ) :   0.1002 B(  1-N ,  7-H ) :   0.1035

FINAL SINGLE POINT ENERGY       -96.091728337446

DIPOLE MOMENT
-------------
                                X             Y             Z
Electronic contribution:     -0.26059      -0.27522       1.05394
Nuclear contribution   :      0.04246       0.12404      -0.26487
                        -----------------------------------------
Total Dipole Moment    :     -0.21813      -0.15118       0.78907
                        -----------------------------------------
Magnitude (a.u.)       :      0.83251
Magnitude (Debye)      :      2.11606

Rotational constants in cm-1:     2.856727     0.687609     0.685111
Rotational constants in MHz : 85642.512409 20614.005719 20539.101620

                             ****ORCA TERMINATED NORMALLY****
TOTAL RUN TIME: 0 days 0 hours 0 minutes 6 seconds 444 msec
