                         Program Version 5.0.0 -  RELEASE  -
|  1> !CAM-B3LYP RIJCOSX def2-SVPD def2/J TightSCF
|  2> *xyz 0 1
|  3> C         -1.36646        2.47911       -4.31393
|  4> C         -2.35773        2.30686       -3.13675
|  5> F         -3.44376        2.84652       -3.25274
|  6> O         -1.97092        1.58304       -2.15123
|  7> H         -1.80853        3.10058       -5.06443
|  8> H         -1.13980        1.52081       -4.73248
|  9> H         -0.46612        2.93495       -3.95827
| 10> *
| 11> %MaxCore 64000
| 12>
| 13> %pal nprocs 4
| 14> end
| 15>
| 16> %scf
| 17>   MaxIter 150
| 18> end
| 19>
| 20>
| 21>                          ****END OF INPUT****

CARTESIAN COORDINATES (ANGSTROEM)
---------------------------------
  C     -1.366460    2.479110   -4.313930
  C     -2.357730    2.306860   -3.136750
  F     -3.443760    2.846520   -3.252740
  O     -1.970920    1.583040   -2.151230
  H     -1.808530    3.100580   -5.064430
  H     -1.139800    1.520810   -4.732480
  H     -0.466120    2.934950   -3.958270

 Total Charge           Charge          ....    0
 Multiplicity           Mult            ....    1
 Number of Electrons    NEL             ....   32
 Basis Dimension        Dim             ....  110

ORBITAL ENERGIES
----------------

  NO   OCC          E(Eh)            E(eV)
   0   2.0000     -24.864400      -676.5947
   1   2.0000     -19.224370      -523.1217
   2   2.0000     -10.456765      -284.5430
   3   2.0000     -10.289391      -279.9886
   4   2.0000      -1.424105       -38.7519
   5   2.0000      -1.095243       -29.8031
   6   2.0000      -0.850136       -23.1334
   7   2.0000      -0.755435       -20.5564
   8   2.0000      -0.649317       -17.6688
   9   2.0000      -0.641345       -17.4519
  10   2.0000      -0.577599       -15.7173
  11   2.0000      -0.517308       -14.0767
  12   2.0000      -0.504902       -13.7391
  13   2.0000      -0.471957       -12.8426
  14   2.0000      -0.416900       -11.3444
  15   2.0000      -0.363883        -9.9018
  16   0.0000       0.012988         0.3534
  17   0.0000       0.039115         1.0644
  18   0.0000       0.082556         2.2465
  19   0.0000       0.115723         3.1490
  20   0.0000       0.117166         3.1882

MULLIKEN ATOMIC CHARGES
-----------------------
   0 C :    0.588107
   1 C :    0.348702
   2 F :   -0.274784
   3 O :   -0.472364
   4 H :   -0.100672
   5 H :   -0.043090
   6 H :   -0.045898
Sum of atomic charges:    0.0000000

LOEWDIN ATOMIC CHARGES
----------------------
   0 C :    0.219604
   1 C :   -0.041701
   2 F :   -0.008644
   3 O :   -0.156195
   4 H :   -0.016007
   5 H :    0.001776
   6 H :    0.001168

  Mayer bond orders larger than 0.100000
B(  0-C ,  1-C ) :   1.2270 B(  0-C ,  4-H ) :   0.8603 B(  0-C ,  5-H ) :   0.7919
B(  0-C ,  6-H ) :   0.7865 B(  1-C ,  2-F ) :   0.8976 B(  1-C ,  3-O ) :   1.8196
B(  1-C ,  4-H ) :   0.1663 B(  1-C ,  5-H ) :   0.1513 B(  1-C ,  6-H ) :   0.1570

FINAL SINGLE POINT ENERGY      -252.804194382088

DIPOLE MOMENT
-------------
                                X             Y             Z
Electronic contribution:     -4.29814       0.52813       2.66683
Nuclear contribution   :      4.40923       0.04336      -3.80230
                        -----------------------------------------
Total Dipole Moment    :      0.11109       0.57149      -1.13547
                        -----------------------------------------
Magnitude (a.u.)       :      1.27602
Magnitude (Debye)      :      3.24340

Rotational constants in cm-1:     0.364425     0.322930     0.176742
Rotational constants in MHz : 10925.196996  9681.206479  5298.597717

                             ****ORCA TERMINATED NORMALLY****
TOTAL RUN TIME: 0 days 0 hours 0 minutes 10 seconds 587 msec
