                         Program Version 5.0.0 -  RELEASE  -
|  1> !CAM-B3LYP RIJCOSX def2-SVPD def2/J TightSCF
|  2> *xyz 0 1
|  3> C          0.64866        1.00359       -3.64560
|  4> C          0.28128        0.67645       -2.24018
|  5> H          0.39079       -0.31925       -2.02649
|  6> H         -0.69269        0.99010       -2.13812
|  7> H          0.85421        1.21221       -1.57528
|  8> H          0.03905        0.43387       -4.31545
|  9> H          1.67860        0.76457       -3.80989
| 10> H          0.49232        2.04741       -3.82138
| 11> *
| 12> %MaxCore 64000
| 13>
| 14> %pal nprocs 4
| 15> end
| 16>
| 17> %scf
| 18>   MaxIter 150
| 19> end
| 20>
| 21>
| 22>                          ****END OF INPUT****

CARTESIAN COORDINATES (ANGSTROEM)
---------------------------------
  C      0.648660    1.003590   -3.645600
  C      0.281280    0.676450   -2.240180
  H      0.390790   -0.319250   -2.026490
  H     -0.692690    0.990100   -2.138120
  H      0.854210    1.212210   -1.575280
  H      0.039050    0.433870   -4.315450
  H      1.678600    0.764570   -3.809890
  H      0.492320    2.047410   -3.821380

 Total Charge           Charge          ....    0
 Multiplicity           Mult            ....    1
 Number of Electrons    NEL             ....   18
 Basis Dimension        Dim             ....   88

ORBITAL ENERGIES
----------------

  NO   OCC          E(Eh)            E(eV)
   0   2.0000     -10.235911      -278.5333
   1   2.0000     -10.223174      -278.1867
   2   2.0000      -0.846750       -23.0412
   3   2.0000      -0.692771       -18.8513
   4   2.0000      -0.524210       -14.2645
   5   2.0000      -0.518118       -14.0987
   6   2.0000      -0.434427       -11.8214
   7   2.0000      -0.413970       -11.2647
   8   2.0000      -0.408736       -11.1223
   9   0.0000       0.057022         1.5517
  10   0.0000       0.087984         2.3942
  11   0.0000       0.135183         3.6785
  12   0.0000       0.136624         3.7177
  13   0.0000       0.155854         4.2410

MULLIKEN ATOMIC CHARGES
-----------------------
   0 C :    0.417968
   1 C :    0.775152
   2 H :   -0.285066
   3 H :   -0.222469
   4 H :   -0.249882
   5 H :   -0.145129
   6 H :   -0.154234
   7 H :   -0.136340
Sum of atomic charges:    0.0000000

LOEWDIN ATOMIC CHARGES
----------------------
   0 C :    0.074301
   1 C :    0.082017
   2 H :   -0.034674
   3 H :   -0.034429
   4 H :   -0.034187
   5 H :   -0.017087
   6 H :   -0.019805
   7 H :   -0.016137

  Mayer bond orders larger than 0.100000
B(  0-C ,  1-C ) :   1.4131 B(  0-C ,  2-H ) :   0.1756 B(  0-C ,  3-H ) :   0.2176
B(  0-C ,  4-H ) :   0.1792 B(  0-C ,  5-H ) :   0.8258 B(  0-C ,  6-H ) :   0.8543
B(  0-C ,  7-H ) :   0.8188 B(  1-C ,  2-H ) :   0.7336 B(  1-C ,  3-H ) :   0.7233
B(  1-C ,  4-H ) :   0.7230 B(  1-C ,  5-H ) :   0.1647 B(  1-C ,  6-H ) :   0.1537
B(  1-C ,  7-H ) :   0.1708

FINAL SINGLE POINT ENERGY       -79.702327583756

DIPOLE MOMENT
-------------
                                X             Y             Z
Electronic contribution:      0.01358      -0.06308       0.04312
Nuclear contribution   :     -0.02064       0.06655      -0.02194
                        -----------------------------------------
Total Dipole Moment    :     -0.00707       0.00347       0.02118
                        -----------------------------------------
Magnitude (a.u.)       :      0.02260
Magnitude (Debye)      :      0.05743

Rotational constants in cm-1:     2.856742     0.718110     0.715385
Rotational constants in MHz : 85642.970161 21528.388214 21446.695095

                             ****ORCA TERMINATED NORMALLY****
TOTAL RUN TIME: 0 days 0 hours 0 minutes 5 seconds 790 msec
