                         Program Version 5.0.0 -  RELEASE  -
|  1> !CAM-B3LYP RIJCOSX def2-SVPD def2/J TightSCF
|  2> *xyz 0 1
|  3> C         -1.36646        2.47911       -4.31393
|  4> C         -2.35773        2.30686       -3.13675
|  5> O         -3.44376        2.84652       -3.25274
|  6> F         -1.97092        1.58304       -2.15123
|  7> H         -1.80853        3.10058       -5.06443
|  8> H         -1.13980        1.52081       -4.73248
|  9> H         -0.46612        2.93495       -3.95827
| 10> *
| 11> %MaxCore 64000
| 12>
| 13> %pal nprocs 4
| 14> end
| 15>
| 16> %scf
| 17>   MaxIter 150
| 18> end
| 19>
| 20>
| 21>                          ****END OF INPUT****

CARTESIAN COORDINATES (ANGSTROEM)
---------------------------------
  C     -1.366460    2.479110   -4.313930
  C     -2.357730    2.306860   -3.136750
  O     -3.443760    2.846520   -3.252740
  F     -1.970920    1.583040   -2.151230
  H     -1.808530    3.100580   -5.064430
  H     -1.139800    1.520810   -4.732480
  H     -0.466120    2.934950   -3.958270

 Total Charge           Charge          ....    0
 Multiplicity           Mult            ....    1
 Number of Electrons    NEL             ....   32
 Basis Dimension        Dim             ....  110

ORBITAL ENERGIES
----------------

  NO   OCC          E(Eh)            E(eV)
   0   2.0000     -24.841308      -675.9664
   1   2.0000     -19.234372      -523.3939
   2   2.0000     -10.450876      -284.3828
   3   2.0000     -10.288644      -279.9682
   4   2.0000      -1.375193       -37.4209
   5   2.0000      -1.136325       -30.9210
   6   2.0000      -0.846438       -23.0328
   7   2.0000      -0.729401       -19.8480
   8   2.0000      -0.621598       -16.9145
   9   2.0000      -0.617981       -16.8161
  10   2.0000      -0.579971       -15.7818
  11   2.0000      -0.515628       -14.0310
  12   2.0000      -0.508016       -13.8238
  13   2.0000      -0.481789       -13.1102
  14   2.0000      -0.442406       -12.0385
  15   2.0000      -0.373789       -10.1713
  16   0.0000       0.023093         0.6284
  17   0.0000       0.040136         1.0921
  18   0.0000       0.083802         2.2804
  19   0.0000       0.112934         3.0731
  20   0.0000       0.120090         3.2678

MULLIKEN ATOMIC CHARGES
-----------------------
   0 C :    0.609847
   1 C :    0.348110
   2 O :   -0.362437
   3 F :   -0.378164
   4 H :   -0.117251
   5 H :   -0.048830
   6 H :   -0.051275
Sum of atomic charges:   -0.0000000

LOEWDIN ATOMIC CHARGES
----------------------
   0 C :    0.220288
   1 C :   -0.039666
   2 O :   -0.114307
   3 F :   -0.052595
   4 H :   -0.003346
   5 H :   -0.004565
   6 H :   -0.005810

  Mayer bond orders larger than 0.100000
B(  0-C ,  1-C ) :   1.1950 B(  0-C ,  4-H ) :   0.8648 B(  0-C ,  5-H ) :   0.7925
B(  0-C ,  6-H ) :   0.7893 B(  1-C ,  2-O ) :   1.9302 B(  1-C ,  3-F ) :   0.7631
B(  1-C ,  4-H ) :   0.2235 B(  1-C ,  5-H ) :   0.1370 B(  1-C ,  6-H ) :   0.1396

FINAL SINGLE POINT ENERGY      -252.822389801594

DIPOLE MOMENT
-------------
                                X             Y             Z
Electronic contribution:     -1.88550      -1.53840       4.46626
Nuclear contribution   :      2.88734       1.34891      -4.94049
                        -----------------------------------------
Total Dipole Moment    :      1.00184      -0.18949      -0.47423
                        -----------------------------------------
Magnitude (a.u.)       :      1.12450
Magnitude (Debye)      :      2.85824

Rotational constants in cm-1:     0.375207     0.313199     0.176202
Rotational constants in MHz : 11248.433436  9389.476975  5282.390844

                             ****ORCA TERMINATED NORMALLY****
TOTAL RUN TIME: 0 days 0 hours 0 minutes 10 seconds 880 msec
