                         Program Version 5.0.0 -  RELEASE  -
|  1> !CAM-B3LYP RIJCOSX def2-SVPD def2/J TightSCF xyzfile
|  2>
|  3> *xyzfile 0 1 D2.xyz
|  4>
|  5> %MaxCore 64000
|  6>
|  7> %pal nprocs 4
|  8> end
|  9>
| 10> %scf
| 11>   MaxIter 150
| 12> end
| 13>
| 14>
| 15>                          ****END OF INPUT****

CARTESIAN COORDINATES (ANGSTROEM)
---------------------------------
  C      0.648656    1.003595   -3.645601
  C      0.281280    0.676454   -2.240179
  C      0.132968    2.385869   -4.024618
  C     -1.366462    2.479106   -4.313932
  C     -2.357732    2.306858   -3.136753
  H     -1.636802    1.727095   -5.063993
  H     -1.582347    3.445605   -4.768687
  H      0.390790   -0.319253   -2.026495
  H     -0.692686    0.990104   -2.138123
  H      0.854206    1.212214   -1.575279
  O     -3.443763    2.846518   -3.252744
  F     -1.970922    1.583042   -2.151229
  H      0.190993    0.239655   -4.275752
  H      1.731572    0.931729   -3.750751
  H      0.414839    3.102847   -3.245165
  H      0.683167    2.687560   -4.919721

 Total Charge           Charge          ....    0
 Multiplicity           Mult            ....    1
 Number of Electrons    NEL             ....   56
 Basis Dimension        Dim             ....  218

ORBITAL ENERGIES
----------------

  NO   OCC          E(Eh)            E(eV)
   0   2.0000     -24.849937      -676.2012
   1   2.0000     -19.239772      -523.5408
   2   2.0000     -10.454119      -284.4710
   3   2.0000     -10.295794      -280.1628
   4   2.0000     -10.271405      -279.4991
   5   2.0000     -10.252589      -278.9871
   6   2.0000     -10.200730      -277.5760
   7   2.0000      -1.395009       -37.9601
   8   2.0000      -1.141816       -31.0704
   9   2.0000      -0.904050       -24.6004
  10   2.0000      -0.842366       -22.9219
  11   2.0000      -0.759297       -20.6615
  12   2.0000      -0.753119       -20.4934
  13   2.0000      -0.660014       -17.9599
  14   2.0000      -0.641462       -17.4551
  15   2.0000      -0.631923       -17.1955
  16   2.0000      -0.582507       -15.8508
  17   2.0000      -0.546151       -14.8615
  18   2.0000      -0.526656       -14.3310
  19   2.0000      -0.520630       -14.1671
  20   2.0000      -0.494104       -13.4452
  21   2.0000      -0.462791       -12.5932
  22   2.0000      -0.455476       -12.3941
  23   2.0000      -0.434816       -11.8319
  24   2.0000      -0.405223       -11.0267
  25   2.0000      -0.399332       -10.8664
  26   2.0000      -0.392429       -10.6785
  27   2.0000      -0.362320        -9.8592
  28   0.0000       0.012815         0.3487
  29   0.0000       0.043543         1.1849
  30   0.0000       0.067057         1.8247
  31   0.0000       0.073362         1.9963
  32   0.0000       0.074059         2.0153

MULLIKEN ATOMIC CHARGES
-----------------------
   0 C :   -0.063559
   1 C :    2.490612
   2 C :    0.283145
   3 C :    0.100743
   4 C :    0.621444
   5 H :    0.121834
   6 H :   -0.059799
   7 H :   -0.151018
   8 H :   -1.736479
   9 H :   -0.076733
  10 O :   -0.359023
  11 F :   -0.522627
  12 H :   -0.077577
  13 H :   -0.293544
  14 H :   -0.094392
  15 H :   -0.183027
Sum of atomic charges:    0.0000000

LOEWDIN ATOMIC CHARGES
----------------------
   0 C :   -0.056970
   1 C :    0.143398
   2 C :   -0.031665
   3 C :    0.070043
   4 C :    0.029068
   5 H :    0.045923
   6 H :    0.034610
   7 H :   -0.024499
   8 H :   -0.150549
   9 H :   -0.018821
  10 O :   -0.096012
  11 F :   -0.044861
  12 H :    0.024696
  13 H :    0.020704
  14 H :    0.033241
  15 H :    0.021695

  Mayer bond orders larger than 0.100000
B(  0-C ,  1-C ) :   0.8766 B(  0-C ,  2-C ) :   1.1663 B(  0-C ,  7-H ) :   0.2415
B(  0-C ,  8-H ) :   0.6080 B(  0-C ,  9-H ) :   0.2873 B(  0-C , 12-H ) :   0.8269
B(  0-C , 13-H ) :   0.8916 B(  0-C , 14-H ) :   0.1096 B(  0-C , 15-H ) :   0.1068
B(  1-C ,  7-H ) :   0.4058 B(  1-C ,  8-H ) :  -2.2645 B(  1-C ,  9-H ) :   0.1601
B(  1-C , 11-F ) :  -0.2338 B(  1-C , 12-H ) :   0.1225 B(  2-C ,  3-C ) :   1.1918
B(  2-C ,  5-H ) :   0.1427 B(  2-C ,  6-H ) :   0.1501 B(  2-C , 12-H ) :   0.1059
B(  2-C , 13-H ) :   0.1321 B(  2-C , 14-H ) :   0.8303 B(  2-C , 15-H ) :   0.8276
B(  3-C ,  4-C ) :   1.0518 B(  3-C ,  5-H ) :   0.7642 B(  3-C ,  6-H ) :   0.8768
B(  3-C , 14-H ) :   0.1333 B(  3-C , 15-H ) :   0.1208 B(  4-C ,  6-H ) :   0.1383
B(  4-C , 10-O ) :   1.9122 B(  4-C , 11-F ) :   0.6771 B(  7-H ,  8-H ) :   0.2517
B(  7-H ,  9-H ) :  -0.1440 B(  8-H ,  9-H ) :   0.5588 B(  8-H , 11-F ) :   0.4293
B(  8-H , 13-H ) :   0.1320 B( 10-O , 11-F ) :   0.1256 B( 12-H , 13-H ) :  -0.1207

FINAL SINGLE POINT ENERGY      -370.553071313364

DIPOLE MOMENT
-------------
                                X             Y             Z
Electronic contribution:    -10.24792       2.33589       3.28376
Nuclear contribution   :     11.08738      -2.45618      -3.73478
                        -----------------------------------------
Total Dipole Moment    :      0.83946      -0.12029      -0.45102
                        -----------------------------------------
Magnitude (a.u.)       :      0.96051
Magnitude (Debye)      :      2.44143

Rotational constants in cm-1:     0.156244     0.063730     0.048063
Rotational constants in MHz :  4684.071402  1910.571278  1440.877811

                             ****ORCA TERMINATED NORMALLY****
TOTAL RUN TIME: 0 days 0 hours 0 minutes 45 seconds 807 msec
