                         Program Version 5.0.0 -  RELEASE  -
|  1> !PBE0 D3BJ RIJCOSX def2-SVP def2/J TightSCF
|  2> *xyz -1 1
|  3> C          0.70466        1.44313       -4.50363
|  4> C          1.72854        1.42432       -5.63944
|  5> H          2.64672        1.95379       -5.38105
|  6> H          1.29992        1.93061       -6.50361
|  7> S          2.25263       -0.18811       -6.27184
|  8> O          3.56261       -0.44446       -5.63155
|  9> O          2.34494       -0.03374       -7.69650
| 10> O          1.26606       -1.15918       -5.80536
| 11> H         -0.17385        0.91270       -4.80656
| 12> H          0.44778        2.45562       -4.27173
| 13> H          1.12367        0.97423       -3.63791
| 14> *
| 15>
| 16> %MaxCore 64000
| 17>
| 18> %pal nprocs 4
| 19> end
| 20>
| 21> %scf
| 22>   MaxIter 150
| 23> end
| 24>
| 25>
| 26>                          ****END OF INPUT****

CARTESIAN COORDINATES (ANGSTROEM)
---------------------------------
  C      0.704660    1.443130   -4.503630
  C      1.728540    1.424320   -5.639440
  H      2.646720    1.953790   -5.381050
  H      1.299920    1.930610   -6.503610
  S      2.252630   -0.188110   -6.271840
  O      3.562610   -0.444460   -5.631550
  O      2.344940   -0.033740   -7.696500
  O      1.266060   -1.159180   -5.805360
  H     -0.173850    0.912700   -4.806560
  H      0.447780    2.455620   -4.271730
  H      1.123670    0.974230   -3.637910

 Total Charge           Charge          ....   -1
 Multiplicity           Mult            ....    1
 Number of Electrons    NEL             ....   58
 Basis Dimension        Dim             ....  113

ORBITAL ENERGIES
----------------

  NO   OCC          E(Eh)            E(eV)
   0   2.0000     -88.997424     -2421.7430
   1   2.0000     -18.963087      -516.0118
   2   2.0000     -18.956728      -515.8388
   3   2.0000     -18.944769      -515.5134
   4   2.0000     -10.085153      -274.4310
   5   2.0000     -10.078420      -274.2477
   6   2.0000      -7.964210      -216.7172
   7   2.0000      -5.905856      -160.7065
   8   2.0000      -5.905732      -160.7031
   9   2.0000      -5.905482      -160.6963
  10   2.0000      -0.928812       -25.2743
  11   2.0000      -0.787426       -21.4269
  12   2.0000      -0.762094       -20.7376
  13   2.0000      -0.639804       -17.4100
  14   2.0000      -0.512453       -13.9445
  15   2.0000      -0.378260       -10.2930
  16   2.0000      -0.323124        -8.7926
  17   2.0000      -0.311407        -8.4738
  18   2.0000      -0.276241        -7.5169
  19   2.0000      -0.254817        -6.9339
  20   2.0000      -0.250602        -6.8192
  21   2.0000      -0.227712        -6.1964
  22   2.0000      -0.219302        -5.9675
  23   2.0000      -0.133820        -3.6414
  24   2.0000      -0.133044        -3.6203
  25   2.0000      -0.100243        -2.7278
  26   2.0000      -0.094387        -2.5684
  27   2.0000      -0.081394        -2.2149
  28   2.0000      -0.046154        -1.2559
  29   0.0000       0.210022         5.7150
  30   0.0000       0.266097         7.2409
  31   0.0000       0.268431         7.3044
  32   0.0000       0.276217         7.5163
  33   0.0000       0.295842         8.0503

MULLIKEN ATOMIC CHARGES
-----------------------
   0 C :   -0.025209
   1 C :   -0.164918
   2 H :    0.030096
   3 H :    0.021962
   4 S :    0.897638
   5 O :   -0.629581
   6 O :   -0.579091
   7 O :   -0.597670
   8 H :    0.030146
   9 H :   -0.011580
  10 H :    0.028208
Sum of atomic charges:   -1.0000000

LOEWDIN ATOMIC CHARGES
----------------------
   0 C :   -0.079824
   1 C :   -0.200306
   2 H :    0.013939
   3 H :    0.009610
   4 S :    1.091678
   5 O :   -0.654584
   6 O :   -0.601733
   7 O :   -0.624550
   8 H :    0.020334
   9 H :    0.005123
  10 H :    0.020313

  Mayer bond orders larger than 0.100000
B(  0-C ,  1-C ) :   1.0689 B(  0-C ,  8-H ) :   0.9667 B(  0-C ,  9-H ) :   0.9614
B(  0-C , 10-H ) :   0.9704 B(  1-C ,  2-H ) :   0.9456 B(  1-C ,  3-H ) :   0.9457
B(  1-C ,  4-S ) :   0.8750 B(  4-S ,  5-O ) :   1.5868 B(  4-S ,  6-O ) :   1.6377
B(  4-S ,  7-O ) :   1.6179

Dispersion correction           -0.008177682
FINAL SINGLE POINT ENERGY      -702.259469404040

DIPOLE MOMENT
-------------
                                X             Y             Z
Electronic contribution:      3.69605      -5.72831      -4.35632
Nuclear contribution   :     -4.50297       7.24642       5.01775
                        -----------------------------------------
Total Dipole Moment    :     -0.80693       1.51811       0.66143
                        -----------------------------------------
Magnitude (a.u.)       :      1.84209
Magnitude (Debye)      :      4.68221

Rotational constants in cm-1:     0.162459     0.081286     0.079601
Rotational constants in MHz :  4870.394399  2436.893583  2386.374948

                             ****ORCA TERMINATED NORMALLY****
TOTAL RUN TIME: 0 days 0 hours 0 minutes 13 seconds 901 msec
