                         Program Version 5.0.0 -  RELEASE  -
|  1> !PBE0 D3BJ RIJCOSX def2-SVP def2/J TightSCF
|  2> *xyz 1 1
|  3> C          2.91632       -1.24259       -1.54313
|  4> C          3.46659       -1.59097       -2.88908
|  5> N          4.65227       -1.14316       -3.25969
|  6> N          2.75226       -2.29204       -3.72803
|  7> H          1.77836       -2.48960       -3.51274
|  8> H          2.94861       -2.20854       -4.71681
|  9> H          5.14672       -0.51251       -2.63385
| 10> H          4.78303       -1.00720       -4.25350
| 11> C          2.80408        0.29070       -1.35924
| 12> H          1.94047       -1.71653       -1.44116
| 13> H          3.55857       -1.66343       -0.76637
| 14> H          2.17393        0.69633       -2.12297
| 15> H          3.77707        0.73043       -1.42880
| 16> H          2.38369        0.50492       -0.39889
| 17> *
| 18>
| 19> %MaxCore 64000
| 20>
| 21> %pal nprocs 4
| 22> end
| 23>
| 24> %scf
| 25>   MaxIter 150
| 26> end
| 27>
| 28>
| 29>                          ****END OF INPUT****

CARTESIAN COORDINATES (ANGSTROEM)
---------------------------------
  C      2.916320   -1.242590   -1.543130
  C      3.466590   -1.590970   -2.889080
  N      4.652270   -1.143160   -3.259690
  N      2.752260   -2.292040   -3.728030
  H      1.778360   -2.489600   -3.512740
  H      2.948610   -2.208540   -4.716810
  H      5.146720   -0.512510   -2.633850
  H      4.783030   -1.007200   -4.253500
  C      2.804080    0.290700   -1.359240
  H      1.940470   -1.716530   -1.441160
  H      3.558570   -1.663430   -0.766370
  H      2.173930    0.696330   -2.122970
  H      3.777070    0.730430   -1.428800
  H      2.383690    0.504920   -0.398890

 Total Charge           Charge          ....    1
 Multiplicity           Mult            ....    1
 Number of Electrons    NEL             ....   40
 Basis Dimension        Dim             ....  115

ORBITAL ENERGIES
----------------

  NO   OCC          E(Eh)            E(eV)
   0   2.0000     -14.644561      -398.4988
   1   2.0000     -14.639302      -398.3557
   2   2.0000     -10.555607      -287.2327
   3   2.0000     -10.434242      -283.9302
   4   2.0000     -10.395714      -282.8818
   5   2.0000      -1.231495       -33.5107
   6   2.0000      -1.129366       -30.7316
   7   2.0000      -0.989220       -26.9180
   8   2.0000      -0.880044       -23.9472
   9   2.0000      -0.834071       -22.6962
  10   2.0000      -0.787638       -21.4327
  11   2.0000      -0.767876       -20.8950
  12   2.0000      -0.715380       -19.4665
  13   2.0000      -0.680332       -18.5128
  14   2.0000      -0.640018       -17.4158
  15   2.0000      -0.615130       -16.7385
  16   2.0000      -0.567038       -15.4299
  17   2.0000      -0.555818       -15.1246
  18   2.0000      -0.542640       -14.7660
  19   2.0000      -0.511025       -13.9057
  20   0.0000      -0.211864        -5.7651
  21   0.0000      -0.134522        -3.6605
  22   0.0000      -0.092676        -2.5218
  23   0.0000      -0.089571        -2.4373
  24   0.0000      -0.056416        -1.5352

MULLIKEN ATOMIC CHARGES
-----------------------
   0 C :   -0.049432
   1 C :   -0.031811
   2 N :   -0.028403
   3 N :   -0.014863
   4 H :    0.195120
   5 H :    0.179171
   6 H :    0.191346
   7 H :    0.183283
   8 C :   -0.063753
   9 H :    0.077119
  10 H :    0.124837
  11 H :    0.073288
  12 H :    0.060065
  13 H :    0.104033
Sum of atomic charges:    1.0000000

LOEWDIN ATOMIC CHARGES
----------------------
   0 C :   -0.040647
   1 C :    0.148342
   2 N :    0.089464
   3 N :    0.103607
   4 H :    0.124025
   5 H :    0.113247
   6 H :    0.119650
   7 H :    0.112898
   8 C :   -0.030397
   9 H :    0.054999
  10 H :    0.073834
  11 H :    0.040932
  12 H :    0.031385
  13 H :    0.058662

  Mayer bond orders larger than 0.100000
B(  0-C ,  1-C ) :   1.0235 B(  0-C ,  8-C ) :   1.0577 B(  0-C ,  9-H ) :   0.9254
B(  0-C , 10-H ) :   0.9161 B(  1-C ,  2-N ) :   1.4813 B(  1-C ,  3-N ) :   1.5183
B(  2-N ,  6-H ) :   0.9233 B(  2-N ,  7-H ) :   0.9293 B(  3-N ,  4-H ) :   0.9179
B(  3-N ,  5-H ) :   0.9302 B(  8-C , 11-H ) :   0.9702 B(  8-C , 12-H ) :   0.9713
B(  8-C , 13-H ) :   0.9599

Dispersion correction           -0.008578627
FINAL SINGLE POINT ENERGY      -228.597600700562

DIPOLE MOMENT
-------------
                                X             Y             Z
Electronic contribution:      1.31743      -2.84437      -2.82573
Nuclear contribution   :     -1.30215       2.77761       1.84194
                        -----------------------------------------
Total Dipole Moment    :      0.01528      -0.06677      -0.98379
                        -----------------------------------------
Magnitude (a.u.)       :      0.98617
Magnitude (Debye)      :      2.50665

Rotational constants in cm-1:     0.267442     0.127541     0.099068
Rotational constants in MHz :  8017.703171  3823.592522  2969.992494

                             ****ORCA TERMINATED NORMALLY****
TOTAL RUN TIME: 0 days 0 hours 0 minutes 13 seconds 688 msec
