                         Program Version 5.0.0 -  RELEASE  -
|  1> !PBE0 D3BJ RIJCOSX def2-SVP def2/J TightSCF
|  2> *xyz 0 1
|  3> C          0.70466        1.44313       -4.50363
|  4> C          1.72854        1.42432       -5.63944
|  5> H          2.64672        1.95379       -5.38105
|  6> H          1.29992        1.93061       -6.50361
|  7> S          2.25263       -0.18811       -6.27184
|  8> F          3.56261       -0.44446       -5.63155
|  9> O          2.34494       -0.03374       -7.69650
| 10> O          1.26606       -1.15918       -5.80536
| 11> H         -0.17385        0.91270       -4.80656
| 12> H          0.44778        2.45562       -4.27173
| 13> H          1.12367        0.97423       -3.63791
| 14> *
| 15>
| 16> %MaxCore 64000
| 17>
| 18> %pal nprocs 4
| 19> end
| 20>
| 21> %scf
| 22>   MaxIter 150
| 23> end
| 24>
| 25>
| 26>                          ****END OF INPUT****

CARTESIAN COORDINATES (ANGSTROEM)
---------------------------------
  C      0.704660    1.443130   -4.503630
  C      1.728540    1.424320   -5.639440
  H      2.646720    1.953790   -5.381050
  H      1.299920    1.930610   -6.503610
  S      2.252630   -0.188110   -6.271840
  F      3.562610   -0.444460   -5.631550
  O      2.344940   -0.033740   -7.696500
  O      1.266060   -1.159180   -5.805360
  H     -0.173850    0.912700   -4.806560
  H      0.447780    2.455620   -4.271730
  H      1.123670    0.974230   -3.637910

 Total Charge           Charge          ....    0
 Multiplicity           Mult            ....    1
 Number of Electrons    NEL             ....   58
 Basis Dimension        Dim             ....  113

ORBITAL ENERGIES
----------------

  NO   OCC          E(Eh)            E(eV)
   0   2.0000     -89.271476     -2429.2004
   1   2.0000     -24.867427      -676.6771
   2   2.0000     -19.216388      -522.9045
   3   2.0000     -19.209443      -522.7155
   4   2.0000     -10.290453      -280.0175
   5   2.0000     -10.252067      -278.9729
   6   2.0000      -8.240489      -224.2351
   7   2.0000      -6.185882      -168.3264
   8   2.0000      -6.179811      -168.1612
   9   2.0000      -6.178785      -168.1333
  10   2.0000      -1.368281       -37.2328
  11   2.0000      -1.134008       -30.8579
  12   2.0000      -1.034968       -28.1629
  13   2.0000      -0.838127       -22.8066
  14   2.0000      -0.738642       -20.0995
  15   2.0000      -0.684351       -18.6221
  16   2.0000      -0.590466       -16.0674
  17   2.0000      -0.575481       -15.6596
  18   2.0000      -0.560266       -15.2456
  19   2.0000      -0.504450       -13.7268
  20   2.0000      -0.491884       -13.3849
  21   2.0000      -0.464083       -12.6283
  22   2.0000      -0.442159       -12.0318
  23   2.0000      -0.415704       -11.3119
  24   2.0000      -0.408574       -11.1179
  25   2.0000      -0.391690       -10.6584
  26   2.0000      -0.341624        -9.2961
  27   2.0000      -0.335665        -9.1339
  28   2.0000      -0.320987        -8.7345
  29   0.0000       0.042664         1.1609
  30   0.0000       0.052221         1.4210
  31   0.0000       0.085610         2.3296
  32   0.0000       0.091142         2.4801
  33   0.0000       0.110172         2.9979

MULLIKEN ATOMIC CHARGES
-----------------------
   0 C :   -0.034633
   1 C :   -0.213175
   2 H :    0.087748
   3 H :    0.110497
   4 S :    0.986815
   5 F :   -0.217398
   6 O :   -0.443014
   7 O :   -0.466115
   8 H :    0.074476
   9 H :    0.057538
  10 H :    0.057260
Sum of atomic charges:   -0.0000000

LOEWDIN ATOMIC CHARGES
----------------------
   0 C :   -0.060802
   1 C :   -0.165048
   2 H :    0.037201
   3 H :    0.051864
   4 S :    1.158322
   5 F :   -0.158334
   6 O :   -0.475101
   7 O :   -0.500022
   8 H :    0.039404
   9 H :    0.039066
  10 H :    0.033449

  Mayer bond orders larger than 0.100000
B(  0-C ,  1-C ) :   1.0629 B(  0-C ,  8-H ) :   0.9677 B(  0-C ,  9-H ) :   0.9600
B(  0-C , 10-H ) :   0.9729 B(  1-C ,  2-H ) :   0.9334 B(  1-C ,  3-H ) :   0.9376
B(  1-C ,  4-S ) :   0.9034 B(  4-S ,  5-F ) :   0.9730 B(  4-S ,  6-O ) :   1.7912
B(  4-S ,  7-O ) :   1.7717

Dispersion correction           -0.007800786
FINAL SINGLE POINT ENERGY      -726.766263148252

DIPOLE MOMENT
-------------
                                X             Y             Z
Electronic contribution:      6.31994      -6.51692      -3.73206
Nuclear contribution   :     -6.09914       7.80989       4.64238
                        -----------------------------------------
Total Dipole Moment    :      0.22081       1.29297       0.91032
                        -----------------------------------------
Magnitude (a.u.)       :      1.59663
Magnitude (Debye)      :      4.05831

Rotational constants in cm-1:     0.154372     0.078826     0.078033
Rotational constants in MHz :  4627.943144  2363.154585  2339.382767

                             ****ORCA TERMINATED NORMALLY****
TOTAL RUN TIME: 0 days 0 hours 0 minutes 13 seconds 911 msec
