                         Program Version 5.0.0 -  RELEASE  -
|  1> !PBE0 D3BJ RIJCOSX def2-SVP def2/J TightSCF
|  2> *xyz 0 1
|  3> C          2.91632       -1.24259       -1.54313
|  4> C          3.46659       -1.59097       -2.88908
|  5> C          4.65227       -1.14316       -3.25969
|  6> N          2.75226       -2.29204       -3.72803
|  7> H          1.77836       -2.48960       -3.51274
|  8> H          2.94861       -2.20854       -4.71681
|  9> H          5.14672       -0.51251       -2.63385
| 10> H          4.78303       -1.00720       -4.25350
| 11> C          2.80408        0.29070       -1.35924
| 12> H          1.94047       -1.71653       -1.44116
| 13> H          3.55857       -1.66343       -0.76637
| 14> H          2.17393        0.69633       -2.12297
| 15> H          3.77707        0.73043       -1.42880
| 16> H          2.38369        0.50492       -0.39889
| 17> *
| 18>
| 19> %MaxCore 64000
| 20>
| 21> %pal nprocs 4
| 22> end
| 23>
| 24> %scf
| 25>   MaxIter 150
| 26> end
| 27>
| 28>
| 29>                          ****END OF INPUT****

CARTESIAN COORDINATES (ANGSTROEM)
---------------------------------
  C      2.916320   -1.242590   -1.543130
  C      3.466590   -1.590970   -2.889080
  C      4.652270   -1.143160   -3.259690
  N      2.752260   -2.292040   -3.728030
  H      1.778360   -2.489600   -3.512740
  H      2.948610   -2.208540   -4.716810
  H      5.146720   -0.512510   -2.633850
  H      4.783030   -1.007200   -4.253500
  C      2.804080    0.290700   -1.359240
  H      1.940470   -1.716530   -1.441160
  H      3.558570   -1.663430   -0.766370
  H      2.173930    0.696330   -2.122970
  H      3.777070    0.730430   -1.428800
  H      2.383690    0.504920   -0.398890

 Total Charge           Charge          ....    0
 Multiplicity           Mult            ....    1
 Number of Electrons    NEL             ....   40
 Basis Dimension        Dim             ....  115

ORBITAL ENERGIES
----------------

  NO   OCC          E(Eh)            E(eV)
   0   2.0000     -14.391712      -391.6184
   1   2.0000     -10.246806      -278.8298
   2   2.0000     -10.232486      -278.4401
   3   2.0000     -10.218221      -278.0519
   4   2.0000     -10.155832      -276.3542
   5   2.0000      -0.949595       -25.8398
   6   2.0000      -0.794843       -21.6288
   7   2.0000      -0.722801       -19.6684
   8   2.0000      -0.655111       -17.8265
   9   2.0000      -0.575456       -15.6589
  10   2.0000      -0.532513       -14.4904
  11   2.0000      -0.489343       -13.3157
  12   2.0000      -0.460026       -12.5179
  13   2.0000      -0.419476       -11.4145
  14   2.0000      -0.399348       -10.8668
  15   2.0000      -0.385963       -10.5026
  16   2.0000      -0.366146        -9.9633
  17   2.0000      -0.352446        -9.5905
  18   2.0000      -0.334399        -9.0995
  19   2.0000      -0.192626        -5.2416
  20   0.0000       0.052848         1.4381
  21   0.0000       0.062255         1.6940
  22   0.0000       0.104558         2.8452
  23   0.0000       0.108960         2.9650
  24   0.0000       0.132737         3.6120

MULLIKEN ATOMIC CHARGES
-----------------------
   0 C :   -0.003665
   1 C :   -0.156803
   2 C :   -0.067853
   3 N :   -0.100400
   4 H :    0.115048
   5 H :    0.122490
   6 H :   -0.018363
   7 H :   -0.024320
   8 C :   -0.044162
   9 H :    0.008806
  10 H :    0.057566
  11 H :    0.035035
  12 H :    0.045145
  13 H :    0.031476
Sum of atomic charges:    0.0000000

LOEWDIN ATOMIC CHARGES
----------------------
   0 C :   -0.038199
   1 C :   -0.001860
   2 C :   -0.189698
   3 N :    0.000356
   4 H :    0.069687
   5 H :    0.077777
   6 H :   -0.000800
   7 H :   -0.003574
   8 C :   -0.049326
   9 H :    0.019234
  10 H :    0.042009
  11 H :    0.024990
  12 H :    0.026844
  13 H :    0.022560

  Mayer bond orders larger than 0.100000
B(  0-C ,  1-C ) :   1.0038 B(  0-C ,  8-C ) :   1.0880 B(  0-C ,  9-H ) :   0.9395
B(  0-C , 10-H ) :   0.9371 B(  1-C ,  2-C ) :   1.8351 B(  1-C ,  3-N ) :   1.2725
B(  2-C ,  6-H ) :   0.9566 B(  2-C ,  7-H ) :   0.9593 B(  3-N ,  4-H ) :   0.9485
B(  3-N ,  5-H ) :   0.9484 B(  8-C , 11-H ) :   0.9728 B(  8-C , 12-H ) :   0.9746
B(  8-C , 13-H ) :   0.9670

Dispersion correction           -0.008937022
FINAL SINGLE POINT ENERGY      -212.144726614000

DIPOLE MOMENT
-------------
                                X             Y             Z
Electronic contribution:      0.05178      -2.76964      -1.84821
Nuclear contribution   :     -0.99366       2.78648       1.68526
                        -----------------------------------------
Total Dipole Moment    :     -0.94187       0.01684      -0.16295
                        -----------------------------------------
Magnitude (a.u.)       :      0.95601
Magnitude (Debye)      :      2.42999

Rotational constants in cm-1:     0.282898     0.128664     0.101801
Rotational constants in MHz :  8481.061354  3857.240210  3051.924245

                             ****ORCA TERMINATED NORMALLY****
TOTAL RUN TIME: 0 days 0 hours 0 minutes 15 seconds 64 msec
