                         Program Version 5.0.0 -  RELEASE  -
|  1> !PBE0 D3BJ RIJCOSX def2-SVP def2/J TightSCF
|  2> *xyz 0 1
|  3> C          0.70466        1.44313       -4.50363
|  4> C          1.72854        1.42432       -5.63944
|  5> H          2.64672        1.95379       -5.38105
|  6> H          1.29992        1.93061       -6.50361
|  7> S          2.25263       -0.18811       -6.27184
|  8> O          3.56261       -0.44446       -5.63155
|  9> F          2.34494       -0.03374       -7.69650
| 10> O          1.26606       -1.15918       -5.80536
| 11> H         -0.17385        0.91270       -4.80656
| 12> H          0.44778        2.45562       -4.27173
| 13> H          1.12367        0.97423       -3.63791
| 14> *
| 15>
| 16> %MaxCore 64000
| 17>
| 18> %pal nprocs 4
| 19> end
| 20>
| 21> %scf
| 22>   MaxIter 150
| 23> end
| 24>
| 25>
| 26>                          ****END OF INPUT****

CARTESIAN COORDINATES (ANGSTROEM)
---------------------------------
  C      0.704660    1.443130   -4.503630
  C      1.728540    1.424320   -5.639440
  H      2.646720    1.953790   -5.381050
  H      1.299920    1.930610   -6.503610
  S      2.252630   -0.188110   -6.271840
  O      3.562610   -0.444460   -5.631550
  F      2.344940   -0.033740   -7.696500
  O      1.266060   -1.159180   -5.805360
  H     -0.173850    0.912700   -4.806560
  H      0.447780    2.455620   -4.271730
  H      1.123670    0.974230   -3.637910

 Total Charge           Charge          ....    0
 Multiplicity           Mult            ....    1
 Number of Electrons    NEL             ....   58
 Basis Dimension        Dim             ....  113

ORBITAL ENERGIES
----------------

  NO   OCC          E(Eh)            E(eV)
   0   2.0000     -89.272682     -2429.2332
   1   2.0000     -24.891226      -677.3247
   2   2.0000     -19.208922      -522.7013
   3   2.0000     -19.198952      -522.4301
   4   2.0000     -10.291422      -280.0438
   5   2.0000     -10.252592      -278.9872
   6   2.0000      -8.241869      -224.2727
   7   2.0000      -6.187493      -168.3703
   8   2.0000      -6.180926      -168.1915
   9   2.0000      -6.179902      -168.1637
  10   2.0000      -1.407756       -38.3070
  11   2.0000      -1.118855       -30.4456
  12   2.0000      -1.013050       -27.5665
  13   2.0000      -0.838890       -22.8274
  14   2.0000      -0.753822       -20.5125
  15   2.0000      -0.693186       -18.8626
  16   2.0000      -0.605456       -16.4753
  17   2.0000      -0.603386       -16.4190
  18   2.0000      -0.565198       -15.3798
  19   2.0000      -0.505955       -13.7677
  20   2.0000      -0.491454       -13.3732
  21   2.0000      -0.452699       -12.3186
  22   2.0000      -0.438992       -11.9456
  23   2.0000      -0.418151       -11.3785
  24   2.0000      -0.401053       -10.9132
  25   2.0000      -0.387126       -10.5342
  26   2.0000      -0.333519        -9.0755
  27   2.0000      -0.322742        -8.7823
  28   2.0000      -0.303693        -8.2639
  29   0.0000       0.042273         1.1503
  30   0.0000       0.049126         1.3368
  31   0.0000       0.083160         2.2629
  32   0.0000       0.090950         2.4749
  33   0.0000       0.107360         2.9214

MULLIKEN ATOMIC CHARGES
-----------------------
   0 C :   -0.030815
   1 C :   -0.205440
   2 H :    0.104974
   3 H :    0.077194
   4 S :    0.975159
   5 O :   -0.486398
   6 F :   -0.172586
   7 O :   -0.459964
   8 H :    0.066230
   9 H :    0.058917
  10 H :    0.072729
Sum of atomic charges:   -0.0000000

LOEWDIN ATOMIC CHARGES
----------------------
   0 C :   -0.054430
   1 C :   -0.163332
   2 H :    0.046977
   3 H :    0.032135
   4 S :    1.151262
   5 O :   -0.521886
   6 F :   -0.111478
   7 O :   -0.496010
   8 H :    0.037142
   9 H :    0.039867
  10 H :    0.039754

  Mayer bond orders larger than 0.100000
B(  0-C ,  1-C ) :   1.0735 B(  0-C ,  8-H ) :   0.9667 B(  0-C ,  9-H ) :   0.9606
B(  0-C , 10-H ) :   0.9720 B(  1-C ,  2-H ) :   0.9327 B(  1-C ,  3-H ) :   0.9334
B(  1-C ,  4-S ) :   0.9044 B(  4-S ,  5-O ) :   1.7376 B(  4-S ,  6-F ) :   1.0243
B(  4-S ,  7-O ) :   1.7661

Dispersion correction           -0.007812959
FINAL SINGLE POINT ENERGY      -726.744881384412

DIPOLE MOMENT
-------------
                                X             Y             Z
Electronic contribution:      4.22239      -5.82081      -7.24396
Nuclear contribution   :     -4.83029       7.38191       6.79413
                        -----------------------------------------
Total Dipole Moment    :     -0.60790       1.56110      -0.44983
                        -----------------------------------------
Magnitude (a.u.)       :      1.73462
Magnitude (Debye)      :      4.40906

Rotational constants in cm-1:     0.156575     0.079070     0.076729
Rotational constants in MHz :  4694.010604  2370.444114  2300.280155

                             ****ORCA TERMINATED NORMALLY****
TOTAL RUN TIME: 0 days 0 hours 0 minutes 11 seconds 981 msec
