                         Program Version 5.0.0 -  RELEASE  -
|  1> !PBE0 D3BJ RIJCOSX def2-SVP def2/J TightSCF
|  2> *xyz 0 1
|  3> C          2.91632       -1.24259       -1.54313
|  4> C          3.46659       -1.59097       -2.88908
|  5> N          4.65227       -1.14316       -3.25969
|  6> C          2.75226       -2.29204       -3.72803
|  7> H          1.77836       -2.48960       -3.51274
|  8> H          2.94861       -2.20854       -4.71681
|  9> H          5.14672       -0.51251       -2.63385
| 10> H          4.78303       -1.00720       -4.25350
| 11> C          2.80408        0.29070       -1.35924
| 12> H          1.94047       -1.71653       -1.44116
| 13> H          3.55857       -1.66343       -0.76637
| 14> H          2.17393        0.69633       -2.12297
| 15> H          3.77707        0.73043       -1.42880
| 16> H          2.38369        0.50492       -0.39889
| 17> *
| 18>
| 19> %MaxCore 64000
| 20>
| 21> %pal nprocs 4
| 22> end
| 23>
| 24> %scf
| 25>   MaxIter 150
| 26> end
| 27>
| 28>
| 29>                          ****END OF INPUT****

CARTESIAN COORDINATES (ANGSTROEM)
---------------------------------
  C      2.916320   -1.242590   -1.543130
  C      3.466590   -1.590970   -2.889080
  N      4.652270   -1.143160   -3.259690
  C      2.752260   -2.292040   -3.728030
  H      1.778360   -2.489600   -3.512740
  H      2.948610   -2.208540   -4.716810
  H      5.146720   -0.512510   -2.633850
  H      4.783030   -1.007200   -4.253500
  C      2.804080    0.290700   -1.359240
  H      1.940470   -1.716530   -1.441160
  H      3.558570   -1.663430   -0.766370
  H      2.173930    0.696330   -2.122970
  H      3.777070    0.730430   -1.428800
  H      2.383690    0.504920   -0.398890

 Total Charge           Charge          ....    0
 Multiplicity           Mult            ....    1
 Number of Electrons    NEL             ....   40
 Basis Dimension        Dim             ....  115

ORBITAL ENERGIES
----------------

  NO   OCC          E(Eh)            E(eV)
   0   2.0000     -14.388390      -391.5280
   1   2.0000     -10.245430      -278.7923
   2   2.0000     -10.230893      -278.3967
   3   2.0000     -10.223949      -278.2078
   4   2.0000     -10.160259      -276.4747
   5   2.0000      -0.944881       -25.7115
   6   2.0000      -0.792658       -21.5693
   7   2.0000      -0.734586       -19.9891
   8   2.0000      -0.647742       -17.6260
   9   2.0000      -0.575220       -15.6525
  10   2.0000      -0.536985       -14.6121
  11   2.0000      -0.486524       -13.2390
  12   2.0000      -0.448507       -12.2045
  13   2.0000      -0.444347       -12.0913
  14   2.0000      -0.396564       -10.7910
  15   2.0000      -0.390988       -10.6393
  16   2.0000      -0.366982        -9.9861
  17   2.0000      -0.351668        -9.5694
  18   2.0000      -0.329301        -8.9607
  19   2.0000      -0.200062        -5.4440
  20   0.0000       0.053564         1.4576
  21   0.0000       0.060246         1.6394
  22   0.0000       0.106987         2.9113
  23   0.0000       0.114627         3.1192
  24   0.0000       0.128279         3.4906

MULLIKEN ATOMIC CHARGES
-----------------------
   0 C :    0.002302
   1 C :   -0.146647
   2 N :   -0.111910
   3 C :   -0.060911
   4 H :   -0.017204
   5 H :   -0.029230
   6 H :    0.115597
   7 H :    0.128996
   8 C :   -0.054244
   9 H :    0.030601
  10 H :    0.039910
  11 H :    0.041378
  12 H :    0.020722
  13 H :    0.040641
Sum of atomic charges:    0.0000000

LOEWDIN ATOMIC CHARGES
----------------------
   0 C :   -0.036787
   1 C :   -0.002569
   2 N :   -0.012706
   3 C :   -0.175141
   4 H :    0.002562
   5 H :   -0.003730
   6 H :    0.068846
   7 H :    0.078936
   8 C :   -0.056819
   9 H :    0.036811
  10 H :    0.028856
  11 H :    0.028234
  12 H :    0.015675
  13 H :    0.027832

  Mayer bond orders larger than 0.100000
B(  0-C ,  1-C ) :   1.0314 B(  0-C ,  8-C ) :   1.0748 B(  0-C ,  9-H ) :   0.9340
B(  0-C , 10-H ) :   0.9340 B(  1-C ,  2-N ) :   1.2457 B(  1-C ,  3-C ) :   1.8708
B(  2-N ,  6-H ) :   0.9550 B(  2-N ,  7-H ) :   0.9479 B(  3-C ,  4-H ) :   0.9435
B(  3-C ,  5-H ) :   0.9580 B(  8-C , 11-H ) :   0.9712 B(  8-C , 12-H ) :   0.9728
B(  8-C , 13-H ) :   0.9696

Dispersion correction           -0.008917335
FINAL SINGLE POINT ENERGY      -212.148563714136

DIPOLE MOMENT
-------------
                                X             Y             Z
Electronic contribution:      1.79629      -1.70268      -1.42028
Nuclear contribution   :     -1.43372       2.52039       1.57679
                        -----------------------------------------
Total Dipole Moment    :      0.36257       0.81771       0.15651
                        -----------------------------------------
Magnitude (a.u.)       :      0.90807
Magnitude (Debye)      :      2.30814

Rotational constants in cm-1:     0.274962     0.131786     0.102554
Rotational constants in MHz :  8243.150005  3950.846092  3074.493018

                             ****ORCA TERMINATED NORMALLY****
TOTAL RUN TIME: 0 days 0 hours 0 minutes 14 seconds 242 msec
