                         Program Version 5.0.0 -  RELEASE  -
|  1> !PBE0 D3BJ RIJCOSX def2-SVP def2/J TightSCF
|  2> *xyz 0 1
|  3> C          0.70466        1.44313       -4.50363
|  4> C          1.72854        1.42432       -5.63944
|  5> H          2.64672        1.95379       -5.38105
|  6> H          1.29992        1.93061       -6.50361
|  7> S          2.25263       -0.18811       -6.27184
|  8> O          3.56261       -0.44446       -5.63155
|  9> O          2.34494       -0.03374       -7.69650
| 10> F          1.26606       -1.15918       -5.80536
| 11> H         -0.17385        0.91270       -4.80656
| 12> H          0.44778        2.45562       -4.27173
| 13> H          1.12367        0.97423       -3.63791
| 14> *
| 15>
| 16> %MaxCore 64000
| 17>
| 18> %pal nprocs 4
| 19> end
| 20>
| 21> %scf
| 22>   MaxIter 150
| 23> end
| 24>
| 25>
| 26>                          ****END OF INPUT****

CARTESIAN COORDINATES (ANGSTROEM)
---------------------------------
  C      0.704660    1.443130   -4.503630
  C      1.728540    1.424320   -5.639440
  H      2.646720    1.953790   -5.381050
  H      1.299920    1.930610   -6.503610
  S      2.252630   -0.188110   -6.271840
  O      3.562610   -0.444460   -5.631550
  O      2.344940   -0.033740   -7.696500
  F      1.266060   -1.159180   -5.805360
  H     -0.173850    0.912700   -4.806560
  H      0.447780    2.455620   -4.271730
  H      1.123670    0.974230   -3.637910

 Total Charge           Charge          ....    0
 Multiplicity           Mult            ....    1
 Number of Electrons    NEL             ....   58
 Basis Dimension        Dim             ....  113

ORBITAL ENERGIES
----------------

  NO   OCC          E(Eh)            E(eV)
   0   2.0000     -89.271243     -2429.1940
   1   2.0000     -24.879300      -677.0002
   2   2.0000     -19.215934      -522.8921
   3   2.0000     -19.198411      -522.4153
   4   2.0000     -10.290227      -280.0113
   5   2.0000     -10.259998      -279.1887
   6   2.0000      -8.240399      -224.2326
   7   2.0000      -6.186014      -168.3300
   8   2.0000      -6.179564      -168.1545
   9   2.0000      -6.178487      -168.1252
  10   2.0000      -1.386005       -37.7151
  11   2.0000      -1.129116       -30.7248
  12   2.0000      -1.021420       -27.7942
  13   2.0000      -0.842251       -22.9188
  14   2.0000      -0.742513       -20.2048
  15   2.0000      -0.694017       -18.8852
  16   2.0000      -0.605784       -16.4842
  17   2.0000      -0.588826       -16.0228
  18   2.0000      -0.553363       -15.0578
  19   2.0000      -0.509863       -13.8741
  20   2.0000      -0.486564       -13.2401
  21   2.0000      -0.462405       -12.5827
  22   2.0000      -0.449987       -12.2448
  23   2.0000      -0.424868       -11.5612
  24   2.0000      -0.407150       -11.0791
  25   2.0000      -0.391386       -10.6502
  26   2.0000      -0.339705        -9.2438
  27   2.0000      -0.323767        -8.8101
  28   2.0000      -0.310134        -8.4392
  29   0.0000       0.028072         0.7639
  30   0.0000       0.067478         1.8362
  31   0.0000       0.087955         2.3934
  32   0.0000       0.090727         2.4688
  33   0.0000       0.108802         2.9607

MULLIKEN ATOMIC CHARGES
-----------------------
   0 C :   -0.063870
   1 C :   -0.196188
   2 H :    0.117200
   3 H :    0.098367
   4 S :    0.979673
   5 O :   -0.490228
   6 O :   -0.439323
   7 F :   -0.195806
   8 H :    0.056736
   9 H :    0.066254
  10 H :    0.067184
Sum of atomic charges:   -0.0000000

LOEWDIN ATOMIC CHARGES
----------------------
   0 C :   -0.069010
   1 C :   -0.158248
   2 H :    0.055290
   3 H :    0.043061
   4 S :    1.155578
   5 O :   -0.525754
   6 O :   -0.472668
   7 F :   -0.135616
   8 H :    0.030515
   9 H :    0.042276
  10 H :    0.034574

  Mayer bond orders larger than 0.100000
B(  0-C ,  1-C ) :   1.0553 B(  0-C ,  8-H ) :   0.9729 B(  0-C ,  9-H ) :   0.9622
B(  0-C , 10-H ) :   0.9720 B(  1-C ,  2-H ) :   0.9343 B(  1-C ,  3-H ) :   0.9370
B(  1-C ,  4-S ) :   0.9164 B(  4-S ,  5-O ) :   1.7407 B(  4-S ,  6-O ) :   1.7883
B(  4-S ,  7-F ) :   0.9975

Dispersion correction           -0.007766375
FINAL SINGLE POINT ENERGY      -726.755143183829

DIPOLE MOMENT
-------------
                                X             Y             Z
Electronic contribution:      2.39025      -7.69972      -4.01772
Nuclear contribution   :     -3.70606       8.55465       4.82350
                        -----------------------------------------
Total Dipole Moment    :     -1.31581       0.85493       0.80578
                        -----------------------------------------
Magnitude (a.u.)       :      1.76396
Magnitude (Debye)      :      4.48363

Rotational constants in cm-1:     0.153201     0.080978     0.077494
Rotational constants in MHz :  4592.852844  2427.650814  2323.207507

                             ****ORCA TERMINATED NORMALLY****
TOTAL RUN TIME: 0 days 0 hours 0 minutes 12 seconds 795 msec
