                         Program Version 5.0.0 -  RELEASE  -
|  1> !PBE0 D3BJ RIJCOSX def2-TZVP def2/J TightSCF xyzfile
|  2>
|  3> *xyzfile 0 1 D1.xyz
|  4>
|  5> %MaxCore 64000
|  6>
|  7> %pal nprocs 18
|  8> end
|  9>
| 10> %scf
| 11>   MaxIter 150
| 12> end
| 13>
| 14>
| 15>                          ****END OF INPUT****

CARTESIAN COORDINATES (ANGSTROEM)
---------------------------------
  C      2.916324   -1.242589   -1.543125
  C      0.704661    1.443129   -4.503630
  C      1.728539    1.424320   -5.639443
  H      2.646718    1.953794   -5.381054
  H      1.299916    1.930613   -6.503614
  S      2.252625   -0.188115   -6.271840
  C      3.466585   -1.590971   -2.889082
  C      4.652275   -1.143164   -3.259692
  N      2.752264   -2.292043   -3.728029
  H      1.778364   -2.489604   -3.512738
  H      2.948612   -2.208544   -4.716813
  H      5.146723   -0.512508   -2.633852
  H      4.783030   -1.007203   -4.253498
  F      3.562607   -0.444464   -5.631552
  O      2.344944   -0.033742   -7.696501
  C      2.804084    0.290698   -1.359243
  C      1.052550    0.695659   -3.214915
  H     -0.232483    1.032925   -4.884449
  H      0.511700    2.495794   -4.267966
  C      2.388380    1.093669   -2.597108
  H      3.763425    0.674718   -0.999889
  H      2.094788    0.461222   -0.545756
  O      1.266058   -1.159177   -5.805365
  H      3.167316    1.013242   -3.359430
  H      2.357690    2.149375   -2.310997
  H      1.039284   -0.368429   -3.449329
  H      0.250787    0.865605   -2.488283
  H      1.940472   -1.716529   -1.441161
  H      3.558569   -1.663433   -0.766371

 Total Charge           Charge          ....    0
 Multiplicity           Mult            ....    1
 Number of Electrons    NEL             ....  112
 Basis Dimension        Dim             ....  505

ORBITAL ENERGIES
----------------

  NO   OCC          E(Eh)            E(eV)
   0   2.0000     -89.267397     -2429.0894
   1   2.0000     -24.881489      -677.0597
   2   2.0000     -19.227717      -523.2128
   3   2.0000     -19.224342      -523.1209
   4   2.0000     -14.378007      -391.2454
   5   2.0000     -10.284855      -279.8651
   6   2.0000     -10.250568      -278.9321
   7   2.0000     -10.239862      -278.6408
   8   2.0000     -10.228109      -278.3210
   9   2.0000     -10.226593      -278.2797
  10   2.0000     -10.224883      -278.2332
  11   2.0000     -10.223668      -278.2001
  12   2.0000     -10.144598      -276.0486
  13   2.0000      -8.213852      -223.5103
  14   2.0000      -6.154291      -167.4668
  15   2.0000      -6.148066      -167.2974
  16   2.0000      -6.147381      -167.2787
  17   2.0000      -1.396271       -37.9945
  18   2.0000      -1.149377       -31.2761
  19   2.0000      -1.057540       -28.7771
  20   2.0000      -0.961337       -26.1593
  21   2.0000      -0.864249       -23.5174
  22   2.0000      -0.827680       -22.5223
  23   2.0000      -0.786337       -21.3973
  24   2.0000      -0.755967       -20.5709
  25   2.0000      -0.721749       -19.6398
  26   2.0000      -0.708211       -19.2714
  27   2.0000      -0.653789       -17.7905
  28   2.0000      -0.615651       -16.7527
  29   2.0000      -0.598646       -16.2900
  30   2.0000      -0.589782       -16.0488
  31   2.0000      -0.580761       -15.8033
  32   2.0000      -0.566424       -15.4132
  33   2.0000      -0.531227       -14.4554
  34   2.0000      -0.515026       -14.0146
  35   2.0000      -0.506618       -13.7858
  36   2.0000      -0.493613       -13.4319
  37   2.0000      -0.488257       -13.2861
  38   2.0000      -0.477340       -12.9891
  39   2.0000      -0.458802       -12.4846
  40   2.0000      -0.447633       -12.1807
  41   2.0000      -0.436808       -11.8861
  42   2.0000      -0.415408       -11.3038
  43   2.0000      -0.407283       -11.0827
  44   2.0000      -0.399242       -10.8639
  45   2.0000      -0.395274       -10.7560
  46   2.0000      -0.387754       -10.5513
  47   2.0000      -0.371027       -10.0962
  48   2.0000      -0.365009        -9.9324
  49   2.0000      -0.356167        -9.6918
  50   2.0000      -0.351482        -9.5643
  51   2.0000      -0.341439        -9.2910
  52   2.0000      -0.336276        -9.1505
  53   2.0000      -0.333485        -9.0746
  54   2.0000      -0.328165        -8.9298
  55   2.0000      -0.197229        -5.3669
  56   0.0000       0.020849         0.5673
  57   0.0000       0.028093         0.7644
  58   0.0000       0.034856         0.9485
  59   0.0000       0.042292         1.1508
  60   0.0000       0.051699         1.4068

MULLIKEN ATOMIC CHARGES
-----------------------
   0 C :   -0.207404
   1 C :   -0.138600
   2 C :   -0.336521
   3 H :    0.163564
   4 H :    0.182482
   5 S :    0.858966
   6 C :    0.086382
   7 C :   -0.401821
   8 N :   -0.373580
   9 H :    0.230263
  10 H :    0.215544
  11 H :    0.097638
  12 H :    0.085323
  13 F :   -0.114696
  14 O :   -0.403218
  15 C :   -0.242175
  16 C :   -0.259452
  17 H :    0.132104
  18 H :    0.116355
  19 C :   -0.130450
  20 H :    0.122557
  21 H :    0.101307
  22 O :   -0.441456
  23 H :    0.100081
  24 H :    0.102522
  25 H :    0.104920
  26 H :    0.108145
  27 H :    0.105670
  28 H :    0.135548
Sum of atomic charges:    0.0000000

LOEWDIN ATOMIC CHARGES
----------------------
   0 C :   -0.215741
   1 C :   -0.282212
   2 C :   -0.367741
   3 H :    0.140928
   4 H :    0.153069
   5 S :    0.542712
   6 C :   -0.391443
   7 C :   -0.295411
   8 N :    0.027481
   9 H :    0.166484
  10 H :    0.159727
  11 H :    0.105545
  12 H :    0.093061
  13 F :    0.067433
  14 O :   -0.248750
  15 C :   -0.253438
  16 C :   -0.274208
  17 H :    0.148714
  18 H :    0.148432
  19 C :   -0.272878
  20 H :    0.140795
  21 H :    0.137328
  22 O :   -0.274662
  23 H :    0.137258
  24 H :    0.137778
  25 H :    0.137256
  26 H :    0.141195
  27 H :    0.137786
  28 H :    0.153500

  Mayer bond orders larger than 0.100000
B(  0-C ,  6-C ) :   0.9561 B(  0-C , 15-C ) :   0.9783 B(  0-C , 27-H ) :   0.9617
B(  0-C , 28-H ) :   0.9620 B(  1-C ,  2-C ) :   0.9821 B(  1-C , 16-C ) :   1.0045
B(  1-C , 17-H ) :   0.9557 B(  1-C , 18-H ) :   0.9385 B(  2-C ,  3-H ) :   0.9402
B(  2-C ,  4-H ) :   0.9365 B(  2-C ,  5-S ) :   0.9075 B(  5-S , 13-F ) :   1.0941
B(  5-S , 14-O ) :   1.9906 B(  5-S , 22-O ) :   1.8534 B(  6-C ,  7-C ) :   1.7197
B(  6-C ,  8-N ) :   1.2446 B(  7-C , 11-H ) :   0.9991 B(  7-C , 12-H ) :   0.9895
B(  8-N ,  9-H ) :   0.9139 B(  8-N , 10-H ) :   0.9156 B( 15-C , 19-C ) :   1.0138
B( 15-C , 20-H ) :   0.9632 B( 15-C , 21-H ) :   0.9570 B( 16-C , 19-C ) :   0.9697
B( 16-C , 25-H ) :   0.9635 B( 16-C , 26-H ) :   0.9497 B( 19-C , 23-H ) :   0.9509
B( 19-C , 24-H ) :   0.9494

Dispersion correction           -0.032153673
FINAL SINGLE POINT ENERGY     -1017.103238439714

DIPOLE MOMENT
-------------
                                X             Y             Z
Electronic contribution:      2.15083      -4.97778     -18.59791
Nuclear contribution   :     -2.89481       6.29550      19.36835
                        -----------------------------------------
Total Dipole Moment    :     -0.74398       1.31772       0.77044
                        -----------------------------------------
Magnitude (a.u.)       :      1.69808
Magnitude (Debye)      :      4.31618

Rotational constants in cm-1:     0.036515     0.018832     0.015081
Rotational constants in MHz :  1094.679513   564.567051   452.109105

                             ****ORCA TERMINATED NORMALLY****
TOTAL RUN TIME: 0 days 0 hours 0 minutes 53 seconds 255 msec
