                         Program Version 5.0.0 -  RELEASE  -
|  1> !PBE0 D3BJ RIJCOSX def2-TZVP def2/J TightSCF xyzfile
|  2>
|  3> *xyzfile 0 1 D2.xyz
|  4>
|  5> %MaxCore 64000
|  6>
|  7> %pal nprocs 18
|  8> end
|  9>
| 10> %scf
| 11>   MaxIter 150
| 12> end
| 13>
| 14>
| 15>                          ****END OF INPUT****

CARTESIAN COORDINATES (ANGSTROEM)
---------------------------------
  C      2.916324   -1.242589   -1.543125
  C      0.704661    1.443129   -4.503630
  C      1.728539    1.424320   -5.639443
  H      2.646718    1.953794   -5.381054
  H      1.299916    1.930613   -6.503614
  S      2.252625   -0.188115   -6.271840
  C      3.466585   -1.590971   -2.889082
  N      4.652275   -1.143164   -3.259692
  C      2.752264   -2.292043   -3.728029
  H      1.778364   -2.489604   -3.512738
  H      2.948612   -2.208544   -4.716813
  H      5.146723   -0.512508   -2.633852
  H      4.783030   -1.007203   -4.253498
  F      3.562607   -0.444464   -5.631552
  O      2.344944   -0.033742   -7.696501
  C      2.804084    0.290698   -1.359243
  C      1.052550    0.695659   -3.214915
  H     -0.232483    1.032925   -4.884449
  H      0.511700    2.495794   -4.267966
  C      2.388380    1.093669   -2.597108
  H      3.763425    0.674718   -0.999889
  H      2.094788    0.461222   -0.545756
  O      1.266058   -1.159177   -5.805365
  H      3.167316    1.013242   -3.359430
  H      2.357690    2.149375   -2.310997
  H      1.039284   -0.368429   -3.449329
  H      0.250787    0.865605   -2.488283
  H      1.940472   -1.716529   -1.441161
  H      3.558569   -1.663433   -0.766371

 Total Charge           Charge          ....    0
 Multiplicity           Mult            ....    1
 Number of Electrons    NEL             ....  112
 Basis Dimension        Dim             ....  505

ORBITAL ENERGIES
----------------

  NO   OCC          E(Eh)            E(eV)
   0   2.0000     -89.261206     -2428.9209
   1   2.0000     -24.879338      -677.0012
   2   2.0000     -19.222651      -523.0749
   3   2.0000     -19.213187      -522.8174
   4   2.0000     -14.380104      -391.3025
   5   2.0000     -10.281450      -279.7725
   6   2.0000     -10.246485      -278.8210
   7   2.0000     -10.235535      -278.5231
   8   2.0000     -10.229449      -278.3575
   9   2.0000     -10.227055      -278.2923
  10   2.0000     -10.222339      -278.1640
  11   2.0000     -10.221982      -278.1543
  12   2.0000     -10.146198      -276.0921
  13   2.0000      -8.207564      -223.3392
  14   2.0000      -6.148168      -167.3001
  15   2.0000      -6.141684      -167.1237
  16   2.0000      -6.141005      -167.1052
  17   2.0000      -1.393838       -37.9283
  18   2.0000      -1.142287       -31.0832
  19   2.0000      -1.048404       -28.5285
  20   2.0000      -0.959799       -26.1175
  21   2.0000      -0.860821       -23.4241
  22   2.0000      -0.825490       -22.4627
  23   2.0000      -0.784252       -21.3406
  24   2.0000      -0.756911       -20.5966
  25   2.0000      -0.730975       -19.8908
  26   2.0000      -0.700995       -19.0750
  27   2.0000      -0.647831       -17.6284
  28   2.0000      -0.614095       -16.7104
  29   2.0000      -0.593389       -16.1469
  30   2.0000      -0.588537       -16.0149
  31   2.0000      -0.576438       -15.6857
  32   2.0000      -0.566141       -15.4055
  33   2.0000      -0.539005       -14.6671
  34   2.0000      -0.508817       -13.8456
  35   2.0000      -0.505511       -13.7557
  36   2.0000      -0.493275       -13.4227
  37   2.0000      -0.480906       -13.0861
  38   2.0000      -0.467248       -12.7145
  39   2.0000      -0.459049       -12.4914
  40   2.0000      -0.450338       -12.2543
  41   2.0000      -0.431281       -11.7358
  42   2.0000      -0.417731       -11.3670
  43   2.0000      -0.404445       -11.0055
  44   2.0000      -0.399118       -10.8606
  45   2.0000      -0.394861       -10.7447
  46   2.0000      -0.379904       -10.3377
  47   2.0000      -0.369935       -10.0664
  48   2.0000      -0.360232        -9.8024
  49   2.0000      -0.347701        -9.4614
  50   2.0000      -0.346034        -9.4161
  51   2.0000      -0.338571        -9.2130
  52   2.0000      -0.334375        -9.0988
  53   2.0000      -0.327244        -8.9048
  54   2.0000      -0.325405        -8.8547
  55   2.0000      -0.203799        -5.5457
  56   0.0000       0.018095         0.4924
  57   0.0000       0.029401         0.8000
  58   0.0000       0.035710         0.9717
  59   0.0000       0.040352         1.0980
  60   0.0000       0.058947         1.6040

MULLIKEN ATOMIC CHARGES
-----------------------
   0 C :   -0.204543
   1 C :   -0.138899
   2 C :   -0.336456
   3 H :    0.154959
   4 H :    0.182480
   5 S :    0.868733
   6 C :    0.113317
   7 N :   -0.426195
   8 C :   -0.371973
   9 H :    0.099512
  10 H :    0.073898
  11 H :    0.232914
  12 H :    0.227906
  13 F :   -0.135162
  14 O :   -0.406262
  15 C :   -0.267695
  16 C :   -0.263457
  17 H :    0.132102
  18 H :    0.113087
  19 C :   -0.136064
  20 H :    0.119266
  21 H :    0.108755
  22 O :   -0.417098
  23 H :    0.075264
  24 H :    0.103285
  25 H :    0.145165
  26 H :    0.102937
  27 H :    0.126755
  28 H :    0.123470
Sum of atomic charges:    0.0000000

LOEWDIN ATOMIC CHARGES
----------------------
   0 C :   -0.217685
   1 C :   -0.282623
   2 C :   -0.369574
   3 H :    0.137591
   4 H :    0.152703
   5 S :    0.547573
   6 C :   -0.394321
   7 N :   -0.001808
   8 C :   -0.268700
   9 H :    0.106906
  10 H :    0.091716
  11 H :    0.168636
  12 H :    0.162051
  13 F :    0.055209
  14 O :   -0.251350
  15 C :   -0.262627
  16 C :   -0.272279
  17 H :    0.149623
  18 H :    0.146913
  19 C :   -0.273920
  20 H :    0.134667
  21 H :    0.140297
  22 O :   -0.250137
  23 H :    0.129666
  24 H :    0.137789
  25 H :    0.148722
  26 H :    0.140263
  27 H :    0.151316
  28 H :    0.143382

  Mayer bond orders larger than 0.100000
B(  0-C ,  6-C ) :   0.9878 B(  0-C , 15-C ) :   0.9566 B(  0-C , 27-H ) :   0.9630
B(  0-C , 28-H ) :   0.9659 B(  1-C ,  2-C ) :   0.9812 B(  1-C , 16-C ) :   0.9996
B(  1-C , 17-H ) :   0.9546 B(  1-C , 18-H ) :   0.9385 B(  2-C ,  3-H ) :   0.9413
B(  2-C ,  4-H ) :   0.9378 B(  2-C ,  5-S ) :   0.9082 B(  5-S , 13-F ) :   1.0698
B(  5-S , 14-O ) :   1.9861 B(  5-S , 22-O ) :   1.8854 B(  6-C ,  7-N ) :   1.1476
B(  6-C ,  8-C ) :   1.7681 B(  7-N , 11-H ) :   0.9245 B(  7-N , 12-H ) :   0.9150
B(  8-C ,  9-H ) :   0.9914 B(  8-C , 10-H ) :   1.0148 B( 15-C , 19-C ) :   0.9916
B( 15-C , 20-H ) :   0.9742 B( 15-C , 21-H ) :   0.9542 B( 16-C , 19-C ) :   0.9637
B( 16-C , 25-H ) :   0.9650 B( 16-C , 26-H ) :   0.9489 B( 19-C , 23-H ) :   0.9558
B( 19-C , 24-H ) :   0.9524

Dispersion correction           -0.032203873
FINAL SINGLE POINT ENERGY     -1017.103186909529

DIPOLE MOMENT
-------------
                                X             Y             Z
Electronic contribution:      3.48975      -4.26172     -18.27197
Nuclear contribution   :     -3.13969       6.14743      19.30799
                        -----------------------------------------
Total Dipole Moment    :      0.35006       1.88571       1.03603
                        -----------------------------------------
Magnitude (a.u.)       :      2.17986
Magnitude (Debye)      :      5.54077

Rotational constants in cm-1:     0.036460     0.018762     0.015014
Rotational constants in MHz :  1093.039020   562.475626   450.105862

                             ****ORCA TERMINATED NORMALLY****
TOTAL RUN TIME: 0 days 0 hours 1 minutes 1 seconds 584 msec
