                         Program Version 5.0.0 -  RELEASE  -
|  1> !PBE0 D3BJ RIJCOSX def2-TZVPD def2/J TightSCF
|  2> *xyz -1 1
|  3> C          4.90646       -3.10282       -5.95484
|  4> C          3.51177       -2.80621       -6.49228
|  5> H          2.73604       -3.37345       -5.97374
|  6> H          3.44490       -3.04083       -7.55528
|  7> S          3.00462       -1.09621       -6.38926
|  8> O          4.12886       -0.32965       -6.95372
|  9> O          1.78128       -1.00078       -7.13640
| 10> O          2.85155       -0.78368       -4.95679
| 11> H          5.62703       -2.52424       -6.49422
| 12> H          5.12164       -4.14387       -6.07654
| 13> H          4.95004       -2.84862       -4.91639
| 14> *
| 15>
| 16> %MaxCore 64000
| 17>
| 18> %pal nprocs 4
| 19> end
| 20>
| 21> %scf
| 22>   MaxIter 150
| 23> end
| 24>
| 25>
| 26>                          ****END OF INPUT****

CARTESIAN COORDINATES (ANGSTROEM)
---------------------------------
  C      4.906460   -3.102820   -5.954840
  C      3.511770   -2.806210   -6.492280
  H      2.736040   -3.373450   -5.973740
  H      3.444900   -3.040830   -7.555280
  S      3.004620   -1.096210   -6.389260
  O      4.128860   -0.329650   -6.953720
  O      1.781280   -1.000780   -7.136400
  O      2.851550   -0.783680   -4.956790
  H      5.627030   -2.524240   -6.494220
  H      5.121640   -4.143870   -6.076540
  H      4.950040   -2.848620   -4.916390

 Total Charge           Charge          ....   -1
 Multiplicity           Mult            ....    1
 Number of Electrons    NEL             ....   58
 Basis Dimension        Dim             ....  285

ORBITAL ENERGIES
----------------

  NO   OCC          E(Eh)            E(eV)
   0   2.0000     -88.999161     -2421.7903
   1   2.0000     -18.987897      -516.6869
   2   2.0000     -18.976463      -516.3758
   3   2.0000     -18.976107      -516.3661
   4   2.0000     -10.084474      -274.4125
   5   2.0000     -10.074736      -274.1475
   6   2.0000      -7.945032      -216.1953
   7   2.0000      -5.882225      -160.0635
   8   2.0000      -5.881172      -160.0348
   9   2.0000      -5.880937      -160.0284
  10   2.0000      -0.948636       -25.8137
  11   2.0000      -0.816845       -22.2275
  12   2.0000      -0.796652       -21.6780
  13   2.0000      -0.656934       -17.8761
  14   2.0000      -0.528981       -14.3943
  15   2.0000      -0.398260       -10.8372
  16   2.0000      -0.333292        -9.0693
  17   2.0000      -0.327789        -8.9196
  18   2.0000      -0.289667        -7.8822
  19   2.0000      -0.275178        -7.4880
  20   2.0000      -0.267185        -7.2705
  21   2.0000      -0.242429        -6.5968
  22   2.0000      -0.225863        -6.1460
  23   2.0000      -0.163396        -4.4462
  24   2.0000      -0.162852        -4.4314
  25   2.0000      -0.127328        -3.4648
  26   2.0000      -0.118266        -3.2182
  27   2.0000      -0.113951        -3.1008
  28   2.0000      -0.075307        -2.0492
  29   0.0000       0.128594         3.4992
  30   0.0000       0.149269         4.0618
  31   0.0000       0.153912         4.1882
  32   0.0000       0.163493         4.4489
  33   0.0000       0.180528         4.9124

MULLIKEN ATOMIC CHARGES
-----------------------
   0 C :   -0.830063
   1 C :   -0.136623
   2 H :    0.167220
   3 H :    0.164055
   4 S :    1.098140
   5 O :   -0.711931
   6 O :   -0.664474
   7 O :   -0.709517
   8 H :    0.222462
   9 H :    0.183788
  10 H :    0.216943
Sum of atomic charges:   -1.0000000

LOEWDIN ATOMIC CHARGES
----------------------
   0 C :   -0.147332
   1 C :   -0.336521
   2 H :    0.085458
   3 H :    0.083094
   4 S :    0.341507
   5 O :   -0.405641
   6 O :   -0.382445
   7 O :   -0.408616
   8 H :    0.058776
   9 H :    0.049164
  10 H :    0.062556

  Mayer bond orders larger than 0.100000
B(  0-C ,  1-C ) :   0.9057 B(  0-C ,  8-H ) :   0.9906 B(  0-C ,  9-H ) :   0.9743
B(  0-C , 10-H ) :   0.9844 B(  1-C ,  2-H ) :   0.9625 B(  1-C ,  3-H ) :   0.9703
B(  1-C ,  4-S ) :   0.8270 B(  1-C ,  5-O ) :   0.1079 B(  1-C ,  6-O ) :   0.1422
B(  1-C ,  7-O ) :   0.1241 B(  4-S ,  5-O ) :   1.5080 B(  4-S ,  6-O ) :   1.5515
B(  4-S ,  7-O ) :   1.5103

Dispersion correction           -0.008269804
FINAL SINGLE POINT ENERGY      -702.848285675349

DIPOLE MOMENT
-------------
                                X             Y             Z
Electronic contribution:     -4.36261       6.40478      -0.66061
Nuclear contribution   :      5.05690      -8.21735       0.57889
                        -----------------------------------------
Total Dipole Moment    :      0.69430      -1.81257      -0.08172
                        -----------------------------------------
Magnitude (a.u.)       :      1.94272
Magnitude (Debye)      :      4.93799

Rotational constants in cm-1:     0.162547     0.083494     0.081672
Rotational constants in MHz :  4873.033504  2503.090885  2448.458543

                             ****ORCA TERMINATED NORMALLY****
TOTAL RUN TIME: 0 days 0 hours 0 minutes 30 seconds 443 msec
