                         Program Version 5.0.0 -  RELEASE  -
|  1> !PBE0 D3BJ RIJCOSX def2-TZVPD def2/J TightSCF
|  2> *xyz 1 1
|  3> C          4.49059        1.15590       -2.46929
|  4> N          4.30539        1.22276       -3.90832
|  5> C          4.63192        2.24637       -4.67096
|  6> N          4.54169        2.14399       -5.98714
|  7> N          5.08409        3.39358       -4.11855
|  8> H          4.92067        3.57050       -3.13587
|  9> H          5.25465        4.19739       -4.70696
| 10> H          3.82453        0.44911       -4.35093
| 11> H          4.34337        1.24932       -6.41665
| 12> H          4.67671        2.95662       -6.57411
| 13> C          5.94213        0.93950       -2.03689
| 14> H          3.86431        0.32853       -2.13661
| 15> H          4.07623        2.04999       -1.98901
| 16> H          6.32982        0.06401       -2.51451
| 17> H          5.98308        0.81426       -0.97504
| 18> H          6.52865        1.78889       -2.31873
| 19> *
| 20>
| 21> %MaxCore 64000
| 22>
| 23> %pal nprocs 4
| 24> end
| 25>
| 26> %scf
| 27>   MaxIter 150
| 28> end
| 29>
| 30>
| 31>                          ****END OF INPUT****

CARTESIAN COORDINATES (ANGSTROEM)
---------------------------------
  C      4.490590    1.155900   -2.469290
  N      4.305390    1.222760   -3.908320
  C      4.631920    2.246370   -4.670960
  N      4.541690    2.143990   -5.987140
  N      5.084090    3.393580   -4.118550
  H      4.920670    3.570500   -3.135870
  H      5.254650    4.197390   -4.706960
  H      3.824530    0.449110   -4.350930
  H      4.343370    1.249320   -6.416650
  H      4.676710    2.956620   -6.574110
  C      5.942130    0.939500   -2.036890
  H      3.864310    0.328530   -2.136610
  H      4.076230    2.049990   -1.989010
  H      6.329820    0.064010   -2.514510
  H      5.983080    0.814260   -0.975040
  H      6.528650    1.788890   -2.318730

 Total Charge           Charge          ....    1
 Multiplicity           Mult            ....    1
 Number of Electrons    NEL             ....   48
 Basis Dimension        Dim             ....  312

ORBITAL ENERGIES
----------------

  NO   OCC          E(Eh)            E(eV)
   0   2.0000     -14.609082      -397.5333
   1   2.0000     -14.606606      -397.4660
   2   2.0000     -14.604318      -397.4037
   3   2.0000     -10.554638      -287.2063
   4   2.0000     -10.428604      -283.7767
   5   2.0000     -10.353203      -281.7250
   6   2.0000      -1.243422       -33.8352
   7   2.0000      -1.132111       -30.8063
   8   2.0000      -1.115970       -30.3671
   9   2.0000      -0.952910       -25.9300
  10   2.0000      -0.864946       -23.5364
  11   2.0000      -0.819223       -22.2922
  12   2.0000      -0.802252       -21.8304
  13   2.0000      -0.759175       -20.6582
  14   2.0000      -0.706134       -19.2149
  15   2.0000      -0.703599       -19.1459
  16   2.0000      -0.674050       -18.3418
  17   2.0000      -0.639568       -17.4035
  18   2.0000      -0.616725       -16.7819
  19   2.0000      -0.571258       -15.5447
  20   2.0000      -0.543308       -14.7842
  21   2.0000      -0.522994       -14.2314
  22   2.0000      -0.488695       -13.2981
  23   2.0000      -0.462371       -12.5817
  24   0.0000      -0.163633        -4.4527
  25   0.0000      -0.154759        -4.2112
  26   0.0000      -0.121839        -3.3154
  27   0.0000      -0.115778        -3.1505
  28   0.0000      -0.092128        -2.5069

MULLIKEN ATOMIC CHARGES
-----------------------
   0 C :   -0.447953
   1 N :   -0.052174
   2 C :    0.543873
   3 N :   -0.240002
   4 N :   -0.233355
   5 H :    0.198148
   6 H :    0.172590
   7 H :    0.226387
   8 H :    0.181223
   9 H :    0.184119
  10 C :   -0.708150
  11 H :    0.218033
  12 H :    0.239519
  13 H :    0.229948
  14 H :    0.232051
  15 H :    0.255743
Sum of atomic charges:    1.0000000

LOEWDIN ATOMIC CHARGES
----------------------
   0 C :   -0.209703
   1 N :    0.084305
   2 C :   -0.438882
   3 N :    0.208841
   4 N :    0.215749
   5 H :    0.123898
   6 H :    0.136954
   7 H :    0.171221
   8 H :    0.142494
   9 H :    0.140785
  10 C :   -0.058995
  11 H :    0.131570
  12 H :    0.122311
  13 H :    0.080318
  14 H :    0.083242
  15 H :    0.065893

  Mayer bond orders larger than 0.100000
B(  0-C ,  1-N ) :   1.0104 B(  0-C , 10-C ) :   0.8916 B(  0-C , 11-H ) :   0.9543
B(  0-C , 12-H ) :   0.9069 B(  1-N ,  2-C ) :   1.2189 B(  1-N ,  3-N ) :   0.1172
B(  1-N ,  7-H ) :   0.9643 B(  2-C ,  3-N ) :   1.1223 B(  2-C ,  4-N ) :   1.1836
B(  3-N ,  8-H ) :   0.9941 B(  3-N ,  9-H ) :   1.0101 B(  4-N ,  5-H ) :   0.9348
B(  4-N ,  6-H ) :   1.0286 B( 10-C , 13-H ) :   0.9927 B( 10-C , 14-H ) :   0.9845
B( 10-C , 15-H ) :   0.9589

Dispersion correction           -0.010484929
FINAL SINGLE POINT ENERGY      -284.184596661931

DIPOLE MOMENT
-------------
                                X             Y             Z
Electronic contribution:     -1.79993       1.57415      -4.45018
Nuclear contribution   :      1.34333      -1.11039       3.43667
                        -----------------------------------------
Total Dipole Moment    :     -0.45660       0.46376      -1.01351
                        -----------------------------------------
Magnitude (a.u.)       :      1.20448
Magnitude (Debye)      :      3.06154

Rotational constants in cm-1:     0.227161     0.075356     0.065003
Rotational constants in MHz :  6810.114531  2259.122204  1948.738523

                             ****ORCA TERMINATED NORMALLY****
TOTAL RUN TIME: 0 days 0 hours 0 minutes 41 seconds 502 msec
