                         Program Version 5.0.0 -  RELEASE  -
|  1> !PBE0 D3BJ RIJCOSX def2-TZVPD def2/J TightSCF xyzfile
|  2>
|  3> *xyzfile 0 1 B.xyz
|  4>
|  5> %MaxCore 64000
|  6>
|  7> %pal nprocs 4
|  8> end
|  9>
| 10> %scf
| 11>   MaxIter 150
| 12> end
| 13>
| 14>
| 15>                          ****END OF INPUT****

CARTESIAN COORDINATES (ANGSTROEM)
---------------------------------
  C      4.490588    1.155899   -2.469290
  N      4.305394    1.222762   -3.908317
  C      4.906458   -3.102816   -5.954844
  C      3.511771   -2.806215   -6.492283
  H      2.736044   -3.373445   -5.973736
  H      3.444904   -3.040831   -7.555281
  S      3.004618   -1.096206   -6.389259
  C      4.631918    2.246365   -4.670958
  N      4.541686    2.143990   -5.987139
  N      5.084086    3.393584   -4.118545
  H      4.920675    3.570501   -3.135870
  H      5.254652    4.197390   -4.706956
  H      3.824530    0.449113   -4.350926
  H      4.343373    1.249318   -6.416646
  H      4.676712    2.956624   -6.574113
  O      4.128856   -0.329647   -6.953717
  O      1.781285   -1.000779   -7.136399
  C      5.942129    0.939500   -2.036893
  H      3.864305    0.328532   -2.136611
  H      4.076233    2.049994   -1.989010
  C      6.462677   -3.117775   -3.944671
  C      5.024977   -3.025679   -4.437625
  H      4.423321   -3.818693   -3.977648
  H      4.579350   -2.087131   -4.108727
  H      5.201533   -4.100207   -6.296905
  H      5.605922   -2.397822   -6.413368
  C      6.559957   -0.356290   -2.559086
  H      5.967976    0.952567   -0.942444
  H      6.547184    1.788331   -2.368849
  C      6.006283   -1.615917   -1.899301
  H      7.642360   -0.318000   -2.402059
  H      6.414855   -0.403433   -3.642587
  C      6.608718   -2.917014   -2.435655
  H      6.190324   -1.561115   -0.820948
  H      4.919250   -1.651245   -2.016586
  H      7.066975   -2.374258   -4.475514
  H      6.887808   -4.089747   -4.215332
  H      6.135197   -3.755573   -1.915159
  H      7.671142   -2.955503   -2.172291
  O      2.851546   -0.783683   -4.956789

 Total Charge           Charge          ....    0
 Multiplicity           Mult            ....    1
 Number of Electrons    NEL             ....  144
 Basis Dimension        Dim             ....  854

ORBITAL ENERGIES
----------------

  NO   OCC          E(Eh)            E(eV)
   0   2.0000     -89.156258     -2426.0651
   1   2.0000     -19.146013      -520.9895
   2   2.0000     -19.145594      -520.9781
   3   2.0000     -19.132021      -520.6088
   4   2.0000     -14.459022      -393.4500
   5   2.0000     -14.430074      -392.6623
   6   2.0000     -14.425509      -392.5380
   7   2.0000     -10.390736      -282.7463
   8   2.0000     -10.287271      -279.9309
   9   2.0000     -10.241806      -278.6937
  10   2.0000     -10.225161      -278.2408
  11   2.0000     -10.218367      -278.0559
  12   2.0000     -10.213277      -277.9174
  13   2.0000     -10.212587      -277.8986
  14   2.0000     -10.206157      -277.7237
  15   2.0000     -10.204239      -277.6715
  16   2.0000     -10.196684      -277.4659
  17   2.0000      -8.102807      -220.4886
  18   2.0000      -6.039880      -164.3535
  19   2.0000      -6.039270      -164.3369
  20   2.0000      -6.038305      -164.3106
  21   2.0000      -1.110806       -30.2266
  22   2.0000      -1.080022       -29.3889
  23   2.0000      -0.975977       -26.5577
  24   2.0000      -0.974397       -26.5147
  25   2.0000      -0.966066       -26.2880
  26   2.0000      -0.953825       -25.9549
  27   2.0000      -0.848221       -23.0813
  28   2.0000      -0.822143       -22.3716
  29   2.0000      -0.794774       -21.6269
  30   2.0000      -0.757271       -20.6064
  31   2.0000      -0.720979       -19.6188
  32   2.0000      -0.695729       -18.9318
  33   2.0000      -0.666690       -18.1416
  34   2.0000      -0.644328       -17.5330
  35   2.0000      -0.633681       -17.2433
  36   2.0000      -0.611940       -16.6517
  37   2.0000      -0.593402       -16.1473
  38   2.0000      -0.568145       -15.4600
  39   2.0000      -0.560695       -15.2573
  40   2.0000      -0.553609       -15.0645
  41   2.0000      -0.529826       -14.4173
  42   2.0000      -0.519219       -14.1287
  43   2.0000      -0.499514       -13.5925
  44   2.0000      -0.492873       -13.4118
  45   2.0000      -0.478971       -13.0335
  46   2.0000      -0.473968       -12.8973
  47   2.0000      -0.464175       -12.6309
  48   2.0000      -0.448710       -12.2100
  49   2.0000      -0.445154       -12.1132
  50   2.0000      -0.439661       -11.9638
  51   2.0000      -0.428789       -11.6679
  52   2.0000      -0.420581       -11.4446
  53   2.0000      -0.411550       -11.1988
  54   2.0000      -0.401462       -10.9243
  55   2.0000      -0.393268       -10.7014
  56   2.0000      -0.377289       -10.2666
  57   2.0000      -0.369374       -10.0512
  58   2.0000      -0.359860        -9.7923
  59   2.0000      -0.346150        -9.4192
  60   2.0000      -0.337593        -9.1864
  61   2.0000      -0.334325        -9.0975
  62   2.0000      -0.329995        -8.9796
  63   2.0000      -0.324994        -8.8435
  64   2.0000      -0.321823        -8.7572
  65   2.0000      -0.318890        -8.6774
  66   2.0000      -0.313785        -8.5385
  67   2.0000      -0.298687        -8.1277
  68   2.0000      -0.284429        -7.7397
  69   2.0000      -0.276259        -7.5174
  70   2.0000      -0.267409        -7.2766
  71   2.0000      -0.241722        -6.5776
  72   0.0000      -0.027414        -0.7460
  73   0.0000      -0.009153        -0.2491
  74   0.0000       0.002754         0.0750
  75   0.0000       0.017099         0.4653
  76   0.0000       0.020610         0.5608

MULLIKEN ATOMIC CHARGES
-----------------------
   0 C :   -0.855439
   1 N :    0.197814
   2 C :   -0.333431
   3 C :   -0.510289
   4 H :    0.200775
   5 H :    0.178719
   6 S :    1.276701
   7 C :    0.466210
   8 N :   -0.022938
   9 N :   -0.213275
  10 H :    0.193848
  11 H :    0.157200
  12 H :    0.061080
  13 H :    0.117571
  14 H :    0.181742
  15 O :   -0.926065
  16 O :   -0.648650
  17 C :   -0.057062
  18 H :    0.217646
  19 H :    0.244649
  20 C :   -0.226079
  21 C :   -0.106790
  22 H :    0.194584
  23 H :    0.025035
  24 H :    0.140444
  25 H :    0.173218
  26 C :   -0.149813
  27 H :    0.168276
  28 H :    0.201475
  29 C :   -0.388080
  30 H :    0.112956
  31 H :    0.116836
  32 C :   -0.415728
  33 H :    0.143365
  34 H :    0.241423
  35 H :    0.230737
  36 H :    0.153302
  37 H :    0.151558
  38 H :    0.142586
  39 O :   -0.836112
Sum of atomic charges:    0.0000000

LOEWDIN ATOMIC CHARGES
----------------------
   0 C :   -0.166387
   1 N :    0.105253
   2 C :   -0.232434
   3 C :   -0.248125
   4 H :    0.106793
   5 H :    0.101548
   6 S :    0.446053
   7 C :   -0.439068
   8 N :    0.212034
   9 N :    0.183138
  10 H :    0.108339
  11 H :    0.120125
  12 H :    0.071490
  13 H :    0.045736
  14 H :    0.129872
  15 O :   -0.370530
  16 O :   -0.318571
  17 C :   -0.189556
  18 H :    0.127323
  19 H :    0.116403
  20 C :   -0.220742
  21 C :   -0.223013
  22 H :    0.129294
  23 H :    0.082893
  24 H :    0.115268
  25 H :    0.110134
  26 C :   -0.209485
  27 H :    0.116768
  28 H :    0.102683
  29 C :   -0.219431
  30 H :    0.120283
  31 H :    0.108179
  32 C :   -0.212499
  33 H :    0.115081
  34 H :    0.104209
  35 H :    0.108834
  36 H :    0.114309
  37 H :    0.111241
  38 H :    0.109391
  39 O :   -0.372831

  Mayer bond orders larger than 0.100000
B(  0-C ,  1-N ) :   1.1867 B(  0-C ,  7-C ) :  -0.1875 B(  0-C ,  9-N ) :   0.1138
B(  0-C , 12-H ) :  -0.1714 B(  0-C , 17-C ) :   0.8550 B(  0-C , 18-H ) :   0.8731
B(  0-C , 19-H ) :   0.8286 B(  0-C , 29-C ) :   0.1909 B(  1-N ,  7-C ) :   1.1446
B(  1-N , 12-H ) :   0.9214 B(  1-N , 39-O ) :  -0.1476 B(  2-C ,  3-C ) :   1.1395
B(  2-C , 20-C ) :   0.4642 B(  2-C , 21-C ) :   0.6582 B(  2-C , 22-H ) :  -0.1257
B(  2-C , 24-H ) :   0.9662 B(  2-C , 25-H ) :   0.8542 B(  3-C ,  4-H ) :   0.9181
B(  3-C ,  5-H ) :   0.9742 B(  3-C ,  6-S ) :   0.8429 B(  3-C , 15-O ) :   0.1007
B(  3-C , 16-O ) :   0.1862 B(  3-C , 21-C ) :   0.2982 B(  6-S , 15-O ) :   1.2033
B(  6-S , 16-O ) :   1.4228 B(  6-S , 39-O ) :   1.4569 B(  7-C ,  8-N ) :   1.1792
B(  7-C ,  9-N ) :   1.1819 B(  7-C , 12-H ) :  -0.2724 B(  8-N , 13-H ) :   0.8938
B(  8-N , 14-H ) :   0.9781 B(  8-N , 15-O ) :  -0.1201 B(  9-N , 10-H ) :   0.9331
B(  9-N , 11-H ) :   1.0195 B( 12-H , 39-O ) :   0.1699 B( 13-H , 15-O ) :   0.1317
B( 15-O , 39-O ) :   0.1148 B( 17-C , 26-C ) :   1.2019 B( 17-C , 27-H ) :   0.9600
B( 17-C , 28-H ) :   0.8570 B( 17-C , 29-C ) :   0.2463 B( 20-C , 21-C ) :   0.6116
B( 20-C , 26-C ) :   0.1598 B( 20-C , 32-C ) :   1.0578 B( 20-C , 35-H ) :   0.8801
B( 20-C , 36-H ) :   0.9301 B( 21-C , 22-H ) :   0.7269 B( 21-C , 23-H ) :   1.5831
B( 21-C , 29-C ) :   0.1444 B( 21-C , 32-C ) :   0.2728 B( 21-C , 39-O ) :   0.1046
B( 22-H , 23-H ) :   0.1908 B( 23-H , 39-O ) :  -0.1708 B( 26-C , 29-C ) :   0.5420
B( 26-C , 30-H ) :   0.9171 B( 26-C , 31-H ) :   1.0693 B( 26-C , 32-C ) :   0.2382
B( 26-C , 33-H ) :  -0.1054 B( 26-C , 34-H ) :  -0.1052 B( 29-C , 32-C ) :   1.1251
B( 29-C , 33-H ) :   0.9340 B( 29-C , 34-H ) :   0.9737 B( 32-C , 37-H ) :   0.9297
B( 32-C , 38-H ) :   0.9443

Dispersion correction           -0.042828127
FINAL SINGLE POINT ENERGY     -1182.419262122480

DIPOLE MOMENT
-------------
                                X             Y             Z
Electronic contribution:    -14.52215       8.33042     -15.31979
Nuclear contribution   :     16.79156      -5.47215      17.54258
                        -----------------------------------------
Total Dipole Moment    :      2.26941       2.85827       2.22279
                        -----------------------------------------
Magnitude (a.u.)       :      4.27326
Magnitude (Debye)      :     10.86176

Rotational constants in cm-1:     0.014207     0.012373     0.007472
Rotational constants in MHz :   425.900436   370.942493   224.006604

                             ****ORCA TERMINATED NORMALLY****
TOTAL RUN TIME: 0 days 0 hours 10 minutes 28 seconds 352 msec
