                         Program Version 5.0.0 -  RELEASE  -
|  1> !PBE0 D3BJ RIJCOSX def2-TZVPD def2/J TightSCF
|  2> *xyz 0 1
|  3> C          4.90646       -3.10282       -5.95484
|  4> C          3.51177       -2.80621       -6.49228
|  5> H          2.73604       -3.37345       -5.97374
|  6> H          3.44490       -3.04083       -7.55528
|  7> S          3.00462       -1.09621       -6.38926
|  8> F          4.12886       -0.32965       -6.95372
|  9> O          1.78128       -1.00078       -7.13640
| 10> O          2.85155       -0.78368       -4.95679
| 11> H          5.62703       -2.52424       -6.49422
| 12> H          5.12164       -4.14387       -6.07654
| 13> H          4.95004       -2.84862       -4.91639
| 14> *
| 15>
| 16> %MaxCore 64000
| 17>
| 18> %pal nprocs 4
| 19> end
| 20>
| 21> %scf
| 22>   MaxIter 150
| 23> end
| 24>
| 25>
| 26>                          ****END OF INPUT****

CARTESIAN COORDINATES (ANGSTROEM)
---------------------------------
  C      4.906460   -3.102820   -5.954840
  C      3.511770   -2.806210   -6.492280
  H      2.736040   -3.373450   -5.973740
  H      3.444900   -3.040830   -7.555280
  S      3.004620   -1.096210   -6.389260
  F      4.128860   -0.329650   -6.953720
  O      1.781280   -1.000780   -7.136400
  O      2.851550   -0.783680   -4.956790
  H      5.627030   -2.524240   -6.494220
  H      5.121640   -4.143870   -6.076540
  H      4.950040   -2.848620   -4.916390

 Total Charge           Charge          ....    0
 Multiplicity           Mult            ....    1
 Number of Electrons    NEL             ....   58
 Basis Dimension        Dim             ....  285

ORBITAL ENERGIES
----------------

  NO   OCC          E(Eh)            E(eV)
   0   2.0000     -89.260806     -2428.9100
   1   2.0000     -24.878634      -676.9821
   2   2.0000     -19.222497      -523.0707
   3   2.0000     -19.210759      -522.7513
   4   2.0000     -10.286205      -279.9019
   5   2.0000     -10.243591      -278.7423
   6   2.0000      -8.207139      -223.3276
   7   2.0000      -6.147598      -167.2847
   8   2.0000      -6.141244      -167.1117
   9   2.0000      -6.140859      -167.1013
  10   2.0000      -1.391964       -37.8773
  11   2.0000      -1.138150       -30.9706
  12   2.0000      -1.039964       -28.2989
  13   2.0000      -0.852706       -23.2033
  14   2.0000      -0.747857       -20.3502
  15   2.0000      -0.696802       -18.9609
  16   2.0000      -0.602444       -16.3933
  17   2.0000      -0.587625       -15.9901
  18   2.0000      -0.564920       -15.3722
  19   2.0000      -0.512055       -13.9337
  20   2.0000      -0.493287       -13.4230
  21   2.0000      -0.470617       -12.8061
  22   2.0000      -0.453239       -12.3333
  23   2.0000      -0.425991       -11.5918
  24   2.0000      -0.414204       -11.2711
  25   2.0000      -0.396359       -10.7855
  26   2.0000      -0.352740        -9.5985
  27   2.0000      -0.341269        -9.2864
  28   2.0000      -0.326460        -8.8834
  29   0.0000      -0.006946        -0.1890
  30   0.0000       0.023637         0.6432
  31   0.0000       0.025997         0.7074
  32   0.0000       0.030060         0.8180
  33   0.0000       0.047330         1.2879

MULLIKEN ATOMIC CHARGES
-----------------------
   0 C :   -0.867409
   1 C :   -0.103114
   2 H :    0.213629
   3 H :    0.223032
   4 S :    1.036700
   5 F :   -0.137993
   6 O :   -0.520039
   7 O :   -0.560860
   8 H :    0.266156
   9 H :    0.191010
  10 H :    0.258888
Sum of atomic charges:   -0.0000000

LOEWDIN ATOMIC CHARGES
----------------------
   0 C :   -0.112343
   1 C :   -0.283423
   2 H :    0.114507
   3 H :    0.102159
   4 S :    0.589800
   5 F :   -0.072892
   6 O :   -0.267048
   7 O :   -0.291284
   8 H :    0.069931
   9 H :    0.074549
  10 H :    0.076046

  Mayer bond orders larger than 0.100000
B(  0-C ,  1-C ) :   0.8951 B(  0-C ,  8-H ) :   0.9345 B(  0-C ,  9-H ) :   0.9889
B(  0-C , 10-H ) :   0.9761 B(  1-C ,  2-H ) :   0.9289 B(  1-C ,  3-H ) :   0.9402
B(  1-C ,  4-S ) :   0.8144 B(  1-C ,  6-O ) :   0.1065 B(  4-S ,  5-F ) :   1.0265
B(  4-S ,  6-O ) :   1.7590 B(  4-S ,  7-O ) :   1.7123

Dispersion correction           -0.007860972
FINAL SINGLE POINT ENERGY      -727.366233734233

DIPOLE MOMENT
-------------
                                X             Y             Z
Electronic contribution:     -2.98954       8.19042      -1.74214
Nuclear contribution   :      4.18919      -9.36357       1.23251
                        -----------------------------------------
Total Dipole Moment    :      1.19965      -1.17315      -0.50963
                        -----------------------------------------
Magnitude (a.u.)       :      1.75362
Magnitude (Debye)      :      4.45734

Rotational constants in cm-1:     0.153152     0.082513     0.079874
Rotational constants in MHz :  4591.373714  2473.673397  2394.575279

                             ****ORCA TERMINATED NORMALLY****
TOTAL RUN TIME: 0 days 0 hours 0 minutes 33 seconds 151 msec
