                         Program Version 5.0.0 -  RELEASE  -
|  1> !PBE0 D3BJ RIJCOSX def2-TZVPD def2/J TightSCF
|  2> *xyz 0 1
|  3> C          4.49059        1.15590       -2.46929
|  4> C          4.30539        1.22276       -3.90832
|  5> C          4.63192        2.24637       -4.67096
|  6> N          4.54169        2.14399       -5.98714
|  7> N          5.08409        3.39358       -4.11855
|  8> H          4.92067        3.57050       -3.13587
|  9> H          5.25465        4.19739       -4.70696
| 10> H          3.82453        0.44911       -4.35093
| 11> H          4.34337        1.24932       -6.41665
| 12> H          4.67671        2.95662       -6.57411
| 13> C          5.94213        0.93950       -2.03689
| 14> H          3.86431        0.32853       -2.13661
| 15> H          4.07623        2.04999       -1.98901
| 16> H          6.32982        0.06401       -2.51451
| 17> H          5.98308        0.81426       -0.97504
| 18> H          6.52865        1.78889       -2.31873
| 19> *
| 20>
| 21> %MaxCore 64000
| 22>
| 23> %pal nprocs 4
| 24> end
| 25>
| 26> %scf
| 27>   MaxIter 150
| 28> end
| 29>
| 30>
| 31>                          ****END OF INPUT****

CARTESIAN COORDINATES (ANGSTROEM)
---------------------------------
  C      4.490590    1.155900   -2.469290
  C      4.305390    1.222760   -3.908320
  C      4.631920    2.246370   -4.670960
  N      4.541690    2.143990   -5.987140
  N      5.084090    3.393580   -4.118550
  H      4.920670    3.570500   -3.135870
  H      5.254650    4.197390   -4.706960
  H      3.824530    0.449110   -4.350930
  H      4.343370    1.249320   -6.416650
  H      4.676710    2.956620   -6.574110
  C      5.942130    0.939500   -2.036890
  H      3.864310    0.328530   -2.136610
  H      4.076230    2.049990   -1.989010
  H      6.329820    0.064010   -2.514510
  H      5.983080    0.814260   -0.975040
  H      6.528650    1.788890   -2.318730

 Total Charge           Charge          ....    0
 Multiplicity           Mult            ....    1
 Number of Electrons    NEL             ....   48
 Basis Dimension        Dim             ....  312

ORBITAL ENERGIES
----------------

  NO   OCC          E(Eh)            E(eV)
   0   2.0000     -14.384856      -391.4318
   1   2.0000     -14.382725      -391.3738
   2   2.0000     -10.262714      -279.2626
   3   2.0000     -10.194534      -277.4074
   4   2.0000     -10.180717      -277.0314
   5   2.0000     -10.141769      -275.9716
   6   2.0000      -0.987068       -26.8595
   7   2.0000      -0.895495       -24.3676
   8   2.0000      -0.795515       -21.6471
   9   2.0000      -0.715693       -19.4750
  10   2.0000      -0.636937       -17.3319
  11   2.0000      -0.593967       -16.1627
  12   2.0000      -0.557139       -15.1605
  13   2.0000      -0.524142       -14.2626
  14   2.0000      -0.488939       -13.3047
  15   2.0000      -0.450268       -12.2524
  16   2.0000      -0.434061       -11.8114
  17   2.0000      -0.403331       -10.9752
  18   2.0000      -0.397007       -10.8031
  19   2.0000      -0.361939        -9.8489
  20   2.0000      -0.339528        -9.2390
  21   2.0000      -0.327358        -8.9079
  22   2.0000      -0.277338        -7.5467
  23   2.0000      -0.170449        -4.6382
  24   0.0000       0.004289         0.1167
  25   0.0000       0.030039         0.8174
  26   0.0000       0.038177         1.0389
  27   0.0000       0.047984         1.3057
  28   0.0000       0.065118         1.7720

MULLIKEN ATOMIC CHARGES
-----------------------
   0 C :   -0.293370
   1 C :   -0.569781
   2 C :    0.434132
   3 N :   -0.319658
   4 N :   -0.266200
   5 H :    0.168663
   6 H :    0.121544
   7 H :    0.266665
   8 H :    0.153581
   9 H :    0.129818
  10 C :   -0.808198
  11 H :    0.120276
  12 H :    0.211613
  13 H :    0.235766
  14 H :    0.185200
  15 H :    0.229948
Sum of atomic charges:    0.0000000

LOEWDIN ATOMIC CHARGES
----------------------
   0 C :   -0.290972
   1 C :   -0.150635
   2 C :   -0.547026
   3 N :    0.108279
   4 N :    0.129821
   5 H :    0.097781
   6 H :    0.097801
   7 H :    0.067249
   8 H :    0.113482
   9 H :    0.099531
  10 C :   -0.108204
  11 H :    0.104181
  12 H :    0.097816
  13 H :    0.067097
  14 H :    0.057219
  15 H :    0.056579

  Mayer bond orders larger than 0.100000
B(  0-C ,  1-C ) :   1.0678 B(  0-C ,  2-C ) :   0.2317 B(  0-C , 10-C ) :   0.7579
B(  0-C , 11-H ) :   1.0612 B(  0-C , 12-H ) :   0.8725 B(  1-C ,  2-C ) :   1.1786
B(  1-C ,  3-N ) :   0.1138 B(  1-C ,  7-H ) :   0.9377 B(  1-C , 10-C ) :   0.2213
B(  2-C ,  3-N ) :   1.0003 B(  2-C ,  4-N ) :   1.0689 B(  2-C ,  7-H ) :  -0.1430
B(  3-N ,  8-H ) :   1.0138 B(  3-N ,  9-H ) :   1.0534 B(  4-N ,  5-H ) :   0.9514
B(  4-N ,  6-H ) :   1.0618 B( 10-C , 13-H ) :   1.0008 B( 10-C , 14-H ) :   0.9975
B( 10-C , 15-H ) :   0.9863

Dispersion correction           -0.010907523
FINAL SINGLE POINT ENERGY      -267.709916429788

DIPOLE MOMENT
-------------
                                X             Y             Z
Electronic contribution:     -1.26322       1.96530      -4.12289
Nuclear contribution   :      1.23062      -1.24683       3.43056
                        -----------------------------------------
Total Dipole Moment    :     -0.03260       0.71847      -0.69233
                        -----------------------------------------
Magnitude (a.u.)       :      0.99829
Magnitude (Debye)      :      2.53744

Rotational constants in cm-1:     0.231477     0.075416     0.065327
Rotational constants in MHz :  6939.497385  2260.912204  1958.442932

                             ****ORCA TERMINATED NORMALLY****
TOTAL RUN TIME: 0 days 0 hours 0 minutes 45 seconds 455 msec
