                         Program Version 5.0.0 -  RELEASE  -
|  1> !PBE0 D3BJ RIJCOSX def2-TZVPD def2/J TightSCF
|  2> *xyz 0 1
|  3> C          4.90646       -3.10282       -5.95484
|  4> C          3.51177       -2.80621       -6.49228
|  5> H          2.73604       -3.37345       -5.97374
|  6> H          3.44490       -3.04083       -7.55528
|  7> S          3.00462       -1.09621       -6.38926
|  8> O          4.12886       -0.32965       -6.95372
|  9> F          1.78128       -1.00078       -7.13640
| 10> O          2.85155       -0.78368       -4.95679
| 11> H          5.62703       -2.52424       -6.49422
| 12> H          5.12164       -4.14387       -6.07654
| 13> H          4.95004       -2.84862       -4.91639
| 14> *
| 15>
| 16> %MaxCore 64000
| 17>
| 18> %pal nprocs 4
| 19> end
| 20>
| 21> %scf
| 22>   MaxIter 150
| 23> end
| 24>
| 25>
| 26>                          ****END OF INPUT****

CARTESIAN COORDINATES (ANGSTROEM)
---------------------------------
  C      4.906460   -3.102820   -5.954840
  C      3.511770   -2.806210   -6.492280
  H      2.736040   -3.373450   -5.973740
  H      3.444900   -3.040830   -7.555280
  S      3.004620   -1.096210   -6.389260
  O      4.128860   -0.329650   -6.953720
  F      1.781280   -1.000780   -7.136400
  O      2.851550   -0.783680   -4.956790
  H      5.627030   -2.524240   -6.494220
  H      5.121640   -4.143870   -6.076540
  H      4.950040   -2.848620   -4.916390

 Total Charge           Charge          ....    0
 Multiplicity           Mult            ....    1
 Number of Electrons    NEL             ....   58
 Basis Dimension        Dim             ....  285

ORBITAL ENERGIES
----------------

  NO   OCC          E(Eh)            E(eV)
   0   2.0000     -89.262965     -2428.9688
   1   2.0000     -24.897547      -677.4967
   2   2.0000     -19.210927      -522.7559
   3   2.0000     -19.210904      -522.7553
   4   2.0000     -10.287008      -279.9237
   5   2.0000     -10.239292      -278.6253
   6   2.0000      -8.209238      -223.3847
   7   2.0000      -6.149519      -167.3369
   8   2.0000      -6.143332      -167.1686
   9   2.0000      -6.143027      -167.1603
  10   2.0000      -1.422957       -38.7206
  11   2.0000      -1.124290       -30.5935
  12   2.0000      -1.026564       -27.9342
  13   2.0000      -0.849762       -23.1232
  14   2.0000      -0.762751       -20.7555
  15   2.0000      -0.698483       -19.0067
  16   2.0000      -0.610323       -16.6077
  17   2.0000      -0.607967       -16.5436
  18   2.0000      -0.574791       -15.6409
  19   2.0000      -0.512421       -13.9437
  20   2.0000      -0.495871       -13.4933
  21   2.0000      -0.456030       -12.4092
  22   2.0000      -0.446586       -12.1522
  23   2.0000      -0.423480       -11.5235
  24   2.0000      -0.403242       -10.9728
  25   2.0000      -0.394049       -10.7226
  26   2.0000      -0.340637        -9.2692
  27   2.0000      -0.339579        -9.2404
  28   2.0000      -0.315171        -8.5762
  29   0.0000      -0.003613        -0.0983
  30   0.0000       0.014296         0.3890
  31   0.0000       0.030038         0.8174
  32   0.0000       0.030159         0.8207
  33   0.0000       0.049581         1.3492

MULLIKEN ATOMIC CHARGES
-----------------------
   0 C :   -0.869522
   1 C :   -0.133387
   2 H :    0.228530
   3 H :    0.227792
   4 S :    1.034416
   5 O :   -0.558063
   6 F :   -0.088781
   7 O :   -0.553681
   8 H :    0.261049
   9 H :    0.196045
  10 H :    0.255603
Sum of atomic charges:   -0.0000000

LOEWDIN ATOMIC CHARGES
----------------------
   0 C :   -0.100971
   1 C :   -0.293604
   2 H :    0.103352
   3 H :    0.100041
   4 S :    0.591417
   5 O :   -0.291971
   6 F :   -0.045911
   7 O :   -0.292184
   8 H :    0.074870
   9 H :    0.076134
  10 H :    0.078826

  Mayer bond orders larger than 0.100000
B(  0-C ,  1-C ) :   0.9625 B(  0-C ,  8-H ) :   0.9567 B(  0-C ,  9-H ) :   0.9743
B(  0-C , 10-H ) :   0.9528 B(  1-C ,  2-H ) :   0.9146 B(  1-C ,  3-H ) :   0.9061
B(  1-C ,  4-S ) :   0.8216 B(  4-S ,  5-O ) :   1.7149 B(  4-S ,  6-F ) :   1.0640
B(  4-S ,  7-O ) :   1.7137

Dispersion correction           -0.007906816
FINAL SINGLE POINT ENERGY      -727.351060103942

DIPOLE MOMENT
-------------
                                X             Y             Z
Electronic contribution:     -6.94767       7.07552      -2.04726
Nuclear contribution   :      6.63544      -8.66423       1.42287
                        -----------------------------------------
Total Dipole Moment    :     -0.31223      -1.58871      -0.62439
                        -----------------------------------------
Magnitude (a.u.)       :      1.73532
Magnitude (Debye)      :      4.41084

Rotational constants in cm-1:     0.158118     0.080978     0.078216
Rotational constants in MHz :  4740.271775  2427.649826  2344.849020

                             ****ORCA TERMINATED NORMALLY****
TOTAL RUN TIME: 0 days 0 hours 0 minutes 33 seconds 69 msec
