                         Program Version 5.0.0 -  RELEASE  -
|  1> !PBE0 D3BJ RIJCOSX def2-TZVPD def2/J TightSCF
|  2> *xyz 0 1
|  3> C          4.49059        1.15590       -2.46929
|  4> N          4.30539        1.22276       -3.90832
|  5> C          4.63192        2.24637       -4.67096
|  6> C          4.54169        2.14399       -5.98714
|  7> N          5.08409        3.39358       -4.11855
|  8> H          4.92067        3.57050       -3.13587
|  9> H          5.25465        4.19739       -4.70696
| 10> H          3.82453        0.44911       -4.35093
| 11> H          4.34337        1.24932       -6.41665
| 12> H          4.67671        2.95662       -6.57411
| 13> C          5.94213        0.93950       -2.03689
| 14> H          3.86431        0.32853       -2.13661
| 15> H          4.07623        2.04999       -1.98901
| 16> H          6.32982        0.06401       -2.51451
| 17> H          5.98308        0.81426       -0.97504
| 18> H          6.52865        1.78889       -2.31873
| 19> *
| 20>
| 21> %MaxCore 64000
| 22>
| 23> %pal nprocs 4
| 24> end
| 25>
| 26> %scf
| 27>   MaxIter 150
| 28> end
| 29>
| 30>
| 31>                          ****END OF INPUT****

CARTESIAN COORDINATES (ANGSTROEM)
---------------------------------
  C      4.490590    1.155900   -2.469290
  N      4.305390    1.222760   -3.908320
  C      4.631920    2.246370   -4.670960
  C      4.541690    2.143990   -5.987140
  N      5.084090    3.393580   -4.118550
  H      4.920670    3.570500   -3.135870
  H      5.254650    4.197390   -4.706960
  H      3.824530    0.449110   -4.350930
  H      4.343370    1.249320   -6.416650
  H      4.676710    2.956620   -6.574110
  C      5.942130    0.939500   -2.036890
  H      3.864310    0.328530   -2.136610
  H      4.076230    2.049990   -1.989010
  H      6.329820    0.064010   -2.514510
  H      5.983080    0.814260   -0.975040
  H      6.528650    1.788890   -2.318730

 Total Charge           Charge          ....    0
 Multiplicity           Mult            ....    1
 Number of Electrons    NEL             ....   48
 Basis Dimension        Dim             ....  312

ORBITAL ENERGIES
----------------

  NO   OCC          E(Eh)            E(eV)
   0   2.0000     -14.385482      -391.4489
   1   2.0000     -14.382381      -391.3645
   2   2.0000     -10.264404      -279.3086
   3   2.0000     -10.261706      -279.2352
   4   2.0000     -10.206636      -277.7367
   5   2.0000     -10.129734      -275.6441
   6   2.0000      -0.995373       -27.0855
   7   2.0000      -0.907024       -24.6814
   8   2.0000      -0.793587       -21.5946
   9   2.0000      -0.723603       -19.6902
  10   2.0000      -0.650016       -17.6878
  11   2.0000      -0.614758       -16.7284
  12   2.0000      -0.550761       -14.9870
  13   2.0000      -0.513037       -13.9604
  14   2.0000      -0.494295       -13.4504
  15   2.0000      -0.461401       -12.5554
  16   2.0000      -0.437211       -11.8971
  17   2.0000      -0.415746       -11.3130
  18   2.0000      -0.394071       -10.7232
  19   2.0000      -0.386916       -10.5285
  20   2.0000      -0.371561       -10.1107
  21   2.0000      -0.364579        -9.9207
  22   2.0000      -0.266639        -7.2556
  23   2.0000      -0.172386        -4.6909
  24   0.0000       0.004831         0.1315
  25   0.0000       0.030568         0.8318
  26   0.0000       0.033756         0.9186
  27   0.0000       0.039564         1.0766
  28   0.0000       0.067199         1.8286

MULLIKEN ATOMIC CHARGES
-----------------------
   0 C :   -0.381815
   1 N :   -0.052506
   2 C :    0.746378
   3 C :   -1.231024
   4 N :   -0.282689
   5 H :    0.149302
   6 H :    0.142423
   7 H :    0.185030
   8 H :    0.230107
   9 H :    0.167302
  10 C :   -0.722891
  11 H :    0.179955
  12 H :    0.211316
  13 H :    0.196401
  14 H :    0.215445
  15 H :    0.247267
Sum of atomic charges:   -0.0000000

LOEWDIN ATOMIC CHARGES
----------------------
   0 C :   -0.248561
   1 N :    0.014441
   2 C :   -0.568694
   3 C :   -0.004064
   4 N :    0.122291
   5 H :    0.088385
   6 H :    0.109355
   7 H :    0.148426
   8 H :    0.009051
   9 H :    0.005878
  10 C :   -0.086622
  11 H :    0.113495
  12 H :    0.105106
  13 H :    0.069459
  14 H :    0.063108
  15 H :    0.058947

  Mayer bond orders larger than 0.100000
B(  0-C ,  1-N ) :   0.9667 B(  0-C , 10-C ) :   0.8693 B(  0-C , 11-H ) :   0.9987
B(  0-C , 12-H ) :   0.9227 B(  1-N ,  2-C ) :   1.1274 B(  1-N ,  7-H ) :   0.9621
B(  2-C ,  3-C ) :   1.1289 B(  2-C ,  4-N ) :   1.0335 B(  2-C ,  9-H ) :  -0.1059
B(  3-C ,  8-H ) :   0.9667 B(  3-C ,  9-H ) :   1.1399 B(  4-N ,  5-H ) :   0.9881
B(  4-N ,  6-H ) :   1.0252 B( 10-C , 13-H ) :   1.0155 B( 10-C , 14-H ) :   0.9919
B( 10-C , 15-H ) :   0.9875

Dispersion correction           -0.010814643
FINAL SINGLE POINT ENERGY      -267.701054911112

DIPOLE MOMENT
-------------
                                X             Y             Z
Electronic contribution:     -1.41391       1.07255      -1.93605
Nuclear contribution   :      1.28075      -1.05140       2.98955
                        -----------------------------------------
Total Dipole Moment    :     -0.13317       0.02116       1.05351
                        -----------------------------------------
Magnitude (a.u.)       :      1.06210
Magnitude (Debye)      :      2.69965

Rotational constants in cm-1:     0.229858     0.078444     0.067377
Rotational constants in MHz :  6890.979812  2351.691803  2019.910665

                             ****ORCA TERMINATED NORMALLY****
TOTAL RUN TIME: 0 days 0 hours 0 minutes 49 seconds 205 msec
