                         Program Version 5.0.0 -  RELEASE  -
|  1> !PBE0 D3BJ RIJCOSX def2-TZVPD def2/J TightSCF
|  2> *xyz 0 1
|  3> C          4.90646       -3.10282       -5.95484
|  4> C          3.51177       -2.80621       -6.49228
|  5> H          2.73604       -3.37345       -5.97374
|  6> H          3.44490       -3.04083       -7.55528
|  7> S          3.00462       -1.09621       -6.38926
|  8> O          4.12886       -0.32965       -6.95372
|  9> O          1.78128       -1.00078       -7.13640
| 10> F          2.85155       -0.78368       -4.95679
| 11> H          5.62703       -2.52424       -6.49422
| 12> H          5.12164       -4.14387       -6.07654
| 13> H          4.95004       -2.84862       -4.91639
| 14> *
| 15>
| 16> %MaxCore 64000
| 17>
| 18> %pal nprocs 4
| 19> end
| 20>
| 21> %scf
| 22>   MaxIter 150
| 23> end
| 24>
| 25>
| 26>                          ****END OF INPUT****

CARTESIAN COORDINATES (ANGSTROEM)
---------------------------------
  C      4.906460   -3.102820   -5.954840
  C      3.511770   -2.806210   -6.492280
  H      2.736040   -3.373450   -5.973740
  H      3.444900   -3.040830   -7.555280
  S      3.004620   -1.096210   -6.389260
  O      4.128860   -0.329650   -6.953720
  O      1.781280   -1.000780   -7.136400
  F      2.851550   -0.783680   -4.956790
  H      5.627030   -2.524240   -6.494220
  H      5.121640   -4.143870   -6.076540
  H      4.950040   -2.848620   -4.916390

 Total Charge           Charge          ....    0
 Multiplicity           Mult            ....    1
 Number of Electrons    NEL             ....   58
 Basis Dimension        Dim             ....  285

ORBITAL ENERGIES
----------------

  NO   OCC          E(Eh)            E(eV)
   0   2.0000     -89.260872     -2428.9118
   1   2.0000     -24.878363      -676.9747
   2   2.0000     -19.222706      -523.0764
   3   2.0000     -19.211089      -522.7603
   4   2.0000     -10.286072      -279.8983
   5   2.0000     -10.240558      -278.6597
   6   2.0000      -8.207201      -223.3293
   7   2.0000      -6.147610      -167.2850
   8   2.0000      -6.141420      -167.1165
   9   2.0000      -6.140858      -167.1012
  10   2.0000      -1.391091       -37.8535
  11   2.0000      -1.138323       -30.9754
  12   2.0000      -1.041579       -28.3428
  13   2.0000      -0.850398       -23.1405
  14   2.0000      -0.747279       -20.3345
  15   2.0000      -0.695651       -18.9296
  16   2.0000      -0.599725       -16.3193
  17   2.0000      -0.586651       -15.9636
  18   2.0000      -0.566655       -15.4195
  19   2.0000      -0.510597       -13.8940
  20   2.0000      -0.495697       -13.4886
  21   2.0000      -0.472090       -12.8462
  22   2.0000      -0.448972       -12.2172
  23   2.0000      -0.422174       -11.4879
  24   2.0000      -0.414716       -11.2850
  25   2.0000      -0.393810       -10.7161
  26   2.0000      -0.353008        -9.6058
  27   2.0000      -0.341755        -9.2996
  28   2.0000      -0.328021        -8.9259
  29   0.0000      -0.006409        -0.1744
  30   0.0000       0.022399         0.6095
  31   0.0000       0.027090         0.7372
  32   0.0000       0.028510         0.7758
  33   0.0000       0.046046         1.2530

MULLIKEN ATOMIC CHARGES
-----------------------
   0 C :   -0.847266
   1 C :   -0.125158
   2 H :    0.234304
   3 H :    0.209331
   4 S :    1.037254
   5 O :   -0.562041
   6 O :   -0.522388
   7 F :   -0.134896
   8 H :    0.260338
   9 H :    0.193443
  10 H :    0.257079
Sum of atomic charges:   -0.0000000

LOEWDIN ATOMIC CHARGES
----------------------
   0 C :   -0.112252
   1 C :   -0.284750
   2 H :    0.103462
   3 H :    0.111729
   4 S :    0.591666
   5 O :   -0.289990
   6 O :   -0.267309
   7 F :   -0.072938
   8 H :    0.073135
   9 H :    0.074189
  10 H :    0.073057

  Mayer bond orders larger than 0.100000
B(  0-C ,  1-C ) :   0.9141 B(  0-C ,  8-H ) :   0.9826 B(  0-C ,  9-H ) :   0.9867
B(  0-C , 10-H ) :   0.9312 B(  1-C ,  2-H ) :   0.9196 B(  1-C ,  3-H ) :   0.9339
B(  1-C ,  4-S ) :   0.8211 B(  1-C ,  6-O ) :   0.1106 B(  4-S ,  5-O ) :   1.7122
B(  4-S ,  6-O ) :   1.7572 B(  4-S ,  7-F ) :   1.0202

Dispersion correction           -0.007873002
FINAL SINGLE POINT ENERGY      -727.366567747680

DIPOLE MOMENT
-------------
                                X             Y             Z
Electronic contribution:     -5.15171       7.43564       1.63802
Nuclear contribution   :      5.52019      -8.89046      -0.84835
                        -----------------------------------------
Total Dipole Moment    :      0.36848      -1.45481       0.78967
                        -----------------------------------------
Magnitude (a.u.)       :      1.69583
Magnitude (Debye)      :      4.31045

Rotational constants in cm-1:     0.153332     0.082132     0.079755
Rotational constants in MHz :  4596.775407  2462.251277  2391.008596

                             ****ORCA TERMINATED NORMALLY****
TOTAL RUN TIME: 0 days 0 hours 0 minutes 32 seconds 980 msec
