                         Program Version 5.0.0 -  RELEASE  -
|  1> !PBE0 D3BJ RIJCOSX def2-TZVPD def2/J TightSCF
|  2> *xyz 0 1
|  3> C          4.49059        1.15590       -2.46929
|  4> N          4.30539        1.22276       -3.90832
|  5> C          4.63192        2.24637       -4.67096
|  6> N          4.54169        2.14399       -5.98714
|  7> C          5.08409        3.39358       -4.11855
|  8> H          4.92067        3.57050       -3.13587
|  9> H          5.25465        4.19739       -4.70696
| 10> H          3.82453        0.44911       -4.35093
| 11> H          4.34337        1.24932       -6.41665
| 12> H          4.67671        2.95662       -6.57411
| 13> C          5.94213        0.93950       -2.03689
| 14> H          3.86431        0.32853       -2.13661
| 15> H          4.07623        2.04999       -1.98901
| 16> H          6.32982        0.06401       -2.51451
| 17> H          5.98308        0.81426       -0.97504
| 18> H          6.52865        1.78889       -2.31873
| 19> *
| 20>
| 21> %MaxCore 64000
| 22>
| 23> %pal nprocs 4
| 24> end
| 25>
| 26> %scf
| 27>   MaxIter 150
| 28> end
| 29>
| 30>
| 31>                          ****END OF INPUT****

CARTESIAN COORDINATES (ANGSTROEM)
---------------------------------
  C      4.490590    1.155900   -2.469290
  N      4.305390    1.222760   -3.908320
  C      4.631920    2.246370   -4.670960
  N      4.541690    2.143990   -5.987140
  C      5.084090    3.393580   -4.118550
  H      4.920670    3.570500   -3.135870
  H      5.254650    4.197390   -4.706960
  H      3.824530    0.449110   -4.350930
  H      4.343370    1.249320   -6.416650
  H      4.676710    2.956620   -6.574110
  C      5.942130    0.939500   -2.036890
  H      3.864310    0.328530   -2.136610
  H      4.076230    2.049990   -1.989010
  H      6.329820    0.064010   -2.514510
  H      5.983080    0.814260   -0.975040
  H      6.528650    1.788890   -2.318730

 Total Charge           Charge          ....    0
 Multiplicity           Mult            ....    1
 Number of Electrons    NEL             ....   48
 Basis Dimension        Dim             ....  312

ORBITAL ENERGIES
----------------

  NO   OCC          E(Eh)            E(eV)
   0   2.0000     -14.389529      -391.5590
   1   2.0000     -14.384967      -391.4349
   2   2.0000     -10.267336      -279.3884
   3   2.0000     -10.253730      -279.0182
   4   2.0000     -10.196549      -277.4622
   5   2.0000     -10.131324      -275.6873
   6   2.0000      -0.999475       -27.1971
   7   2.0000      -0.914157       -24.8755
   8   2.0000      -0.774613       -21.0783
   9   2.0000      -0.728643       -19.8274
  10   2.0000      -0.659322       -17.9411
  11   2.0000      -0.579655       -15.7732
  12   2.0000      -0.568334       -15.4652
  13   2.0000      -0.537071       -14.6144
  14   2.0000      -0.484229       -13.1765
  15   2.0000      -0.452235       -12.3059
  16   2.0000      -0.426693       -11.6109
  17   2.0000      -0.409135       -11.1331
  18   2.0000      -0.393304       -10.7023
  19   2.0000      -0.377115       -10.2618
  20   2.0000      -0.373480       -10.1629
  21   2.0000      -0.356195        -9.6926
  22   2.0000      -0.262342        -7.1387
  23   2.0000      -0.174078        -4.7369
  24   0.0000       0.005546         0.1509
  25   0.0000       0.027400         0.7456
  26   0.0000       0.036149         0.9837
  27   0.0000       0.044713         1.2167
  28   0.0000       0.067723         1.8428

MULLIKEN ATOMIC CHARGES
-----------------------
   0 C :   -0.339494
   1 N :   -0.120794
   2 C :    0.790776
   3 N :   -0.288429
   4 C :   -1.232208
   5 H :    0.199366
   6 H :    0.199010
   7 H :    0.196721
   8 H :    0.136957
   9 H :    0.153173
  10 C :   -0.767158
  11 H :    0.196603
  12 H :    0.199572
  13 H :    0.193158
  14 H :    0.220996
  15 H :    0.261753
Sum of atomic charges:   -0.0000000

LOEWDIN ATOMIC CHARGES
----------------------
   0 C :   -0.244808
   1 N :    0.009204
   2 C :   -0.570497
   3 N :    0.114075
   4 C :    0.004994
   5 H :    0.000078
   6 H :    0.004789
   7 H :    0.139615
   8 H :    0.102444
   9 H :    0.113132
  10 C :   -0.085527
  11 H :    0.112149
  12 H :    0.110819
  13 H :    0.066828
  14 H :    0.064130
  15 H :    0.058574

  Mayer bond orders larger than 0.100000
B(  0-C ,  1-N ) :   0.9776 B(  0-C ,  4-C ) :   0.1373 B(  0-C , 10-C ) :   0.8795
B(  0-C , 11-H ) :   0.9407 B(  0-C , 12-H ) :   0.9325 B(  1-N ,  2-C ) :   1.0992
B(  1-N ,  7-H ) :   0.9814 B(  1-N , 10-C ) :   0.1034 B(  2-C ,  3-N ) :   0.9844
B(  2-C ,  4-C ) :   1.1446 B(  2-C ,  6-H ) :  -0.1033 B(  3-N ,  8-H ) :   1.0408
B(  3-N ,  9-H ) :   1.0112 B(  4-C ,  5-H ) :   1.0024 B(  4-C ,  6-H ) :   1.0814
B( 10-C , 13-H ) :   1.0039 B( 10-C , 14-H ) :   0.9653 B( 10-C , 15-H ) :   1.0067

Dispersion correction           -0.010882335
FINAL SINGLE POINT ENERGY      -267.700800813134

DIPOLE MOMENT
-------------
                                X             Y             Z
Electronic contribution:     -1.88873      -0.12917      -3.82205
Nuclear contribution   :      1.39581      -0.78630       3.38596
                        -----------------------------------------
Total Dipole Moment    :     -0.49292      -0.91548      -0.43608
                        -----------------------------------------
Magnitude (a.u.)       :      1.12749
Magnitude (Debye)      :      2.86586

Rotational constants in cm-1:     0.239249     0.075811     0.066261
Rotational constants in MHz :  7172.504830  2272.756282  1986.457543

                             ****ORCA TERMINATED NORMALLY****
TOTAL RUN TIME: 0 days 0 hours 0 minutes 46 seconds 75 msec
