                         Program Version 5.0.0 -  RELEASE  -
|  1> !PBE0 D3BJ RIJCOSX def2-TZVPD def2/J TightSCF xyzfile
|  2>
|  3> *xyzfile 0 1 D1.xyz
|  4>
|  5> %MaxCore 64000
|  6>
|  7> %pal nprocs 4
|  8> end
|  9>
| 10> %scf
| 11>   MaxIter 150
| 12> end
| 13>
| 14>
| 15>                          ****END OF INPUT****

CARTESIAN COORDINATES (ANGSTROEM)
---------------------------------
  C      4.490588    1.155899   -2.469290
  C      4.305394    1.222762   -3.908317
  C      4.906458   -3.102816   -5.954844
  C      3.511771   -2.806215   -6.492283
  H      2.736044   -3.373445   -5.973736
  H      3.444904   -3.040831   -7.555281
  S      3.004618   -1.096206   -6.389259
  C      4.631918    2.246365   -4.670958
  N      4.541686    2.143990   -5.987139
  N      5.084086    3.393584   -4.118545
  H      4.920675    3.570501   -3.135870
  H      5.254652    4.197390   -4.706956
  H      3.824530    0.449113   -4.350926
  H      4.343373    1.249318   -6.416646
  H      4.676712    2.956624   -6.574113
  F      4.128856   -0.329647   -6.953717
  O      1.781285   -1.000779   -7.136399
  C      5.942129    0.939500   -2.036893
  H      3.864305    0.328532   -2.136611
  H      4.076233    2.049994   -1.989010
  C      6.462677   -3.117775   -3.944671
  C      5.024977   -3.025679   -4.437625
  H      4.423321   -3.818693   -3.977648
  H      4.579350   -2.087131   -4.108727
  H      5.201533   -4.100207   -6.296905
  H      5.605922   -2.397822   -6.413368
  C      6.559957   -0.356290   -2.559086
  H      5.967976    0.952567   -0.942444
  H      6.547184    1.788331   -2.368849
  C      6.006283   -1.615917   -1.899301
  H      7.642360   -0.318000   -2.402059
  H      6.414855   -0.403433   -3.642587
  C      6.608718   -2.917014   -2.435655
  H      6.190324   -1.561115   -0.820948
  H      4.919250   -1.651245   -2.016586
  H      7.066975   -2.374258   -4.475514
  H      6.887808   -4.089747   -4.215332
  H      6.135197   -3.755573   -1.915159
  H      7.671142   -2.955503   -2.172291
  O      2.851546   -0.783683   -4.956789

 Total Charge           Charge          ....    0
 Multiplicity           Mult            ....    1
 Number of Electrons    NEL             ....  144
 Basis Dimension        Dim             ....  854

ORBITAL ENERGIES
----------------

  NO   OCC          E(Eh)            E(eV)
   0   2.0000     -89.269642     -2429.1504
   1   2.0000     -24.898031      -677.5099
   2   2.0000     -19.230483      -523.2881
   3   2.0000     -19.217684      -522.9398
   4   2.0000     -14.373019      -391.1097
   5   2.0000     -14.369057      -391.0019
   6   2.0000     -10.287260      -279.9306
   7   2.0000     -10.251364      -278.9538
   8   2.0000     -10.247746      -278.8553
   9   2.0000     -10.220746      -278.1206
  10   2.0000     -10.216405      -278.0025
  11   2.0000     -10.210077      -277.8303
  12   2.0000     -10.200965      -277.5824
  13   2.0000     -10.194092      -277.3953
  14   2.0000     -10.189320      -277.2655
  15   2.0000     -10.182701      -277.0854
  16   2.0000     -10.116230      -275.2766
  17   2.0000      -8.216446      -223.5809
  18   2.0000      -6.157051      -167.5419
  19   2.0000      -6.150298      -167.3581
  20   2.0000      -6.150079      -167.3522
  21   2.0000      -1.414152       -38.4810
  22   2.0000      -1.148429       -31.2503
  23   2.0000      -1.051826       -28.6217
  24   2.0000      -0.975238       -26.5376
  25   2.0000      -0.885320       -24.0908
  26   2.0000      -0.867960       -23.6184
  27   2.0000      -0.830041       -22.5866
  28   2.0000      -0.801877       -21.8202
  29   2.0000      -0.776147       -21.1200
  30   2.0000      -0.750086       -20.4109
  31   2.0000      -0.724516       -19.7151
  32   2.0000      -0.693004       -18.8576
  33   2.0000      -0.661405       -17.9978
  34   2.0000      -0.635312       -17.2877
  35   2.0000      -0.628041       -17.0899
  36   2.0000      -0.611823       -16.6485
  37   2.0000      -0.601584       -16.3699
  38   2.0000      -0.580380       -15.7929
  39   2.0000      -0.577973       -15.7275
  40   2.0000      -0.559408       -15.2223
  41   2.0000      -0.543936       -14.8012
  42   2.0000      -0.515398       -14.0247
  43   2.0000      -0.509415       -13.8619
  44   2.0000      -0.501421       -13.6444
  45   2.0000      -0.488535       -13.2937
  46   2.0000      -0.477712       -12.9992
  47   2.0000      -0.469531       -12.7766
  48   2.0000      -0.465407       -12.6644
  49   2.0000      -0.462436       -12.5835
  50   2.0000      -0.440449       -11.9852
  51   2.0000      -0.433617       -11.7993
  52   2.0000      -0.430516       -11.7149
  53   2.0000      -0.420481       -11.4419
  54   2.0000      -0.406423       -11.0593
  55   2.0000      -0.394927       -10.7465
  56   2.0000      -0.394019       -10.7218
  57   2.0000      -0.382977       -10.4213
  58   2.0000      -0.379539       -10.3278
  59   2.0000      -0.366448        -9.9716
  60   2.0000      -0.363245        -9.8844
  61   2.0000      -0.355417        -9.6714
  62   2.0000      -0.350450        -9.5362
  63   2.0000      -0.335472        -9.1287
  64   2.0000      -0.333893        -9.0857
  65   2.0000      -0.327575        -8.9138
  66   2.0000      -0.319664        -8.6985
  67   2.0000      -0.310899        -8.4600
  68   2.0000      -0.303899        -8.2695
  69   2.0000      -0.289706        -7.8833
  70   2.0000      -0.266181        -7.2432
  71   2.0000      -0.156496        -4.2585
  72   0.0000      -0.010937        -0.2976
  73   0.0000       0.009176         0.2497
  74   0.0000       0.015949         0.4340
  75   0.0000       0.017830         0.4852
  76   0.0000       0.025478         0.6933

MULLIKEN ATOMIC CHARGES
-----------------------
   0 C :   -0.694096
   1 C :   -1.339508
   2 C :   -0.395155
   3 C :   -0.413186
   4 H :    0.238833
   5 H :    0.177807
   6 S :    1.129798
   7 C :    0.359465
   8 N :   -0.172444
   9 N :   -0.230887
  10 H :    0.180066
  11 H :    0.115104
  12 H :    1.118397
  13 H :    0.115653
  14 H :    0.132242
  15 F :   -0.253644
  16 O :   -0.540659
  17 C :   -0.350510
  18 H :    0.121348
  19 H :    0.249702
  20 C :   -0.288088
  21 C :    0.001308
  22 H :    0.180147
  23 H :    0.027168
  24 H :    0.160380
  25 H :    0.169875
  26 C :   -0.221604
  27 H :    0.109673
  28 H :    0.255742
  29 C :   -0.316949
  30 H :    0.117198
  31 H :    0.160841
  32 C :   -0.425356
  33 H :    0.150298
  34 H :    0.176667
  35 H :    0.283029
  36 H :    0.154729
  37 H :    0.146507
  38 H :    0.146050
  39 O :   -0.535940
Sum of atomic charges:    0.0000000

LOEWDIN ATOMIC CHARGES
----------------------
   0 C :   -0.222389
   1 C :   -0.140755
   2 C :   -0.224973
   3 C :   -0.220120
   4 H :    0.123312
   5 H :    0.107044
   6 S :    0.635132
   7 C :   -0.522898
   8 N :    0.121424
   9 N :    0.129572
  10 H :    0.096393
  11 H :    0.094969
  12 H :    0.005712
  13 H :    0.058041
  14 H :    0.103976
  15 F :   -0.084628
  16 O :   -0.246488
  17 C :   -0.207916
  18 H :    0.107513
  19 H :    0.103819
  20 C :   -0.219020
  21 C :   -0.218695
  22 H :    0.131947
  23 H :    0.089040
  24 H :    0.123085
  25 H :    0.114583
  26 C :   -0.214915
  27 H :    0.106521
  28 H :    0.103336
  29 C :   -0.218658
  30 H :    0.115530
  31 H :    0.102290
  32 C :   -0.213116
  33 H :    0.115326
  34 H :    0.103453
  35 H :    0.110044
  36 H :    0.113515
  37 H :    0.109355
  38 H :    0.110269
  39 O :   -0.280632

  Mayer bond orders larger than 0.100000
B(  0-C ,  1-C ) :   1.4937 B(  0-C , 17-C ) :   0.8388 B(  0-C , 18-H ) :   1.0437
B(  0-C , 19-H ) :   0.8288 B(  0-C , 29-C ) :   0.1401 B(  1-C ,  6-S ) :  -0.1014
B(  1-C , 10-H ) :  -0.1022 B(  1-C , 12-H ) :  -0.9910 B(  1-C , 17-C ) :   0.4575
B(  1-C , 39-O ) :   0.2062 B(  2-C ,  3-C ) :   1.0922 B(  2-C , 20-C ) :   0.4630
B(  2-C , 21-C ) :   0.5730 B(  2-C , 22-H ) :  -0.1304 B(  2-C , 24-H ) :   0.9626
B(  2-C , 25-H ) :   0.9049 B(  3-C ,  4-H ) :   0.8814 B(  3-C ,  5-H ) :   1.0009
B(  3-C ,  6-S ) :   0.8395 B(  3-C , 16-O ) :   0.1392 B(  3-C , 21-C ) :   0.2258
B(  6-S , 15-F ) :   0.9243 B(  6-S , 16-O ) :   1.6010 B(  6-S , 39-O ) :   1.6711
B(  7-C ,  8-N ) :   1.0509 B(  7-C ,  9-N ) :   1.1987 B(  7-C , 10-H ) :   0.1337
B(  7-C , 12-H ) :   0.7766 B(  8-N , 12-H ) :   0.1503 B(  8-N , 13-H ) :   0.9714
B(  8-N , 14-H ) :   1.0182 B(  9-N , 10-H ) :   0.9579 B(  9-N , 11-H ) :   1.0390
B(  9-N , 17-C ) :   0.1287 B( 12-H , 39-O ) :  -0.2636 B( 17-C , 26-C ) :   1.3033
B( 17-C , 27-H ) :   0.9760 B( 17-C , 28-H ) :   0.8265 B( 17-C , 29-C ) :   0.2850
B( 20-C , 21-C ) :   0.6396 B( 20-C , 26-C ) :   0.1886 B( 20-C , 32-C ) :   1.0761
B( 20-C , 35-H ) :   0.8573 B( 20-C , 36-H ) :   0.9245 B( 21-C , 22-H ) :   0.7299
B( 21-C , 23-H ) :   1.4956 B( 21-C , 29-C ) :   0.1419 B( 21-C , 32-C ) :   0.2775
B( 21-C , 39-O ) :   0.1069 B( 22-H , 23-H ) :   0.2100 B( 23-H , 39-O ) :  -0.1389
B( 26-C , 29-C ) :   0.5419 B( 26-C , 30-H ) :   0.9258 B( 26-C , 31-H ) :   1.0634
B( 26-C , 32-C ) :   0.1991 B( 26-C , 34-H ) :  -0.1063 B( 29-C , 32-C ) :   1.0852
B( 29-C , 33-H ) :   0.9256 B( 29-C , 34-H ) :   1.0163 B( 32-C , 37-H ) :   0.9334
B( 32-C , 38-H ) :   0.9478

Dispersion correction           -0.042847723
FINAL SINGLE POINT ENERGY     -1190.264452663172

DIPOLE MOMENT
-------------
                                X             Y             Z
Electronic contribution:    -16.33647       4.84828     -21.41159
Nuclear contribution   :     17.24138      -5.45913      20.34076
                        -----------------------------------------
Total Dipole Moment    :      0.90491      -0.61085      -1.07083
                        -----------------------------------------
Magnitude (a.u.)       :      1.52928
Magnitude (Debye)      :      3.88711

Rotational constants in cm-1:     0.014201     0.012275     0.007453
Rotational constants in MHz :   425.728191   368.008875   223.435232

                             ****ORCA TERMINATED NORMALLY****
TOTAL RUN TIME: 0 days 0 hours 11 minutes 6 seconds 798 msec
