                         Program Version 5.0.0 -  RELEASE  -
|  1> !PBE0 D3BJ RIJCOSX def2-TZVPD def2/J TightSCF xyzfile
|  2>
|  3> *xyzfile 0 1 D2.xyz
|  4>
|  5> %MaxCore 64000
|  6>
|  7> %pal nprocs 4
|  8> end
|  9>
| 10> %scf
| 11>   MaxIter 150
| 12> end
| 13>
| 14>
| 15>                          ****END OF INPUT****

CARTESIAN COORDINATES (ANGSTROEM)
---------------------------------
  C      4.490588    1.155899   -2.469290
  N      4.305394    1.222762   -3.908317
  C      4.906458   -3.102816   -5.954844
  C      3.511771   -2.806215   -6.492283
  H      2.736044   -3.373445   -5.973736
  H      3.444904   -3.040831   -7.555281
  S      3.004618   -1.096206   -6.389259
  C      4.631918    2.246365   -4.670958
  C      4.541686    2.143990   -5.987139
  N      5.084086    3.393584   -4.118545
  H      4.920675    3.570501   -3.135870
  H      5.254652    4.197390   -4.706956
  H      3.824530    0.449113   -4.350926
  H      4.343373    1.249318   -6.416646
  H      4.676712    2.956624   -6.574113
  F      4.128856   -0.329647   -6.953717
  O      1.781285   -1.000779   -7.136399
  C      5.942129    0.939500   -2.036893
  H      3.864305    0.328532   -2.136611
  H      4.076233    2.049994   -1.989010
  C      6.462677   -3.117775   -3.944671
  C      5.024977   -3.025679   -4.437625
  H      4.423321   -3.818693   -3.977648
  H      4.579350   -2.087131   -4.108727
  H      5.201533   -4.100207   -6.296905
  H      5.605922   -2.397822   -6.413368
  C      6.559957   -0.356290   -2.559086
  H      5.967976    0.952567   -0.942444
  H      6.547184    1.788331   -2.368849
  C      6.006283   -1.615917   -1.899301
  H      7.642360   -0.318000   -2.402059
  H      6.414855   -0.403433   -3.642587
  C      6.608718   -2.917014   -2.435655
  H      6.190324   -1.561115   -0.820948
  H      4.919250   -1.651245   -2.016586
  H      7.066975   -2.374258   -4.475514
  H      6.887808   -4.089747   -4.215332
  H      6.135197   -3.755573   -1.915159
  H      7.671142   -2.955503   -2.172291
  O      2.851546   -0.783683   -4.956789

 Total Charge           Charge          ....    0
 Multiplicity           Mult            ....    1
 Number of Electrons    NEL             ....  144
 Basis Dimension        Dim             ....  854

ORBITAL ENERGIES
----------------

  NO   OCC          E(Eh)            E(eV)
   0   2.0000     -89.272565     -2429.2300
   1   2.0000     -24.884079      -677.1302
   2   2.0000     -19.230455      -523.2873
   3   2.0000     -19.228137      -523.2242
   4   2.0000     -14.370639      -391.0450
   5   2.0000     -14.357239      -390.6803
   6   2.0000     -10.288842      -279.9736
   7   2.0000     -10.254428      -279.0372
   8   2.0000     -10.251303      -278.9521
   9   2.0000     -10.245122      -278.7839
  10   2.0000     -10.227875      -278.3146
  11   2.0000     -10.223562      -278.1973
  12   2.0000     -10.219529      -278.0875
  13   2.0000     -10.214607      -277.9536
  14   2.0000     -10.210789      -277.8497
  15   2.0000     -10.210531      -277.8427
  16   2.0000     -10.114532      -275.2304
  17   2.0000      -8.218974      -223.6497
  18   2.0000      -6.159342      -167.6042
  19   2.0000      -6.153157      -167.4359
  20   2.0000      -6.152722      -167.4241
  21   2.0000      -1.401463       -38.1358
  22   2.0000      -1.150877       -31.3170
  23   2.0000      -1.058086       -28.7920
  24   2.0000      -0.978580       -26.6285
  25   2.0000      -0.892649       -24.2902
  26   2.0000      -0.871586       -23.7171
  27   2.0000      -0.837823       -22.7983
  28   2.0000      -0.808134       -21.9904
  29   2.0000      -0.772910       -21.0320
  30   2.0000      -0.750391       -20.4192
  31   2.0000      -0.723371       -19.6839
  32   2.0000      -0.700564       -19.0633
  33   2.0000      -0.668426       -18.1888
  34   2.0000      -0.643708       -17.5162
  35   2.0000      -0.620302       -16.8793
  36   2.0000      -0.609915       -16.5966
  37   2.0000      -0.601734       -16.3740
  38   2.0000      -0.598098       -16.2751
  39   2.0000      -0.576056       -15.6753
  40   2.0000      -0.571915       -15.5626
  41   2.0000      -0.533726       -14.5234
  42   2.0000      -0.516703       -14.0602
  43   2.0000      -0.506477       -13.7819
  44   2.0000      -0.498521       -13.5655
  45   2.0000      -0.496140       -13.5007
  46   2.0000      -0.482237       -13.1223
  47   2.0000      -0.480713       -13.0809
  48   2.0000      -0.474056       -12.8997
  49   2.0000      -0.457570       -12.4511
  50   2.0000      -0.450727       -12.2649
  51   2.0000      -0.445843       -12.1320
  52   2.0000      -0.435587       -11.8529
  53   2.0000      -0.414814       -11.2877
  54   2.0000      -0.407486       -11.0883
  55   2.0000      -0.406772       -11.0688
  56   2.0000      -0.395590       -10.7646
  57   2.0000      -0.386837       -10.5264
  58   2.0000      -0.381929       -10.3928
  59   2.0000      -0.375827       -10.2268
  60   2.0000      -0.370722       -10.0879
  61   2.0000      -0.364751        -9.9254
  62   2.0000      -0.355943        -9.6857
  63   2.0000      -0.353863        -9.6291
  64   2.0000      -0.346482        -9.4282
  65   2.0000      -0.341077        -9.2812
  66   2.0000      -0.337191        -9.1754
  67   2.0000      -0.326444        -8.8830
  68   2.0000      -0.324413        -8.8277
  69   2.0000      -0.320080        -8.7098
  70   2.0000      -0.250416        -6.8142
  71   2.0000      -0.160317        -4.3625
  72   0.0000      -0.007981        -0.2172
  73   0.0000       0.012600         0.3429
  74   0.0000       0.014013         0.3813
  75   0.0000       0.015671         0.4264
  76   0.0000       0.026785         0.7289

MULLIKEN ATOMIC CHARGES
-----------------------
   0 C :   -0.761294
   1 N :    0.105583
   2 C :   -0.384003
   3 C :   -0.431841
   4 H :    0.233741
   5 H :    0.193515
   6 S :    1.089852
   7 C :    1.198974
   8 C :   -2.182717
   9 N :   -0.273347
  10 H :    0.154686
  11 H :    0.156329
  12 H :   -0.019721
  13 H :    0.839443
  14 H :    0.128177
  15 F :   -0.102510
  16 O :   -0.546980
  17 C :   -0.147263
  18 H :    0.156552
  19 H :    0.236941
  20 C :   -0.271275
  21 C :   -0.065140
  22 H :    0.203151
  23 H :    0.026816
  24 H :    0.166285
  25 H :    0.172155
  26 C :   -0.162462
  27 H :    0.161147
  28 H :    0.239720
  29 C :   -0.355486
  30 H :    0.111251
  31 H :    0.141910
  32 C :   -0.417737
  33 H :    0.148307
  34 H :    0.197611
  35 H :    0.263243
  36 H :    0.155030
  37 H :    0.149917
  38 H :    0.148438
  39 O :   -0.656995
Sum of atomic charges:    0.0000000

LOEWDIN ATOMIC CHARGES
----------------------
   0 C :   -0.189342
   1 N :    0.033648
   2 C :   -0.223693
   3 C :   -0.219575
   4 H :    0.122483
   5 H :    0.108838
   6 S :    0.639760
   7 C :   -0.542731
   8 C :    0.006178
   9 N :    0.124542
  10 H :    0.087939
  11 H :    0.107427
  12 H :    0.061036
  13 H :   -0.028529
  14 H :    0.012649
  15 F :   -0.089468
  16 O :   -0.241532
  17 C :   -0.193154
  18 H :    0.115967
  19 H :    0.110087
  20 C :   -0.217716
  21 C :   -0.220234
  22 H :    0.132132
  23 H :    0.085707
  24 H :    0.123732
  25 H :    0.116431
  26 C :   -0.211907
  27 H :    0.111099
  28 H :    0.104413
  29 C :   -0.220533
  30 H :    0.118130
  31 H :    0.105430
  32 C :   -0.211408
  33 H :    0.115974
  34 H :    0.101867
  35 H :    0.111062
  36 H :    0.114953
  37 H :    0.110517
  38 H :    0.111501
  39 O :   -0.283681

  Mayer bond orders larger than 0.100000
B(  0-C ,  1-N ) :   1.1293 B(  0-C ,  7-C ) :  -0.1655 B(  0-C ,  9-N ) :   0.1337
B(  0-C , 12-H ) :  -0.1240 B(  0-C , 17-C ) :   0.8508 B(  0-C , 18-H ) :   0.9473
B(  0-C , 19-H ) :   0.8205 B(  0-C , 29-C ) :   0.1777 B(  1-N ,  7-C ) :   1.0380
B(  1-N , 12-H ) :   0.9627 B(  1-N , 17-C ) :   0.1444 B(  2-C ,  3-C ) :   1.1068
B(  2-C , 20-C ) :   0.4602 B(  2-C , 21-C ) :   0.5806 B(  2-C , 22-H ) :  -0.1212
B(  2-C , 24-H ) :   0.9526 B(  2-C , 25-H ) :   0.9137 B(  3-C ,  4-H ) :   0.8850
B(  3-C ,  5-H ) :   0.9950 B(  3-C ,  6-S ) :   0.8478 B(  3-C , 16-O ) :   0.1369
B(  3-C , 21-C ) :   0.2515 B(  6-S , 15-F ) :   0.9772 B(  6-S , 16-O ) :   1.5963
B(  6-S , 21-C ) :   0.1046 B(  6-S , 39-O ) :   1.6658 B(  7-C ,  8-C ) :   0.5743
B(  7-C ,  9-N ) :   1.0399 B(  7-C , 12-H ) :  -0.3141 B(  7-C , 13-H ) :   0.1076
B(  7-C , 14-H ) :  -0.1866 B(  8-C , 13-H ) :   0.1458 B(  8-C , 14-H ) :   1.1828
B(  9-N , 10-H ) :   0.9907 B(  9-N , 11-H ) :   1.0066 B( 12-H , 39-O ) :   0.1190
B( 13-H , 14-H ) :   0.1370 B( 13-H , 15-F ) :  -0.1669 B( 17-C , 26-C ) :   1.2219
B( 17-C , 27-H ) :   0.9733 B( 17-C , 28-H ) :   0.8626 B( 17-C , 29-C ) :   0.2687
B( 20-C , 21-C ) :   0.6263 B( 20-C , 26-C ) :   0.1667 B( 20-C , 32-C ) :   1.0905
B( 20-C , 35-H ) :   0.8690 B( 20-C , 36-H ) :   0.9196 B( 21-C , 22-H ) :   0.7355
B( 21-C , 23-H ) :   1.5465 B( 21-C , 29-C ) :   0.1229 B( 21-C , 32-C ) :   0.2932
B( 21-C , 39-O ) :   0.1110 B( 22-H , 23-H ) :   0.1879 B( 23-H , 39-O ) :  -0.1734
B( 26-C , 29-C ) :   0.4899 B( 26-C , 30-H ) :   0.9137 B( 26-C , 31-H ) :   1.0821
B( 26-C , 32-C ) :   0.2452 B( 26-C , 34-H ) :  -0.1096 B( 29-C , 32-C ) :   1.0989
B( 29-C , 33-H ) :   0.9281 B( 29-C , 34-H ) :   1.0052 B( 32-C , 37-H ) :   0.9266
B( 32-C , 38-H ) :   0.9394

Dispersion correction           -0.042641802
FINAL SINGLE POINT ENERGY     -1190.268245317614

DIPOLE MOMENT
-------------
                                X             Y             Z
Electronic contribution:    -16.38926       3.95201     -19.59290
Nuclear contribution   :     17.27667      -5.32157      20.03034
                        -----------------------------------------
Total Dipole Moment    :      0.88741      -1.36956       0.43743
                        -----------------------------------------
Magnitude (a.u.)       :      1.68954
Magnitude (Debye)      :      4.29446

Rotational constants in cm-1:     0.014355     0.012269     0.007481
Rotational constants in MHz :   430.360270   367.823451   224.273399

                             ****ORCA TERMINATED NORMALLY****
TOTAL RUN TIME: 0 days 0 hours 11 minutes 29 seconds 69 msec
