                         Program Version 5.0.0 -  RELEASE  -
|  1> !PBE0 D3BJ RIJCOSX def2-TZVPD def2/J TightSCF xyzfile
|  2>
|  3> *xyzfile 0 1 D3.xyz
|  4>
|  5> %MaxCore 64000
|  6>
|  7> %pal nprocs 4
|  8> end
|  9>
| 10> %scf
| 11>   MaxIter 150
| 12> end
| 13>
| 14>
| 15>                          ****END OF INPUT****

CARTESIAN COORDINATES (ANGSTROEM)
---------------------------------
  C      4.490588    1.155899   -2.469290
  N      4.305394    1.222762   -3.908317
  C      4.906458   -3.102816   -5.954844
  C      3.511771   -2.806215   -6.492283
  H      2.736044   -3.373445   -5.973736
  H      3.444904   -3.040831   -7.555281
  S      3.004618   -1.096206   -6.389259
  C      4.631918    2.246365   -4.670958
  N      4.541686    2.143990   -5.987139
  C      5.084086    3.393584   -4.118545
  H      4.920675    3.570501   -3.135870
  H      5.254652    4.197390   -4.706956
  H      3.824530    0.449113   -4.350926
  H      4.343373    1.249318   -6.416646
  H      4.676712    2.956624   -6.574113
  F      4.128856   -0.329647   -6.953717
  O      1.781285   -1.000779   -7.136399
  C      5.942129    0.939500   -2.036893
  H      3.864305    0.328532   -2.136611
  H      4.076233    2.049994   -1.989010
  C      6.462677   -3.117775   -3.944671
  C      5.024977   -3.025679   -4.437625
  H      4.423321   -3.818693   -3.977648
  H      4.579350   -2.087131   -4.108727
  H      5.201533   -4.100207   -6.296905
  H      5.605922   -2.397822   -6.413368
  C      6.559957   -0.356290   -2.559086
  H      5.967976    0.952567   -0.942444
  H      6.547184    1.788331   -2.368849
  C      6.006283   -1.615917   -1.899301
  H      7.642360   -0.318000   -2.402059
  H      6.414855   -0.403433   -3.642587
  C      6.608718   -2.917014   -2.435655
  H      6.190324   -1.561115   -0.820948
  H      4.919250   -1.651245   -2.016586
  H      7.066975   -2.374258   -4.475514
  H      6.887808   -4.089747   -4.215332
  H      6.135197   -3.755573   -1.915159
  H      7.671142   -2.955503   -2.172291
  O      2.851546   -0.783683   -4.956789

 Total Charge           Charge          ....    0
 Multiplicity           Mult            ....    1
 Number of Electrons    NEL             ....  144
 Basis Dimension        Dim             ....  854

ORBITAL ENERGIES
----------------

  NO   OCC          E(Eh)            E(eV)
   0   2.0000     -89.288220     -2429.6560
   1   2.0000     -24.912452      -677.9023
   2   2.0000     -19.246461      -523.7228
   3   2.0000     -19.242728      -523.6212
   4   2.0000     -14.369256      -391.0073
   5   2.0000     -14.359037      -390.7293
   6   2.0000     -10.300854      -280.3005
   7   2.0000     -10.263009      -279.2707
   8   2.0000     -10.251003      -278.9440
   9   2.0000     -10.236836      -278.5585
  10   2.0000     -10.233212      -278.4599
  11   2.0000     -10.226524      -278.2779
  12   2.0000     -10.219809      -278.0951
  13   2.0000     -10.212481      -277.8957
  14   2.0000     -10.206414      -277.7306
  15   2.0000     -10.200740      -277.5762
  16   2.0000     -10.116604      -275.2868
  17   2.0000      -8.234994      -224.0856
  18   2.0000      -6.175600      -168.0466
  19   2.0000      -6.168938      -167.8653
  20   2.0000      -6.168561      -167.8551
  21   2.0000      -1.428859       -38.8812
  22   2.0000      -1.167026       -31.7564
  23   2.0000      -1.073074       -29.1998
  24   2.0000      -0.981541       -26.7091
  25   2.0000      -0.898676       -24.4542
  26   2.0000      -0.881304       -23.9815
  27   2.0000      -0.840066       -22.8594
  28   2.0000      -0.806146       -21.9363
  29   2.0000      -0.779855       -21.2209
  30   2.0000      -0.750742       -20.4287
  31   2.0000      -0.722435       -19.6585
  32   2.0000      -0.710060       -19.3217
  33   2.0000      -0.678275       -18.4568
  34   2.0000      -0.650537       -17.7020
  35   2.0000      -0.636573       -17.3220
  36   2.0000      -0.626858       -17.0577
  37   2.0000      -0.613181       -16.6855
  38   2.0000      -0.599115       -16.3028
  39   2.0000      -0.579748       -15.7757
  40   2.0000      -0.558038       -15.1850
  41   2.0000      -0.544127       -14.8065
  42   2.0000      -0.534411       -14.5421
  43   2.0000      -0.518559       -14.1107
  44   2.0000      -0.511613       -13.9217
  45   2.0000      -0.498940       -13.5768
  46   2.0000      -0.490724       -13.3533
  47   2.0000      -0.482014       -13.1163
  48   2.0000      -0.471548       -12.8315
  49   2.0000      -0.460896       -12.5416
  50   2.0000      -0.450528       -12.2595
  51   2.0000      -0.447227       -12.1697
  52   2.0000      -0.435690       -11.8557
  53   2.0000      -0.423690       -11.5292
  54   2.0000      -0.408709       -11.1215
  55   2.0000      -0.403254       -10.9731
  56   2.0000      -0.400287       -10.8924
  57   2.0000      -0.391803       -10.6615
  58   2.0000      -0.382252       -10.4016
  59   2.0000      -0.380612       -10.3570
  60   2.0000      -0.373359       -10.1596
  61   2.0000      -0.364986        -9.9318
  62   2.0000      -0.364117        -9.9081
  63   2.0000      -0.356719        -9.7068
  64   2.0000      -0.349436        -9.5087
  65   2.0000      -0.346303        -9.4234
  66   2.0000      -0.341437        -9.2910
  67   2.0000      -0.325233        -8.8500
  68   2.0000      -0.323585        -8.8052
  69   2.0000      -0.314876        -8.5682
  70   2.0000      -0.244939        -6.6651
  71   2.0000      -0.159050        -4.3280
  72   0.0000      -0.020201        -0.5497
  73   0.0000       0.006232         0.1696
  74   0.0000       0.007616         0.2073
  75   0.0000       0.014136         0.3847
  76   0.0000       0.020758         0.5648

MULLIKEN ATOMIC CHARGES
-----------------------
   0 C :   -0.789211
   1 N :    0.085696
   2 C :   -0.382849
   3 C :   -0.406925
   4 H :    0.243209
   5 H :    0.192566
   6 S :    1.059715
   7 C :    0.962690
   8 N :   -0.139438
   9 C :   -1.406005
  10 H :    0.227342
  11 H :    0.226548
  12 H :    0.078309
  13 H :    0.124346
  14 H :    0.139664
  15 F :   -0.271124
  16 O :   -0.532772
  17 C :   -0.201531
  18 H :    0.202932
  19 H :    0.214202
  20 C :   -0.274507
  21 C :   -0.095045
  22 H :    0.200815
  23 H :    0.060138
  24 H :    0.163123
  25 H :    0.177019
  26 C :   -0.139258
  27 H :    0.178549
  28 H :    0.247933
  29 C :   -0.340151
  30 H :    0.113703
  31 H :    0.086743
  32 C :   -0.431573
  33 H :    0.148585
  34 H :    0.187457
  35 H :    0.274481
  36 H :    0.156096
  37 H :    0.150079
  38 H :    0.150196
  39 O :   -0.641744
Sum of atomic charges:   -0.0000000

LOEWDIN ATOMIC CHARGES
----------------------
   0 C :   -0.185517
   1 N :    0.030044
   2 C :   -0.223678
   3 C :   -0.217322
   4 H :    0.124602
   5 H :    0.109524
   6 S :    0.640543
   7 C :   -0.553003
   8 N :    0.128469
   9 C :    0.004272
  10 H :   -0.001970
  11 H :    0.001205
  12 H :    0.056331
  13 H :    0.051089
  14 H :    0.117455
  15 F :   -0.084776
  16 O :   -0.237442
  17 C :   -0.188635
  18 H :    0.114702
  19 H :    0.115542
  20 C :   -0.217828
  21 C :   -0.220114
  22 H :    0.132744
  23 H :    0.085815
  24 H :    0.124897
  25 H :    0.115493
  26 C :   -0.213290
  27 H :    0.112990
  28 H :    0.104047
  29 C :   -0.220989
  30 H :    0.118001
  31 H :    0.102336
  32 C :   -0.211541
  33 H :    0.116454
  34 H :    0.101255
  35 H :    0.110669
  36 H :    0.114933
  37 H :    0.110296
  38 H :    0.111820
  39 O :   -0.279422

  Mayer bond orders larger than 0.100000
B(  0-C ,  1-N ) :   1.1701 B(  0-C ,  7-C ) :  -0.1320 B(  0-C ,  9-C ) :   0.1616
B(  0-C , 12-H ) :  -0.2163 B(  0-C , 17-C ) :   0.8991 B(  0-C , 18-H ) :   0.8287
B(  0-C , 19-H ) :   0.8458 B(  0-C , 26-C ) :   0.1277 B(  0-C , 29-C ) :   0.1814
B(  1-N ,  7-C ) :   0.9851 B(  1-N , 12-H ) :   0.9438 B(  1-N , 17-C ) :   0.1735
B(  2-C ,  3-C ) :   1.1046 B(  2-C , 20-C ) :   0.4620 B(  2-C , 21-C ) :   0.5757
B(  2-C , 22-H ) :  -0.1241 B(  2-C , 24-H ) :   0.9560 B(  2-C , 25-H ) :   0.9071
B(  3-C ,  4-H ) :   0.8786 B(  3-C ,  5-H ) :   0.9909 B(  3-C ,  6-S ) :   0.8298
B(  3-C , 16-O ) :   0.1366 B(  3-C , 21-C ) :   0.2500 B(  6-S , 15-F ) :   0.9396
B(  6-S , 16-O ) :   1.6254 B(  6-S , 21-C ) :   0.1057 B(  6-S , 39-O ) :   1.6969
B(  7-C ,  8-N ) :   0.9677 B(  7-C ,  9-C ) :   1.0089 B(  7-C , 11-H ) :  -0.1107
B(  7-C , 12-H ) :  -0.3181 B(  8-N , 13-H ) :   0.9513 B(  8-N , 14-H ) :   1.0026
B(  9-C , 10-H ) :   1.0032 B(  9-C , 11-H ) :   1.0723 B( 12-H , 39-O ) :   0.1511
B( 17-C , 26-C ) :   1.2188 B( 17-C , 27-H ) :   0.9308 B( 17-C , 28-H ) :   0.8956
B( 17-C , 29-C ) :   0.2652 B( 20-C , 21-C ) :   0.6376 B( 20-C , 26-C ) :   0.1663
B( 20-C , 32-C ) :   1.0948 B( 20-C , 35-H ) :   0.8625 B( 20-C , 36-H ) :   0.9180
B( 21-C , 22-H ) :   0.7346 B( 21-C , 23-H ) :   1.5334 B( 21-C , 29-C ) :   0.1257
B( 21-C , 32-C ) :   0.2935 B( 21-C , 39-O ) :   0.1139 B( 22-H , 23-H ) :   0.2000
B( 23-H , 39-O ) :  -0.1792 B( 26-C , 29-C ) :   0.5015 B( 26-C , 30-H ) :   0.9100
B( 26-C , 31-H ) :   1.0996 B( 26-C , 32-C ) :   0.2434 B( 26-C , 34-H ) :  -0.1040
B( 29-C , 32-C ) :   1.0923 B( 29-C , 33-H ) :   0.9286 B( 29-C , 34-H ) :   1.0043
B( 32-C , 37-H ) :   0.9273 B( 32-C , 38-H ) :   0.9429

Dispersion correction           -0.042574266
FINAL SINGLE POINT ENERGY     -1190.270122270942

DIPOLE MOMENT
-------------
                                X             Y             Z
Electronic contribution:    -16.89030       2.68682     -21.30231
Nuclear contribution   :     17.35766      -5.13497      20.30937
                        -----------------------------------------
Total Dipole Moment    :      0.46736      -2.44815      -0.99295
                        -----------------------------------------
Magnitude (a.u.)       :      2.68287
Magnitude (Debye)      :      6.81932

Rotational constants in cm-1:     0.014431     0.012329     0.007535
Rotational constants in MHz :   432.628327   369.619539   225.898827

                             ****ORCA TERMINATED NORMALLY****
TOTAL RUN TIME: 0 days 0 hours 12 minutes 12 seconds 237 msec
