                         Program Version 5.0.0 -  RELEASE  -
|  1> !PBE0 D3BJ RIJCOSX def2-TZVPD def2/J TightSCF xyzfile
|  2>
|  3> *xyzfile 0 1 D4.xyz
|  4>
|  5> %MaxCore 64000
|  6>
|  7> %pal nprocs 4
|  8> end
|  9>
| 10> %scf
| 11>   MaxIter 150
| 12> end
| 13>
| 14>
| 15>                          ****END OF INPUT****

CARTESIAN COORDINATES (ANGSTROEM)
---------------------------------
  C      4.490588    1.155899   -2.469290
  C      4.305394    1.222762   -3.908317
  C      4.906458   -3.102816   -5.954844
  C      3.511771   -2.806215   -6.492283
  H      2.736044   -3.373445   -5.973736
  H      3.444904   -3.040831   -7.555281
  S      3.004618   -1.096206   -6.389259
  C      4.631918    2.246365   -4.670958
  N      4.541686    2.143990   -5.987139
  N      5.084086    3.393584   -4.118545
  H      4.920675    3.570501   -3.135870
  H      5.254652    4.197390   -4.706956
  H      3.824530    0.449113   -4.350926
  H      4.343373    1.249318   -6.416646
  H      4.676712    2.956624   -6.574113
  O      4.128856   -0.329647   -6.953717
  F      1.781285   -1.000779   -7.136399
  C      5.942129    0.939500   -2.036893
  H      3.864305    0.328532   -2.136611
  H      4.076233    2.049994   -1.989010
  C      6.462677   -3.117775   -3.944671
  C      5.024977   -3.025679   -4.437625
  H      4.423321   -3.818693   -3.977648
  H      4.579350   -2.087131   -4.108727
  H      5.201533   -4.100207   -6.296905
  H      5.605922   -2.397822   -6.413368
  C      6.559957   -0.356290   -2.559086
  H      5.967976    0.952567   -0.942444
  H      6.547184    1.788331   -2.368849
  C      6.006283   -1.615917   -1.899301
  H      7.642360   -0.318000   -2.402059
  H      6.414855   -0.403433   -3.642587
  C      6.608718   -2.917014   -2.435655
  H      6.190324   -1.561115   -0.820948
  H      4.919250   -1.651245   -2.016586
  H      7.066975   -2.374258   -4.475514
  H      6.887808   -4.089747   -4.215332
  H      6.135197   -3.755573   -1.915159
  H      7.671142   -2.955503   -2.172291
  O      2.851546   -0.783683   -4.956789

 Total Charge           Charge          ....    0
 Multiplicity           Mult            ....    1
 Number of Electrons    NEL             ....  144
 Basis Dimension        Dim             ....  854

ORBITAL ENERGIES
----------------

  NO   OCC          E(Eh)            E(eV)
   0   2.0000     -89.278228     -2429.3841
   1   2.0000     -24.908777      -677.8023
   2   2.0000     -19.231893      -523.3264
   3   2.0000     -19.222822      -523.0796
   4   2.0000     -14.361047      -390.7839
   5   2.0000     -14.342037      -390.2667
   6   2.0000     -10.291255      -280.0393
   7   2.0000     -10.249499      -278.9030
   8   2.0000     -10.233370      -278.4642
   9   2.0000     -10.217469      -278.0315
  10   2.0000     -10.212064      -277.8844
  11   2.0000     -10.205808      -277.7141
  12   2.0000     -10.195781      -277.4413
  13   2.0000     -10.186760      -277.1958
  14   2.0000     -10.181520      -277.0533
  15   2.0000     -10.174242      -276.8552
  16   2.0000     -10.103680      -274.9351
  17   2.0000      -8.224746      -223.8067
  18   2.0000      -6.164968      -167.7573
  19   2.0000      -6.158840      -167.5906
  20   2.0000      -6.158568      -167.5831
  21   2.0000      -1.434433       -39.0329
  22   2.0000      -1.145229       -31.1633
  23   2.0000      -1.048298       -28.5256
  24   2.0000      -0.957750       -26.0617
  25   2.0000      -0.868735       -23.6395
  26   2.0000      -0.864503       -23.5243
  27   2.0000      -0.826760       -22.4973
  28   2.0000      -0.797795       -21.7091
  29   2.0000      -0.777220       -21.1492
  30   2.0000      -0.747246       -20.3336
  31   2.0000      -0.720161       -19.5966
  32   2.0000      -0.685792       -18.6613
  33   2.0000      -0.656402       -17.8616
  34   2.0000      -0.632784       -17.2189
  35   2.0000      -0.623905       -16.9773
  36   2.0000      -0.609384       -16.5822
  37   2.0000      -0.603187       -16.4135
  38   2.0000      -0.587763       -15.9938
  39   2.0000      -0.567929       -15.4541
  40   2.0000      -0.551950       -15.0193
  41   2.0000      -0.534222       -14.5369
  42   2.0000      -0.518216       -14.1014
  43   2.0000      -0.512109       -13.9352
  44   2.0000      -0.494022       -13.4430
  45   2.0000      -0.482887       -13.1400
  46   2.0000      -0.480545       -13.0763
  47   2.0000      -0.465950       -12.6791
  48   2.0000      -0.459798       -12.5117
  49   2.0000      -0.446286       -12.1441
  50   2.0000      -0.438051       -11.9200
  51   2.0000      -0.425678       -11.5833
  52   2.0000      -0.424532       -11.5521
  53   2.0000      -0.419073       -11.4036
  54   2.0000      -0.396665       -10.7938
  55   2.0000      -0.391025       -10.6403
  56   2.0000      -0.386230       -10.5099
  57   2.0000      -0.378608       -10.3024
  58   2.0000      -0.366898        -9.9838
  59   2.0000      -0.362097        -9.8532
  60   2.0000      -0.356835        -9.7100
  61   2.0000      -0.348294        -9.4776
  62   2.0000      -0.342625        -9.3233
  63   2.0000      -0.333586        -9.0773
  64   2.0000      -0.330139        -8.9835
  65   2.0000      -0.327013        -8.8985
  66   2.0000      -0.313957        -8.5432
  67   2.0000      -0.305085        -8.3018
  68   2.0000      -0.296745        -8.0748
  69   2.0000      -0.283202        -7.7063
  70   2.0000      -0.248860        -6.7718
  71   2.0000      -0.142528        -3.8784
  72   0.0000      -0.009961        -0.2710
  73   0.0000       0.007478         0.2035
  74   0.0000       0.016526         0.4497
  75   0.0000       0.020413         0.5555
  76   0.0000       0.027945         0.7604

MULLIKEN ATOMIC CHARGES
-----------------------
   0 C :   -0.656532
   1 C :   -1.248367
   2 C :   -0.372154
   3 C :   -0.516364
   4 H :    0.259033
   5 H :    0.242932
   6 S :    1.184734
   7 C :    0.215886
   8 N :   -0.139171
   9 N :   -0.226509
  10 H :    0.178411
  11 H :    0.115743
  12 H :    1.134965
  13 H :    0.112796
  14 H :    0.129660
  15 O :   -0.739650
  16 F :   -0.080202
  17 C :   -0.358905
  18 H :    0.114382
  19 H :    0.242711
  20 C :   -0.309631
  21 C :   -0.012767
  22 H :    0.183352
  23 H :   -0.008687
  24 H :    0.156915
  25 H :    0.184217
  26 C :   -0.227700
  27 H :    0.108490
  28 H :    0.255814
  29 C :   -0.309583
  30 H :    0.114354
  31 H :    0.175505
  32 C :   -0.418538
  33 H :    0.150705
  34 H :    0.175109
  35 H :    0.291267
  36 H :    0.157283
  37 H :    0.144935
  38 H :    0.145871
  39 O :   -0.550310
Sum of atomic charges:   -0.0000000

LOEWDIN ATOMIC CHARGES
----------------------
   0 C :   -0.227048
   1 C :   -0.141009
   2 C :   -0.214403
   3 C :   -0.228302
   4 H :    0.113286
   5 H :    0.105297
   6 S :    0.661897
   7 C :   -0.524318
   8 N :    0.119475
   9 N :    0.126404
  10 H :    0.093730
  11 H :    0.093255
  12 H :    0.008331
  13 H :    0.032011
  14 H :    0.099349
  15 O :   -0.279896
  16 F :   -0.028169
  17 C :   -0.209023
  18 H :    0.105469
  19 H :    0.101523
  20 C :   -0.217424
  21 C :   -0.215721
  22 H :    0.130271
  23 H :    0.090908
  24 H :    0.125379
  25 H :    0.119195
  26 C :   -0.214302
  27 H :    0.105135
  28 H :    0.103310
  29 C :   -0.219560
  30 H :    0.115055
  31 H :    0.104662
  32 C :   -0.213748
  33 H :    0.114645
  34 H :    0.102722
  35 H :    0.112013
  36 H :    0.113142
  37 H :    0.108469
  38 H :    0.110069
  39 O :   -0.282080

  Mayer bond orders larger than 0.100000
B(  0-C ,  1-C ) :   1.3937 B(  0-C , 17-C ) :   0.8398 B(  0-C , 18-H ) :   1.0430
B(  0-C , 19-H ) :   0.8403 B(  0-C , 29-C ) :   0.1426 B(  1-C ,  6-S ) :  -0.1016
B(  1-C ,  7-C ) :   0.3442 B(  1-C , 10-H ) :  -0.1039 B(  1-C , 12-H ) :  -0.8975
B(  1-C , 17-C ) :   0.4465 B(  1-C , 39-O ) :   0.1855 B(  2-C ,  3-C ) :   1.1522
B(  2-C , 20-C ) :   0.4808 B(  2-C , 21-C ) :   0.6307 B(  2-C , 22-H ) :  -0.1349
B(  2-C , 24-H ) :   0.9587 B(  2-C , 25-H ) :   0.8633 B(  3-C ,  4-H ) :   0.8817
B(  3-C ,  5-H ) :   0.8887 B(  3-C ,  6-S ) :   0.8294 B(  3-C , 15-O ) :   0.1030
B(  3-C , 16-F ) :   0.1056 B(  3-C , 21-C ) :   0.2657 B(  6-S , 15-O ) :   1.5295
B(  6-S , 16-F ) :   0.9474 B(  6-S , 39-O ) :   1.7102 B(  7-C ,  8-N ) :   1.0739
B(  7-C ,  9-N ) :   1.2036 B(  7-C , 10-H ) :   0.1362 B(  7-C , 12-H ) :   0.6607
B(  8-N , 12-H ) :   0.1303 B(  8-N , 13-H ) :   0.9538 B(  8-N , 14-H ) :   1.0137
B(  9-N , 10-H ) :   0.9573 B(  9-N , 11-H ) :   1.0369 B(  9-N , 17-C ) :   0.1290
B( 12-H , 39-O ) :  -0.3125 B( 15-O , 39-O ) :   0.1405 B( 17-C , 26-C ) :   1.3065
B( 17-C , 27-H ) :   0.9780 B( 17-C , 28-H ) :   0.8240 B( 17-C , 29-C ) :   0.2915
B( 20-C , 21-C ) :   0.6412 B( 20-C , 26-C ) :   0.1914 B( 20-C , 32-C ) :   1.0767
B( 20-C , 35-H ) :   0.8524 B( 20-C , 36-H ) :   0.9218 B( 21-C , 22-H ) :   0.7337
B( 21-C , 23-H ) :   1.4890 B( 21-C , 29-C ) :   0.1389 B( 21-C , 32-C ) :   0.2743
B( 21-C , 39-O ) :   0.1148 B( 22-H , 23-H ) :   0.1969 B( 23-H , 39-O ) :  -0.1250
B( 26-C , 29-C ) :   0.5283 B( 26-C , 30-H ) :   0.9238 B( 26-C , 31-H ) :   1.0624
B( 26-C , 32-C ) :   0.1983 B( 26-C , 34-H ) :  -0.1055 B( 29-C , 32-C ) :   1.0806
B( 29-C , 33-H ) :   0.9273 B( 29-C , 34-H ) :   1.0137 B( 32-C , 37-H ) :   0.9340
B( 32-C , 38-H ) :   0.9468

Dispersion correction           -0.043115344
FINAL SINGLE POINT ENERGY     -1190.260772833787

DIPOLE MOMENT
-------------
                                X             Y             Z
Electronic contribution:    -20.58236       3.50939     -21.97937
Nuclear contribution   :     19.99734      -4.67125      20.55522
                        -----------------------------------------
Total Dipole Moment    :     -0.58502      -1.16185      -1.42415
                        -----------------------------------------
Magnitude (a.u.)       :      1.92883
Magnitude (Debye)      :      4.90268

Rotational constants in cm-1:     0.014213     0.012058     0.007367
Rotational constants in MHz :   426.102180   361.491761   220.844824

                             ****ORCA TERMINATED NORMALLY****
TOTAL RUN TIME: 0 days 0 hours 11 minutes 10 seconds 707 msec
