                         Program Version 5.0.0 -  RELEASE  -
|  1> !PBE0 D3BJ RIJCOSX def2-TZVPD def2/J TightSCF xyzfile
|  2>
|  3> *xyzfile 0 1 D5.xyz
|  4>
|  5> %MaxCore 64000
|  6>
|  7> %pal nprocs 4
|  8> end
|  9>
| 10> %scf
| 11>   MaxIter 150
| 12> end
| 13>
| 14>
| 15>                          ****END OF INPUT****

CARTESIAN COORDINATES (ANGSTROEM)
---------------------------------
  C      4.490588    1.155899   -2.469290
  N      4.305394    1.222762   -3.908317
  C      4.906458   -3.102816   -5.954844
  C      3.511771   -2.806215   -6.492283
  H      2.736044   -3.373445   -5.973736
  H      3.444904   -3.040831   -7.555281
  S      3.004618   -1.096206   -6.389259
  C      4.631918    2.246365   -4.670958
  C      4.541686    2.143990   -5.987139
  N      5.084086    3.393584   -4.118545
  H      4.920675    3.570501   -3.135870
  H      5.254652    4.197390   -4.706956
  H      3.824530    0.449113   -4.350926
  H      4.343373    1.249318   -6.416646
  H      4.676712    2.956624   -6.574113
  O      4.128856   -0.329647   -6.953717
  F      1.781285   -1.000779   -7.136399
  C      5.942129    0.939500   -2.036893
  H      3.864305    0.328532   -2.136611
  H      4.076233    2.049994   -1.989010
  C      6.462677   -3.117775   -3.944671
  C      5.024977   -3.025679   -4.437625
  H      4.423321   -3.818693   -3.977648
  H      4.579350   -2.087131   -4.108727
  H      5.201533   -4.100207   -6.296905
  H      5.605922   -2.397822   -6.413368
  C      6.559957   -0.356290   -2.559086
  H      5.967976    0.952567   -0.942444
  H      6.547184    1.788331   -2.368849
  C      6.006283   -1.615917   -1.899301
  H      7.642360   -0.318000   -2.402059
  H      6.414855   -0.403433   -3.642587
  C      6.608718   -2.917014   -2.435655
  H      6.190324   -1.561115   -0.820948
  H      4.919250   -1.651245   -2.016586
  H      7.066975   -2.374258   -4.475514
  H      6.887808   -4.089747   -4.215332
  H      6.135197   -3.755573   -1.915159
  H      7.671142   -2.955503   -2.172291
  O      2.851546   -0.783683   -4.956789

 Total Charge           Charge          ....    0
 Multiplicity           Mult            ....    1
 Number of Electrons    NEL             ....  144
 Basis Dimension        Dim             ....  854

ORBITAL ENERGIES
----------------

  NO   OCC          E(Eh)            E(eV)
   0   2.0000     -89.277509     -2429.3645
   1   2.0000     -24.907552      -677.7690
   2   2.0000     -19.230716      -523.2944
   3   2.0000     -19.220669      -523.0210
   4   2.0000     -14.357401      -390.6848
   5   2.0000     -14.345446      -390.3594
   6   2.0000     -10.291631      -280.0495
   7   2.0000     -10.251950      -278.9697
   8   2.0000     -10.236930      -278.5610
   9   2.0000     -10.233987      -278.4809
  10   2.0000     -10.224168      -278.2138
  11   2.0000     -10.219009      -278.0734
  12   2.0000     -10.215162      -277.9687
  13   2.0000     -10.209426      -277.8126
  14   2.0000     -10.203506      -277.6515
  15   2.0000     -10.202995      -277.6376
  16   2.0000     -10.091054      -274.5915
  17   2.0000      -8.223959      -223.7853
  18   2.0000      -6.164183      -167.7359
  19   2.0000      -6.158032      -167.5686
  20   2.0000      -6.157811      -167.5626
  21   2.0000      -1.432946       -38.9924
  22   2.0000      -1.144031       -31.1307
  23   2.0000      -1.046930       -28.4884
  24   2.0000      -0.965446       -26.2711
  25   2.0000      -0.880446       -23.9581
  26   2.0000      -0.869002       -23.6467
  27   2.0000      -0.833875       -22.6909
  28   2.0000      -0.804877       -21.9018
  29   2.0000      -0.775217       -21.0947
  30   2.0000      -0.749417       -20.3927
  31   2.0000      -0.721539       -19.6341
  32   2.0000      -0.691288       -18.8109
  33   2.0000      -0.663634       -18.0584
  34   2.0000      -0.640584       -17.4312
  35   2.0000      -0.622909       -16.9502
  36   2.0000      -0.610138       -16.6027
  37   2.0000      -0.609407       -16.5828
  38   2.0000      -0.595483       -16.2039
  39   2.0000      -0.577764       -15.7217
  40   2.0000      -0.565477       -15.3874
  41   2.0000      -0.530278       -14.4296
  42   2.0000      -0.519624       -14.1397
  43   2.0000      -0.505562       -13.7570
  44   2.0000      -0.493268       -13.4225
  45   2.0000      -0.488251       -13.2860
  46   2.0000      -0.477871       -13.0035
  47   2.0000      -0.476572       -12.9682
  48   2.0000      -0.463970       -12.6253
  49   2.0000      -0.456291       -12.4163
  50   2.0000      -0.444891       -12.1061
  51   2.0000      -0.438159       -11.9229
  52   2.0000      -0.428925       -11.6716
  53   2.0000      -0.411594       -11.2000
  54   2.0000      -0.402189       -10.9441
  55   2.0000      -0.399155       -10.8616
  56   2.0000      -0.389530       -10.5996
  57   2.0000      -0.384418       -10.4606
  58   2.0000      -0.372217       -10.1285
  59   2.0000      -0.368223       -10.0198
  60   2.0000      -0.365995        -9.9592
  61   2.0000      -0.359007        -9.7691
  62   2.0000      -0.349698        -9.5158
  63   2.0000      -0.344157        -9.3650
  64   2.0000      -0.338044        -9.1986
  65   2.0000      -0.331548        -9.0219
  66   2.0000      -0.321777        -8.7560
  67   2.0000      -0.319966        -8.7067
  68   2.0000      -0.314007        -8.5446
  69   2.0000      -0.304390        -8.2829
  70   2.0000      -0.238400        -6.4872
  71   2.0000      -0.142764        -3.8848
  72   0.0000      -0.009158        -0.2492
  73   0.0000       0.006390         0.1739
  74   0.0000       0.015619         0.4250
  75   0.0000       0.019623         0.5340
  76   0.0000       0.025500         0.6939

MULLIKEN ATOMIC CHARGES
-----------------------
   0 C :   -0.746396
   1 N :    0.096972
   2 C :   -0.379029
   3 C :   -0.526934
   4 H :    0.258141
   5 H :    0.252384
   6 S :    1.109519
   7 C :    1.107519
   8 C :   -2.071904
   9 N :   -0.275607
  10 H :    0.150454
  11 H :    0.155418
  12 H :    0.036106
  13 H :    0.834276
  14 H :    0.119687
  15 O :   -0.580351
  16 F :   -0.080885
  17 C :   -0.160142
  18 H :    0.149188
  19 H :    0.235529
  20 C :   -0.290548
  21 C :   -0.074088
  22 H :    0.202591
  23 H :   -0.006779
  24 H :    0.162829
  25 H :    0.187730
  26 C :   -0.182298
  27 H :    0.160824
  28 H :    0.244545
  29 C :   -0.349502
  30 H :    0.109265
  31 H :    0.160380
  32 C :   -0.410984
  33 H :    0.149623
  34 H :    0.195278
  35 H :    0.269873
  36 H :    0.157552
  37 H :    0.149399
  38 H :    0.148130
  39 O :   -0.667765
Sum of atomic charges:   -0.0000000

LOEWDIN ATOMIC CHARGES
----------------------
   0 C :   -0.192727
   1 N :    0.034745
   2 C :   -0.213569
   3 C :   -0.229436
   4 H :    0.111651
   5 H :    0.106759
   6 S :    0.661131
   7 C :   -0.546187
   8 C :    0.005693
   9 N :    0.117722
  10 H :    0.084373
  11 H :    0.105103
  12 H :    0.064339
  13 H :   -0.047379
  14 H :    0.010458
  15 O :   -0.279501
  16 F :   -0.024970
  17 C :   -0.193891
  18 H :    0.114134
  19 H :    0.108374
  20 C :   -0.216244
  21 C :   -0.217277
  22 H :    0.130447
  23 H :    0.087669
  24 H :    0.125926
  25 H :    0.120584
  26 C :   -0.211280
  27 H :    0.109821
  28 H :    0.104404
  29 C :   -0.221419
  30 H :    0.117693
  31 H :    0.107656
  32 C :   -0.212061
  33 H :    0.115294
  34 H :    0.101162
  35 H :    0.112900
  36 H :    0.114559
  37 H :    0.109649
  38 H :    0.111269
  39 O :   -0.287572

  Mayer bond orders larger than 0.100000
B(  0-C ,  1-N ) :   1.1194 B(  0-C ,  7-C ) :  -0.1679 B(  0-C ,  9-N ) :   0.1363
B(  0-C , 12-H ) :  -0.1258 B(  0-C , 17-C ) :   0.8548 B(  0-C , 18-H ) :   0.9498
B(  0-C , 19-H ) :   0.8268 B(  0-C , 29-C ) :   0.1780 B(  1-N ,  7-C ) :   1.0457
B(  1-N , 12-H ) :   0.9475 B(  1-N , 17-C ) :   0.1467 B(  2-C ,  3-C ) :   1.1663
B(  2-C ,  6-S ) :   0.1008 B(  2-C , 20-C ) :   0.4771 B(  2-C , 21-C ) :   0.6444
B(  2-C , 22-H ) :  -0.1280 B(  2-C , 24-H ) :   0.9524 B(  2-C , 25-H ) :   0.8716
B(  3-C ,  4-H ) :   0.8790 B(  3-C ,  5-H ) :   0.8918 B(  3-C ,  6-S ) :   0.8259
B(  3-C , 21-C ) :   0.2871 B(  3-C , 39-O ) :   0.1045 B(  6-S , 15-O ) :   1.6269
B(  6-S , 16-F ) :   0.9565 B(  6-S , 39-O ) :   1.6899 B(  7-C ,  8-C ) :   0.6331
B(  7-C ,  9-N ) :   1.0341 B(  7-C , 12-H ) :  -0.2975 B(  7-C , 13-H ) :   0.1056
B(  7-C , 14-H ) :  -0.2217 B(  8-C , 13-H ) :   0.2789 B(  8-C , 14-H ) :   1.2209
B(  9-N , 10-H ) :   0.9950 B(  9-N , 11-H ) :   1.0090 B( 13-H , 14-H ) :   0.1371
B( 13-H , 15-O ) :  -0.2257 B( 15-O , 39-O ) :   0.1583 B( 17-C , 26-C ) :   1.2241
B( 17-C , 27-H ) :   0.9779 B( 17-C , 28-H ) :   0.8640 B( 17-C , 29-C ) :   0.2739
B( 20-C , 21-C ) :   0.6251 B( 20-C , 26-C ) :   0.1704 B( 20-C , 32-C ) :   1.0901
B( 20-C , 35-H ) :   0.8665 B( 20-C , 36-H ) :   0.9160 B( 21-C , 22-H ) :   0.7408
B( 21-C , 23-H ) :   1.5410 B( 21-C , 29-C ) :   0.1204 B( 21-C , 32-C ) :   0.2902
B( 21-C , 39-O ) :   0.1278 B( 22-H , 23-H ) :   0.1740 B( 23-H , 39-O ) :  -0.1649
B( 26-C , 29-C ) :   0.4821 B( 26-C , 30-H ) :   0.9132 B( 26-C , 31-H ) :   1.0744
B( 26-C , 32-C ) :   0.2453 B( 26-C , 34-H ) :  -0.1096 B( 29-C , 32-C ) :   1.0940
B( 29-C , 33-H ) :   0.9289 B( 29-C , 34-H ) :   1.0034 B( 32-C , 37-H ) :   0.9275
B( 32-C , 38-H ) :   0.9393

Dispersion correction           -0.042910259
FINAL SINGLE POINT ENERGY     -1190.250944965135

DIPOLE MOMENT
-------------
                                X             Y             Z
Electronic contribution:    -20.60858       2.64311     -20.17703
Nuclear contribution   :     20.03262      -4.53368      20.24480
                        -----------------------------------------
Total Dipole Moment    :     -0.57596      -1.89058       0.06777
                        -----------------------------------------
Magnitude (a.u.)       :      1.97753
Magnitude (Debye)      :      5.02647

Rotational constants in cm-1:     0.014367     0.012055     0.007393
Rotational constants in MHz :   430.711297   361.391195   221.649333

                             ****ORCA TERMINATED NORMALLY****
TOTAL RUN TIME: 0 days 0 hours 11 minutes 11 seconds 609 msec
