                         Program Version 5.0.0 -  RELEASE  -
|  1> !PBE0 D3BJ RIJCOSX def2-TZVPD def2/J TightSCF xyzfile
|  2>
|  3> *xyzfile 0 1 D6.xyz
|  4>
|  5> %MaxCore 64000
|  6>
|  7> %pal nprocs 4
|  8> end
|  9>
| 10> %scf
| 11>   MaxIter 150
| 12> end
| 13>
| 14>
| 15>                          ****END OF INPUT****

CARTESIAN COORDINATES (ANGSTROEM)
---------------------------------
  C      4.490588    1.155899   -2.469290
  N      4.305394    1.222762   -3.908317
  C      4.906458   -3.102816   -5.954844
  C      3.511771   -2.806215   -6.492283
  H      2.736044   -3.373445   -5.973736
  H      3.444904   -3.040831   -7.555281
  S      3.004618   -1.096206   -6.389259
  C      4.631918    2.246365   -4.670958
  N      4.541686    2.143990   -5.987139
  C      5.084086    3.393584   -4.118545
  H      4.920675    3.570501   -3.135870
  H      5.254652    4.197390   -4.706956
  H      3.824530    0.449113   -4.350926
  H      4.343373    1.249318   -6.416646
  H      4.676712    2.956624   -6.574113
  O      4.128856   -0.329647   -6.953717
  F      1.781285   -1.000779   -7.136399
  C      5.942129    0.939500   -2.036893
  H      3.864305    0.328532   -2.136611
  H      4.076233    2.049994   -1.989010
  C      6.462677   -3.117775   -3.944671
  C      5.024977   -3.025679   -4.437625
  H      4.423321   -3.818693   -3.977648
  H      4.579350   -2.087131   -4.108727
  H      5.201533   -4.100207   -6.296905
  H      5.605922   -2.397822   -6.413368
  C      6.559957   -0.356290   -2.559086
  H      5.967976    0.952567   -0.942444
  H      6.547184    1.788331   -2.368849
  C      6.006283   -1.615917   -1.899301
  H      7.642360   -0.318000   -2.402059
  H      6.414855   -0.403433   -3.642587
  C      6.608718   -2.917014   -2.435655
  H      6.190324   -1.561115   -0.820948
  H      4.919250   -1.651245   -2.016586
  H      7.066975   -2.374258   -4.475514
  H      6.887808   -4.089747   -4.215332
  H      6.135197   -3.755573   -1.915159
  H      7.671142   -2.955503   -2.172291
  O      2.851546   -0.783683   -4.956789

 Total Charge           Charge          ....    0
 Multiplicity           Mult            ....    1
 Number of Electrons    NEL             ....  144
 Basis Dimension        Dim             ....  854

ORBITAL ENERGIES
----------------

  NO   OCC          E(Eh)            E(eV)
   0   2.0000     -89.296871     -2429.8914
   1   2.0000     -24.924380      -678.2269
   2   2.0000     -19.247068      -523.7394
   3   2.0000     -19.246623      -523.7272
   4   2.0000     -14.347940      -390.4273
   5   2.0000     -14.341530      -390.2529
   6   2.0000     -10.305326      -280.4222
   7   2.0000     -10.261579      -279.2317
   8   2.0000     -10.235987      -278.5354
   9   2.0000     -10.230269      -278.3798
  10   2.0000     -10.228917      -278.3430
  11   2.0000     -10.222475      -278.1677
  12   2.0000     -10.215820      -277.9866
  13   2.0000     -10.207619      -277.7634
  14   2.0000     -10.199432      -277.5407
  15   2.0000     -10.193330      -277.3746
  16   2.0000     -10.102814      -274.9116
  17   2.0000      -8.243377      -224.3137
  18   2.0000      -6.183526      -168.2623
  19   2.0000      -6.177614      -168.1014
  20   2.0000      -6.177136      -168.0884
  21   2.0000      -1.449879       -39.4532
  22   2.0000      -1.164449       -31.6863
  23   2.0000      -1.068082       -29.0640
  24   2.0000      -0.964985       -26.2586
  25   2.0000      -0.881523       -23.9875
  26   2.0000      -0.879440       -23.9308
  27   2.0000      -0.837478       -22.7889
  28   2.0000      -0.806112       -21.9354
  29   2.0000      -0.779482       -21.2108
  30   2.0000      -0.750095       -20.4111
  31   2.0000      -0.713691       -19.4205
  32   2.0000      -0.699605       -19.0372
  33   2.0000      -0.675314       -18.3762
  34   2.0000      -0.648481       -17.6461
  35   2.0000      -0.639854       -17.4113
  36   2.0000      -0.623756       -16.9733
  37   2.0000      -0.610344       -16.6083
  38   2.0000      -0.604819       -16.4580
  39   2.0000      -0.573207       -15.5978
  40   2.0000      -0.552051       -15.0221
  41   2.0000      -0.541293       -14.7293
  42   2.0000      -0.532155       -14.4807
  43   2.0000      -0.517753       -14.0888
  44   2.0000      -0.509946       -13.8763
  45   2.0000      -0.493204       -13.4208
  46   2.0000      -0.488256       -13.2861
  47   2.0000      -0.475938       -12.9509
  48   2.0000      -0.466216       -12.6864
  49   2.0000      -0.451854       -12.2956
  50   2.0000      -0.444393       -12.0925
  51   2.0000      -0.441665       -12.0183
  52   2.0000      -0.433136       -11.7862
  53   2.0000      -0.418530       -11.3888
  54   2.0000      -0.403849       -10.9893
  55   2.0000      -0.398609       -10.8467
  56   2.0000      -0.395650       -10.7662
  57   2.0000      -0.384677       -10.4676
  58   2.0000      -0.378083       -10.2881
  59   2.0000      -0.370186       -10.0733
  60   2.0000      -0.364910        -9.9297
  61   2.0000      -0.360672        -9.8144
  62   2.0000      -0.354414        -9.6441
  63   2.0000      -0.349534        -9.5113
  64   2.0000      -0.345002        -9.3880
  65   2.0000      -0.340827        -9.2744
  66   2.0000      -0.334442        -9.1006
  67   2.0000      -0.319382        -8.6908
  68   2.0000      -0.317411        -8.6372
  69   2.0000      -0.308558        -8.3963
  70   2.0000      -0.228253        -6.2111
  71   2.0000      -0.145062        -3.9473
  72   0.0000      -0.019564        -0.5324
  73   0.0000      -0.003339        -0.0909
  74   0.0000       0.009988         0.2718
  75   0.0000       0.016252         0.4422
  76   0.0000       0.025669         0.6985

MULLIKEN ATOMIC CHARGES
-----------------------
   0 C :   -0.779011
   1 N :    0.075428
   2 C :   -0.366648
   3 C :   -0.512205
   4 H :    0.265716
   5 H :    0.254144
   6 S :    1.128204
   7 C :    0.902569
   8 N :   -0.114092
   9 C :   -1.411241
  10 H :    0.225865
  11 H :    0.227911
  12 H :    0.131667
  13 H :    0.123604
  14 H :    0.137433
  15 O :   -0.736454
  16 F :   -0.081907
  17 C :   -0.214385
  18 H :    0.191994
  19 H :    0.216432
  20 C :   -0.295967
  21 C :   -0.110651
  22 H :    0.206703
  23 H :    0.022981
  24 H :    0.160371
  25 H :    0.192556
  26 C :   -0.152718
  27 H :    0.177727
  28 H :    0.253903
  29 C :   -0.332849
  30 H :    0.110135
  31 H :    0.100370
  32 C :   -0.422761
  33 H :    0.149495
  34 H :    0.183479
  35 H :    0.283261
  36 H :    0.156914
  37 H :    0.148380
  38 H :    0.150090
  39 O :   -0.646445
Sum of atomic charges:   -0.0000000

LOEWDIN ATOMIC CHARGES
----------------------
   0 C :   -0.188587
   1 N :    0.032919
   2 C :   -0.212780
   3 C :   -0.225250
   4 H :    0.114561
   5 H :    0.107840
   6 S :    0.667485
   7 C :   -0.554902
   8 N :    0.126059
   9 C :   -0.003120
  10 H :   -0.006366
  11 H :   -0.001691
  12 H :    0.059743
  13 H :    0.025941
  14 H :    0.113251
  15 O :   -0.278134
  16 F :   -0.021625
  17 C :   -0.189328
  18 H :    0.112810
  19 H :    0.113942
  20 C :   -0.216210
  21 C :   -0.217017
  22 H :    0.131121
  23 H :    0.087821
  24 H :    0.127353
  25 H :    0.120153
  26 C :   -0.212459
  27 H :    0.111843
  28 H :    0.103895
  29 C :   -0.221879
  30 H :    0.117651
  31 H :    0.104820
  32 C :   -0.212115
  33 H :    0.115825
  34 H :    0.100511
  35 H :    0.112645
  36 H :    0.114592
  37 H :    0.109444
  38 H :    0.111664
  39 O :   -0.282427

  Mayer bond orders larger than 0.100000
B(  0-C ,  1-N ) :   1.1543 B(  0-C ,  7-C ) :  -0.1278 B(  0-C ,  9-C ) :   0.1714
B(  0-C , 12-H ) :  -0.2142 B(  0-C , 17-C ) :   0.9044 B(  0-C , 18-H ) :   0.8341
B(  0-C , 19-H ) :   0.8484 B(  0-C , 26-C ) :   0.1316 B(  0-C , 29-C ) :   0.1795
B(  1-N ,  7-C ) :   0.9960 B(  1-N , 12-H ) :   0.9300 B(  1-N , 17-C ) :   0.1813
B(  2-C ,  3-C ) :   1.1697 B(  2-C , 20-C ) :   0.4759 B(  2-C , 21-C ) :   0.6363
B(  2-C , 22-H ) :  -0.1276 B(  2-C , 24-H ) :   0.9516 B(  2-C , 25-H ) :   0.8672
B(  3-C ,  4-H ) :   0.8769 B(  3-C ,  5-H ) :   0.8847 B(  3-C ,  6-S ) :   0.8218
B(  3-C , 15-O ) :   0.1054 B(  3-C , 16-F ) :   0.1026 B(  3-C , 21-C ) :   0.2893
B(  3-C , 39-O ) :   0.1024 B(  6-S , 15-O ) :   1.5507 B(  6-S , 16-F ) :   0.9663
B(  6-S , 39-O ) :   1.7206 B(  7-C ,  8-N ) :   1.0080 B(  7-C ,  9-C ) :   1.0167
B(  7-C , 11-H ) :  -0.1005 B(  7-C , 12-H ) :  -0.2894 B(  8-N , 13-H ) :   0.9353
B(  8-N , 14-H ) :   1.0022 B(  9-C , 10-H ) :   1.0119 B(  9-C , 11-H ) :   1.0676
B( 12-H , 39-O ) :   0.1033 B( 15-O , 39-O ) :   0.1311 B( 17-C , 26-C ) :   1.2208
B( 17-C , 27-H ) :   0.9332 B( 17-C , 28-H ) :   0.8998 B( 17-C , 29-C ) :   0.2715
B( 20-C , 21-C ) :   0.6407 B( 20-C , 26-C ) :   0.1680 B( 20-C , 32-C ) :   1.0925
B( 20-C , 35-H ) :   0.8586 B( 20-C , 36-H ) :   0.9167 B( 21-C , 22-H ) :   0.7380
B( 21-C , 23-H ) :   1.5314 B( 21-C , 29-C ) :   0.1229 B( 21-C , 32-C ) :   0.2915
B( 21-C , 39-O ) :   0.1253 B( 22-H , 23-H ) :   0.1840 B( 23-H , 39-O ) :  -0.1646
B( 26-C , 29-C ) :   0.4882 B( 26-C , 30-H ) :   0.9105 B( 26-C , 31-H ) :   1.0967
B( 26-C , 32-C ) :   0.2446 B( 26-C , 34-H ) :  -0.1037 B( 29-C , 32-C ) :   1.0879
B( 29-C , 33-H ) :   0.9301 B( 29-C , 34-H ) :   1.0043 B( 32-C , 37-H ) :   0.9288
B( 32-C , 38-H ) :   0.9413

Dispersion correction           -0.042837941
FINAL SINGLE POINT ENERGY     -1190.265317736074

DIPOLE MOMENT
-------------
                                X             Y             Z
Electronic contribution:    -21.13390       1.30493     -21.86503
Nuclear contribution   :     20.11362      -4.34709      20.52383
                        -----------------------------------------
Total Dipole Moment    :     -1.02029      -3.04216      -1.34120
                        -----------------------------------------
Magnitude (a.u.)       :      3.47772
Magnitude (Debye)      :      8.83966

Rotational constants in cm-1:     0.014449     0.012108     0.007447
Rotational constants in MHz :   433.168496   362.988632   223.260798

                             ****ORCA TERMINATED NORMALLY****
TOTAL RUN TIME: 0 days 0 hours 11 minutes 35 seconds 798 msec
