                         Program Version 5.0.0 -  RELEASE  -
|  1> !PBE0 D3BJ RIJCOSX def2-TZVPD def2/J TightSCF xyzfile
|  2>
|  3> *xyzfile 0 1 D7.xyz
|  4>
|  5> %MaxCore 64000
|  6>
|  7> %pal nprocs 4
|  8> end
|  9>
| 10> %scf
| 11>   MaxIter 150
| 12> end
| 13>
| 14>
| 15>                          ****END OF INPUT****

CARTESIAN COORDINATES (ANGSTROEM)
---------------------------------
  C      4.490588    1.155899   -2.469290
  C      4.305394    1.222762   -3.908317
  C      4.906458   -3.102816   -5.954844
  C      3.511771   -2.806215   -6.492283
  H      2.736044   -3.373445   -5.973736
  H      3.444904   -3.040831   -7.555281
  S      3.004618   -1.096206   -6.389259
  C      4.631918    2.246365   -4.670958
  N      4.541686    2.143990   -5.987139
  N      5.084086    3.393584   -4.118545
  H      4.920675    3.570501   -3.135870
  H      5.254652    4.197390   -4.706956
  H      3.824530    0.449113   -4.350926
  H      4.343373    1.249318   -6.416646
  H      4.676712    2.956624   -6.574113
  O      4.128856   -0.329647   -6.953717
  O      1.781285   -1.000779   -7.136399
  C      5.942129    0.939500   -2.036893
  H      3.864305    0.328532   -2.136611
  H      4.076233    2.049994   -1.989010
  C      6.462677   -3.117775   -3.944671
  C      5.024977   -3.025679   -4.437625
  H      4.423321   -3.818693   -3.977648
  H      4.579350   -2.087131   -4.108727
  H      5.201533   -4.100207   -6.296905
  H      5.605922   -2.397822   -6.413368
  C      6.559957   -0.356290   -2.559086
  H      5.967976    0.952567   -0.942444
  H      6.547184    1.788331   -2.368849
  C      6.006283   -1.615917   -1.899301
  H      7.642360   -0.318000   -2.402059
  H      6.414855   -0.403433   -3.642587
  C      6.608718   -2.917014   -2.435655
  H      6.190324   -1.561115   -0.820948
  H      4.919250   -1.651245   -2.016586
  H      7.066975   -2.374258   -4.475514
  H      6.887808   -4.089747   -4.215332
  H      6.135197   -3.755573   -1.915159
  H      7.671142   -2.955503   -2.172291
  F      2.851546   -0.783683   -4.956789

 Total Charge           Charge          ....    0
 Multiplicity           Mult            ....    1
 Number of Electrons    NEL             ....  144
 Basis Dimension        Dim             ....  854

ORBITAL ENERGIES
----------------

  NO   OCC          E(Eh)            E(eV)
   0   2.0000     -89.272352     -2429.2242
   1   2.0000     -24.883888      -677.1250
   2   2.0000     -19.231592      -523.3182
   3   2.0000     -19.228117      -523.2237
   4   2.0000     -14.373758      -391.1298
   5   2.0000     -14.351933      -390.5360
   6   2.0000     -10.287771      -279.9445
   7   2.0000     -10.250128      -278.9202
   8   2.0000     -10.248338      -278.8714
   9   2.0000     -10.229611      -278.3619
  10   2.0000     -10.220136      -278.1041
  11   2.0000     -10.213944      -277.9356
  12   2.0000     -10.206003      -277.7195
  13   2.0000     -10.197150      -277.4786
  14   2.0000     -10.192822      -277.3608
  15   2.0000     -10.189438      -277.2687
  16   2.0000     -10.125914      -275.5401
  17   2.0000      -8.218871      -223.6468
  18   2.0000      -6.159214      -167.6007
  19   2.0000      -6.153073      -167.4336
  20   2.0000      -6.152579      -167.4202
  21   2.0000      -1.401191       -38.1284
  22   2.0000      -1.151464       -31.3329
  23   2.0000      -1.059002       -28.8169
  24   2.0000      -0.970484       -26.4082
  25   2.0000      -0.878232       -23.8979
  26   2.0000      -0.868233       -23.6258
  27   2.0000      -0.833358       -22.6768
  28   2.0000      -0.805248       -21.9119
  29   2.0000      -0.779116       -21.2008
  30   2.0000      -0.743881       -20.2420
  31   2.0000      -0.728920       -19.8349
  32   2.0000      -0.691784       -18.8244
  33   2.0000      -0.663855       -18.0644
  34   2.0000      -0.641493       -17.4559
  35   2.0000      -0.612572       -16.6689
  36   2.0000      -0.606110       -16.4931
  37   2.0000      -0.596752       -16.2384
  38   2.0000      -0.592032       -16.1100
  39   2.0000      -0.571830       -15.5603
  40   2.0000      -0.562388       -15.3033
  41   2.0000      -0.541263       -14.7285
  42   2.0000      -0.514988       -14.0135
  43   2.0000      -0.504930       -13.7398
  44   2.0000      -0.499461       -13.5910
  45   2.0000      -0.493617       -13.4320
  46   2.0000      -0.490905       -13.3582
  47   2.0000      -0.472660       -12.8617
  48   2.0000      -0.464907       -12.6508
  49   2.0000      -0.456386       -12.4189
  50   2.0000      -0.443044       -12.0558
  51   2.0000      -0.437323       -11.9002
  52   2.0000      -0.434954       -11.8357
  53   2.0000      -0.418969       -11.4007
  54   2.0000      -0.409587       -11.1454
  55   2.0000      -0.396360       -10.7855
  56   2.0000      -0.389708       -10.6045
  57   2.0000      -0.384560       -10.4644
  58   2.0000      -0.378703       -10.3050
  59   2.0000      -0.368121       -10.0171
  60   2.0000      -0.361440        -9.8353
  61   2.0000      -0.355599        -9.6763
  62   2.0000      -0.351627        -9.5683
  63   2.0000      -0.344626        -9.3777
  64   2.0000      -0.340010        -9.2521
  65   2.0000      -0.338940        -9.2230
  66   2.0000      -0.331709        -9.0263
  67   2.0000      -0.315984        -8.5984
  68   2.0000      -0.309871        -8.4320
  69   2.0000      -0.304942        -8.2979
  70   2.0000      -0.259843        -7.0707
  71   2.0000      -0.159058        -4.3282
  72   0.0000      -0.005231        -0.1423
  73   0.0000       0.012743         0.3468
  74   0.0000       0.014306         0.3893
  75   0.0000       0.015655         0.4260
  76   0.0000       0.027349         0.7442

MULLIKEN ATOMIC CHARGES
-----------------------
   0 C :   -0.694725
   1 C :   -1.304523
   2 C :   -0.295980
   3 C :   -0.462741
   4 H :    0.227710
   5 H :    0.200888
   6 S :    1.228403
   7 C :    0.321092
   8 N :   -0.141109
   9 N :   -0.220993
  10 H :    0.180591
  11 H :    0.121545
  12 H :    1.037062
  13 H :    0.113740
  14 H :    0.135302
  15 O :   -0.744280
  16 O :   -0.541661
  17 C :   -0.356676
  18 H :    0.151227
  19 H :    0.242679
  20 C :   -0.333159
  21 C :   -0.040181
  22 H :    0.197034
  23 H :   -0.033314
  24 H :    0.167596
  25 H :    0.184720
  26 C :   -0.224794
  27 H :    0.112943
  28 H :    0.260973
  29 C :   -0.306427
  30 H :    0.115663
  31 H :    0.177854
  32 C :   -0.412924
  33 H :    0.145777
  34 H :    0.173635
  35 H :    0.285131
  36 H :    0.157910
  37 H :    0.146209
  38 H :    0.147139
  39 F :   -0.119337
Sum of atomic charges:   -0.0000000

LOEWDIN ATOMIC CHARGES
----------------------
   0 C :   -0.230047
   1 C :   -0.144210
   2 C :   -0.224535
   3 C :   -0.220913
   4 H :    0.113651
   5 H :    0.116718
   6 S :    0.640526
   7 C :   -0.520320
   8 N :    0.124971
   9 N :    0.132529
  10 H :    0.095985
  11 H :    0.097506
  12 H :    0.025163
  13 H :    0.033214
  14 H :    0.104180
  15 O :   -0.279584
  16 O :   -0.245283
  17 C :   -0.207809
  18 H :    0.103955
  19 H :    0.103188
  20 C :   -0.215619
  21 C :   -0.219964
  22 H :    0.130332
  23 H :    0.088991
  24 H :    0.124163
  25 H :    0.117658
  26 C :   -0.214312
  27 H :    0.106619
  28 H :    0.104523
  29 C :   -0.220641
  30 H :    0.116512
  31 H :    0.104111
  32 C :   -0.212967
  33 H :    0.115543
  34 H :    0.100114
  35 H :    0.112829
  36 H :    0.115381
  37 H :    0.109206
  38 H :    0.111141
  39 F :   -0.092503

  Mayer bond orders larger than 0.100000
B(  0-C ,  1-C ) :   1.2057 B(  0-C , 17-C ) :   0.8599 B(  0-C , 18-H ) :   1.0307
B(  0-C , 19-H ) :   0.8572 B(  0-C , 29-C ) :   0.1438 B(  1-C ,  7-C ) :   0.2728
B(  1-C , 10-H ) :  -0.1011 B(  1-C , 12-H ) :  -0.8267 B(  1-C , 17-C ) :   0.4667
B(  1-C , 39-F ) :   0.3126 B(  2-C ,  3-C ) :   1.0804 B(  2-C , 20-C ) :   0.4893
B(  2-C , 21-C ) :   0.5976 B(  2-C , 22-H ) :  -0.1381 B(  2-C , 24-H ) :   0.9463
B(  2-C , 25-H ) :   0.8853 B(  3-C ,  4-H ) :   0.9161 B(  3-C ,  5-H ) :   0.9321
B(  3-C ,  6-S ) :   0.8521 B(  3-C , 16-O ) :   0.1543 B(  3-C , 21-C ) :   0.2980
B(  6-S , 15-O ) :   1.4597 B(  6-S , 16-O ) :   1.5333 B(  6-S , 39-F ) :   1.0565
B(  7-C ,  8-N ) :   1.0321 B(  7-C ,  9-N ) :   1.2176 B(  7-C , 10-H ) :   0.1289
B(  7-C , 12-H ) :   0.6759 B(  8-N , 12-H ) :   0.1623 B(  8-N , 13-H ) :   0.9576
B(  8-N , 14-H ) :   1.0039 B(  9-N , 10-H ) :   0.9546 B(  9-N , 11-H ) :   1.0323
B(  9-N , 17-C ) :   0.1251 B( 12-H , 15-O ) :   0.1818 B( 12-H , 39-F ) :  -0.4115
B( 17-C , 26-C ) :   1.3148 B( 17-C , 27-H ) :   0.9746 B( 17-C , 28-H ) :   0.8213
B( 17-C , 29-C ) :   0.2837 B( 20-C , 21-C ) :   0.6895 B( 20-C , 26-C ) :   0.1839
B( 20-C , 32-C ) :   1.0806 B( 20-C , 35-H ) :   0.8544 B( 20-C , 36-H ) :   0.9199
B( 21-C , 22-H ) :   0.7402 B( 21-C , 23-H ) :   1.4346 B( 21-C , 29-C ) :   0.1377
B( 21-C , 32-C ) :   0.2749 B( 22-H , 23-H ) :   0.1859 B( 26-C , 29-C ) :   0.5060
B( 26-C , 30-H ) :   0.9195 B( 26-C , 31-H ) :   1.0739 B( 26-C , 32-C ) :   0.2037
B( 26-C , 34-H ) :  -0.1119 B( 29-C , 32-C ) :   1.0894 B( 29-C , 33-H ) :   0.9321
B( 29-C , 34-H ) :   1.0134 B( 32-C , 37-H ) :   0.9360 B( 32-C , 38-H ) :   0.9435

Dispersion correction           -0.042751257
FINAL SINGLE POINT ENERGY     -1190.278292364106

DIPOLE MOMENT
-------------
                                X             Y             Z
Electronic contribution:    -18.42405       4.04194     -18.02366
Nuclear contribution   :     18.74089      -4.92611      17.99644
                        -----------------------------------------
Total Dipole Moment    :      0.31685      -0.88417      -0.02722
                        -----------------------------------------
Magnitude (a.u.)       :      0.93962
Magnitude (Debye)      :      2.38832

Rotational constants in cm-1:     0.014210     0.012324     0.007480
Rotational constants in MHz :   425.991442   369.455467   224.259162

                             ****ORCA TERMINATED NORMALLY****
TOTAL RUN TIME: 0 days 0 hours 12 minutes 4 seconds 13 msec
