                         Program Version 5.0.0 -  RELEASE  -
|  1> !PBE0 D3BJ RIJCOSX def2-TZVPD def2/J TightSCF xyzfile
|  2>
|  3> *xyzfile 0 1 D8.xyz
|  4>
|  5> %MaxCore 64000
|  6>
|  7> %pal nprocs 4
|  8> end
|  9>
| 10> %scf
| 11>   MaxIter 150
| 12> end
| 13>
| 14>
| 15>                          ****END OF INPUT****

CARTESIAN COORDINATES (ANGSTROEM)
---------------------------------
  C      4.490588    1.155899   -2.469290
  N      4.305394    1.222762   -3.908317
  C      4.906458   -3.102816   -5.954844
  C      3.511771   -2.806215   -6.492283
  H      2.736044   -3.373445   -5.973736
  H      3.444904   -3.040831   -7.555281
  S      3.004618   -1.096206   -6.389259
  C      4.631918    2.246365   -4.670958
  C      4.541686    2.143990   -5.987139
  N      5.084086    3.393584   -4.118545
  H      4.920675    3.570501   -3.135870
  H      5.254652    4.197390   -4.706956
  H      3.824530    0.449113   -4.350926
  H      4.343373    1.249318   -6.416646
  H      4.676712    2.956624   -6.574113
  O      4.128856   -0.329647   -6.953717
  O      1.781285   -1.000779   -7.136399
  C      5.942129    0.939500   -2.036893
  H      3.864305    0.328532   -2.136611
  H      4.076233    2.049994   -1.989010
  C      6.462677   -3.117775   -3.944671
  C      5.024977   -3.025679   -4.437625
  H      4.423321   -3.818693   -3.977648
  H      4.579350   -2.087131   -4.108727
  H      5.201533   -4.100207   -6.296905
  H      5.605922   -2.397822   -6.413368
  C      6.559957   -0.356290   -2.559086
  H      5.967976    0.952567   -0.942444
  H      6.547184    1.788331   -2.368849
  C      6.006283   -1.615917   -1.899301
  H      7.642360   -0.318000   -2.402059
  H      6.414855   -0.403433   -3.642587
  C      6.608718   -2.917014   -2.435655
  H      6.190324   -1.561115   -0.820948
  H      4.919250   -1.651245   -2.016586
  H      7.066975   -2.374258   -4.475514
  H      6.887808   -4.089747   -4.215332
  H      6.135197   -3.755573   -1.915159
  H      7.671142   -2.955503   -2.172291
  F      2.851546   -0.783683   -4.956789

 Total Charge           Charge          ....    0
 Multiplicity           Mult            ....    1
 Number of Electrons    NEL             ....  144
 Basis Dimension        Dim             ....  854

ORBITAL ENERGIES
----------------

  NO   OCC          E(Eh)            E(eV)
   0   2.0000     -89.267295     -2429.0866
   1   2.0000     -24.895250      -677.4342
   2   2.0000     -19.228081      -523.2227
   3   2.0000     -19.215642      -522.8842
   4   2.0000     -14.370325      -391.0364
   5   2.0000     -14.368106      -390.9760
   6   2.0000     -10.286935      -279.9217
   7   2.0000     -10.253611      -279.0149
   8   2.0000     -10.250286      -278.9245
   9   2.0000     -10.246395      -278.8186
  10   2.0000     -10.236685      -278.5544
  11   2.0000     -10.227359      -278.3006
  12   2.0000     -10.223669      -278.2002
  13   2.0000     -10.220224      -278.1064
  14   2.0000     -10.215240      -277.9708
  15   2.0000     -10.214508      -277.9509
  16   2.0000     -10.101594      -274.8783
  17   2.0000      -8.214123      -223.5176
  18   2.0000      -6.154721      -167.4785
  19   2.0000      -6.148066      -167.2974
  20   2.0000      -6.147658      -167.2863
  21   2.0000      -1.411399       -38.4061
  22   2.0000      -1.145907       -31.1817
  23   2.0000      -1.050201       -28.5774
  24   2.0000      -0.982667       -26.7397
  25   2.0000      -0.895535       -24.3687
  26   2.0000      -0.871089       -23.7035
  27   2.0000      -0.840815       -22.8797
  28   2.0000      -0.811917       -22.0934
  29   2.0000      -0.776577       -21.1317
  30   2.0000      -0.753045       -20.4914
  31   2.0000      -0.730906       -19.8890
  32   2.0000      -0.697626       -18.9834
  33   2.0000      -0.672614       -18.3028
  34   2.0000      -0.650027       -17.6881
  35   2.0000      -0.628609       -17.1053
  36   2.0000      -0.616675       -16.7806
  37   2.0000      -0.605912       -16.4877
  38   2.0000      -0.590277       -16.0622
  39   2.0000      -0.578977       -15.7548
  40   2.0000      -0.574462       -15.6319
  41   2.0000      -0.533708       -14.5229
  42   2.0000      -0.517599       -14.0846
  43   2.0000      -0.504895       -13.7389
  44   2.0000      -0.498759       -13.5719
  45   2.0000      -0.497321       -13.5328
  46   2.0000      -0.486791       -13.2462
  47   2.0000      -0.482894       -13.1402
  48   2.0000      -0.476530       -12.9670
  49   2.0000      -0.459256       -12.4970
  50   2.0000      -0.456105       -12.4112
  51   2.0000      -0.446385       -12.1467
  52   2.0000      -0.431004       -11.7282
  53   2.0000      -0.418244       -11.3810
  54   2.0000      -0.407405       -11.0860
  55   2.0000      -0.404940       -11.0190
  56   2.0000      -0.398882       -10.8541
  57   2.0000      -0.390758       -10.6331
  58   2.0000      -0.382700       -10.4138
  59   2.0000      -0.377003       -10.2588
  60   2.0000      -0.376208       -10.2371
  61   2.0000      -0.360513        -9.8101
  62   2.0000      -0.359293        -9.7769
  63   2.0000      -0.352686        -9.5971
  64   2.0000      -0.349464        -9.5094
  65   2.0000      -0.335523        -9.1300
  66   2.0000      -0.333096        -9.0640
  67   2.0000      -0.330891        -9.0040
  68   2.0000      -0.325043        -8.8449
  69   2.0000      -0.308975        -8.4076
  70   2.0000      -0.254376        -6.9219
  71   2.0000      -0.155035        -4.2187
  72   0.0000      -0.008329        -0.2266
  73   0.0000       0.007532         0.2050
  74   0.0000       0.010753         0.2926
  75   0.0000       0.015026         0.4089
  76   0.0000       0.024432         0.6648

MULLIKEN ATOMIC CHARGES
-----------------------
   0 C :   -0.756280
   1 N :    0.052305
   2 C :   -0.275351
   3 C :   -0.472073
   4 H :    0.224740
   5 H :    0.202644
   6 S :    1.116569
   7 C :    1.139247
   8 C :   -2.141387
   9 N :   -0.276883
  10 H :    0.151228
  11 H :    0.159238
  12 H :    0.048452
  13 H :    0.889689
  14 H :    0.117568
  15 O :   -0.583218
  16 O :   -0.544546
  17 C :   -0.164933
  18 H :    0.172559
  19 H :    0.234928
  20 C :   -0.319336
  21 C :   -0.090607
  22 H :    0.222155
  23 H :   -0.072527
  24 H :    0.172421
  25 H :    0.185993
  26 C :   -0.175379
  27 H :    0.161949
  28 H :    0.249085
  29 C :   -0.340408
  30 H :    0.110211
  31 H :    0.164450
  32 C :   -0.406765
  33 H :    0.145839
  34 H :    0.190152
  35 H :    0.265692
  36 H :    0.159908
  37 H :    0.153151
  38 H :    0.148886
  39 F :   -0.219368
Sum of atomic charges:    0.0000000

LOEWDIN ATOMIC CHARGES
----------------------
   0 C :   -0.193079
   1 N :    0.031843
   2 C :   -0.224110
   3 C :   -0.223140
   4 H :    0.111676
   5 H :    0.117554
   6 S :    0.633271
   7 C :   -0.545094
   8 C :    0.014020
   9 N :    0.119512
  10 H :    0.085361
  11 H :    0.107781
  12 H :    0.086411
  13 H :   -0.044651
  14 H :    0.016292
  15 O :   -0.280263
  16 O :   -0.244002
  17 C :   -0.192179
  18 H :    0.112798
  19 H :    0.110491
  20 C :   -0.214359
  21 C :   -0.221428
  22 H :    0.130573
  23 H :    0.085734
  24 H :    0.124567
  25 H :    0.118916
  26 C :   -0.211178
  27 H :    0.111505
  28 H :    0.105927
  29 C :   -0.222616
  30 H :    0.119299
  31 H :    0.107097
  32 C :   -0.211232
  33 H :    0.116242
  34 H :    0.098358
  35 H :    0.113741
  36 H :    0.116904
  37 H :    0.110435
  38 H :    0.112394
  39 F :   -0.091373

  Mayer bond orders larger than 0.100000
B(  0-C ,  1-N ) :   1.1022 B(  0-C ,  7-C ) :  -0.1709 B(  0-C ,  9-N ) :   0.1434
B(  0-C , 12-H ) :  -0.1090 B(  0-C , 17-C ) :   0.8684 B(  0-C , 18-H ) :   0.9250
B(  0-C , 19-H ) :   0.8338 B(  0-C , 29-C ) :   0.1817 B(  1-N ,  7-C ) :   1.0727
B(  1-N , 12-H ) :   0.9562 B(  1-N , 17-C ) :   0.1524 B(  2-C ,  3-C ) :   1.0765
B(  2-C , 20-C ) :   0.4900 B(  2-C , 21-C ) :   0.6036 B(  2-C , 22-H ) :  -0.1275
B(  2-C , 24-H ) :   0.9369 B(  2-C , 25-H ) :   0.8878 B(  3-C ,  4-H ) :   0.9175
B(  3-C ,  5-H ) :   0.9356 B(  3-C ,  6-S ) :   0.8619 B(  3-C , 16-O ) :   0.1411
B(  3-C , 21-C ) :   0.3246 B(  6-S , 15-O ) :   1.5627 B(  6-S , 16-O ) :   1.5492
B(  6-S , 21-C ) :   0.1128 B(  6-S , 39-F ) :   1.0594 B(  7-C ,  8-C ) :   0.4887
B(  7-C ,  9-N ) :   1.0285 B(  7-C , 12-H ) :  -0.2713 B(  7-C , 13-H ) :   0.1123
B(  7-C , 14-H ) :  -0.2349 B(  8-C , 13-H ) :   0.2289 B(  8-C , 14-H ) :   1.2259
B(  9-N , 10-H ) :   0.9944 B(  9-N , 11-H ) :   1.0057 B( 13-H , 14-H ) :   0.1626
B( 13-H , 15-O ) :  -0.2579 B( 17-C , 26-C ) :   1.2335 B( 17-C , 27-H ) :   0.9791
B( 17-C , 28-H ) :   0.8637 B( 17-C , 29-C ) :   0.2689 B( 20-C , 21-C ) :   0.6727
B( 20-C , 26-C ) :   0.1657 B( 20-C , 32-C ) :   1.0965 B( 20-C , 35-H ) :   0.8661
B( 20-C , 36-H ) :   0.9127 B( 21-C , 22-H ) :   0.7519 B( 21-C , 23-H ) :   1.4896
B( 21-C , 29-C ) :   0.1188 B( 21-C , 32-C ) :   0.2922 B( 22-H , 23-H ) :   0.1534
B( 23-H , 39-F ) :  -0.1062 B( 26-C , 29-C ) :   0.4532 B( 26-C , 30-H ) :   0.9077
B( 26-C , 31-H ) :   1.0865 B( 26-C , 32-C ) :   0.2494 B( 26-C , 34-H ) :  -0.1183
B( 29-C , 32-C ) :   1.1016 B( 29-C , 33-H ) :   0.9327 B( 29-C , 34-H ) :   1.0066
B( 32-C , 37-H ) :   0.9277 B( 32-C , 38-H ) :   0.9355

Dispersion correction           -0.042549925
FINAL SINGLE POINT ENERGY     -1190.254654438980

DIPOLE MOMENT
-------------
                                X             Y             Z
Electronic contribution:    -18.44666       3.17679     -16.19282
Nuclear contribution   :     18.77618      -4.78855      17.68602
                        -----------------------------------------
Total Dipole Moment    :      0.32952      -1.61176       1.49321
                        -----------------------------------------
Magnitude (a.u.)       :      2.22171
Magnitude (Debye)      :      5.64714

Rotational constants in cm-1:     0.014368     0.012319     0.007509
Rotational constants in MHz :   430.738566   369.302170   225.105103

                             ****ORCA TERMINATED NORMALLY****
TOTAL RUN TIME: 0 days 0 hours 11 minutes 30 seconds 646 msec
