                         Program Version 5.0.0 -  RELEASE  -
|  1> !PBE0 D3BJ RIJCOSX def2-TZVPD def2/J TightSCF xyzfile
|  2>
|  3> *xyzfile 0 1 D9.xyz
|  4>
|  5> %MaxCore 64000
|  6>
|  7> %pal nprocs 4
|  8> end
|  9>
| 10> %scf
| 11>   MaxIter 150
| 12> end
| 13>
| 14>
| 15>                          ****END OF INPUT****

CARTESIAN COORDINATES (ANGSTROEM)
---------------------------------
  C      4.490588    1.155899   -2.469290
  N      4.305394    1.222762   -3.908317
  C      4.906458   -3.102816   -5.954844
  C      3.511771   -2.806215   -6.492283
  H      2.736044   -3.373445   -5.973736
  H      3.444904   -3.040831   -7.555281
  S      3.004618   -1.096206   -6.389259
  C      4.631918    2.246365   -4.670958
  N      4.541686    2.143990   -5.987139
  C      5.084086    3.393584   -4.118545
  H      4.920675    3.570501   -3.135870
  H      5.254652    4.197390   -4.706956
  H      3.824530    0.449113   -4.350926
  H      4.343373    1.249318   -6.416646
  H      4.676712    2.956624   -6.574113
  O      4.128856   -0.329647   -6.953717
  O      1.781285   -1.000779   -7.136399
  C      5.942129    0.939500   -2.036893
  H      3.864305    0.328532   -2.136611
  H      4.076233    2.049994   -1.989010
  C      6.462677   -3.117775   -3.944671
  C      5.024977   -3.025679   -4.437625
  H      4.423321   -3.818693   -3.977648
  H      4.579350   -2.087131   -4.108727
  H      5.201533   -4.100207   -6.296905
  H      5.605922   -2.397822   -6.413368
  C      6.559957   -0.356290   -2.559086
  H      5.967976    0.952567   -0.942444
  H      6.547184    1.788331   -2.368849
  C      6.006283   -1.615917   -1.899301
  H      7.642360   -0.318000   -2.402059
  H      6.414855   -0.403433   -3.642587
  C      6.608718   -2.917014   -2.435655
  H      6.190324   -1.561115   -0.820948
  H      4.919250   -1.651245   -2.016586
  H      7.066975   -2.374258   -4.475514
  H      6.887808   -4.089747   -4.215332
  H      6.135197   -3.755573   -1.915159
  H      7.671142   -2.955503   -2.172291
  F      2.851546   -0.783683   -4.956789

 Total Charge           Charge          ....    0
 Multiplicity           Mult            ....    1
 Number of Electrons    NEL             ....  144
 Basis Dimension        Dim             ....  854

ORBITAL ENERGIES
----------------

  NO   OCC          E(Eh)            E(eV)
   0   2.0000     -89.287067     -2429.6246
   1   2.0000     -24.909882      -677.8323
   2   2.0000     -19.245552      -523.6981
   3   2.0000     -19.242312      -523.6099
   4   2.0000     -14.373700      -391.1283
   5   2.0000     -14.350171      -390.4880
   6   2.0000     -10.300303      -280.2855
   7   2.0000     -10.259703      -279.1807
   8   2.0000     -10.249740      -278.9096
   9   2.0000     -10.246047      -278.8091
  10   2.0000     -10.242548      -278.7139
  11   2.0000     -10.230710      -278.3918
  12   2.0000     -10.224304      -278.2174
  13   2.0000     -10.218473      -278.0588
  14   2.0000     -10.210682      -277.8468
  15   2.0000     -10.205931      -277.7175
  16   2.0000     -10.115505      -275.2569
  17   2.0000      -8.233873      -224.0551
  18   2.0000      -6.174427      -168.0147
  19   2.0000      -6.167890      -167.8368
  20   2.0000      -6.167407      -167.8237
  21   2.0000      -1.426274       -38.8109
  22   2.0000      -1.166138       -31.7322
  23   2.0000      -1.072996       -29.1977
  24   2.0000      -0.982580       -26.7374
  25   2.0000      -0.894800       -24.3488
  26   2.0000      -0.881016       -23.9737
  27   2.0000      -0.843445       -22.9513
  28   2.0000      -0.810455       -22.0536
  29   2.0000      -0.779156       -21.2019
  30   2.0000      -0.756040       -20.5729
  31   2.0000      -0.723078       -19.6760
  32   2.0000      -0.710172       -19.3248
  33   2.0000      -0.683125       -18.5888
  34   2.0000      -0.658204       -17.9106
  35   2.0000      -0.633243       -17.2314
  36   2.0000      -0.623021       -16.9533
  37   2.0000      -0.614857       -16.7311
  38   2.0000      -0.598915       -16.2973
  39   2.0000      -0.582994       -15.8641
  40   2.0000      -0.555324       -15.1111
  41   2.0000      -0.542983       -14.7753
  42   2.0000      -0.530067       -14.4239
  43   2.0000      -0.524745       -14.2790
  44   2.0000      -0.508800       -13.8451
  45   2.0000      -0.505885       -13.7658
  46   2.0000      -0.492063       -13.3897
  47   2.0000      -0.486507       -13.2385
  48   2.0000      -0.469834       -12.7848
  49   2.0000      -0.464927       -12.6513
  50   2.0000      -0.452874       -12.3233
  51   2.0000      -0.450971       -12.2715
  52   2.0000      -0.433509       -11.7964
  53   2.0000      -0.425620       -11.5817
  54   2.0000      -0.411685       -11.2025
  55   2.0000      -0.405909       -11.0453
  56   2.0000      -0.399061       -10.8590
  57   2.0000      -0.390178       -10.6173
  58   2.0000      -0.384225       -10.4553
  59   2.0000      -0.377553       -10.2737
  60   2.0000      -0.373794       -10.1714
  61   2.0000      -0.369551       -10.0560
  62   2.0000      -0.363237        -9.8842
  63   2.0000      -0.358389        -9.7523
  64   2.0000      -0.355956        -9.6861
  65   2.0000      -0.350785        -9.5453
  66   2.0000      -0.347466        -9.4550
  67   2.0000      -0.330893        -9.0041
  68   2.0000      -0.329209        -8.9582
  69   2.0000      -0.320551        -8.7226
  70   2.0000      -0.243880        -6.6363
  71   2.0000      -0.158163        -4.3038
  72   0.0000      -0.016842        -0.4583
  73   0.0000       0.003607         0.0982
  74   0.0000       0.006142         0.1671
  75   0.0000       0.014506         0.3947
  76   0.0000       0.025074         0.6823

MULLIKEN ATOMIC CHARGES
-----------------------
   0 C :   -0.776530
   1 N :    0.045006
   2 C :   -0.279353
   3 C :   -0.458841
   4 H :    0.233280
   5 H :    0.210213
   6 S :    1.132778
   7 C :    0.910202
   8 N :   -0.104366
   9 C :   -1.404266
  10 H :    0.229051
  11 H :    0.226012
  12 H :    0.134837
  13 H :    0.118721
  14 H :    0.143857
  15 O :   -0.745609
  16 O :   -0.534157
  17 C :   -0.215884
  18 H :    0.205479
  19 H :    0.217026
  20 C :   -0.324087
  21 C :   -0.118754
  22 H :    0.224520
  23 H :   -0.042944
  24 H :    0.170275
  25 H :    0.193475
  26 C :   -0.147230
  27 H :    0.177681
  28 H :    0.254959
  29 C :   -0.326441
  30 H :    0.112483
  31 H :    0.104723
  32 C :   -0.416056
  33 H :    0.145655
  34 H :    0.179412
  35 H :    0.278582
  36 H :    0.159529
  37 H :    0.151462
  38 H :    0.150859
  39 F :   -0.215557
Sum of atomic charges:   -0.0000000

LOEWDIN ATOMIC CHARGES
----------------------
   0 C :   -0.188784
   1 N :    0.030567
   2 C :   -0.223424
   3 C :   -0.219156
   4 H :    0.114509
   5 H :    0.118774
   6 S :    0.640237
   7 C :   -0.553467
   8 N :    0.129355
   9 C :    0.003239
  10 H :   -0.003823
  11 H :    0.002982
  12 H :    0.081205
  13 H :    0.026842
  14 H :    0.116757
  15 O :   -0.278378
  16 O :   -0.238238
  17 C :   -0.187562
  18 H :    0.111609
  19 H :    0.115994
  20 C :   -0.214371
  21 C :   -0.221264
  22 H :    0.131235
  23 H :    0.085730
  24 H :    0.125903
  25 H :    0.118484
  26 C :   -0.212225
  27 H :    0.113508
  28 H :    0.105533
  29 C :   -0.223018
  30 H :    0.119272
  31 H :    0.104348
  32 C :   -0.211274
  33 H :    0.116761
  34 H :    0.097787
  35 H :    0.113474
  36 H :    0.116925
  37 H :    0.110243
  38 H :    0.112768
  39 F :   -0.089059

  Mayer bond orders larger than 0.100000
B(  0-C ,  1-N ) :   1.1371 B(  0-C ,  7-C ) :  -0.1355 B(  0-C ,  9-C ) :   0.1741
B(  0-C , 12-H ) :  -0.1922 B(  0-C , 17-C ) :   0.9279 B(  0-C , 18-H ) :   0.8158
B(  0-C , 19-H ) :   0.8539 B(  0-C , 26-C ) :   0.1263 B(  0-C , 29-C ) :   0.1838
B(  1-N ,  7-C ) :   1.0107 B(  1-N , 12-H ) :   0.9422 B(  1-N , 17-C ) :   0.1821
B(  2-C ,  3-C ) :   1.0910 B(  2-C , 20-C ) :   0.4893 B(  2-C , 21-C ) :   0.5953
B(  2-C , 22-H ) :  -0.1282 B(  2-C , 24-H ) :   0.9385 B(  2-C , 25-H ) :   0.8820
B(  3-C ,  4-H ) :   0.9140 B(  3-C ,  5-H ) :   0.9274 B(  3-C ,  6-S ) :   0.8446
B(  3-C , 16-O ) :   0.1462 B(  3-C , 21-C ) :   0.3210 B(  6-S , 15-O ) :   1.5107
B(  6-S , 16-O ) :   1.5731 B(  6-S , 21-C ) :   0.1125 B(  6-S , 39-F ) :   1.0780
B(  7-C ,  8-N ) :   0.9891 B(  7-C ,  9-C ) :   1.0363 B(  7-C , 11-H ) :  -0.1024
B(  7-C , 12-H ) :  -0.2720 B(  8-N , 13-H ) :   0.9413 B(  8-N , 14-H ) :   0.9935
B(  9-C , 10-H ) :   1.0062 B(  9-C , 11-H ) :   1.0644 B( 17-C , 26-C ) :   1.2305
B( 17-C , 27-H ) :   0.9325 B( 17-C , 28-H ) :   0.9012 B( 17-C , 29-C ) :   0.2662
B( 20-C , 21-C ) :   0.6891 B( 20-C , 26-C ) :   0.1625 B( 20-C , 32-C ) :   1.0997
B( 20-C , 35-H ) :   0.8581 B( 20-C , 36-H ) :   0.9131 B( 21-C , 22-H ) :   0.7481
B( 21-C , 23-H ) :   1.4801 B( 21-C , 29-C ) :   0.1225 B( 21-C , 32-C ) :   0.2917
B( 22-H , 23-H ) :   0.1654 B( 23-H , 39-F ) :  -0.1055 B( 26-C , 29-C ) :   0.4630
B( 26-C , 30-H ) :   0.9050 B( 26-C , 31-H ) :   1.1093 B( 26-C , 32-C ) :   0.2481
B( 26-C , 34-H ) :  -0.1122 B( 29-C , 32-C ) :   1.0934 B( 29-C , 33-H ) :   0.9339
B( 29-C , 34-H ) :   1.0064 B( 32-C , 37-H ) :   0.9294 B( 32-C , 38-H ) :   0.9379

Dispersion correction           -0.042479932
FINAL SINGLE POINT ENERGY     -1190.271209554070

DIPOLE MOMENT
-------------
                                X             Y             Z
Electronic contribution:    -18.95999       1.86078     -17.84536
Nuclear contribution   :     18.85717      -4.60195      17.96505
                        -----------------------------------------
Total Dipole Moment    :     -0.10281      -2.74117       0.11970
                        -----------------------------------------
Magnitude (a.u.)       :      2.74571
Magnitude (Debye)      :      6.97904

Rotational constants in cm-1:     0.014436     0.012382     0.007563
Rotational constants in MHz :   432.785702   371.214592   226.743759

                             ****ORCA TERMINATED NORMALLY****
TOTAL RUN TIME: 0 days 0 hours 12 minutes 2 seconds 906 msec
