                         Program Version 5.0.0 -  RELEASE  -
|  1> !wB97X-D3 RIJCOSX def2-TZVP def2/J TightSCF
|  2> *xyz -1 1
|  3> C         -0.50835        1.72268       -4.12430
|  4> S         -1.32861        0.14674       -4.43578
|  5> O         -2.57135        0.47573       -5.06834
|  6> O         -1.51496       -0.40051       -3.06342
|  7> O         -0.37793       -0.62756       -5.20114
|  8> H         -0.31967        2.21655       -5.05456
|  9> H          0.41835        1.54859       -3.61852
| 10> H         -1.13714        2.33776       -3.51504
| 11> *
| 12> %MaxCore 64000
| 13>
| 14> %pal nprocs 18
| 15> end
| 16>
| 17> %scf
| 18>   MaxIter 150
| 19> end
| 20>
| 21>
| 22>                          ****END OF INPUT****

CARTESIAN COORDINATES (ANGSTROEM)
---------------------------------
  C     -0.508350    1.722680   -4.124300
  S     -1.328610    0.146740   -4.435780
  O     -2.571350    0.475730   -5.068340
  O     -1.514960   -0.400510   -3.063420
  O     -0.377930   -0.627560   -5.201140
  H     -0.319670    2.216550   -5.054560
  H      0.418350    1.548590   -3.618520
  H     -1.137140    2.337760   -3.515040

 Total Charge           Charge          ....   -1
 Multiplicity           Mult            ....    1
 Number of Electrons    NEL             ....   50
 Basis Dimension        Dim             ....  179

ORBITAL ENERGIES
----------------

  NO   OCC          E(Eh)            E(eV)
   0   2.0000     -88.928244     -2419.8605
   1   2.0000     -19.004105      -517.1280
   2   2.0000     -19.001032      -517.0444
   3   2.0000     -18.984652      -516.5987
   4   2.0000     -10.115861      -275.2666
   5   2.0000      -7.990478      -217.4320
   6   2.0000      -5.945084      -161.7740
   7   2.0000      -5.943374      -161.7274
   8   2.0000      -5.943106      -161.7201
   9   2.0000      -1.033909       -28.1341
  10   2.0000      -0.905135       -24.6300
  11   2.0000      -0.874553       -23.7978
  12   2.0000      -0.687497       -18.7078
  13   2.0000      -0.485176       -13.2023
  14   2.0000      -0.394392       -10.7319
  15   2.0000      -0.381605       -10.3840
  16   2.0000      -0.381200       -10.3730
  17   2.0000      -0.339198        -9.2300
  18   2.0000      -0.336474        -9.1559
  19   2.0000      -0.243311        -6.6208
  20   2.0000      -0.242423        -6.5967
  21   2.0000      -0.206970        -5.6319
  22   2.0000      -0.197543        -5.3754
  23   2.0000      -0.184476        -5.0199
  24   2.0000      -0.150788        -4.1032
  25   0.0000       0.278948         7.5906
  26   0.0000       0.336235         9.1494
  27   0.0000       0.338204         9.2030
  28   0.0000       0.349158         9.5011
  29   0.0000       0.412685        11.2297

MULLIKEN ATOMIC CHARGES
-----------------------
   0 C :   -0.390978
   1 S :    0.850832
   2 O :   -0.552973
   3 O :   -0.616128
   4 O :   -0.566671
   5 H :    0.085280
   6 H :    0.096089
   7 H :    0.094549
Sum of atomic charges:   -1.0000000

LOEWDIN ATOMIC CHARGES
----------------------
   0 C :   -0.463944
   1 S :    0.391608
   2 O :   -0.374027
   3 O :   -0.447985
   4 O :   -0.389729
   5 H :    0.092011
   6 H :    0.096361
   7 H :    0.095705

  Mayer bond orders larger than 0.100000
B(  0-C ,  1-S ) :   0.8736 B(  0-C ,  5-H ) :   0.9661 B(  0-C ,  6-H ) :   0.9715
B(  0-C ,  7-H ) :   0.9706 B(  1-S ,  2-O ) :   1.8118 B(  1-S ,  3-O ) :   1.7422
B(  1-S ,  4-O ) :   1.7964

Dispersion correction           -0.001526736
FINAL SINGLE POINT ENERGY      -663.899581069904

DIPOLE MOMENT
-------------
                                X             Y             Z
Electronic contribution:     -2.02109      -3.80318      -0.91288
Nuclear contribution   :      2.60425       5.03732       0.91691
                        -----------------------------------------
Total Dipole Moment    :      0.58316       1.23413       0.00402
                        -----------------------------------------
Magnitude (a.u.)       :      1.36498
Magnitude (Debye)      :      3.46951

Rotational constants in cm-1:     0.171343     0.157827     0.155747
Rotational constants in MHz :  5136.740483  4731.521814  4669.189064

                             ****ORCA TERMINATED NORMALLY****
TOTAL RUN TIME: 0 days 0 hours 0 minutes 8 seconds 881 msec
