                         Program Version 5.0.0 -  RELEASE  -
|  1> !wB97X-D3 RIJCOSX def2-TZVP def2/J TightSCF
|  2> *xyz 1 1
|  3> C          1.36401        0.46874       -2.81376
|  4> N          0.42884        0.32140       -1.65531
|  5> H          0.74858       -0.40054       -1.00134
|  6> H         -0.46105        0.02333       -2.07773
|  7> H          0.31026        1.20137       -1.13495
|  8> H          0.99872        1.22859       -3.47261
|  9> H          1.42772       -0.46011       -3.34109
| 10> H          2.33442        0.74312       -2.45611
| 11> *
| 12> %MaxCore 64000
| 13>
| 14> %pal nprocs 18
| 15> end
| 16>
| 17> %scf
| 18>   MaxIter 150
| 19> end
| 20>
| 21>
| 22>                          ****END OF INPUT****

CARTESIAN COORDINATES (ANGSTROEM)
---------------------------------
  C      1.364010    0.468740   -2.813760
  N      0.428840    0.321400   -1.655310
  H      0.748580   -0.400540   -1.001340
  H     -0.461050    0.023330   -2.077730
  H      0.310260    1.201370   -1.134950
  H      0.998720    1.228590   -3.472610
  H      1.427720   -0.460110   -3.341090
  H      2.334420    0.743120   -2.456110

 Total Charge           Charge          ....    1
 Multiplicity           Mult            ....    1
 Number of Electrons    NEL             ....   18
 Basis Dimension        Dim             ....   98

ORBITAL ENERGIES
----------------

  NO   OCC          E(Eh)            E(eV)
   0   2.0000     -14.771393      -401.9500
   1   2.0000     -10.530999      -286.5631
   2   2.0000      -1.341832       -36.5131
   3   2.0000      -1.050106       -28.5748
   4   2.0000      -0.915052       -24.8998
   5   2.0000      -0.910361       -24.7722
   6   2.0000      -0.808440       -21.9988
   7   2.0000      -0.725086       -19.7306
   8   2.0000      -0.723141       -19.6777
   9   0.0000      -0.118590        -3.2270
  10   0.0000      -0.047511        -1.2928
  11   0.0000      -0.045688        -1.2432
  12   0.0000      -0.028680        -0.7804
  13   0.0000       0.015903         0.4327

MULLIKEN ATOMIC CHARGES
-----------------------
   0 C :   -0.330230
   1 N :   -0.310580
   2 H :    0.341735
   3 H :    0.343377
   4 H :    0.344596
   5 H :    0.204662
   6 H :    0.204317
   7 H :    0.202122
Sum of atomic charges:    1.0000000

LOEWDIN ATOMIC CHARGES
----------------------
   0 C :   -0.243867
   1 N :    0.152235
   2 H :    0.223745
   3 H :    0.230077
   4 H :    0.226032
   5 H :    0.137612
   6 H :    0.137596
   7 H :    0.136569

  Mayer bond orders larger than 0.100000
B(  0-C ,  1-N ) :   0.9035 B(  0-C ,  5-H ) :   0.9522 B(  0-C ,  6-H ) :   0.9518
B(  0-C ,  7-H ) :   0.9552 B(  1-N ,  2-H ) :   0.8708 B(  1-N ,  3-H ) :   0.8724
B(  1-N ,  4-H ) :   0.8680

Dispersion correction           -0.000499591
FINAL SINGLE POINT ENERGY       -96.225487805028

DIPOLE MOMENT
-------------
                                X             Y             Z
Electronic contribution:     -0.69084      -0.09648       0.89538
Nuclear contribution   :      0.14628      -0.00095      -0.25828
                        -----------------------------------------
Total Dipole Moment    :     -0.54457      -0.09742       0.63711
                        -----------------------------------------
Magnitude (a.u.)       :      0.84377
Magnitude (Debye)      :      2.14470

Rotational constants in cm-1:     2.853706     0.682028     0.680630
Rotational constants in MHz : 85551.942317 20446.672693 20404.761959

                             ****ORCA TERMINATED NORMALLY****
TOTAL RUN TIME: 0 days 0 hours 0 minutes 4 seconds 888 msec
