                         Program Version 5.0.0 -  RELEASE  -
|  1> !wB97X-D3 RIJCOSX def2-TZVP def2/J TightSCF
|  2> *xyz 0 1
|  3> C         -0.50835        1.72268       -4.12430
|  4> S         -1.32861        0.14674       -4.43578
|  5> F         -2.57135        0.47573       -5.06834
|  6> O         -1.51496       -0.40051       -3.06342
|  7> O         -0.37793       -0.62756       -5.20114
|  8> H         -0.31967        2.21655       -5.05456
|  9> H          0.41835        1.54859       -3.61852
| 10> H         -1.13714        2.33776       -3.51504
| 11> *
| 12> %MaxCore 64000
| 13>
| 14> %pal nprocs 18
| 15> end
| 16>
| 17> %scf
| 18>   MaxIter 150
| 19> end
| 20>
| 21>
| 22>                          ****END OF INPUT****

CARTESIAN COORDINATES (ANGSTROEM)
---------------------------------
  C     -0.508350    1.722680   -4.124300
  S     -1.328610    0.146740   -4.435780
  F     -2.571350    0.475730   -5.068340
  O     -1.514960   -0.400510   -3.063420
  O     -0.377930   -0.627560   -5.201140
  H     -0.319670    2.216550   -5.054560
  H      0.418350    1.548590   -3.618520
  H     -1.137140    2.337760   -3.515040

 Total Charge           Charge          ....    0
 Multiplicity           Mult            ....    1
 Number of Electrons    NEL             ....   50
 Basis Dimension        Dim             ....  179

ORBITAL ENERGIES
----------------

  NO   OCC          E(Eh)            E(eV)
   0   2.0000     -89.202472     -2427.3227
   1   2.0000     -24.916487      -678.0121
   2   2.0000     -19.247017      -523.7380
   3   2.0000     -19.230811      -523.2970
   4   2.0000     -10.328643      -281.0567
   5   2.0000      -8.265167      -224.9066
   6   2.0000      -6.222528      -169.3236
   7   2.0000      -6.216478      -169.1590
   8   2.0000      -6.215626      -169.1358
   9   2.0000      -1.513420       -41.1823
  10   2.0000      -1.221439       -33.2371
  11   2.0000      -1.118883       -30.4464
  12   2.0000      -0.913206       -24.8496
  13   2.0000      -0.833159       -22.6714
  14   2.0000      -0.714558       -19.4441
  15   2.0000      -0.702347       -19.1118
  16   2.0000      -0.661619       -18.0036
  17   2.0000      -0.576417       -15.6851
  18   2.0000      -0.575029       -15.6473
  19   2.0000      -0.563376       -15.3303
  20   2.0000      -0.534796       -14.5525
  21   2.0000      -0.485956       -13.2235
  22   2.0000      -0.434293       -11.8177
  23   2.0000      -0.418766       -11.3952
  24   2.0000      -0.402676       -10.9574
  25   0.0000       0.100386         2.7316
  26   0.0000       0.132356         3.6016
  27   0.0000       0.137653         3.7457
  28   0.0000       0.158997         4.3265
  29   0.0000       0.170348         4.6354

MULLIKEN ATOMIC CHARGES
-----------------------
   0 C :   -0.390819
   1 S :    0.867737
   2 F :   -0.088018
   3 O :   -0.461210
   4 O :   -0.413320
   5 H :    0.150968
   6 H :    0.178152
   7 H :    0.156510
Sum of atomic charges:   -0.0000000

LOEWDIN ATOMIC CHARGES
----------------------
   0 C :   -0.399702
   1 S :    0.515564
   2 F :    0.110550
   3 O :   -0.323809
   4 O :   -0.268273
   5 H :    0.115775
   6 H :    0.131414
   7 H :    0.118481

  Mayer bond orders larger than 0.100000
B(  0-C ,  1-S ) :   0.9262 B(  0-C ,  5-H ) :   0.9469 B(  0-C ,  6-H ) :   0.9501
B(  0-C ,  7-H ) :   0.9485 B(  1-S ,  2-F ) :   1.1596 B(  1-S ,  3-O ) :   1.8780
B(  1-S ,  4-O ) :   1.9350

Dispersion correction           -0.001536738
FINAL SINGLE POINT ENERGY      -688.414579780868

DIPOLE MOMENT
-------------
                                X             Y             Z
Electronic contribution:     -4.09101      -3.20141      -2.01135
Nuclear contribution   :      3.90013       4.80063       1.59574
                        -----------------------------------------
Total Dipole Moment    :     -0.19088       1.59922      -0.41562
                        -----------------------------------------
Magnitude (a.u.)       :      1.66334
Magnitude (Debye)      :      4.22786

Rotational constants in cm-1:     0.163395     0.155047     0.147447
Rotational constants in MHz :  4898.460101  4648.206837  4420.340547

                             ****ORCA TERMINATED NORMALLY****
TOTAL RUN TIME: 0 days 0 hours 0 minutes 11 seconds 126 msec
