                         Program Version 5.0.0 -  RELEASE  -
|  1> !wB97X-D3 RIJCOSX def2-TZVP def2/J TightSCF
|  2> *xyz 0 1
|  3> C          1.36401        0.46874       -2.81376
|  4> C          0.42884        0.32140       -1.65531
|  5> H          0.74858       -0.40054       -1.00134
|  6> H         -0.46105        0.02333       -2.07773
|  7> H          0.31026        1.20137       -1.13495
|  8> H          0.99872        1.22859       -3.47261
|  9> H          1.42772       -0.46011       -3.34109
| 10> H          2.33442        0.74312       -2.45611
| 11> *
| 12> %MaxCore 64000
| 13>
| 14> %pal nprocs 18
| 15> end
| 16>
| 17> %scf
| 18>   MaxIter 150
| 19> end
| 20>
| 21>
| 22>                          ****END OF INPUT****

CARTESIAN COORDINATES (ANGSTROEM)
---------------------------------
  C      1.364010    0.468740   -2.813760
  C      0.428840    0.321400   -1.655310
  H      0.748580   -0.400540   -1.001340
  H     -0.461050    0.023330   -2.077730
  H      0.310260    1.201370   -1.134950
  H      0.998720    1.228590   -3.472610
  H      1.427720   -0.460110   -3.341090
  H      2.334420    0.743120   -2.456110

 Total Charge           Charge          ....    0
 Multiplicity           Mult            ....    1
 Number of Electrons    NEL             ....   18
 Basis Dimension        Dim             ....   98

ORBITAL ENERGIES
----------------

  NO   OCC          E(Eh)            E(eV)
   0   2.0000     -10.248605      -278.8787
   1   2.0000     -10.234457      -278.4937
   2   2.0000      -0.884530       -24.0693
   3   2.0000      -0.731441       -19.9035
   4   2.0000      -0.551922       -15.0186
   5   2.0000      -0.548121       -14.9151
   6   2.0000      -0.460863       -12.5407
   7   2.0000      -0.442113       -12.0305
   8   2.0000      -0.437834       -11.9141
   9   0.0000       0.127274         3.4633
  10   0.0000       0.171858         4.6765
  11   0.0000       0.200321         5.4510
  12   0.0000       0.201581         5.4853
  13   0.0000       0.211528         5.7560

MULLIKEN ATOMIC CHARGES
-----------------------
   0 C :   -0.308162
   1 C :   -0.296031
   2 H :    0.102299
   3 H :    0.099417
   4 H :    0.102420
   5 H :    0.100760
   6 H :    0.100644
   7 H :    0.098651
Sum of atomic charges:   -0.0000000

LOEWDIN ATOMIC CHARGES
----------------------
   0 C :   -0.330678
   1 C :   -0.323070
   2 H :    0.103410
   3 H :    0.109523
   4 H :    0.104041
   5 H :    0.112777
   6 H :    0.112921
   7 H :    0.111076

  Mayer bond orders larger than 0.100000
B(  0-C ,  1-C ) :   0.9791 B(  0-C ,  5-H ) :   0.9813 B(  0-C ,  6-H ) :   0.9815
B(  0-C ,  7-H ) :   0.9828 B(  1-C ,  2-H ) :   0.9830 B(  1-C ,  3-H ) :   0.9838
B(  1-C ,  4-H ) :   0.9821

Dispersion correction           -0.000488400
FINAL SINGLE POINT ENERGY       -79.822752589841

DIPOLE MOMENT
-------------
                                X             Y             Z
Electronic contribution:     -0.00168       0.01876       0.07153
Nuclear contribution   :     -0.01491      -0.02598      -0.05743
                        -----------------------------------------
Total Dipole Moment    :     -0.01660      -0.00721       0.01411
                        -----------------------------------------
Magnitude (a.u.)       :      0.02294
Magnitude (Debye)      :      0.05832

Rotational constants in cm-1:     2.853707     0.712330     0.710805
Rotational constants in MHz : 85551.986377 21355.123158 21309.410122

                             ****ORCA TERMINATED NORMALLY****
TOTAL RUN TIME: 0 days 0 hours 0 minutes 4 seconds 740 msec
