                         Program Version 5.0.0 -  RELEASE  -
|  1> !wB97X-D3 RIJCOSX def2-TZVP def2/J TightSCF
|  2> *xyz 0 1
|  3> C         -0.50835        1.72268       -4.12430
|  4> S         -1.32861        0.14674       -4.43578
|  5> O         -2.57135        0.47573       -5.06834
|  6> F         -1.51496       -0.40051       -3.06342
|  7> O         -0.37793       -0.62756       -5.20114
|  8> H         -0.31967        2.21655       -5.05456
|  9> H          0.41835        1.54859       -3.61852
| 10> H         -1.13714        2.33776       -3.51504
| 11> *
| 12> %MaxCore 64000
| 13>
| 14> %pal nprocs 18
| 15> end
| 16>
| 17> %scf
| 18>   MaxIter 150
| 19> end
| 20>
| 21>
| 22>                          ****END OF INPUT****

CARTESIAN COORDINATES (ANGSTROEM)
---------------------------------
  C     -0.508350    1.722680   -4.124300
  S     -1.328610    0.146740   -4.435780
  O     -2.571350    0.475730   -5.068340
  F     -1.514960   -0.400510   -3.063420
  O     -0.377930   -0.627560   -5.201140
  H     -0.319670    2.216550   -5.054560
  H      0.418350    1.548590   -3.618520
  H     -1.137140    2.337760   -3.515040

 Total Charge           Charge          ....    0
 Multiplicity           Mult            ....    1
 Number of Electrons    NEL             ....   50
 Basis Dimension        Dim             ....  179

ORBITAL ENERGIES
----------------

  NO   OCC          E(Eh)            E(eV)
   0   2.0000     -89.199447     -2427.2403
   1   2.0000     -24.887511      -677.2236
   2   2.0000     -19.249407      -523.8030
   3   2.0000     -19.246321      -523.7190
   4   2.0000     -10.327837      -281.0347
   5   2.0000      -8.262188      -224.8256
   6   2.0000      -6.219615      -169.2443
   7   2.0000      -6.213679      -169.0828
   8   2.0000      -6.212571      -169.0527
   9   2.0000      -1.466488       -39.9052
  10   2.0000      -1.236773       -33.6543
  11   2.0000      -1.144797       -31.1515
  12   2.0000      -0.911288       -24.7974
  13   2.0000      -0.809279       -22.0216
  14   2.0000      -0.690508       -18.7897
  15   2.0000      -0.669631       -18.2216
  16   2.0000      -0.657368       -17.8879
  17   2.0000      -0.579739       -15.7755
  18   2.0000      -0.576787       -15.6952
  19   2.0000      -0.560363       -15.2482
  20   2.0000      -0.543767       -14.7967
  21   2.0000      -0.495251       -13.4765
  22   2.0000      -0.443303       -12.0629
  23   2.0000      -0.435109       -11.8399
  24   2.0000      -0.421659       -11.4739
  25   0.0000       0.104226         2.8361
  26   0.0000       0.133984         3.6459
  27   0.0000       0.137987         3.7548
  28   0.0000       0.165119         4.4931
  29   0.0000       0.167094         4.5469

MULLIKEN ATOMIC CHARGES
-----------------------
   0 C :   -0.394188
   1 S :    0.873908
   2 O :   -0.411446
   3 F :   -0.130439
   4 O :   -0.423589
   5 H :    0.172331
   6 H :    0.157246
   7 H :    0.156177
Sum of atomic charges:    0.0000000

LOEWDIN ATOMIC CHARGES
----------------------
   0 C :   -0.399228
   1 S :    0.523055
   2 O :   -0.258494
   3 F :    0.041886
   4 O :   -0.272751
   5 H :    0.128687
   6 H :    0.118698
   7 H :    0.118147

  Mayer bond orders larger than 0.100000
B(  0-C ,  1-S ) :   0.9251 B(  0-C ,  5-H ) :   0.9496 B(  0-C ,  6-H ) :   0.9492
B(  0-C ,  7-H ) :   0.9488 B(  1-S ,  2-O ) :   1.9485 B(  1-S ,  3-F ) :   1.1041
B(  1-S ,  4-O ) :   1.9333

Dispersion correction           -0.001538143
FINAL SINGLE POINT ENERGY      -688.438247912525

DIPOLE MOMENT
-------------
                                X             Y             Z
Electronic contribution:     -2.31862      -4.67968       1.38077
Nuclear contribution   :      2.84473       5.67605      -0.40731
                        -----------------------------------------
Total Dipole Moment    :      0.52611       0.99638       0.97346
                        -----------------------------------------
Magnitude (a.u.)       :      1.48902
Magnitude (Debye)      :      3.78478

Rotational constants in cm-1:     0.162669     0.154016     0.148818
Rotational constants in MHz :  4876.699308  4617.284822  4461.441982

                             ****ORCA TERMINATED NORMALLY****
TOTAL RUN TIME: 0 days 0 hours 0 minutes 8 seconds 606 msec
