                         Program Version 5.0.0 -  RELEASE  -
|  1> !wB97X-D3 RIJCOSX def2-TZVP def2/J TightSCF
|  2> *xyz 0 1
|  3> C         -0.50835        1.72268       -4.12430
|  4> S         -1.32861        0.14674       -4.43578
|  5> O         -2.57135        0.47573       -5.06834
|  6> O         -1.51496       -0.40051       -3.06342
|  7> F         -0.37793       -0.62756       -5.20114
|  8> H         -0.31967        2.21655       -5.05456
|  9> H          0.41835        1.54859       -3.61852
| 10> H         -1.13714        2.33776       -3.51504
| 11> *
| 12> %MaxCore 64000
| 13>
| 14> %pal nprocs 18
| 15> end
| 16>
| 17> %scf
| 18>   MaxIter 150
| 19> end
| 20>
| 21>
| 22>                          ****END OF INPUT****

CARTESIAN COORDINATES (ANGSTROEM)
---------------------------------
  C     -0.508350    1.722680   -4.124300
  S     -1.328610    0.146740   -4.435780
  O     -2.571350    0.475730   -5.068340
  O     -1.514960   -0.400510   -3.063420
  F     -0.377930   -0.627560   -5.201140
  H     -0.319670    2.216550   -5.054560
  H      0.418350    1.548590   -3.618520
  H     -1.137140    2.337760   -3.515040

 Total Charge           Charge          ....    0
 Multiplicity           Mult            ....    1
 Number of Electrons    NEL             ....   50
 Basis Dimension        Dim             ....  179

ORBITAL ENERGIES
----------------

  NO   OCC          E(Eh)            E(eV)
   0   2.0000     -89.201657     -2427.3005
   1   2.0000     -24.910948      -677.8613
   2   2.0000     -19.249928      -523.8172
   3   2.0000     -19.230636      -523.2922
   4   2.0000     -10.328577      -281.0549
   5   2.0000      -8.264405      -224.8859
   6   2.0000      -6.221750      -169.3024
   7   2.0000      -6.215741      -169.1389
   8   2.0000      -6.214870      -169.1152
   9   2.0000      -1.503221       -40.9047
  10   2.0000      -1.227321       -33.3971
  11   2.0000      -1.121546       -30.5188
  12   2.0000      -0.912749       -24.8372
  13   2.0000      -0.828391       -22.5417
  14   2.0000      -0.708869       -19.2893
  15   2.0000      -0.695304       -18.9202
  16   2.0000      -0.660884       -17.9836
  17   2.0000      -0.577233       -15.7073
  18   2.0000      -0.576300       -15.6819
  19   2.0000      -0.563095       -15.3226
  20   2.0000      -0.536727       -14.6051
  21   2.0000      -0.489107       -13.3093
  22   2.0000      -0.438085       -11.9209
  23   2.0000      -0.419068       -11.4034
  24   2.0000      -0.404678       -11.0118
  25   0.0000       0.100040         2.7222
  26   0.0000       0.132673         3.6102
  27   0.0000       0.137169         3.7326
  28   0.0000       0.160097         4.3565
  29   0.0000       0.170161         4.6303

MULLIKEN ATOMIC CHARGES
-----------------------
   0 C :   -0.391116
   1 S :    0.867378
   2 O :   -0.402527
   3 O :   -0.462591
   4 F :   -0.096810
   5 H :    0.151097
   6 H :    0.157209
   7 H :    0.177359
Sum of atomic charges:    0.0000000

LOEWDIN ATOMIC CHARGES
----------------------
   0 C :   -0.399496
   1 S :    0.517279
   2 O :   -0.254497
   3 O :   -0.324235
   4 F :    0.095256
   5 H :    0.115801
   6 H :    0.118879
   7 H :    0.131013

  Mayer bond orders larger than 0.100000
B(  0-C ,  1-S ) :   0.9260 B(  0-C ,  5-H ) :   0.9469 B(  0-C ,  6-H ) :   0.9490
B(  0-C ,  7-H ) :   0.9500 B(  1-S ,  2-O ) :   1.9504 B(  1-S ,  3-O ) :   1.8779
B(  1-S ,  4-F ) :   1.1471

Dispersion correction           -0.001537386
FINAL SINGLE POINT ENERGY      -688.418801390403

DIPOLE MOMENT
-------------
                                X             Y             Z
Electronic contribution:     -0.40621      -5.05432      -2.23497
Nuclear contribution   :      1.70876       5.90289       1.72841
                        -----------------------------------------
Total Dipole Moment    :      1.30256       0.84857      -0.50655
                        -----------------------------------------
Magnitude (a.u.)       :      1.63503
Magnitude (Debye)      :      4.15592

Rotational constants in cm-1:     0.163253     0.155214     0.147311
Rotational constants in MHz :  4894.200006  4653.189727  4416.272537

                             ****ORCA TERMINATED NORMALLY****
TOTAL RUN TIME: 0 days 0 hours 0 minutes 8 seconds 435 msec
