                         Program Version 5.0.0 -  RELEASE  -
|  1> !wB97X-D3 RIJCOSX def2-TZVP def2/J TightSCF xyzfile
|  2>
|  3> *xyzfile 0 1 D2.xyz
|  4>
|  5> %MaxCore 64000
|  6>
|  7> %pal nprocs 18
|  8> end
|  9>
| 10> %scf
| 11>   MaxIter 150
| 12> end
| 13>
| 14>
| 15>                          ****END OF INPUT****

CARTESIAN COORDINATES (ANGSTROEM)
---------------------------------
  C      1.364014    0.468742   -2.813764
  C      0.428844    0.321402   -1.655312
  C      0.968045    1.630639   -3.715749
  C     -0.508347    1.722679   -4.124300
  S     -1.328608    0.146737   -4.435781
  H     -0.591511    2.294958   -5.047219
  H     -1.114114    2.235610   -3.374362
  H      0.748578   -0.400542   -1.001345
  H     -0.461053    0.023332   -2.077731
  H      0.310258    1.201375   -1.134948
  O     -2.571347    0.475733   -5.068341
  F     -1.514963   -0.400512   -3.063420
  H      1.294847   -0.468742   -3.364684
  H      2.376216    0.597400   -2.431495
  H      1.578688    1.520652   -4.612733
  H      1.266653    2.575988   -3.250448
  O     -0.377928   -0.627558   -5.201141

 Total Charge           Charge          ....    0
 Multiplicity           Mult            ....    1
 Number of Electrons    NEL             ....   74
 Basis Dimension        Dim             ....  308

ORBITAL ENERGIES
----------------

  NO   OCC          E(Eh)            E(eV)
   0   2.0000     -89.196942     -2427.1722
   1   2.0000     -24.891133      -677.3222
   2   2.0000     -19.250371      -523.8292
   3   2.0000     -19.247257      -523.7445
   4   2.0000     -10.333814      -281.1974
   5   2.0000     -10.297333      -280.2047
   6   2.0000     -10.273919      -279.5675
   7   2.0000     -10.231003      -278.3997
   8   2.0000      -8.260625      -224.7830
   9   2.0000      -6.218249      -169.2072
  10   2.0000      -6.211679      -169.0284
  11   2.0000      -6.210933      -169.0081
  12   2.0000      -1.477841       -40.2141
  13   2.0000      -1.238816       -33.7099
  14   2.0000      -1.146112       -31.1873
  15   2.0000      -0.955528       -26.0012
  16   2.0000      -0.894696       -24.3459
  17   2.0000      -0.825882       -22.4734
  18   2.0000      -0.806460       -21.9449
  19   2.0000      -0.708839       -19.2885
  20   2.0000      -0.695348       -18.9214
  21   2.0000      -0.676766       -18.4158
  22   2.0000      -0.654494       -17.8097
  23   2.0000      -0.601516       -16.3681
  24   2.0000      -0.583823       -15.8866
  25   2.0000      -0.576937       -15.6993
  26   2.0000      -0.560699       -15.2574
  27   2.0000      -0.529919       -14.4198
  28   2.0000      -0.511258       -13.9120
  29   2.0000      -0.500996       -13.6328
  30   2.0000      -0.493399       -13.4261
  31   2.0000      -0.452335       -12.3087
  32   2.0000      -0.447358       -12.1732
  33   2.0000      -0.434170       -11.8144
  34   2.0000      -0.427882       -11.6433
  35   2.0000      -0.421631       -11.4732
  36   2.0000      -0.411329       -11.1928
  37   0.0000       0.098496         2.6802
  38   0.0000       0.116189         3.1617
  39   0.0000       0.130832         3.5601
  40   0.0000       0.138610         3.7718
  41   0.0000       0.155831         4.2404

MULLIKEN ATOMIC CHARGES
-----------------------
   0 C :   -0.240611
   1 C :   -0.364611
   2 C :   -0.194228
   3 C :   -0.316980
   4 S :    0.883579
   5 H :    0.178460
   6 H :    0.159761
   7 H :    0.118947
   8 H :    0.118123
   9 H :    0.103511
  10 O :   -0.413625
  11 F :   -0.106477
  12 H :    0.141995
  13 H :    0.105092
  14 H :    0.125856
  15 H :    0.122583
  16 O :   -0.421374
Sum of atomic charges:   -0.0000000

LOEWDIN ATOMIC CHARGES
----------------------
   0 C :   -0.305663
   1 C :   -0.314041
   2 C :   -0.282183
   3 C :   -0.359969
   4 S :    0.550780
   5 H :    0.150649
   6 H :    0.140226
   7 H :    0.107957
   8 H :    0.085681
   9 H :    0.105386
  10 O :   -0.253390
  11 F :    0.071004
  12 H :    0.140512
  13 H :    0.135183
  14 H :    0.145737
  15 H :    0.143397
  16 O :   -0.261265

  Mayer bond orders larger than 0.100000
B(  0-C ,  1-C ) :   0.9456 B(  0-C ,  2-C ) :   0.9633 B(  0-C , 12-H ) :   0.9845
B(  0-C , 13-H ) :   0.9735 B(  1-C ,  7-H ) :   0.9839 B(  1-C ,  8-H ) :   0.9842
B(  1-C ,  9-H ) :   0.9838 B(  2-C ,  3-C ) :   0.9528 B(  2-C , 14-H ) :   0.9740
B(  2-C , 15-H ) :   0.9609 B(  3-C ,  4-S ) :   0.9211 B(  3-C ,  5-H ) :   0.9462
B(  3-C ,  6-H ) :   0.9464 B(  4-S , 10-O ) :   1.9638 B(  4-S , 11-F ) :   1.0633
B(  4-S , 16-O ) :   1.8974

Dispersion correction           -0.006502806
FINAL SINGLE POINT ENERGY      -806.345165817319

DIPOLE MOMENT
-------------
                                X             Y             Z
Electronic contribution:    -10.51857      -5.57004      -6.15534
Nuclear contribution   :     11.08796       6.45140       7.05645
                        -----------------------------------------
Total Dipole Moment    :      0.56939       0.88136       0.90111
                        -----------------------------------------
Magnitude (a.u.)       :      1.38311
Magnitude (Debye)      :      3.51560

Rotational constants in cm-1:     0.100113     0.046890     0.041843
Rotational constants in MHz :  3001.313402  1405.711946  1254.411771

                             ****ORCA TERMINATED NORMALLY****
TOTAL RUN TIME: 0 days 0 hours 0 minutes 22 seconds 219 msec
