                         Program Version 5.0.0 -  RELEASE  -
|  1> !CAM-B3LYP RIJCOSX def2-SVPD def2/J TightSCF
|  2> *xyz -1 1
|  3> C         -0.05915        1.50352        3.41058
|  4> C          1.08303        0.74964        4.08571
|  5> O          2.22817        1.26348        4.01983
|  6> O          0.81003       -0.34541        4.63627
|  7> H          0.31461        2.41205        2.98658
|  8> H         -0.81316        1.73160        4.13470
|  9> H         -0.47977        0.89552        2.63708
| 10> *
| 11>
| 12> %MaxCore 64000
| 13>
| 14> %pal nprocs 4
| 15> end
| 16>
| 17> %scf
| 18>   MaxIter 150
| 19> end
| 20>
| 21>
| 22>                          ****END OF INPUT****

CARTESIAN COORDINATES (ANGSTROEM)
---------------------------------
  C     -0.059150    1.503520    3.410580
  C      1.083030    0.749640    4.085710
  O      2.228170    1.263480    4.019830
  O      0.810030   -0.345410    4.636270
  H      0.314610    2.412050    2.986580
  H     -0.813160    1.731600    4.134700
  H     -0.479770    0.895520    2.637080

 Total Charge           Charge          ....   -1
 Multiplicity           Mult            ....    1
 Number of Electrons    NEL             ....   32
 Basis Dimension        Dim             ....  110

ORBITAL ENERGIES
----------------

  NO   OCC          E(Eh)            E(eV)
   0   2.0000     -18.949363      -515.6384
   1   2.0000     -18.948752      -515.6217
   2   2.0000     -10.147720      -276.1335
   3   2.0000     -10.072602      -274.0894
   4   2.0000      -0.891859       -24.2687
   5   2.0000      -0.796344       -21.6696
   6   2.0000      -0.620955       -16.8970
   7   2.0000      -0.375093       -10.2068
   8   2.0000      -0.332126        -9.0376
   9   2.0000      -0.316573        -8.6144
  10   2.0000      -0.297201        -8.0873
  11   2.0000      -0.254802        -6.9335
  12   2.0000      -0.235242        -6.4012
  13   2.0000      -0.112170        -3.0523
  14   2.0000      -0.108910        -2.9636
  15   2.0000      -0.094065        -2.5596
  16   0.0000       0.199401         5.4260
  17   0.0000       0.238432         6.4881
  18   0.0000       0.257124         6.9967
  19   0.0000       0.269886         7.3440
  20   0.0000       0.294295         8.0082

MULLIKEN ATOMIC CHARGES
-----------------------
   0 C :    0.670311
   1 C :   -0.000284
   2 O :   -0.630114
   3 O :   -0.648880
   4 H :   -0.144702
   5 H :   -0.122764
   6 H :   -0.123568
Sum of atomic charges:   -1.0000000

LOEWDIN ATOMIC CHARGES
----------------------
   0 C :    0.143580
   1 C :   -0.344070
   2 O :   -0.341324
   3 O :   -0.342779
   4 H :   -0.043168
   5 H :   -0.036561
   6 H :   -0.035678

  Mayer bond orders larger than 0.100000
B(  0-C ,  1-C ) :   1.1805 B(  0-C ,  4-H ) :   0.8312 B(  0-C ,  5-H ) :   0.7812
B(  0-C ,  6-H ) :   0.7849 B(  1-C ,  2-O ) :   1.5220 B(  1-C ,  3-O ) :   1.5325
B(  1-C ,  4-H ) :   0.2743 B(  1-C ,  5-H ) :   0.1858 B(  1-C ,  6-H ) :   0.1823

FINAL SINGLE POINT ENERGY      -228.282737403325

DIPOLE MOMENT
-------------
                                X             Y             Z
Electronic contribution:      2.65331      -1.74567       1.55775
Nuclear contribution   :     -3.75920       2.48542      -2.19871
                        -----------------------------------------
Total Dipole Moment    :     -1.10589       0.73975      -0.64096
                        -----------------------------------------
Magnitude (a.u.)       :      1.47684
Magnitude (Debye)      :      3.75383

Rotational constants in cm-1:     0.392838     0.334689     0.186890
Rotational constants in MHz : 11776.984954 10033.729666  5602.815156

                             ****ORCA TERMINATED NORMALLY****
TOTAL RUN TIME: 0 days 0 hours 0 minutes 9 seconds 528 msec
