                         Program Version 5.0.0 -  RELEASE  -
|  1> !CAM-B3LYP RIJCOSX def2-SVPD def2/J TightSCF
|  2> *xyz 1 1
|  3> C          4.60295       -2.44010        2.63478
|  4> C          3.86085       -1.59157        3.62289
|  5> N          2.75650       -2.04616        4.16633
|  6> N          4.25433       -0.36291        3.86046
|  7> H          3.56526        0.31099        4.16898
|  8> H          5.05429       -0.01606        3.33784
|  9> H          2.43970       -2.97389        3.89740
| 10> H          2.06687       -1.41253        4.54981
| 11> H          5.47239       -1.91604        2.29664
| 12> H          3.96816       -2.65362        1.80030
| 13> H          4.89801       -3.35632        3.10209
| 14> *
| 15>
| 16> %MaxCore 64000
| 17>
| 18> %pal nprocs 4
| 19> end
| 20>
| 21> %scf
| 22>   MaxIter 150
| 23> end
| 24>
| 25>
| 26>                          ****END OF INPUT****

CARTESIAN COORDINATES (ANGSTROEM)
---------------------------------
  C      4.602950   -2.440100    2.634780
  C      3.860850   -1.591570    3.622890
  N      2.756500   -2.046160    4.166330
  N      4.254330   -0.362910    3.860460
  H      3.565260    0.310990    4.168980
  H      5.054290   -0.016060    3.337840
  H      2.439700   -2.973890    3.897400
  H      2.066870   -1.412530    4.549810
  H      5.472390   -1.916040    2.296640
  H      3.968160   -2.653620    1.800300
  H      4.898010   -3.356320    3.102090

 Total Charge           Charge          ....    1
 Multiplicity           Mult            ....    1
 Number of Electrons    NEL             ....   32
 Basis Dimension        Dim             ....  136

ORBITAL ENERGIES
----------------

  NO   OCC          E(Eh)            E(eV)
   0   2.0000     -14.659206      -398.8973
   1   2.0000     -14.658400      -398.8753
   2   2.0000     -10.597298      -288.3671
   3   2.0000     -10.462103      -284.6883
   4   2.0000      -1.293266       -35.1916
   5   2.0000      -1.192313       -32.4445
   6   2.0000      -1.034594       -28.1527
   7   2.0000      -0.918992       -25.0070
   8   2.0000      -0.854447       -23.2507
   9   2.0000      -0.847356       -23.0577
  10   2.0000      -0.775339       -21.0980
  11   2.0000      -0.740416       -20.1477
  12   2.0000      -0.691748       -18.8234
  13   2.0000      -0.675145       -18.3716
  14   2.0000      -0.645760       -17.5720
  15   2.0000      -0.568983       -15.4828
  16   0.0000      -0.178762        -4.8644
  17   0.0000      -0.130022        -3.5381
  18   0.0000      -0.085287        -2.3208
  19   0.0000      -0.082455        -2.2437
  20   0.0000      -0.060387        -1.6432

MULLIKEN ATOMIC CHARGES
-----------------------
   0 C :    0.776557
   1 C :    0.120685
   2 N :    0.217186
   3 N :    0.131603
   4 H :   -0.071288
   5 H :    0.050671
   6 H :    0.026756
   7 H :   -0.149602
   8 H :   -0.039670
   9 H :   -0.053043
  10 H :   -0.009856
Sum of atomic charges:    1.0000000

LOEWDIN ATOMIC CHARGES
----------------------
   0 C :    0.237099
   1 C :   -0.070901
   2 N :    0.280062
   3 N :    0.283189
   4 H :    0.051241
   5 H :    0.053623
   6 H :    0.059509
   7 H :    0.050935
   8 H :    0.006826
   9 H :    0.025823
  10 H :    0.022596

  Mayer bond orders larger than 0.100000
B(  0-C ,  1-C ) :   1.3087 B(  0-C ,  8-H ) :   0.7580 B(  0-C ,  9-H ) :   0.7967
B(  0-C , 10-H ) :   0.6507 B(  1-C ,  2-N ) :   1.2124 B(  1-C ,  3-N ) :   1.1500
B(  1-C ,  4-H ) :  -0.1261 B(  1-C ,  7-H ) :  -0.1421 B(  1-C ,  8-H ) :   0.2724
B(  1-C ,  9-H ) :   0.1486 B(  1-C , 10-H ) :   0.2642 B(  2-N ,  3-N ) :   0.1549
B(  2-N ,  6-H ) :   1.0597 B(  2-N ,  7-H ) :   1.2399 B(  3-N ,  4-H ) :   1.2174
B(  3-N ,  5-H ) :   1.0229 B(  4-H ,  5-H ) :  -0.1378 B(  6-H ,  7-H ) :  -0.1507
B(  8-H , 10-H ) :   0.1151 B(  9-H , 10-H ) :   0.1007

FINAL SINGLE POINT ENERGY      -189.486800993810

DIPOLE MOMENT
-------------
                                X             Y             Z
Electronic contribution:     -0.95276       1.14406       1.60483
Nuclear contribution   :      0.47466      -0.79212      -1.71537
                        -----------------------------------------
Total Dipole Moment    :     -0.47810       0.35194      -0.11054
                        -----------------------------------------
Magnitude (a.u.)       :      0.60387
Magnitude (Debye)      :      1.53491

Rotational constants in cm-1:     0.335502     0.299428     0.163704
Rotational constants in MHz : 10058.111638  8976.630214  4907.722182

                             ****ORCA TERMINATED NORMALLY****
TOTAL RUN TIME: 0 days 0 hours 0 minutes 15 seconds 852 msec
