                         Program Version 5.0.0 -  RELEASE  -
|  1> !CAM-B3LYP RIJCOSX def2-SVPD def2/J TightSCF xyzfile
|  2>
|  3> *xyzfile 0 1 B.xyz
|  4>
|  5> %MaxCore 64000
|  6>
|  7> %pal nprocs 4
|  8> end
|  9>
| 10> %scf
| 11>   MaxIter 150
| 12> end
| 13>
| 14>
| 15>                          ****END OF INPUT****

CARTESIAN COORDINATES (ANGSTROEM)
---------------------------------
  C      4.602954   -2.440100    2.634780
  C     -0.914947    0.615112    2.505538
  C     -0.059146    1.503524    3.410578
  H      0.365364    2.344315    2.861161
  H     -0.692261    1.920207    4.198985
  C      1.083027    0.749640    4.085705
  C      3.860851   -1.591565    3.622893
  N      2.756502   -2.046159    4.166333
  N      4.254325   -0.362905    3.860455
  H      3.565256    0.310994    4.168983
  H      5.054292   -0.016059    3.337838
  H      2.439696   -2.973894    3.897395
  H      2.066869   -1.412532    4.549813
  O      2.228167    1.263475    4.019826
  O      0.810034   -0.345411    4.636269
  C      3.744685   -2.580557    1.361882
  C      0.772139    0.636882    0.562129
  C     -0.130740   -0.193985    1.470763
  H     -0.840563   -0.760165    0.856377
  H      0.466691   -0.938942    2.006959
  H     -1.647961    1.245963    1.991076
  H     -1.478180   -0.081046    3.130424
  C      3.203721   -1.256004    0.826211
  H      2.898939   -3.239289    1.583074
  H      4.334962   -3.095523    0.600188
  C      2.107815   -1.442385   -0.216865
  H      2.786775   -0.672760    1.650711
  H      4.021008   -0.652993    0.414046
  C      1.390662   -0.145912   -0.602422
  H      1.372179   -2.152184    0.176151
  H      2.523302   -1.906787   -1.117115
  H      1.561361    1.100094    1.161831
  H      0.195516    1.468325    0.142758
  H      0.602893   -0.398214   -1.319716
  H      2.087247    0.508272   -1.137335
  H      5.561557   -1.971347    2.407084
  H      4.810498   -3.422552    3.063099

 Total Charge           Charge          ....    0
 Multiplicity           Mult            ....    1
 Number of Electrons    NEL             ....  118
 Basis Dimension        Dim             ....  482

ORBITAL ENERGIES
----------------

  NO   OCC          E(Eh)            E(eV)
   0   2.0000     -19.140360      -520.8357
   1   2.0000     -19.138542      -520.7862
   2   2.0000     -14.448404      -393.1611
   3   2.0000     -14.448120      -393.1533
   4   2.0000     -10.401171      -283.0302
   5   2.0000     -10.328710      -281.0585
   6   2.0000     -10.311155      -280.5808
   7   2.0000     -10.291998      -280.0595
   8   2.0000     -10.267803      -279.4011
   9   2.0000     -10.258643      -279.1519
  10   2.0000     -10.250490      -278.9300
  11   2.0000     -10.239985      -278.6441
  12   2.0000     -10.236846      -278.5587
  13   2.0000     -10.232788      -278.4483
  14   2.0000     -10.224269      -278.2165
  15   2.0000      -1.099337       -29.9145
  16   2.0000      -1.083106       -29.4728
  17   2.0000      -1.000339       -27.2206
  18   2.0000      -0.983874       -26.7726
  19   2.0000      -0.917281       -24.9605
  20   2.0000      -0.882462       -24.0130
  21   2.0000      -0.851796       -23.1786
  22   2.0000      -0.810669       -22.0594
  23   2.0000      -0.771776       -21.0011
  24   2.0000      -0.733459       -19.9584
  25   2.0000      -0.717218       -19.5165
  26   2.0000      -0.694644       -18.9022
  27   2.0000      -0.660377       -17.9698
  28   2.0000      -0.654597       -17.8125
  29   2.0000      -0.644783       -17.5454
  30   2.0000      -0.618655       -16.8344
  31   2.0000      -0.586946       -15.9716
  32   2.0000      -0.580192       -15.7878
  33   2.0000      -0.557646       -15.1743
  34   2.0000      -0.545795       -14.8518
  35   2.0000      -0.535026       -14.5588
  36   2.0000      -0.527390       -14.3510
  37   2.0000      -0.514864       -14.0102
  38   2.0000      -0.503142       -13.6912
  39   2.0000      -0.489786       -13.3278
  40   2.0000      -0.484703       -13.1895
  41   2.0000      -0.476075       -12.9547
  42   2.0000      -0.472011       -12.8441
  43   2.0000      -0.466221       -12.6865
  44   2.0000      -0.444816       -12.1041
  45   2.0000      -0.441011       -12.0005
  46   2.0000      -0.434680       -11.8282
  47   2.0000      -0.429891       -11.6979
  48   2.0000      -0.418166       -11.3789
  49   2.0000      -0.401066       -10.9136
  50   2.0000      -0.397299       -10.8111
  51   2.0000      -0.389388       -10.5958
  52   2.0000      -0.373977       -10.1764
  53   2.0000      -0.368629       -10.0309
  54   2.0000      -0.367215        -9.9924
  55   2.0000      -0.359643        -9.7864
  56   2.0000      -0.303760        -8.2657
  57   2.0000      -0.293780        -7.9942
  58   2.0000      -0.290108        -7.8942
  59   0.0000       0.007381         0.2008
  60   0.0000       0.027610         0.7513
  61   0.0000       0.044808         1.2193
  62   0.0000       0.055921         1.5217
  63   0.0000       0.064277         1.7491

MULLIKEN ATOMIC CHARGES
-----------------------
   0 C :    0.739753
   1 C :    0.672986
   2 C :    0.356393
   3 H :    0.082444
   4 H :   -0.256854
   5 C :    0.373242
   6 C :    0.115233
   7 N :    0.543958
   8 N :    0.517169
   9 H :   -0.474143
  10 H :    0.080910
  11 H :    0.065471
  12 H :   -0.583371
  13 O :   -0.637001
  14 O :   -0.703538
  15 C :    0.340496
  16 C :   -0.037046
  17 C :    0.004133
  18 H :   -0.253342
  19 H :   -0.169352
  20 H :   -0.167746
  21 H :   -0.018670
  22 C :    0.372711
  23 H :   -0.037866
  24 H :   -0.354205
  25 C :    0.118779
  26 H :   -0.502789
  27 H :   -0.067454
  28 C :    0.968459
  29 H :    0.114829
  30 H :   -0.441885
  31 H :    0.095788
  32 H :   -0.596496
  33 H :    0.008782
  34 H :   -0.095114
  35 H :   -0.057975
  36 H :   -0.116686
Sum of atomic charges:   -0.0000000

LOEWDIN ATOMIC CHARGES
----------------------
   0 C :    0.040960
   1 C :   -0.024616
   2 C :    0.033548
   3 H :    0.016128
   4 H :    0.031785
   5 C :   -0.196230
   6 C :   -0.073184
   7 N :    0.310971
   8 N :    0.300270
   9 H :   -0.094291
  10 H :    0.037151
  11 H :    0.038679
  12 H :   -0.095684
  13 O :   -0.244910
  14 O :   -0.241265
  15 C :   -0.013117
  16 C :   -0.032113
  17 C :   -0.034128
  18 H :    0.025315
  19 H :    0.005131
  20 H :    0.019265
  21 H :    0.022325
  22 C :   -0.027697
  23 H :    0.018990
  24 H :    0.030352
  25 C :   -0.036218
  26 H :   -0.008475
  27 H :    0.038142
  28 C :   -0.028804
  29 H :    0.016906
  30 H :    0.023845
  31 H :    0.011647
  32 H :    0.025128
  33 H :    0.021687
  34 H :    0.021516
  35 H :    0.026812
  36 H :    0.034180

  Mayer bond orders larger than 0.100000
B(  0-C ,  6-C ) :   1.1700 B(  0-C ,  8-N ) :   0.1001 B(  0-C , 15-C ) :   1.1046
B(  0-C , 35-H ) :   0.6693 B(  0-C , 36-H ) :   0.5814 B(  1-C ,  2-C ) :   1.1668
B(  1-C ,  3-H ) :   0.1107 B(  1-C ,  4-H ) :   0.1679 B(  1-C , 17-C ) :   1.1996
B(  1-C , 19-H ) :   0.1100 B(  1-C , 20-H ) :   0.6973 B(  1-C , 21-H ) :   0.5758
B(  1-C , 28-C ) :   0.1034 B(  2-C ,  3-H ) :   0.8157 B(  2-C ,  4-H ) :   0.6439
B(  2-C ,  5-C ) :   1.1162 B(  2-C , 17-C ) :   0.1474 B(  2-C , 20-H ) :   0.1756
B(  2-C , 21-H ) :   0.1264 B(  3-H ,  5-C ) :   0.2291 B(  4-H ,  5-C ) :   0.2384
B(  5-C , 13-O ) :   1.4057 B(  5-C , 14-O ) :   1.3225 B(  6-C ,  7-N ) :   1.0941
B(  6-C ,  8-N ) :   1.1213 B(  6-C , 35-H ) :   0.2657 B(  6-C , 36-H ) :   0.2463
B(  7-N ,  8-N ) :   0.1712 B(  7-N , 11-H ) :   0.9939 B(  7-N , 12-H ) :   1.1316
B(  8-N ,  9-H ) :   1.0968 B(  8-N , 10-H ) :   0.9858 B(  9-H , 10-H ) :  -0.2434
B(  9-H , 13-O ) :   0.1725 B( 11-H , 12-H ) :  -0.2670 B( 12-H , 14-O ) :   0.2403
B( 13-O , 14-O ) :   0.1452 B( 15-C , 22-C ) :   1.1384 B( 15-C , 23-H ) :   0.8287
B( 15-C , 24-H ) :   0.8353 B( 15-C , 25-C ) :   0.1192 B( 15-C , 26-H ) :   0.1480
B( 15-C , 27-H ) :   0.1163 B( 15-C , 35-H ) :   0.1457 B( 15-C , 36-H ) :   0.1910
B( 16-C , 17-C ) :   1.2502 B( 16-C , 18-H ) :   0.1923 B( 16-C , 19-H ) :   0.1492
B( 16-C , 25-C ) :   0.1904 B( 16-C , 28-C ) :   1.0430 B( 16-C , 31-H ) :   0.8156
B( 16-C , 32-H ) :   1.0473 B( 16-C , 33-H ) :   0.1670 B( 16-C , 34-H ) :   0.3273
B( 17-C , 18-H ) :   0.8177 B( 17-C , 19-H ) :   0.8920 B( 17-C , 20-H ) :   0.2175
B( 17-C , 21-H ) :   0.2991 B( 17-C , 31-H ) :   0.1155 B( 17-C , 32-H ) :   0.1233
B( 20-H , 21-H ) :  -0.1449 B( 22-C , 23-H ) :   0.1462 B( 22-C , 24-H ) :   0.2474
B( 22-C , 25-C ) :   1.1796 B( 22-C , 26-H ) :   0.7351 B( 22-C , 27-H ) :   0.6716
B( 22-C , 29-H ) :   0.1490 B( 22-C , 30-H ) :   0.2350 B( 22-C , 31-H ) :  -0.1002
B( 25-C , 26-H ) :   0.1150 B( 25-C , 27-H ) :   0.1187 B( 25-C , 28-C ) :   1.1261
B( 25-C , 29-H ) :   0.7927 B( 25-C , 30-H ) :   0.8886 B( 25-C , 33-H ) :   0.2600
B( 25-C , 34-H ) :   0.1687 B( 26-H , 27-H ) :   0.2133 B( 26-H , 31-H ) :   0.2266
B( 26-H , 32-H ) :  -0.1452 B( 28-C , 29-H ) :   0.1121 B( 28-C , 33-H ) :   0.5829
B( 28-C , 34-H ) :   0.5445 B( 33-H , 34-H ) :  -0.1404

FINAL SINGLE POINT ENERGY      -691.614596016691

DIPOLE MOMENT
-------------
                                X             Y             Z
Electronic contribution:      3.44595       1.59186      12.96122
Nuclear contribution   :     -1.50655      -3.48027     -14.35034
                        -----------------------------------------
Total Dipole Moment    :      1.93939      -1.88842      -1.38912
                        -----------------------------------------
Magnitude (a.u.)       :      3.04253
Magnitude (Debye)      :      7.73350

Rotational constants in cm-1:     0.021781     0.017296     0.011403
Rotational constants in MHz :   652.971749   518.510612   341.853154

                             ****ORCA TERMINATED NORMALLY****
TOTAL RUN TIME: 0 days 0 hours 6 minutes 38 seconds 364 msec
