                         Program Version 5.0.0 -  RELEASE  -
|  1> !CAM-B3LYP RIJCOSX def2-SVPD def2/J TightSCF
|  2> *xyz 0 1
|  3> C         -0.05915        1.50352        3.41058
|  4> C          1.08303        0.74964        4.08571
|  5> F          2.22817        1.26348        4.01983
|  6> O          0.81003       -0.34541        4.63627
|  7> H          0.31461        2.41205        2.98658
|  8> H         -0.81316        1.73160        4.13470
|  9> H         -0.47977        0.89552        2.63708
| 10> *
| 11>
| 12> %MaxCore 64000
| 13>
| 14> %pal nprocs 4
| 15> end
| 16>
| 17> %scf
| 18>   MaxIter 150
| 19> end
| 20>
| 21>
| 22>                          ****END OF INPUT****

CARTESIAN COORDINATES (ANGSTROEM)
---------------------------------
  C     -0.059150    1.503520    3.410580
  C      1.083030    0.749640    4.085710
  F      2.228170    1.263480    4.019830
  O      0.810030   -0.345410    4.636270
  H      0.314610    2.412050    2.986580
  H     -0.813160    1.731600    4.134700
  H     -0.479770    0.895520    2.637080

 Total Charge           Charge          ....    0
 Multiplicity           Mult            ....    1
 Number of Electrons    NEL             ....   32
 Basis Dimension        Dim             ....  110

ORBITAL ENERGIES
----------------

  NO   OCC          E(Eh)            E(eV)
   0   2.0000     -24.850357      -676.2126
   1   2.0000     -19.228874      -523.2443
   2   2.0000     -10.453526      -284.4549
   3   2.0000     -10.289715      -279.9974
   4   2.0000      -1.394199       -37.9381
   5   2.0000      -1.112388       -30.2696
   6   2.0000      -0.853468       -23.2240
   7   2.0000      -0.739539       -20.1239
   8   2.0000      -0.631564       -17.1857
   9   2.0000      -0.626751       -17.0548
  10   2.0000      -0.580183       -15.7876
  11   2.0000      -0.519433       -14.1345
  12   2.0000      -0.506247       -13.7757
  13   2.0000      -0.479138       -13.0380
  14   2.0000      -0.426235       -11.5984
  15   2.0000      -0.370067       -10.0700
  16   0.0000       0.013376         0.3640
  17   0.0000       0.039373         1.0714
  18   0.0000       0.083224         2.2646
  19   0.0000       0.115578         3.1450
  20   0.0000       0.117056         3.1853

MULLIKEN ATOMIC CHARGES
-----------------------
   0 C :    0.597526
   1 C :    0.347386
   2 F :   -0.327376
   3 O :   -0.435562
   4 H :   -0.099772
   5 H :   -0.041917
   6 H :   -0.040284
Sum of atomic charges:    0.0000000

LOEWDIN ATOMIC CHARGES
----------------------
   0 C :    0.216307
   1 C :   -0.040318
   2 F :   -0.036297
   3 O :   -0.137301
   4 H :   -0.012672
   5 H :    0.004904
   6 H :    0.005378

  Mayer bond orders larger than 0.100000
B(  0-C ,  1-C ) :   1.2337 B(  0-C ,  4-H ) :   0.8524 B(  0-C ,  5-H ) :   0.7776
B(  0-C ,  6-H ) :   0.7815 B(  1-C ,  2-F ) :   0.8382 B(  1-C ,  3-O ) :   1.8586
B(  1-C ,  4-H ) :   0.1745 B(  1-C ,  5-H ) :   0.1634 B(  1-C ,  6-H ) :   0.1588

FINAL SINGLE POINT ENERGY      -252.816531323078

DIPOLE MOMENT
-------------
                                X             Y             Z
Electronic contribution:      4.66269      -1.01119       1.55604
Nuclear contribution   :     -5.01294       1.99942      -2.18092
                        -----------------------------------------
Total Dipole Moment    :     -0.35025       0.98823      -0.62488
                        -----------------------------------------
Magnitude (a.u.)       :      1.22055
Magnitude (Debye)      :      3.10240

Rotational constants in cm-1:     0.368501     0.321908     0.177384
Rotational constants in MHz : 11047.396090  9650.552559  5317.833075

                             ****ORCA TERMINATED NORMALLY****
TOTAL RUN TIME: 0 days 0 hours 0 minutes 10 seconds 636 msec
