                         Program Version 5.0.0 -  RELEASE  -
|  1> !CAM-B3LYP RIJCOSX def2-SVPD def2/J TightSCF
|  2> *xyz 0 1
|  3> C          4.60295       -2.44010        2.63478
|  4> C          3.86085       -1.59157        3.62289
|  5> C          2.75650       -2.04616        4.16633
|  6> N          4.25433       -0.36291        3.86046
|  7> H          3.56526        0.31099        4.16898
|  8> H          5.05429       -0.01606        3.33784
|  9> H          2.43970       -2.97389        3.89740
| 10> H          2.06687       -1.41253        4.54981
| 11> H          5.47239       -1.91604        2.29664
| 12> H          3.96816       -2.65362        1.80030
| 13> H          4.89801       -3.35632        3.10209
| 14> *
| 15>
| 16> %MaxCore 64000
| 17>
| 18> %pal nprocs 4
| 19> end
| 20>
| 21> %scf
| 22>   MaxIter 150
| 23> end
| 24>
| 25>
| 26>                          ****END OF INPUT****

CARTESIAN COORDINATES (ANGSTROEM)
---------------------------------
  C      4.602950   -2.440100    2.634780
  C      3.860850   -1.591570    3.622890
  C      2.756500   -2.046160    4.166330
  N      4.254330   -0.362910    3.860460
  H      3.565260    0.310990    4.168980
  H      5.054290   -0.016060    3.337840
  H      2.439700   -2.973890    3.897400
  H      2.066870   -1.412530    4.549810
  H      5.472390   -1.916040    2.296640
  H      3.968160   -2.653620    1.800300
  H      4.898010   -3.356320    3.102090

 Total Charge           Charge          ....    0
 Multiplicity           Mult            ....    1
 Number of Electrons    NEL             ....   32
 Basis Dimension        Dim             ....  136

ORBITAL ENERGIES
----------------

  NO   OCC          E(Eh)            E(eV)
   0   2.0000     -14.406934      -392.0326
   1   2.0000     -10.281272      -279.7676
   2   2.0000     -10.252025      -278.9718
   3   2.0000     -10.188080      -277.2318
   4   2.0000      -1.009550       -27.4713
   5   2.0000      -0.834311       -22.7028
   6   2.0000      -0.766075       -20.8460
   7   2.0000      -0.643116       -17.5001
   8   2.0000      -0.598186       -16.2775
   9   2.0000      -0.544682       -14.8216
  10   2.0000      -0.504016       -13.7150
  11   2.0000      -0.468049       -12.7363
  12   2.0000      -0.457409       -12.4467
  13   2.0000      -0.429721       -11.6933
  14   2.0000      -0.398996       -10.8572
  15   2.0000      -0.250259        -6.8099
  16   0.0000       0.048128         1.3096
  17   0.0000       0.081629         2.2212
  18   0.0000       0.085802         2.3348
  19   0.0000       0.091683         2.4948
  20   0.0000       0.122250         3.3266

MULLIKEN ATOMIC CHARGES
-----------------------
   0 C :    0.975442
   1 C :   -0.479717
   2 C :    0.459142
   3 N :    0.238800
   4 H :   -0.104030
   5 H :   -0.100393
   6 H :   -0.204743
   7 H :   -0.471685
   8 H :   -0.175436
   9 H :   -0.107738
  10 H :   -0.029642
Sum of atomic charges:    0.0000000

LOEWDIN ATOMIC CHARGES
----------------------
   0 C :    0.169285
   1 C :   -0.292366
   2 C :    0.157658
   3 N :    0.164954
   4 H :    0.008002
   5 H :   -0.003553
   6 H :   -0.078235
   7 H :   -0.086706
   8 H :   -0.027809
   9 H :   -0.005048
  10 H :   -0.006183

  Mayer bond orders larger than 0.100000
B(  0-C ,  1-C ) :   1.1741 B(  0-C ,  8-H ) :   0.6532 B(  0-C ,  9-H ) :   0.7688
B(  0-C , 10-H ) :   0.6472 B(  1-C ,  2-C ) :   1.8717 B(  1-C ,  3-N ) :   1.0930
B(  1-C ,  6-H ) :   0.1551 B(  1-C ,  7-H ) :   0.1501 B(  1-C ,  8-H ) :   0.3310
B(  1-C ,  9-H ) :   0.1622 B(  1-C , 10-H ) :   0.2707 B(  2-C ,  3-N ) :   0.2488
B(  2-C ,  6-H ) :   0.7437 B(  2-C ,  7-H ) :   0.7932 B(  3-N ,  4-H ) :   1.1362
B(  3-N ,  5-H ) :   1.0406 B(  4-H ,  5-H ) :  -0.1237 B(  6-H ,  7-H ) :   0.1047

FINAL SINGLE POINT ENERGY      -173.029129433941

DIPOLE MOMENT
-------------
                                X             Y             Z
Electronic contribution:      0.12644       1.44777       1.06370
Nuclear contribution   :      0.22927      -0.89318      -1.58153
                        -----------------------------------------
Total Dipole Moment    :      0.35571       0.55459      -0.51782
                        -----------------------------------------
Magnitude (a.u.)       :      0.83799
Magnitude (Debye)      :      2.13001

Rotational constants in cm-1:     0.356805     0.302813     0.169682
Rotational constants in MHz : 10696.748191  9078.116910  5086.926242

                             ****ORCA TERMINATED NORMALLY****
TOTAL RUN TIME: 0 days 0 hours 0 minutes 16 seconds 170 msec
