                         Program Version 5.0.0 -  RELEASE  -
|  1> !CAM-B3LYP RIJCOSX def2-SVPD def2/J TightSCF
|  2> *xyz 0 1
|  3> C         -0.05915        1.50352        3.41058
|  4> C          1.08303        0.74964        4.08571
|  5> O          2.22817        1.26348        4.01983
|  6> F          0.81003       -0.34541        4.63627
|  7> H          0.31461        2.41205        2.98658
|  8> H         -0.81316        1.73160        4.13470
|  9> H         -0.47977        0.89552        2.63708
| 10> *
| 11>
| 12> %MaxCore 64000
| 13>
| 14> %pal nprocs 4
| 15> end
| 16>
| 17> %scf
| 18>   MaxIter 150
| 19> end
| 20>
| 21>
| 22>                          ****END OF INPUT****

CARTESIAN COORDINATES (ANGSTROEM)
---------------------------------
  C     -0.059150    1.503520    3.410580
  C      1.083030    0.749640    4.085710
  O      2.228170    1.263480    4.019830
  F      0.810030   -0.345410    4.636270
  H      0.314610    2.412050    2.986580
  H     -0.813160    1.731600    4.134700
  H     -0.479770    0.895520    2.637080

 Total Charge           Charge          ....    0
 Multiplicity           Mult            ....    1
 Number of Electrons    NEL             ....   32
 Basis Dimension        Dim             ....  110

ORBITAL ENERGIES
----------------

  NO   OCC          E(Eh)            E(eV)
   0   2.0000     -24.851125      -676.2335
   1   2.0000     -19.228724      -523.2402
   2   2.0000     -10.453332      -284.4496
   3   2.0000     -10.289461      -279.9905
   4   2.0000      -1.395081       -37.9621
   5   2.0000      -1.111854       -30.2551
   6   2.0000      -0.853319       -23.2200
   7   2.0000      -0.739925       -20.1344
   8   2.0000      -0.632748       -17.2179
   9   2.0000      -0.626737       -17.0544
  10   2.0000      -0.579675       -15.7737
  11   2.0000      -0.518476       -14.1084
  12   2.0000      -0.506802       -13.7908
  13   2.0000      -0.478746       -13.0273
  14   2.0000      -0.428565       -11.6619
  15   2.0000      -0.368191       -10.0190
  16   0.0000       0.016751         0.4558
  17   0.0000       0.039495         1.0747
  18   0.0000       0.083019         2.2591
  19   0.0000       0.112387         3.0582
  20   0.0000       0.120682         3.2839

MULLIKEN ATOMIC CHARGES
-----------------------
   0 C :    0.614190
   1 C :    0.362982
   2 O :   -0.418792
   3 F :   -0.349320
   4 H :   -0.117206
   5 H :   -0.046575
   6 H :   -0.045280
Sum of atomic charges:   -0.0000000

LOEWDIN ATOMIC CHARGES
----------------------
   0 C :    0.215544
   1 C :   -0.042011
   2 O :   -0.137608
   3 F :   -0.033757
   4 H :   -0.000017
   5 H :   -0.001581
   6 H :   -0.000571

  Mayer bond orders larger than 0.100000
B(  0-C ,  1-C ) :   1.2137 B(  0-C ,  4-H ) :   0.8541 B(  0-C ,  5-H ) :   0.7798
B(  0-C ,  6-H ) :   0.7821 B(  1-C ,  2-O ) :   1.8788 B(  1-C ,  3-F ) :   0.8005
B(  1-C ,  4-H ) :   0.2345 B(  1-C ,  5-H ) :   0.1447 B(  1-C ,  6-H ) :   0.1426

FINAL SINGLE POINT ENERGY      -252.816554762203

DIPOLE MOMENT
-------------
                                X             Y             Z
Electronic contribution:      2.34577      -3.64021       2.56311
Nuclear contribution   :     -3.54758       3.66189      -2.81789
                        -----------------------------------------
Total Dipole Moment    :     -1.20180       0.02168      -0.25478
                        -----------------------------------------
Magnitude (a.u.)       :      1.22870
Magnitude (Debye)      :      3.12312

Rotational constants in cm-1:     0.369278     0.321254     0.177365
Rotational constants in MHz : 11070.686557  9630.951649  5317.254673

                             ****ORCA TERMINATED NORMALLY****
TOTAL RUN TIME: 0 days 0 hours 0 minutes 10 seconds 716 msec
