                         Program Version 5.0.0 -  RELEASE  -
|  1> !CAM-B3LYP RIJCOSX def2-SVPD def2/J TightSCF
|  2> *xyz 0 1
|  3> C          4.60295       -2.44010        2.63478
|  4> C          3.86085       -1.59157        3.62289
|  5> N          2.75650       -2.04616        4.16633
|  6> C          4.25433       -0.36291        3.86046
|  7> H          3.56526        0.31099        4.16898
|  8> H          5.05429       -0.01606        3.33784
|  9> H          2.43970       -2.97389        3.89740
| 10> H          2.06687       -1.41253        4.54981
| 11> H          5.47239       -1.91604        2.29664
| 12> H          3.96816       -2.65362        1.80030
| 13> H          4.89801       -3.35632        3.10209
| 14> *
| 15>
| 16> %MaxCore 64000
| 17>
| 18> %pal nprocs 4
| 19> end
| 20>
| 21> %scf
| 22>   MaxIter 150
| 23> end
| 24>
| 25>
| 26>                          ****END OF INPUT****

CARTESIAN COORDINATES (ANGSTROEM)
---------------------------------
  C      4.602950   -2.440100    2.634780
  C      3.860850   -1.591570    3.622890
  N      2.756500   -2.046160    4.166330
  C      4.254330   -0.362910    3.860460
  H      3.565260    0.310990    4.168980
  H      5.054290   -0.016060    3.337840
  H      2.439700   -2.973890    3.897400
  H      2.066870   -1.412530    4.549810
  H      5.472390   -1.916040    2.296640
  H      3.968160   -2.653620    1.800300
  H      4.898010   -3.356320    3.102090

 Total Charge           Charge          ....    0
 Multiplicity           Mult            ....    1
 Number of Electrons    NEL             ....   32
 Basis Dimension        Dim             ....  136

ORBITAL ENERGIES
----------------

  NO   OCC          E(Eh)            E(eV)
   0   2.0000     -14.407016      -392.0348
   1   2.0000     -10.282693      -279.8063
   2   2.0000     -10.251772      -278.9649
   3   2.0000     -10.190213      -277.2898
   4   2.0000      -1.008812       -27.4512
   5   2.0000      -0.835020       -22.7221
   6   2.0000      -0.767187       -20.8762
   7   2.0000      -0.646315       -17.5871
   8   2.0000      -0.596812       -16.2401
   9   2.0000      -0.543811       -14.7978
  10   2.0000      -0.505761       -13.7625
  11   2.0000      -0.467290       -12.7156
  12   2.0000      -0.459164       -12.4945
  13   2.0000      -0.428205       -11.6520
  14   2.0000      -0.397090       -10.8054
  15   2.0000      -0.253150        -6.8886
  16   0.0000       0.048365         1.3161
  17   0.0000       0.084430         2.2975
  18   0.0000       0.085440         2.3249
  19   0.0000       0.092978         2.5301
  20   0.0000       0.124232         3.3805

MULLIKEN ATOMIC CHARGES
-----------------------
   0 C :    0.957105
   1 C :   -0.548091
   2 N :    0.332478
   3 C :    0.484208
   4 H :   -0.476085
   5 H :   -0.162663
   6 H :   -0.150517
   7 H :   -0.188252
   8 H :   -0.051013
   9 H :   -0.110751
  10 H :   -0.086419
Sum of atomic charges:   -0.0000000

LOEWDIN ATOMIC CHARGES
----------------------
   0 C :    0.167640
   1 C :   -0.296768
   2 N :    0.164248
   3 C :    0.163319
   4 H :   -0.085255
   5 H :   -0.085179
   6 H :    0.002358
   7 H :    0.007549
   8 H :   -0.014571
   9 H :   -0.008245
  10 H :   -0.015097

  Mayer bond orders larger than 0.100000
B(  0-C ,  1-C ) :   1.3239 B(  0-C ,  8-H ) :   0.7673 B(  0-C ,  9-H ) :   0.6671
B(  0-C , 10-H ) :   0.5994 B(  1-C ,  2-N ) :   1.1696 B(  1-C ,  3-C ) :   1.8741
B(  1-C ,  4-H ) :   0.1944 B(  1-C ,  8-H ) :   0.2696 B(  1-C ,  9-H ) :   0.2857
B(  1-C , 10-H ) :   0.3115 B(  2-N ,  3-C ) :   0.2518 B(  2-N ,  6-H ) :   1.0932
B(  2-N ,  7-H ) :   1.1693 B(  3-C ,  4-H ) :   0.7307 B(  3-C ,  5-H ) :   0.8555
B(  4-H ,  5-H ) :   0.1146 B(  6-H ,  7-H ) :  -0.1298 B(  8-H ,  9-H ) :   0.1027

FINAL SINGLE POINT ENERGY      -173.030086187532

DIPOLE MOMENT
-------------
                                X             Y             Z
Electronic contribution:     -1.18472      -0.01114       1.36263
Nuclear contribution   :      0.56519      -0.51568      -1.65012
                        -----------------------------------------
Total Dipole Moment    :     -0.61953      -0.52682      -0.28749
                        -----------------------------------------
Magnitude (a.u.)       :      0.86256
Magnitude (Debye)      :      2.19246

Rotational constants in cm-1:     0.356673     0.303029     0.169717
Rotational constants in MHz : 10692.789749  9084.577259  5087.998414

                             ****ORCA TERMINATED NORMALLY****
TOTAL RUN TIME: 0 days 0 hours 0 minutes 15 seconds 148 msec
