                         Program Version 5.0.0 -  RELEASE  -
|  1> !CAM-B3LYP RIJCOSX def2-SVPD def2/J TightSCF xyzfile
|  2>
|  3> *xyzfile 0 1 D2.xyz
|  4>
|  5> %MaxCore 64000
|  6>
|  7> %pal nprocs 4
|  8> end
|  9>
| 10> %scf
| 11>   MaxIter 150
| 12> end
| 13>
| 14>
| 15>                          ****END OF INPUT****

CARTESIAN COORDINATES (ANGSTROEM)
---------------------------------
  C      4.602954   -2.440100    2.634780
  C     -0.914947    0.615112    2.505538
  C     -0.059146    1.503524    3.410578
  H      0.365364    2.344315    2.861161
  H     -0.692261    1.920207    4.198985
  C      1.083027    0.749640    4.085705
  C      3.860851   -1.591565    3.622893
  N      2.756502   -2.046159    4.166333
  C      4.254325   -0.362905    3.860455
  H      3.565256    0.310994    4.168983
  H      5.054292   -0.016059    3.337838
  H      2.439696   -2.973894    3.897395
  H      2.066869   -1.412532    4.549813
  F      2.228167    1.263475    4.019826
  O      0.810034   -0.345411    4.636269
  C      3.744685   -2.580557    1.361882
  C      0.772139    0.636882    0.562129
  C     -0.130740   -0.193985    1.470763
  H     -0.840563   -0.760165    0.856377
  H      0.466691   -0.938942    2.006959
  H     -1.647961    1.245963    1.991076
  H     -1.478180   -0.081046    3.130424
  C      3.203721   -1.256004    0.826211
  H      2.898939   -3.239289    1.583074
  H      4.334962   -3.095523    0.600188
  C      2.107815   -1.442385   -0.216865
  H      2.786775   -0.672760    1.650711
  H      4.021008   -0.652993    0.414046
  C      1.390662   -0.145912   -0.602422
  H      1.372179   -2.152184    0.176151
  H      2.523302   -1.906787   -1.117115
  H      1.561361    1.100094    1.161831
  H      0.195516    1.468325    0.142758
  H      0.602893   -0.398214   -1.319716
  H      2.087247    0.508272   -1.137335
  H      5.561557   -1.971347    2.407084
  H      4.810498   -3.422552    3.063099

 Total Charge           Charge          ....    0
 Multiplicity           Mult            ....    1
 Number of Electrons    NEL             ....  118
 Basis Dimension        Dim             ....  482

ORBITAL ENERGIES
----------------

  NO   OCC          E(Eh)            E(eV)
   0   2.0000     -24.863755      -676.5772
   1   2.0000     -19.249843      -523.8149
   2   2.0000     -14.370991      -391.0545
   3   2.0000     -10.469267      -284.8832
   4   2.0000     -10.300785      -280.2986
   5   2.0000     -10.278655      -279.6964
   6   2.0000     -10.263119      -279.2737
   7   2.0000     -10.260318      -279.1975
   8   2.0000     -10.259726      -279.1813
   9   2.0000     -10.254574      -279.0411
  10   2.0000     -10.249379      -278.8998
  11   2.0000     -10.248243      -278.8689
  12   2.0000     -10.244765      -278.7742
  13   2.0000     -10.242176      -278.7038
  14   2.0000     -10.164487      -276.5898
  15   2.0000      -1.411425       -38.4068
  16   2.0000      -1.139488       -31.0070
  17   2.0000      -0.984655       -26.7938
  18   2.0000      -0.913731       -24.8639
  19   2.0000      -0.885506       -24.0958
  20   2.0000      -0.858354       -23.3570
  21   2.0000      -0.823222       -22.4010
  22   2.0000      -0.791799       -21.5459
  23   2.0000      -0.779842       -21.2206
  24   2.0000      -0.747503       -20.3406
  25   2.0000      -0.724436       -19.7129
  26   2.0000      -0.688519       -18.7355
  27   2.0000      -0.660353       -17.9691
  28   2.0000      -0.649606       -17.6767
  29   2.0000      -0.638796       -17.3825
  30   2.0000      -0.633004       -17.2249
  31   2.0000      -0.622311       -16.9339
  32   2.0000      -0.599422       -16.3111
  33   2.0000      -0.571906       -15.5623
  34   2.0000      -0.559508       -15.2250
  35   2.0000      -0.552372       -15.0308
  36   2.0000      -0.535167       -14.5626
  37   2.0000      -0.525688       -14.3047
  38   2.0000      -0.516477       -14.0540
  39   2.0000      -0.505714       -13.7612
  40   2.0000      -0.495353       -13.4792
  41   2.0000      -0.480786       -13.0829
  42   2.0000      -0.478153       -13.0112
  43   2.0000      -0.465590       -12.6693
  44   2.0000      -0.450437       -12.2570
  45   2.0000      -0.443198       -12.0600
  46   2.0000      -0.439213       -11.9516
  47   2.0000      -0.435501       -11.8506
  48   2.0000      -0.420494       -11.4422
  49   2.0000      -0.415753       -11.3132
  50   2.0000      -0.409751       -11.1499
  51   2.0000      -0.397015       -10.8033
  52   2.0000      -0.390054       -10.6139
  53   2.0000      -0.386311       -10.5121
  54   2.0000      -0.381066       -10.3693
  55   2.0000      -0.377523       -10.2729
  56   2.0000      -0.369252       -10.0479
  57   2.0000      -0.359841        -9.7918
  58   2.0000      -0.230427        -6.2702
  59   0.0000      -0.007608        -0.2070
  60   0.0000       0.040696         1.1074
  61   0.0000       0.053433         1.4540
  62   0.0000       0.059398         1.6163
  63   0.0000       0.062917         1.7121

MULLIKEN ATOMIC CHARGES
-----------------------
   0 C :    0.790474
   1 C :    0.679394
   2 C :    0.288115
   3 H :    0.124745
   4 H :   -0.223360
   5 C :    0.645299
   6 C :   -0.532482
   7 N :    0.600300
   8 C :    1.140316
   9 H :   -0.899406
  10 H :   -0.171858
  11 H :    0.002496
  12 H :   -0.620202
  13 F :   -0.446463
  14 O :   -0.516367
  15 C :    0.321709
  16 C :   -0.032680
  17 C :    0.012820
  18 H :   -0.253735
  19 H :   -0.166598
  20 H :   -0.148343
  21 H :   -0.009579
  22 C :    0.404114
  23 H :    0.011639
  24 H :   -0.410268
  25 C :    0.159196
  26 H :   -0.577654
  27 H :   -0.085933
  28 C :    0.952592
  29 H :    0.091990
  30 H :   -0.444816
  31 H :    0.061163
  32 H :   -0.581704
  33 H :    0.012416
  34 H :   -0.091249
  35 H :    0.075574
  36 H :   -0.161655
Sum of atomic charges:   -0.0000000

LOEWDIN ATOMIC CHARGES
----------------------
   0 C :    0.017411
   1 C :   -0.013046
   2 C :    0.058397
   3 H :    0.026643
   4 H :    0.045640
   5 C :    0.054105
   6 C :   -0.259052
   7 N :    0.212204
   8 C :    0.184991
   9 H :   -0.143209
  10 H :   -0.076374
  11 H :    0.005473
  12 H :   -0.109270
  13 F :   -0.031350
  14 O :   -0.107250
  15 C :   -0.020202
  16 C :   -0.036553
  17 C :   -0.029056
  18 H :    0.032843
  19 H :    0.010825
  20 H :    0.029627
  21 H :    0.029505
  22 C :   -0.028588
  23 H :    0.011477
  24 H :    0.021679
  25 C :   -0.039753
  26 H :   -0.016841
  27 H :    0.038435
  28 C :   -0.027821
  29 H :    0.014820
  30 H :    0.023867
  31 H :    0.008280
  32 H :    0.023840
  33 H :    0.021407
  34 H :    0.023420
  35 H :    0.023147
  36 H :    0.020326

  Mayer bond orders larger than 0.100000
B(  0-C ,  6-C ) :   1.3192 B(  0-C ,  8-C ) :   0.1350 B(  0-C , 15-C ) :   1.0734
B(  0-C , 23-H ) :   0.1152 B(  0-C , 24-H ) :   0.1391 B(  0-C , 35-H ) :   0.6984
B(  0-C , 36-H ) :   0.4424 B(  1-C ,  2-C ) :   1.1593 B(  1-C ,  3-H ) :   0.1099
B(  1-C ,  4-H ) :   0.1782 B(  1-C , 17-C ) :   1.2071 B(  1-C , 19-H ) :   0.1058
B(  1-C , 20-H ) :   0.7021 B(  1-C , 21-H ) :   0.5903 B(  2-C ,  3-H ) :   0.8316
B(  2-C ,  4-H ) :   0.6175 B(  2-C ,  5-C ) :   1.2088 B(  2-C , 17-C ) :   0.1464
B(  2-C , 20-H ) :   0.1700 B(  2-C , 21-H ) :   0.1226 B(  3-H ,  5-C ) :   0.1702
B(  4-H ,  5-C ) :   0.2743 B(  5-C , 13-F ) :   0.6953 B(  5-C , 14-O ) :   1.6633
B(  6-C ,  7-N ) :   0.9717 B(  6-C ,  8-C ) :   1.9974 B(  6-C ,  9-H ) :   0.3945
B(  6-C , 10-H ) :   0.3075 B(  6-C , 15-C ) :   0.1016 B(  6-C , 24-H ) :  -0.1203
B(  6-C , 35-H ) :   0.2057 B(  6-C , 36-H ) :   0.3458 B(  7-N ,  8-C ) :   0.3948
B(  7-N , 11-H ) :   0.9689 B(  7-N , 12-H ) :   1.0415 B(  8-C ,  9-H ) :  -0.1687
B(  8-C , 10-H ) :   0.6212 B(  9-H , 13-F ) :   0.2097 B(  9-H , 24-H ) :  -0.1071
B( 11-H , 12-H ) :  -0.2524 B( 12-H , 14-O ) :   0.1849 B( 13-F , 14-O ) :   0.1200
B( 15-C , 22-C ) :   1.1138 B( 15-C , 23-H ) :   0.7957 B( 15-C , 24-H ) :   0.8373
B( 15-C , 25-C ) :   0.1305 B( 15-C , 26-H ) :   0.1666 B( 15-C , 27-H ) :   0.1041
B( 15-C , 35-H ) :   0.1595 B( 15-C , 36-H ) :   0.2152 B( 16-C , 17-C ) :   1.2378
B( 16-C , 18-H ) :   0.1925 B( 16-C , 19-H ) :   0.1449 B( 16-C , 25-C ) :   0.1820
B( 16-C , 28-C ) :   1.0529 B( 16-C , 31-H ) :   0.8096 B( 16-C , 32-H ) :   1.0361
B( 16-C , 33-H ) :   0.1640 B( 16-C , 34-H ) :   0.3289 B( 17-C , 18-H ) :   0.8196
B( 17-C , 19-H ) :   0.8963 B( 17-C , 20-H ) :   0.2180 B( 17-C , 21-H ) :   0.2894
B( 17-C , 31-H ) :   0.1135 B( 17-C , 32-H ) :   0.1295 B( 20-H , 21-H ) :  -0.1459
B( 22-C , 23-H ) :   0.1407 B( 22-C , 24-H ) :   0.2148 B( 22-C , 25-C ) :   1.1503
B( 22-C , 26-H ) :   0.8014 B( 22-C , 27-H ) :   0.6703 B( 22-C , 29-H ) :   0.1408
B( 22-C , 30-H ) :   0.2619 B( 25-C , 26-H ) :   0.1035 B( 25-C , 27-H ) :   0.1252
B( 25-C , 28-C ) :   1.1250 B( 25-C , 29-H ) :   0.8014 B( 25-C , 30-H ) :   0.8758
B( 25-C , 33-H ) :   0.2535 B( 25-C , 34-H ) :   0.1673 B( 26-H , 27-H ) :   0.2338
B( 26-H , 31-H ) :   0.1931 B( 26-H , 32-H ) :  -0.1236 B( 28-C , 29-H ) :   0.1078
B( 28-C , 33-H ) :   0.5971 B( 28-C , 34-H ) :   0.5451 B( 33-H , 34-H ) :  -0.1365

FINAL SINGLE POINT ENERGY      -699.472101684409

DIPOLE MOMENT
-------------
                                X             Y             Z
Electronic contribution:      0.05589       6.26387      15.10224
Nuclear contribution   :     -1.39991      -5.60370     -16.00470
                        -----------------------------------------
Total Dipole Moment    :     -1.34401       0.66017      -0.90246
                        -----------------------------------------
Magnitude (a.u.)       :      1.74832
Magnitude (Debye)      :      4.44387

Rotational constants in cm-1:     0.021622     0.017313     0.011402
Rotational constants in MHz :   648.226014   519.043632   341.814105

                             ****ORCA TERMINATED NORMALLY****
TOTAL RUN TIME: 0 days 0 hours 6 minutes 24 seconds 826 msec
