                         Program Version 5.0.0 -  RELEASE  -
|  1> !PBE D3BJ RIJCOSX def2-TZVP def2/J TightSCF
|  2> *xyz -1 1
|  3> C          0.61188        1.65763       -4.50029
|  4> C          1.69499        1.54179       -5.57045
|  5> H          2.69733        1.73466       -5.18400
|  6> H          1.50666        2.27224       -6.35808
|  7> S          1.78029       -0.03313       -6.42874
|  8> O          2.56929        0.21366       -7.60736
|  9> O          0.41688       -0.46297       -6.61859
| 10> O          2.50513       -0.93326       -5.48257
| 11> H         -0.34424        1.45871       -4.93752
| 12> H          0.61845        2.64655       -4.09174
| 13> H          0.80247        0.94882       -3.72173
| 14> *
| 15> %MaxCore 64000
| 16>
| 17> %pal nprocs 4
| 18> end
| 19>
| 20> %scf
| 21>   MaxIter 150
| 22> end
| 23>
| 24>
| 25>                          ****END OF INPUT****

CARTESIAN COORDINATES (ANGSTROEM)
---------------------------------
  C      0.611880    1.657630   -4.500290
  C      1.694990    1.541790   -5.570450
  H      2.697330    1.734660   -5.184000
  H      1.506660    2.272240   -6.358080
  S      1.780290   -0.033130   -6.428740
  O      2.569290    0.213660   -7.607360
  O      0.416880   -0.462970   -6.618590
  O      2.505130   -0.933260   -5.482570
  H     -0.344240    1.458710   -4.937520
  H      0.618450    2.646550   -4.091740
  H      0.802470    0.948820   -3.721730

 Total Charge           Charge          ....   -1
 Multiplicity           Mult            ....    1
 Number of Electrons    NEL             ....   58
 Basis Dimension        Dim             ....  222

ORBITAL ENERGIES
----------------

  NO   OCC          E(Eh)            E(eV)
   0   2.0000     -88.000821     -2394.6241
   1   2.0000     -18.521613      -503.9987
   2   2.0000     -18.520667      -503.9730
   3   2.0000     -18.501819      -503.4601
   4   2.0000      -9.734267      -264.8829
   5   2.0000      -9.730392      -264.7774
   6   2.0000      -7.595848      -206.6935
   7   2.0000      -5.616803      -152.8410
   8   2.0000      -5.615748      -152.8123
   9   2.0000      -5.615410      -152.8031
  10   2.0000      -0.824317       -22.4308
  11   2.0000      -0.702988       -19.1293
  12   2.0000      -0.670207       -18.2373
  13   2.0000      -0.554184       -15.0801
  14   2.0000      -0.436622       -11.8811
  15   2.0000      -0.315531        -8.5860
  16   2.0000      -0.262863        -7.1529
  17   2.0000      -0.253929        -6.9098
  18   2.0000      -0.219114        -5.9624
  19   2.0000      -0.200667        -5.4604
  20   2.0000      -0.197299        -5.3688
  21   2.0000      -0.177751        -4.8369
  22   2.0000      -0.163204        -4.4410
  23   2.0000      -0.094708        -2.5771
  24   2.0000      -0.093821        -2.5530
  25   2.0000      -0.064415        -1.7528
  26   2.0000      -0.060756        -1.6533
  27   2.0000      -0.041027        -1.1164
  28   2.0000      -0.007927        -0.2157
  29   0.0000       0.156172         4.2496
  30   0.0000       0.199420         5.4265
  31   0.0000       0.212278         5.7764
  32   0.0000       0.217495         5.9183
  33   0.0000       0.241092         6.5604

MULLIKEN ATOMIC CHARGES
-----------------------
   0 C :   -0.317615
   1 C :   -0.226196
   2 H :    0.075989
   3 H :    0.066368
   4 S :    0.653238
   5 O :   -0.483911
   6 O :   -0.488383
   7 O :   -0.548585
   8 H :    0.108699
   9 H :    0.062374
  10 H :    0.098021
Sum of atomic charges:   -1.0000000

LOEWDIN ATOMIC CHARGES
----------------------
   0 C :   -0.350388
   1 C :   -0.444074
   2 H :    0.118419
   3 H :    0.116071
   4 S :    0.346831
   5 O :   -0.347466
   6 O :   -0.346647
   7 O :   -0.419384
   8 H :    0.114166
   9 H :    0.099371
  10 H :    0.113100

  Mayer bond orders larger than 0.100000
B(  0-C ,  1-C ) :   0.9793 B(  0-C ,  8-H ) :   0.9668 B(  0-C ,  9-H ) :   0.9538
B(  0-C , 10-H ) :   0.9684 B(  1-C ,  2-H ) :   0.9523 B(  1-C ,  3-H ) :   0.9411
B(  1-C ,  4-S ) :   0.8580 B(  4-S ,  5-O ) :   1.8687 B(  4-S ,  6-O ) :   1.8138
B(  4-S ,  7-O ) :   1.7882

Dispersion correction           -0.009639369
FINAL SINGLE POINT ENERGY      -702.806048595481

DIPOLE MOMENT
-------------
                                X             Y             Z
Electronic contribution:      2.27725      -5.79000      -5.09504
Nuclear contribution   :     -2.69163       7.29476       5.86550
                        -----------------------------------------
Total Dipole Moment    :     -0.41438       1.50476       0.77046
                        -----------------------------------------
Magnitude (a.u.)       :      1.74058
Magnitude (Debye)      :      4.42421

Rotational constants in cm-1:     0.163060     0.082831     0.081111
Rotational constants in MHz :  4888.419330  2483.225008  2431.646841

                             ****ORCA TERMINATED NORMALLY****
TOTAL RUN TIME: 0 days 0 hours 0 minutes 6 seconds 715 msec
