                         Program Version 5.0.0 -  RELEASE  -
|  1> !PBE D3BJ RIJCOSX def2-TZVP def2/J TightSCF
|  2> *xyz 1 1
|  3> C          1.96337       -1.74915       -1.89689
|  4> N          2.73849       -2.01517       -3.09711
|  5> C          4.04974       -2.15472       -3.15204
|  6> N          4.65821       -1.98629       -4.31866
|  7> N          4.76423       -2.45444       -2.05049
|  8> H          4.28736       -2.77626       -1.21750
|  9> H          5.75082       -2.65835       -2.12599
| 10> H          2.34518       -1.69027       -3.97145
| 11> H          4.10900       -1.59268       -5.07176
| 12> H          5.64910       -2.15646       -4.42724
| 13> C          2.08852       -0.30091       -1.41520
| 14> H          2.23127       -2.45162       -1.10264
| 15> H          0.93025       -1.97780       -2.15544
| 16> H          1.82118        0.36368       -2.21003
| 17> H          3.09792       -0.11068       -1.11551
| 18> H          1.43391       -0.14382       -0.58352
| 19> *
| 20> %MaxCore 64000
| 21>
| 22> %pal nprocs 4
| 23> end
| 24>
| 25> %scf
| 26>   MaxIter 150
| 27> end
| 28>
| 29>
| 30>                          ****END OF INPUT****

CARTESIAN COORDINATES (ANGSTROEM)
---------------------------------
  C      1.963370   -1.749150   -1.896890
  N      2.738490   -2.015170   -3.097110
  C      4.049740   -2.154720   -3.152040
  N      4.658210   -1.986290   -4.318660
  N      4.764230   -2.454440   -2.050490
  H      4.287360   -2.776260   -1.217500
  H      5.750820   -2.658350   -2.125990
  H      2.345180   -1.690270   -3.971450
  H      4.109000   -1.592680   -5.071760
  H      5.649100   -2.156460   -4.427240
  C      2.088520   -0.300910   -1.415200
  H      2.231270   -2.451620   -1.102640
  H      0.930250   -1.977800   -2.155440
  H      1.821180    0.363680   -2.210030
  H      3.097920   -0.110680   -1.115510
  H      1.433910   -0.143820   -0.583520

 Total Charge           Charge          ....    1
 Multiplicity           Mult            ....    1
 Number of Electrons    NEL             ....   48
 Basis Dimension        Dim             ....  246

ORBITAL ENERGIES
----------------

  NO   OCC          E(Eh)            E(eV)
   0   2.0000     -14.207378      -386.6024
   1   2.0000     -14.206515      -386.5789
   2   2.0000     -14.204345      -386.5199
   3   2.0000     -10.201992      -277.6103
   4   2.0000     -10.087637      -274.4986
   5   2.0000     -10.015795      -272.5436
   6   2.0000      -1.131633       -30.7933
   7   2.0000      -1.027393       -27.9568
   8   2.0000      -1.015339       -27.6288
   9   2.0000      -0.861562       -23.4443
  10   2.0000      -0.781226       -21.2582
  11   2.0000      -0.746265       -20.3069
  12   2.0000      -0.729136       -19.8408
  13   2.0000      -0.691352       -18.8126
  14   2.0000      -0.644766       -17.5450
  15   2.0000      -0.637716       -17.3531
  16   2.0000      -0.607707       -16.5365
  17   2.0000      -0.578852       -15.7514
  18   2.0000      -0.553524       -15.0622
  19   2.0000      -0.519314       -14.1313
  20   2.0000      -0.488305       -13.2875
  21   2.0000      -0.469518       -12.7762
  22   2.0000      -0.435645       -11.8545
  23   2.0000      -0.411663       -11.2019
  24   0.0000      -0.198137        -5.3916
  25   0.0000      -0.178977        -4.8702
  26   0.0000      -0.145607        -3.9622
  27   0.0000      -0.134724        -3.6660
  28   0.0000      -0.112914        -3.0726

MULLIKEN ATOMIC CHARGES
-----------------------
   0 C :   -0.186760
   1 N :   -0.186440
   2 C :    0.357380
   3 N :   -0.347430
   4 N :   -0.363438
   5 H :    0.272210
   6 H :    0.268609
   7 H :    0.231904
   8 H :    0.267114
   9 H :    0.276919
  10 C :   -0.315460
  11 H :    0.131599
  12 H :    0.167876
  13 H :    0.130682
  14 H :    0.132525
  15 H :    0.162710
Sum of atomic charges:    1.0000000

LOEWDIN ATOMIC CHARGES
----------------------
   0 C :   -0.289731
   1 N :    0.181792
   2 C :   -0.432679
   3 N :    0.080821
   4 N :    0.071474
   5 H :    0.193645
   6 H :    0.193912
   7 H :    0.208848
   8 H :    0.196758
   9 H :    0.197129
  10 C :   -0.285687
  11 H :    0.140584
  12 H :    0.153519
  13 H :    0.126789
  14 H :    0.124186
  15 H :    0.138640

  Mayer bond orders larger than 0.100000
B(  0-C ,  1-N ) :   0.9214 B(  0-C , 10-C ) :   1.0001 B(  0-C , 11-H ) :   0.9536
B(  0-C , 12-H ) :   0.9442 B(  1-N ,  2-C ) :   1.3942 B(  1-N ,  7-H ) :   0.9005
B(  2-C ,  3-N ) :   1.3595 B(  2-C ,  4-N ) :   1.3462 B(  3-N ,  8-H ) :   0.8966
B(  3-N ,  9-H ) :   0.8924 B(  4-N ,  5-H ) :   0.8877 B(  4-N ,  6-H ) :   0.8975
B( 10-C , 13-H ) :   0.9602 B( 10-C , 14-H ) :   0.9588 B( 10-C , 15-H ) :   0.9557

Dispersion correction           -0.012419522
FINAL SINGLE POINT ENERGY      -284.154602054889

DIPOLE MOMENT
-------------
                                X             Y             Z
Electronic contribution:      3.01906      -2.70556      -3.09718
Nuclear contribution   :     -2.17768       2.37118       2.44574
                        -----------------------------------------
Total Dipole Moment    :      0.84138      -0.33438      -0.65144
                        -----------------------------------------
Magnitude (a.u.)       :      1.11540
Magnitude (Debye)      :      2.83511

Rotational constants in cm-1:     0.215650     0.075183     0.066454
Rotational constants in MHz :  6465.033740  2253.919004  1992.232519

                             ****ORCA TERMINATED NORMALLY****
TOTAL RUN TIME: 0 days 0 hours 0 minutes 8 seconds 180 msec
