                         Program Version 5.0.0 -  RELEASE  -
|  1> !PBE D3BJ RIJCOSX def2-TZVP def2/J TightSCF xyzfile
|  2>
|  3> *xyzfile 0 1 B.xyz
|  4>
|  5> %MaxCore 64000
|  6>
|  7> %pal nprocs 18
|  8> end
|  9>
| 10> %scf
| 11>   MaxIter 150
| 12> end
| 13>
| 14>
| 15>                          ****END OF INPUT****

CARTESIAN COORDINATES (ANGSTROEM)
---------------------------------
  C      1.963365   -1.749150   -1.896887
  N      2.738490   -2.015170   -3.097113
  C      0.611877    1.657634   -4.500288
  C      1.694991    1.541794   -5.570447
  H      2.697326    1.734659   -5.183996
  H      1.506656    2.272239   -6.358076
  S      1.780287   -0.033128   -6.428739
  C      4.049736   -2.154717   -3.152044
  N      4.658206   -1.986293   -4.318655
  N      4.764231   -2.454435   -2.050491
  H      4.287363   -2.776259   -1.217496
  H      5.750825   -2.658351   -2.125988
  H      2.345176   -1.690274   -3.971447
  H      4.109004   -1.592677   -5.071760
  H      5.649095   -2.156462   -4.427237
  O      2.569287    0.213657   -7.607360
  O      0.416880   -0.462969   -6.618595
  C      2.088520   -0.300912   -1.415204
  H      2.231272   -2.451616   -1.102643
  H      0.930249   -1.977801   -2.155438
  C      0.680356    0.655418   -3.348038
  H     -0.356865    1.549231   -4.991128
  H      0.650228    2.675438   -4.096000
  C      1.968993    0.733582   -2.535654
  H      3.051356   -0.168602   -0.911868
  H      1.316501   -0.136231   -0.657252
  O      2.505129   -0.933263   -5.482570
  H      2.824195    0.624726   -3.208464
  H      2.058919    1.730331   -2.093112
  H      0.542252   -0.344731   -3.766662
  H     -0.174219    0.829692   -2.685182

 Total Charge           Charge          ....    0
 Multiplicity           Mult            ....    1
 Number of Electrons    NEL             ....  120
 Basis Dimension        Dim             ....  542

ORBITAL ENERGIES
----------------

  NO   OCC          E(Eh)            E(eV)
   0   2.0000     -88.154422     -2398.8038
   1   2.0000     -18.687985      -508.5259
   2   2.0000     -18.665801      -507.9223
   3   2.0000     -18.664195      -507.8786
   4   2.0000     -14.067616      -382.7993
   5   2.0000     -14.039477      -382.0336
   6   2.0000     -14.037399      -381.9770
   7   2.0000     -10.048710      -273.4393
   8   2.0000      -9.951344      -270.7898
   9   2.0000      -9.903202      -269.4798
  10   2.0000      -9.883689      -268.9488
  11   2.0000      -9.871638      -268.6209
  12   2.0000      -9.867033      -268.4956
  13   2.0000      -9.865828      -268.4628
  14   2.0000      -7.749775      -210.8821
  15   2.0000      -5.771184      -157.0419
  16   2.0000      -5.769790      -157.0040
  17   2.0000      -5.768666      -156.9734
  18   2.0000      -0.980704       -26.6863
  19   2.0000      -0.976169       -26.5629
  20   2.0000      -0.877169       -23.8690
  21   2.0000      -0.863530       -23.4978
  22   2.0000      -0.846593       -23.0370
  23   2.0000      -0.846023       -23.0215
  24   2.0000      -0.747519       -20.3410
  25   2.0000      -0.709556       -19.3080
  26   2.0000      -0.665908       -18.1203
  27   2.0000      -0.632137       -17.2013
  28   2.0000      -0.607268       -16.5246
  29   2.0000      -0.578534       -15.7427
  30   2.0000      -0.568819       -15.4784
  31   2.0000      -0.537666       -14.6306
  32   2.0000      -0.514796       -14.0083
  33   2.0000      -0.500697       -13.6247
  34   2.0000      -0.490439       -13.3455
  35   2.0000      -0.467779       -12.7289
  36   2.0000      -0.449013       -12.2183
  37   2.0000      -0.432254       -11.7622
  38   2.0000      -0.426848       -11.6151
  39   2.0000      -0.418784       -11.3957
  40   2.0000      -0.402277       -10.9465
  41   2.0000      -0.387986       -10.5576
  42   2.0000      -0.375484       -10.2174
  43   2.0000      -0.368395       -10.0245
  44   2.0000      -0.350112        -9.5270
  45   2.0000      -0.342790        -9.3278
  46   2.0000      -0.333040        -9.0625
  47   2.0000      -0.324601        -8.8328
  48   2.0000      -0.319159        -8.6848
  49   2.0000      -0.293392        -7.9836
  50   2.0000      -0.289943        -7.8898
  51   2.0000      -0.286847        -7.8055
  52   2.0000      -0.272492        -7.4149
  53   2.0000      -0.258379        -7.0309
  54   2.0000      -0.255251        -6.9457
  55   2.0000      -0.246874        -6.7178
  56   2.0000      -0.216172        -5.8823
  57   2.0000      -0.205329        -5.5873
  58   2.0000      -0.202658        -5.5146
  59   2.0000      -0.172134        -4.6840
  60   0.0000      -0.049777        -1.3545
  61   0.0000      -0.048021        -1.3067
  62   0.0000      -0.016743        -0.4556
  63   0.0000       0.016382         0.4458
  64   0.0000       0.021109         0.5744

MULLIKEN ATOMIC CHARGES
-----------------------
   0 C :   -0.255370
   1 N :   -0.146746
   2 C :   -0.116112
   3 C :   -0.279116
   4 H :    0.099784
   5 H :    0.124987
   6 S :    0.703540
   7 C :    0.307995
   8 N :   -0.344901
   9 N :   -0.396310
  10 H :    0.251317
  11 H :    0.242172
  12 H :    0.267419
  13 H :    0.287054
  14 H :    0.229059
  15 O :   -0.445633
  16 O :   -0.436541
  17 C :   -0.097551
  18 H :    0.110176
  19 H :    0.161853
  20 C :   -0.235020
  21 H :    0.111575
  22 H :    0.076541
  23 C :   -0.233782
  24 H :    0.094081
  25 H :    0.100182
  26 O :   -0.594823
  27 H :    0.112338
  28 H :    0.096285
  29 H :    0.122236
  30 H :    0.083313
Sum of atomic charges:    0.0000000

LOEWDIN ATOMIC CHARGES
----------------------
   0 C :   -0.284971
   1 N :    0.188204
   2 C :   -0.291629
   3 C :   -0.399993
   4 H :    0.125006
   5 H :    0.138404
   6 S :    0.395403
   7 C :   -0.445669
   8 N :    0.070485
   9 N :    0.032833
  10 H :    0.180830
  11 H :    0.178920
  12 H :    0.178606
  13 H :    0.172217
  14 H :    0.175768
  15 O :   -0.301503
  16 O :   -0.298993
  17 C :   -0.272022
  18 H :    0.128150
  19 H :    0.149055
  20 C :   -0.277017
  21 H :    0.146800
  22 H :    0.136505
  23 C :   -0.274306
  24 H :    0.135677
  25 H :    0.143792
  26 O :   -0.386834
  27 H :    0.140208
  28 H :    0.140511
  29 H :    0.138886
  30 H :    0.136676

  Mayer bond orders larger than 0.100000
B(  0-C ,  1-N ) :   0.9561 B(  0-C , 17-C ) :   0.9641 B(  0-C , 18-H ) :   0.9633
B(  0-C , 19-H ) :   0.9541 B(  1-N ,  7-C ) :   1.4379 B(  1-N , 12-H ) :   0.8001
B(  2-C ,  3-C ) :   0.9880 B(  2-C , 20-C ) :   1.0226 B(  2-C , 21-H ) :   0.9366
B(  2-C , 22-H ) :   0.9325 B(  3-C ,  4-H ) :   0.9489 B(  3-C ,  5-H ) :   0.9413
B(  3-C ,  6-S ) :   0.8830 B(  6-S , 15-O ) :   1.9387 B(  6-S , 16-O ) :   1.8755
B(  6-S , 26-O ) :   1.4256 B(  7-C ,  8-N ) :   1.4107 B(  7-C ,  9-N ) :   1.2687
B(  8-N , 13-H ) :   0.8003 B(  8-N , 14-H ) :   0.9115 B(  9-N , 10-H ) :   0.8969
B(  9-N , 11-H ) :   0.9107 B( 12-H , 26-O ) :   0.1469 B( 13-H , 26-O ) :   0.1357
B( 17-C , 23-C ) :   1.0059 B( 17-C , 24-H ) :   0.9471 B( 17-C , 25-H ) :   0.9466
B( 20-C , 23-C ) :   1.0085 B( 20-C , 29-H ) :   0.9385 B( 20-C , 30-H ) :   0.9456
B( 23-C , 27-H ) :   0.9530 B( 23-C , 28-H ) :   0.9470

Dispersion correction           -0.037590724
FINAL SINGLE POINT ENERGY     -1064.482632867795

DIPOLE MOMENT
-------------
                                X             Y             Z
Electronic contribution:      2.25214      -5.02580     -14.40404
Nuclear contribution   :      0.44641       3.59123      19.13564
                        -----------------------------------------
Total Dipole Moment    :      2.69855      -1.43457       4.73160
                        -----------------------------------------
Magnitude (a.u.)       :      5.63278
Magnitude (Debye)      :     14.31739

Rotational constants in cm-1:     0.029186     0.014646     0.011115
Rotational constants in MHz :   874.975540   439.070287   333.231642

                             ****ORCA TERMINATED NORMALLY****
TOTAL RUN TIME: 0 days 0 hours 0 minutes 23 seconds 987 msec
