                         Program Version 5.0.0 -  RELEASE  -
|  1> !PBE D3BJ RIJCOSX def2-TZVP def2/J TightSCF
|  2> *xyz 0 1
|  3> C          0.61188        1.65763       -4.50029
|  4> C          1.69499        1.54179       -5.57045
|  5> H          2.69733        1.73466       -5.18400
|  6> H          1.50666        2.27224       -6.35808
|  7> S          1.78029       -0.03313       -6.42874
|  8> F          2.56929        0.21366       -7.60736
|  9> O          0.41688       -0.46297       -6.61859
| 10> O          2.50513       -0.93326       -5.48257
| 11> H         -0.34424        1.45871       -4.93752
| 12> H          0.61845        2.64655       -4.09174
| 13> H          0.80247        0.94882       -3.72173
| 14> *
| 15> %MaxCore 64000
| 16>
| 17> %pal nprocs 4
| 18> end
| 19>
| 20> %scf
| 21>   MaxIter 150
| 22> end
| 23>
| 24>
| 25>                          ****END OF INPUT****

CARTESIAN COORDINATES (ANGSTROEM)
---------------------------------
  C      0.611880    1.657630   -4.500290
  C      1.694990    1.541790   -5.570450
  H      2.697330    1.734660   -5.184000
  H      1.506660    2.272240   -6.358080
  S      1.780290   -0.033130   -6.428740
  F      2.569290    0.213660   -7.607360
  O      0.416880   -0.462970   -6.618590
  O      2.505130   -0.933260   -5.482570
  H     -0.344240    1.458710   -4.937520
  H      0.618450    2.646550   -4.091740
  H      0.802470    0.948820   -3.721730

 Total Charge           Charge          ....    0
 Multiplicity           Mult            ....    1
 Number of Electrons    NEL             ....   58
 Basis Dimension        Dim             ....  222

ORBITAL ENERGIES
----------------

  NO   OCC          E(Eh)            E(eV)
   0   2.0000     -88.265739     -2401.8329
   1   2.0000     -24.372882      -663.2198
   2   2.0000     -18.760416      -510.4969
   3   2.0000     -18.741624      -509.9855
   4   2.0000      -9.939112      -270.4570
   5   2.0000      -9.896889      -269.3080
   6   2.0000      -7.861406      -213.9197
   7   2.0000      -5.885686      -160.1576
   8   2.0000      -5.879224      -159.9818
   9   2.0000      -5.878984      -159.9753
  10   2.0000      -1.277520       -34.7631
  11   2.0000      -1.010529       -27.4979
  12   2.0000      -0.910619       -24.7792
  13   2.0000      -0.747362       -20.3368
  14   2.0000      -0.668197       -18.1826
  15   2.0000      -0.610443       -16.6110
  16   2.0000      -0.522859       -14.2277
  17   2.0000      -0.520053       -14.1514
  18   2.0000      -0.495568       -13.4851
  19   2.0000      -0.442650       -12.0451
  20   2.0000      -0.427449       -11.6315
  21   2.0000      -0.389329       -10.5942
  22   2.0000      -0.383384       -10.4324
  23   2.0000      -0.362612        -9.8672
  24   2.0000      -0.344132        -9.3643
  25   2.0000      -0.333302        -9.0696
  26   2.0000      -0.289095        -7.8667
  27   2.0000      -0.270325        -7.3559
  28   2.0000      -0.253330        -6.8934
  29   0.0000      -0.011403        -0.3103
  30   0.0000       0.005491         0.1494
  31   0.0000       0.032987         0.8976
  32   0.0000       0.038561         1.0493
  33   0.0000       0.049472         1.3462

MULLIKEN ATOMIC CHARGES
-----------------------
   0 C :   -0.343670
   1 C :   -0.233234
   2 H :    0.142808
   3 H :    0.123067
   4 S :    0.707408
   5 F :   -0.052867
   6 O :   -0.349498
   7 O :   -0.405104
   8 H :    0.142224
   9 H :    0.128046
  10 H :    0.140820
Sum of atomic charges:    0.0000000

LOEWDIN ATOMIC CHARGES
----------------------
   0 C :   -0.306513
   1 C :   -0.408727
   2 H :    0.140384
   3 H :    0.134680
   4 S :    0.466041
   5 F :    0.119257
   6 O :   -0.230777
   7 O :   -0.297270
   8 H :    0.127630
   9 H :    0.126802
  10 H :    0.128492

  Mayer bond orders larger than 0.100000
B(  0-C ,  1-C ) :   1.0053 B(  0-C ,  8-H ) :   0.9617 B(  0-C ,  9-H ) :   0.9499
B(  0-C , 10-H ) :   0.9646 B(  1-C ,  2-H ) :   0.9287 B(  1-C ,  3-H ) :   0.9235
B(  1-C ,  4-S ) :   0.9048 B(  4-S ,  5-F ) :   1.1793 B(  4-S ,  6-O ) :   1.9567
B(  4-S ,  7-O ) :   1.9196

Dispersion correction           -0.009229727
FINAL SINGLE POINT ENERGY      -727.314850527925

DIPOLE MOMENT
-------------
                                X             Y             Z
Electronic contribution:      3.86558      -5.74876      -7.55551
Nuclear contribution   :     -3.66946       7.33549       7.42434
                        -----------------------------------------
Total Dipole Moment    :      0.19612       1.58673      -0.13116
                        -----------------------------------------
Magnitude (a.u.)       :      1.60418
Magnitude (Debye)      :      4.07750

Rotational constants in cm-1:     0.158379     0.080294     0.077843
Rotational constants in MHz :  4748.076444  2407.152850  2333.668303

                             ****ORCA TERMINATED NORMALLY****
TOTAL RUN TIME: 0 days 0 hours 0 minutes 6 seconds 941 msec
