                         Program Version 5.0.0 -  RELEASE  -
|  1> !PBE D3BJ RIJCOSX def2-TZVP def2/J TightSCF
|  2> *xyz 0 1
|  3> C          1.96337       -1.74915       -1.89689
|  4> C          2.73849       -2.01517       -3.09711
|  5> C          4.04974       -2.15472       -3.15204
|  6> N          4.65821       -1.98629       -4.31866
|  7> N          4.76423       -2.45444       -2.05049
|  8> H          4.28736       -2.77626       -1.21750
|  9> H          5.75082       -2.65835       -2.12599
| 10> H          2.34518       -1.69027       -3.97145
| 11> H          4.10900       -1.59268       -5.07176
| 12> H          5.64910       -2.15646       -4.42724
| 13> C          2.08852       -0.30091       -1.41520
| 14> H          2.23127       -2.45162       -1.10264
| 15> H          0.93025       -1.97780       -2.15544
| 16> H          1.82118        0.36368       -2.21003
| 17> H          3.09792       -0.11068       -1.11551
| 18> H          1.43391       -0.14382       -0.58352
| 19> *
| 20> %MaxCore 64000
| 21>
| 22> %pal nprocs 4
| 23> end
| 24>
| 25> %scf
| 26>   MaxIter 150
| 27> end
| 28>
| 29>
| 30>                          ****END OF INPUT****

CARTESIAN COORDINATES (ANGSTROEM)
---------------------------------
  C      1.963370   -1.749150   -1.896890
  C      2.738490   -2.015170   -3.097110
  C      4.049740   -2.154720   -3.152040
  N      4.658210   -1.986290   -4.318660
  N      4.764230   -2.454440   -2.050490
  H      4.287360   -2.776260   -1.217500
  H      5.750820   -2.658350   -2.125990
  H      2.345180   -1.690270   -3.971450
  H      4.109000   -1.592680   -5.071760
  H      5.649100   -2.156460   -4.427240
  C      2.088520   -0.300910   -1.415200
  H      2.231270   -2.451620   -1.102640
  H      0.930250   -1.977800   -2.155440
  H      1.821180    0.363680   -2.210030
  H      3.097920   -0.110680   -1.115510
  H      1.433910   -0.143820   -0.583520

 Total Charge           Charge          ....    0
 Multiplicity           Mult            ....    1
 Number of Electrons    NEL             ....   48
 Basis Dimension        Dim             ....  246

ORBITAL ENERGIES
----------------

  NO   OCC          E(Eh)            E(eV)
   0   2.0000     -13.983410      -380.5079
   1   2.0000     -13.980812      -380.4372
   2   2.0000      -9.914902      -269.7982
   3   2.0000      -9.853376      -268.1240
   4   2.0000      -9.840772      -267.7810
   5   2.0000      -9.798432      -266.6289
   6   2.0000      -0.876090       -23.8396
   7   2.0000      -0.793543       -21.5934
   8   2.0000      -0.697634       -18.9836
   9   2.0000      -0.623897       -16.9771
  10   2.0000      -0.554340       -15.0843
  11   2.0000      -0.521875       -14.2009
  12   2.0000      -0.489335       -13.3155
  13   2.0000      -0.456143       -12.4123
  14   2.0000      -0.424351       -11.5472
  15   2.0000      -0.388468       -10.5707
  16   2.0000      -0.369195       -10.0463
  17   2.0000      -0.336157        -9.1473
  18   2.0000      -0.332198        -9.0396
  19   2.0000      -0.310443        -8.4476
  20   2.0000      -0.283002        -7.7009
  21   2.0000      -0.273489        -7.4420
  22   2.0000      -0.220616        -6.0033
  23   2.0000      -0.126192        -3.4339
  24   0.0000      -0.002226        -0.0606
  25   0.0000       0.029012         0.7895
  26   0.0000       0.038161         1.0384
  27   0.0000       0.053809         1.4642
  28   0.0000       0.063365         1.7242

MULLIKEN ATOMIC CHARGES
-----------------------
   0 C :   -0.192270
   1 C :   -0.294182
   2 C :    0.279868
   3 N :   -0.420291
   4 N :   -0.434642
   5 H :    0.229113
   6 H :    0.204949
   7 H :    0.046074
   8 H :    0.228191
   9 H :    0.205696
  10 C :   -0.291500
  11 H :    0.056282
  12 H :    0.089632
  13 H :    0.093413
  14 H :    0.104447
  15 H :    0.095219
Sum of atomic charges:   -0.0000000

LOEWDIN ATOMIC CHARGES
----------------------
   0 C :   -0.315269
   1 C :   -0.288550
   2 C :   -0.472905
   3 N :   -0.000755
   4 N :   -0.008593
   5 H :    0.172621
   6 H :    0.158240
   7 H :    0.121553
   8 H :    0.177747
   9 H :    0.158782
  10 C :   -0.306874
  11 H :    0.126263
  12 H :    0.140476
  13 H :    0.114149
  14 H :    0.114631
  15 H :    0.108484

  Mayer bond orders larger than 0.100000
B(  0-C ,  1-C ) :   1.0965 B(  0-C , 10-C ) :   0.9628 B(  0-C , 11-H ) :   0.9510
B(  0-C , 12-H ) :   0.9650 B(  1-C ,  2-C ) :   1.6799 B(  1-C ,  7-H ) :   0.9885
B(  2-C ,  3-N ) :   1.1814 B(  2-C ,  4-N ) :   1.1673 B(  3-N ,  8-H ) :   0.9146
B(  3-N ,  9-H ) :   0.9203 B(  4-N ,  5-H ) :   0.9147 B(  4-N ,  6-H ) :   0.9209
B( 10-C , 13-H ) :   0.9726 B( 10-C , 14-H ) :   0.9739 B( 10-C , 15-H ) :   0.9615

Dispersion correction           -0.012877387
FINAL SINGLE POINT ENERGY      -267.671284147961

DIPOLE MOMENT
-------------
                                X             Y             Z
Electronic contribution:      3.39962      -2.46125      -2.55823
Nuclear contribution   :     -2.31778       2.31977       2.35294
                        -----------------------------------------
Total Dipole Moment    :      1.08185      -0.14148      -0.20529
                        -----------------------------------------
Magnitude (a.u.)       :      1.11020
Magnitude (Debye)      :      2.82191

Rotational constants in cm-1:     0.219415     0.075373     0.066689
Rotational constants in MHz :  6577.897266  2259.621393  1999.290981

                             ****ORCA TERMINATED NORMALLY****
TOTAL RUN TIME: 0 days 0 hours 0 minutes 9 seconds 266 msec
