                         Program Version 5.0.0 -  RELEASE  -
|  1> !PBE D3BJ RIJCOSX def2-TZVP def2/J TightSCF
|  2> *xyz 0 1
|  3> C          0.61188        1.65763       -4.50029
|  4> C          1.69499        1.54179       -5.57045
|  5> H          2.69733        1.73466       -5.18400
|  6> H          1.50666        2.27224       -6.35808
|  7> S          1.78029       -0.03313       -6.42874
|  8> O          2.56929        0.21366       -7.60736
|  9> F          0.41688       -0.46297       -6.61859
| 10> O          2.50513       -0.93326       -5.48257
| 11> H         -0.34424        1.45871       -4.93752
| 12> H          0.61845        2.64655       -4.09174
| 13> H          0.80247        0.94882       -3.72173
| 14> *
| 15> %MaxCore 64000
| 16>
| 17> %pal nprocs 4
| 18> end
| 19>
| 20> %scf
| 21>   MaxIter 150
| 22> end
| 23>
| 24>
| 25>                          ****END OF INPUT****

CARTESIAN COORDINATES (ANGSTROEM)
---------------------------------
  C      0.611880    1.657630   -4.500290
  C      1.694990    1.541790   -5.570450
  H      2.697330    1.734660   -5.184000
  H      1.506660    2.272240   -6.358080
  S      1.780290   -0.033130   -6.428740
  O      2.569290    0.213660   -7.607360
  F      0.416880   -0.462970   -6.618590
  O      2.505130   -0.933260   -5.482570
  H     -0.344240    1.458710   -4.937520
  H      0.618450    2.646550   -4.091740
  H      0.802470    0.948820   -3.721730

 Total Charge           Charge          ....    0
 Multiplicity           Mult            ....    1
 Number of Electrons    NEL             ....   58
 Basis Dimension        Dim             ....  222

ORBITAL ENERGIES
----------------

  NO   OCC          E(Eh)            E(eV)
   0   2.0000     -88.265584     -2401.8287
   1   2.0000     -24.372536      -663.2104
   2   2.0000     -18.760090      -510.4880
   3   2.0000     -18.741965      -509.9948
   4   2.0000      -9.938931      -270.4521
   5   2.0000      -9.901826      -269.4424
   6   2.0000      -7.861268      -213.9160
   7   2.0000      -5.885723      -160.1587
   8   2.0000      -5.878947      -159.9743
   9   2.0000      -5.878825      -159.9710
  10   2.0000      -1.276182       -34.7267
  11   2.0000      -1.011553       -27.5258
  12   2.0000      -0.910531       -24.7768
  13   2.0000      -0.750999       -20.4357
  14   2.0000      -0.664602       -18.0847
  15   2.0000      -0.615188       -16.7401
  16   2.0000      -0.533194       -14.5090
  17   2.0000      -0.518669       -14.1137
  18   2.0000      -0.487078       -13.2541
  19   2.0000      -0.444033       -12.0828
  20   2.0000      -0.422804       -11.5051
  21   2.0000      -0.400074       -10.8866
  22   2.0000      -0.386660       -10.5216
  23   2.0000      -0.365980        -9.9588
  24   2.0000      -0.350277        -9.5315
  25   2.0000      -0.332011        -9.0345
  26   2.0000      -0.288790        -7.8584
  27   2.0000      -0.270046        -7.3483
  28   2.0000      -0.253618        -6.9013
  29   0.0000      -0.020154        -0.5484
  30   0.0000       0.014250         0.3878
  31   0.0000       0.028144         0.7658
  32   0.0000       0.039834         1.0839
  33   0.0000       0.050318         1.3692

MULLIKEN ATOMIC CHARGES
-----------------------
   0 C :   -0.353287
   1 C :   -0.237314
   2 H :    0.157998
   3 H :    0.137048
   4 S :    0.706326
   5 O :   -0.342113
   6 F :   -0.058403
   7 O :   -0.405526
   8 H :    0.122413
   9 H :    0.130689
  10 H :    0.142171
Sum of atomic charges:    0.0000000

LOEWDIN ATOMIC CHARGES
----------------------
   0 C :   -0.321601
   1 C :   -0.401768
   2 H :    0.151038
   3 H :    0.139545
   4 S :    0.467189
   5 O :   -0.229247
   6 F :    0.118421
   7 O :   -0.296732
   8 H :    0.119728
   9 H :    0.127059
  10 H :    0.126367

  Mayer bond orders larger than 0.100000
B(  0-C ,  1-C ) :   0.9893 B(  0-C ,  8-H ) :   0.9653 B(  0-C ,  9-H ) :   0.9535
B(  0-C , 10-H ) :   0.9626 B(  1-C ,  2-H ) :   0.9339 B(  1-C ,  3-H ) :   0.9292
B(  1-C ,  4-S ) :   0.9004 B(  4-S ,  5-O ) :   1.9910 B(  4-S ,  6-F ) :   1.1626
B(  4-S ,  7-O ) :   1.9154

Dispersion correction           -0.009174978
FINAL SINGLE POINT ENERGY      -727.314650621018

DIPOLE MOMENT
-------------
                                X             Y             Z
Electronic contribution:      0.30461      -6.85723      -5.89602
Nuclear contribution   :     -1.42658       8.04056       6.39401
                        -----------------------------------------
Total Dipole Moment    :     -1.12197       1.18333       0.49800
                        -----------------------------------------
Magnitude (a.u.)       :      1.70502
Magnitude (Debye)      :      4.33382

Rotational constants in cm-1:     0.153659     0.082363     0.078978
Rotational constants in MHz :  4606.587369  2469.179541  2367.702074

                             ****ORCA TERMINATED NORMALLY****
TOTAL RUN TIME: 0 days 0 hours 0 minutes 7 seconds 40 msec
