                         Program Version 5.0.0 -  RELEASE  -
|  1> !PBE D3BJ RIJCOSX def2-TZVP def2/J TightSCF
|  2> *xyz 0 1
|  3> C          1.96337       -1.74915       -1.89689
|  4> N          2.73849       -2.01517       -3.09711
|  5> C          4.04974       -2.15472       -3.15204
|  6> C          4.65821       -1.98629       -4.31866
|  7> N          4.76423       -2.45444       -2.05049
|  8> H          4.28736       -2.77626       -1.21750
|  9> H          5.75082       -2.65835       -2.12599
| 10> H          2.34518       -1.69027       -3.97145
| 11> H          4.10900       -1.59268       -5.07176
| 12> H          5.64910       -2.15646       -4.42724
| 13> C          2.08852       -0.30091       -1.41520
| 14> H          2.23127       -2.45162       -1.10264
| 15> H          0.93025       -1.97780       -2.15544
| 16> H          1.82118        0.36368       -2.21003
| 17> H          3.09792       -0.11068       -1.11551
| 18> H          1.43391       -0.14382       -0.58352
| 19> *
| 20> %MaxCore 64000
| 21>
| 22> %pal nprocs 4
| 23> end
| 24>
| 25> %scf
| 26>   MaxIter 150
| 27> end
| 28>
| 29>
| 30>                          ****END OF INPUT****

CARTESIAN COORDINATES (ANGSTROEM)
---------------------------------
  C      1.963370   -1.749150   -1.896890
  N      2.738490   -2.015170   -3.097110
  C      4.049740   -2.154720   -3.152040
  C      4.658210   -1.986290   -4.318660
  N      4.764230   -2.454440   -2.050490
  H      4.287360   -2.776260   -1.217500
  H      5.750820   -2.658350   -2.125990
  H      2.345180   -1.690270   -3.971450
  H      4.109000   -1.592680   -5.071760
  H      5.649100   -2.156460   -4.427240
  C      2.088520   -0.300910   -1.415200
  H      2.231270   -2.451620   -1.102640
  H      0.930250   -1.977800   -2.155440
  H      1.821180    0.363680   -2.210030
  H      3.097920   -0.110680   -1.115510
  H      1.433910   -0.143820   -0.583520

 Total Charge           Charge          ....    0
 Multiplicity           Mult            ....    1
 Number of Electrons    NEL             ....   48
 Basis Dimension        Dim             ....  246

ORBITAL ENERGIES
----------------

  NO   OCC          E(Eh)            E(eV)
   0   2.0000     -13.983885      -380.5209
   1   2.0000     -13.982184      -380.4746
   2   2.0000      -9.919035      -269.9107
   3   2.0000      -9.916475      -269.8410
   4   2.0000      -9.867165      -268.4992
   5   2.0000      -9.791331      -266.4357
   6   2.0000      -0.884938       -24.0804
   7   2.0000      -0.805542       -21.9199
   8   2.0000      -0.699181       -19.0257
   9   2.0000      -0.631977       -17.1970
  10   2.0000      -0.567299       -15.4370
  11   2.0000      -0.542022       -14.7492
  12   2.0000      -0.482597       -13.1321
  13   2.0000      -0.445340       -12.1183
  14   2.0000      -0.430568       -11.7164
  15   2.0000      -0.389712       -10.6046
  16   2.0000      -0.383859       -10.4453
  17   2.0000      -0.354101        -9.6356
  18   2.0000      -0.336516        -9.1571
  19   2.0000      -0.329456        -8.9650
  20   2.0000      -0.314989        -8.5713
  21   2.0000      -0.311933        -8.4881
  22   2.0000      -0.211390        -5.7522
  23   2.0000      -0.130898        -3.5619
  24   0.0000      -0.000268        -0.0073
  25   0.0000       0.026645         0.7250
  26   0.0000       0.038101         1.0368
  27   0.0000       0.048629         1.3233
  28   0.0000       0.062215         1.6930

MULLIKEN ATOMIC CHARGES
-----------------------
   0 C :   -0.168882
   1 N :   -0.229924
   2 C :    0.321104
   3 C :   -0.514623
   4 N :   -0.442434
   5 H :    0.208150
   6 H :    0.227812
   7 H :    0.200553
   8 H :    0.074062
   9 H :    0.080520
  10 C :   -0.290451
  11 H :    0.092088
  12 H :    0.114682
  13 H :    0.101423
  14 H :    0.121469
  15 H :    0.104449
Sum of atomic charges:    0.0000000

LOEWDIN ATOMIC CHARGES
----------------------
   0 C :   -0.325181
   1 N :    0.131138
   2 C :   -0.480184
   3 C :   -0.339807
   4 N :   -0.006917
   5 H :    0.157948
   6 H :    0.173729
   7 H :    0.194837
   8 H :    0.097815
   9 H :    0.095584
  10 C :   -0.310568
  11 H :    0.125788
  12 H :    0.132982
  13 H :    0.116782
  14 H :    0.119805
  15 H :    0.116248

  Mayer bond orders larger than 0.100000
B(  0-C ,  1-N ) :   1.0080 B(  0-C , 10-C ) :   0.9760 B(  0-C , 11-H ) :   0.9618
B(  0-C , 12-H ) :   0.9643 B(  1-N ,  2-C ) :   1.2431 B(  1-N ,  7-H ) :   0.9178
B(  2-C ,  3-C ) :   1.6314 B(  2-C ,  4-N ) :   1.1530 B(  3-C ,  8-H ) :   0.9924
B(  3-C ,  9-H ) :   0.9898 B(  4-N ,  5-H ) :   0.9149 B(  4-N ,  6-H ) :   0.9199
B( 10-C , 13-H ) :   0.9662 B( 10-C , 14-H ) :   0.9681 B( 10-C , 15-H ) :   0.9565

Dispersion correction           -0.012775246
FINAL SINGLE POINT ENERGY      -267.666668507641

DIPOLE MOMENT
-------------
                                X             Y             Z
Electronic contribution:      1.42844      -2.36317      -1.20764
Nuclear contribution   :     -1.91052       2.32590       2.09379
                        -----------------------------------------
Total Dipole Moment    :     -0.48209      -0.03727       0.88616
                        -----------------------------------------
Magnitude (a.u.)       :      1.00949
Magnitude (Debye)      :      2.56592

Rotational constants in cm-1:     0.219448     0.077923     0.068804
Rotational constants in MHz :  6578.886179  2336.083179  2062.700476

                             ****ORCA TERMINATED NORMALLY****
TOTAL RUN TIME: 0 days 0 hours 0 minutes 8 seconds 701 msec
