                         Program Version 5.0.0 -  RELEASE  -
|  1> !PBE D3BJ RIJCOSX def2-TZVP def2/J TightSCF
|  2> *xyz 0 1
|  3> C          0.61188        1.65763       -4.50029
|  4> C          1.69499        1.54179       -5.57045
|  5> H          2.69733        1.73466       -5.18400
|  6> H          1.50666        2.27224       -6.35808
|  7> S          1.78029       -0.03313       -6.42874
|  8> O          2.56929        0.21366       -7.60736
|  9> O          0.41688       -0.46297       -6.61859
| 10> F          2.50513       -0.93326       -5.48257
| 11> H         -0.34424        1.45871       -4.93752
| 12> H          0.61845        2.64655       -4.09174
| 13> H          0.80247        0.94882       -3.72173
| 14> *
| 15> %MaxCore 64000
| 16>
| 17> %pal nprocs 4
| 18> end
| 19>
| 20> %scf
| 21>   MaxIter 150
| 22> end
| 23>
| 24>
| 25>                          ****END OF INPUT****

CARTESIAN COORDINATES (ANGSTROEM)
---------------------------------
  C      0.611880    1.657630   -4.500290
  C      1.694990    1.541790   -5.570450
  H      2.697330    1.734660   -5.184000
  H      1.506660    2.272240   -6.358080
  S      1.780290   -0.033130   -6.428740
  O      2.569290    0.213660   -7.607360
  O      0.416880   -0.462970   -6.618590
  F      2.505130   -0.933260   -5.482570
  H     -0.344240    1.458710   -4.937520
  H      0.618450    2.646550   -4.091740
  H      0.802470    0.948820   -3.721730

 Total Charge           Charge          ....    0
 Multiplicity           Mult            ....    1
 Number of Electrons    NEL             ....   58
 Basis Dimension        Dim             ....  222

ORBITAL ENERGIES
----------------

  NO   OCC          E(Eh)            E(eV)
   0   2.0000     -88.262888     -2401.7553
   1   2.0000     -24.345402      -662.4721
   2   2.0000     -18.760711      -510.5049
   3   2.0000     -18.759791      -510.4799
   4   2.0000      -9.937992      -270.4265
   5   2.0000      -9.897097      -269.3137
   6   2.0000      -7.858716      -213.8465
   7   2.0000      -5.883162      -160.0890
   8   2.0000      -5.876682      -159.9127
   9   2.0000      -5.876127      -159.8975
  10   2.0000      -1.233914       -33.5765
  11   2.0000      -1.022918       -27.8350
  12   2.0000      -0.937593       -25.5132
  13   2.0000      -0.747762       -20.3476
  14   2.0000      -0.650801       -17.7092
  15   2.0000      -0.603286       -16.4162
  16   2.0000      -0.511237       -13.9115
  17   2.0000      -0.489840       -13.3292
  18   2.0000      -0.485529       -13.2119
  19   2.0000      -0.441481       -12.0133
  20   2.0000      -0.423324       -11.5192
  21   2.0000      -0.403238       -10.9727
  22   2.0000      -0.384201       -10.4546
  23   2.0000      -0.359312        -9.7774
  24   2.0000      -0.355331        -9.6690
  25   2.0000      -0.334661        -9.1066
  26   2.0000      -0.293732        -7.9929
  27   2.0000      -0.289926        -7.8893
  28   2.0000      -0.274644        -7.4735
  29   0.0000      -0.012663        -0.3446
  30   0.0000       0.014230         0.3872
  31   0.0000       0.028958         0.7880
  32   0.0000       0.046894         1.2761
  33   0.0000       0.053224         1.4483

MULLIKEN ATOMIC CHARGES
-----------------------
   0 C :   -0.338472
   1 C :   -0.251925
   2 H :    0.136635
   3 H :    0.151930
   4 S :    0.717281
   5 O :   -0.354752
   6 O :   -0.360620
   7 F :   -0.097296
   8 H :    0.148065
   9 H :    0.127075
  10 H :    0.122080
Sum of atomic charges:   -0.0000000

LOEWDIN ATOMIC CHARGES
----------------------
   0 C :   -0.318263
   1 C :   -0.405231
   2 H :    0.137574
   3 H :    0.150285
   4 S :    0.476759
   5 O :   -0.234883
   6 O :   -0.234222
   7 F :    0.052883
   8 H :    0.127618
   9 H :    0.125520
  10 H :    0.121960

  Mayer bond orders larger than 0.100000
B(  0-C ,  1-C ) :   0.9913 B(  0-C ,  8-H ) :   0.9612 B(  0-C ,  9-H ) :   0.9516
B(  0-C , 10-H ) :   0.9656 B(  1-C ,  2-H ) :   0.9350 B(  1-C ,  3-H ) :   0.9324
B(  1-C ,  4-S ) :   0.8990 B(  4-S ,  5-O ) :   1.9870 B(  4-S ,  6-O ) :   1.9527
B(  4-S ,  7-F ) :   1.1226

Dispersion correction           -0.009198964
FINAL SINGLE POINT ENERGY      -727.337672654906

DIPOLE MOMENT
-------------
                                X             Y             Z
Electronic contribution:      3.77812      -7.67100      -4.00267
Nuclear contribution   :     -3.60260       8.53062       5.21025
                        -----------------------------------------
Total Dipole Moment    :      0.17552       0.85962       1.20758
                        -----------------------------------------
Magnitude (a.u.)       :      1.49265
Magnitude (Debye)      :      3.79402

Rotational constants in cm-1:     0.154011     0.080858     0.079602
Rotational constants in MHz :  4617.134198  2424.070332  2386.404775

                             ****ORCA TERMINATED NORMALLY****
TOTAL RUN TIME: 0 days 0 hours 0 minutes 6 seconds 645 msec
