                         Program Version 5.0.0 -  RELEASE  -
|  1> !PBE D3BJ RIJCOSX def2-TZVP def2/J TightSCF
|  2> *xyz 0 1
|  3> C          1.96337       -1.74915       -1.89689
|  4> N          2.73849       -2.01517       -3.09711
|  5> C          4.04974       -2.15472       -3.15204
|  6> N          4.65821       -1.98629       -4.31866
|  7> C          4.76423       -2.45444       -2.05049
|  8> H          4.28736       -2.77626       -1.21750
|  9> H          5.75082       -2.65835       -2.12599
| 10> H          2.34518       -1.69027       -3.97145
| 11> H          4.10900       -1.59268       -5.07176
| 12> H          5.64910       -2.15646       -4.42724
| 13> C          2.08852       -0.30091       -1.41520
| 14> H          2.23127       -2.45162       -1.10264
| 15> H          0.93025       -1.97780       -2.15544
| 16> H          1.82118        0.36368       -2.21003
| 17> H          3.09792       -0.11068       -1.11551
| 18> H          1.43391       -0.14382       -0.58352
| 19> *
| 20> %MaxCore 64000
| 21>
| 22> %pal nprocs 4
| 23> end
| 24>
| 25> %scf
| 26>   MaxIter 150
| 27> end
| 28>
| 29>
| 30>                          ****END OF INPUT****

CARTESIAN COORDINATES (ANGSTROEM)
---------------------------------
  C      1.963370   -1.749150   -1.896890
  N      2.738490   -2.015170   -3.097110
  C      4.049740   -2.154720   -3.152040
  N      4.658210   -1.986290   -4.318660
  C      4.764230   -2.454440   -2.050490
  H      4.287360   -2.776260   -1.217500
  H      5.750820   -2.658350   -2.125990
  H      2.345180   -1.690270   -3.971450
  H      4.109000   -1.592680   -5.071760
  H      5.649100   -2.156460   -4.427240
  C      2.088520   -0.300910   -1.415200
  H      2.231270   -2.451620   -1.102640
  H      0.930250   -1.977800   -2.155440
  H      1.821180    0.363680   -2.210030
  H      3.097920   -0.110680   -1.115510
  H      1.433910   -0.143820   -0.583520

 Total Charge           Charge          ....    0
 Multiplicity           Mult            ....    1
 Number of Electrons    NEL             ....   48
 Basis Dimension        Dim             ....  246

ORBITAL ENERGIES
----------------

  NO   OCC          E(Eh)            E(eV)
   0   2.0000     -13.987567      -380.6210
   1   2.0000     -13.983852      -380.5200
   2   2.0000      -9.917650      -269.8730
   3   2.0000      -9.912631      -269.7364
   4   2.0000      -9.860505      -268.3180
   5   2.0000      -9.790684      -266.4180
   6   2.0000      -0.890424       -24.2297
   7   2.0000      -0.809213       -22.0198
   8   2.0000      -0.683344       -18.5947
   9   2.0000      -0.636173       -17.3112
  10   2.0000      -0.580476       -15.7956
  11   2.0000      -0.505789       -13.7632
  12   2.0000      -0.493842       -13.4381
  13   2.0000      -0.472206       -12.8494
  14   2.0000      -0.419089       -11.4040
  15   2.0000      -0.390731       -10.6323
  16   2.0000      -0.369854       -10.0642
  17   2.0000      -0.349947        -9.5226
  18   2.0000      -0.334421        -9.1000
  19   2.0000      -0.321229        -8.7411
  20   2.0000      -0.317081        -8.6282
  21   2.0000      -0.303098        -8.2477
  22   2.0000      -0.209180        -5.6921
  23   2.0000      -0.131724        -3.5844
  24   0.0000      -0.003370        -0.0917
  25   0.0000       0.028879         0.7858
  26   0.0000       0.042743         1.1631
  27   0.0000       0.048734         1.3261
  28   0.0000       0.068661         1.8683

MULLIKEN ATOMIC CHARGES
-----------------------
   0 C :   -0.121625
   1 N :   -0.236128
   2 C :    0.283433
   3 N :   -0.418892
   4 C :   -0.507632
   5 H :    0.084765
   6 H :    0.075673
   7 H :    0.168970
   8 H :    0.196999
   9 H :    0.234450
  10 C :   -0.314715
  11 H :    0.111146
  12 H :    0.106198
  13 H :    0.087426
  14 H :    0.142726
  15 H :    0.107207
Sum of atomic charges:   -0.0000000

LOEWDIN ATOMIC CHARGES
----------------------
   0 C :   -0.306222
   1 N :    0.129339
   2 C :   -0.488196
   3 N :    0.002395
   4 C :   -0.350242
   5 H :    0.097515
   6 H :    0.093667
   7 H :    0.175688
   8 H :    0.158478
   9 H :    0.176648
  10 C :   -0.309969
  11 H :    0.136457
  12 H :    0.130438
  13 H :    0.112211
  14 H :    0.124492
  15 H :    0.117302

  Mayer bond orders larger than 0.100000
B(  0-C ,  1-N ) :   0.9904 B(  0-C , 10-C ) :   0.9954 B(  0-C , 11-H ) :   0.9491
B(  0-C , 12-H ) :   0.9619 B(  1-N ,  2-C ) :   1.2247 B(  1-N ,  7-H ) :   0.9223
B(  2-C ,  3-N ) :   1.1693 B(  2-C ,  4-C ) :   1.6566 B(  3-N ,  8-H ) :   0.9197
B(  3-N ,  9-H ) :   0.9157 B(  4-C ,  5-H ) :   0.9910 B(  4-C ,  6-H ) :   0.9824
B( 10-C , 13-H ) :   0.9669 B( 10-C , 14-H ) :   0.9665 B( 10-C , 15-H ) :   0.9594

Dispersion correction           -0.012840197
FINAL SINGLE POINT ENERGY      -267.665645620447

DIPOLE MOMENT
-------------
                                X             Y             Z
Electronic contribution:      1.34226      -1.82711      -3.49751
Nuclear contribution   :     -1.88803       2.22658       2.57497
                        -----------------------------------------
Total Dipole Moment    :     -0.54577       0.39947      -0.92254
                        -----------------------------------------
Magnitude (a.u.)       :      1.14391
Magnitude (Debye)      :      2.90758

Rotational constants in cm-1:     0.226509     0.075782     0.067928
Rotational constants in MHz :  6790.555051  2271.890226  2036.439218

                             ****ORCA TERMINATED NORMALLY****
TOTAL RUN TIME: 0 days 0 hours 0 minutes 9 seconds 337 msec
