                         Program Version 5.0.0 -  RELEASE  -
|  1> !PBE D3BJ RIJCOSX def2-TZVP def2/J TightSCF xyzfile
|  2>
|  3> *xyzfile 0 1 D1.xyz
|  4>
|  5> %MaxCore 64000
|  6>
|  7> %pal nprocs 18
|  8> end
|  9>
| 10> %scf
| 11>   MaxIter 150
| 12> end
| 13>
| 14>
| 15>                          ****END OF INPUT****

CARTESIAN COORDINATES (ANGSTROEM)
---------------------------------
  C      1.963365   -1.749150   -1.896887
  C      2.738490   -2.015170   -3.097113
  C      0.611877    1.657634   -4.500288
  C      1.694991    1.541794   -5.570447
  H      2.697326    1.734659   -5.183996
  H      1.506656    2.272239   -6.358076
  S      1.780287   -0.033128   -6.428739
  C      4.049736   -2.154717   -3.152044
  N      4.658206   -1.986293   -4.318655
  N      4.764231   -2.454435   -2.050491
  H      4.287363   -2.776259   -1.217496
  H      5.750825   -2.658351   -2.125988
  H      2.345176   -1.690274   -3.971447
  H      4.109004   -1.592677   -5.071760
  H      5.649095   -2.156462   -4.427237
  F      2.569287    0.213657   -7.607360
  O      0.416880   -0.462969   -6.618595
  C      2.088520   -0.300912   -1.415204
  H      2.231272   -2.451616   -1.102643
  H      0.930249   -1.977801   -2.155438
  C      0.680356    0.655418   -3.348038
  H     -0.356865    1.549231   -4.991128
  H      0.650228    2.675438   -4.096000
  C      1.968993    0.733582   -2.535654
  H      3.051356   -0.168602   -0.911868
  H      1.316501   -0.136231   -0.657252
  O      2.505129   -0.933263   -5.482570
  H      2.824195    0.624726   -3.208464
  H      2.058919    1.730331   -2.093112
  H      0.542252   -0.344731   -3.766662
  H     -0.174219    0.829692   -2.685182

 Total Charge           Charge          ....    0
 Multiplicity           Mult            ....    1
 Number of Electrons    NEL             ....  120
 Basis Dimension        Dim             ....  542

ORBITAL ENERGIES
----------------

  NO   OCC          E(Eh)            E(eV)
   0   2.0000     -88.274886     -2402.0818
   1   2.0000     -24.380229      -663.4197
   2   2.0000     -18.769231      -510.7367
   3   2.0000     -18.757826      -510.4264
   4   2.0000     -13.966358      -380.0439
   5   2.0000     -13.951660      -379.6440
   6   2.0000      -9.939299      -270.4621
   7   2.0000      -9.903337      -269.4835
   8   2.0000      -9.893932      -269.2276
   9   2.0000      -9.872910      -268.6555
  10   2.0000      -9.861835      -268.3542
  11   2.0000      -9.851644      -268.0769
  12   2.0000      -9.840590      -267.7761
  13   2.0000      -9.769450      -265.8403
  14   2.0000      -7.871007      -214.1810
  15   2.0000      -5.895343      -160.4204
  16   2.0000      -5.888796      -160.2423
  17   2.0000      -5.888513      -160.2346
  18   2.0000      -1.285300       -34.9748
  19   2.0000      -1.022331       -27.8190
  20   2.0000      -0.928691       -25.2710
  21   2.0000      -0.854929       -23.2638
  22   2.0000      -0.772717       -21.0267
  23   2.0000      -0.759134       -20.6571
  24   2.0000      -0.716049       -19.4847
  25   2.0000      -0.682690       -18.5769
  26   2.0000      -0.654713       -17.8156
  27   2.0000      -0.622576       -16.9412
  28   2.0000      -0.586771       -15.9669
  29   2.0000      -0.555356       -15.1120
  30   2.0000      -0.536916       -14.6102
  31   2.0000      -0.525211       -14.2917
  32   2.0000      -0.520713       -14.1693
  33   2.0000      -0.493089       -13.4176
  34   2.0000      -0.490311       -13.3420
  35   2.0000      -0.471695       -12.8355
  36   2.0000      -0.445482       -12.1222
  37   2.0000      -0.439486       -11.9590
  38   2.0000      -0.431535       -11.7427
  39   2.0000      -0.414637       -11.2829
  40   2.0000      -0.411313       -11.1924
  41   2.0000      -0.393940       -10.7197
  42   2.0000      -0.384482       -10.4623
  43   2.0000      -0.376895       -10.2558
  44   2.0000      -0.364940        -9.9305
  45   2.0000      -0.349386        -9.5073
  46   2.0000      -0.337690        -9.1890
  47   2.0000      -0.331423        -9.0185
  48   2.0000      -0.321504        -8.7486
  49   2.0000      -0.313211        -8.5229
  50   2.0000      -0.301747        -8.2109
  51   2.0000      -0.292444        -7.9578
  52   2.0000      -0.285476        -7.7682
  53   2.0000      -0.279963        -7.6182
  54   2.0000      -0.272071        -7.4034
  55   2.0000      -0.269698        -7.3389
  56   2.0000      -0.255887        -6.9630
  57   2.0000      -0.242689        -6.6039
  58   2.0000      -0.200203        -5.4478
  59   2.0000      -0.106214        -2.8902
  60   0.0000      -0.018541        -0.5045
  61   0.0000      -0.000469        -0.0128
  62   0.0000       0.013947         0.3795
  63   0.0000       0.025504         0.6940
  64   0.0000       0.031278         0.8511

MULLIKEN ATOMIC CHARGES
-----------------------
   0 C :   -0.281564
   1 C :   -0.270106
   2 C :   -0.133676
   3 C :   -0.280636
   4 H :    0.151292
   5 H :    0.141590
   6 S :    0.706514
   7 C :    0.189166
   8 N :   -0.411533
   9 N :   -0.429866
  10 H :    0.224007
  11 H :    0.198404
  12 H :    0.145164
  13 H :    0.223615
  14 H :    0.189692
  15 F :   -0.054634
  16 O :   -0.334776
  17 C :   -0.076630
  18 H :    0.066567
  19 H :    0.096257
  20 C :   -0.269932
  21 H :    0.121647
  22 H :    0.104124
  23 C :   -0.168584
  24 H :    0.074747
  25 H :    0.060462
  26 O :   -0.403484
  27 H :    0.111894
  28 H :    0.076510
  29 H :    0.143625
  30 H :    0.090142
Sum of atomic charges:    0.0000000

LOEWDIN ATOMIC CHARGES
----------------------
   0 C :   -0.299446
   1 C :   -0.286225
   2 C :   -0.279875
   3 C :   -0.381036
   4 H :    0.142698
   5 H :    0.139544
   6 S :    0.487988
   7 C :   -0.478663
   8 N :   -0.008841
   9 N :   -0.015221
  10 H :    0.169872
  11 H :    0.154295
  12 H :    0.120596
  13 H :    0.157477
  14 H :    0.151034
  15 F :    0.120034
  16 O :   -0.217225
  17 C :   -0.264792
  18 H :    0.127867
  19 H :    0.141672
  20 C :   -0.268776
  21 H :    0.147380
  22 H :    0.148772
  23 C :   -0.273919
  24 H :    0.135096
  25 H :    0.127815
  26 O :   -0.259225
  27 H :    0.140615
  28 H :    0.132420
  29 H :    0.147021
  30 H :    0.141048

  Mayer bond orders larger than 0.100000
B(  0-C ,  1-C ) :   1.0607 B(  0-C , 17-C ) :   0.9740 B(  0-C , 18-H ) :   0.9534
B(  0-C , 19-H ) :   0.9680 B(  1-C ,  7-C ) :   1.6691 B(  1-C , 12-H ) :   0.9804
B(  2-C ,  3-C ) :   0.9990 B(  2-C , 20-C ) :   1.0131 B(  2-C , 21-H ) :   0.9443
B(  2-C , 22-H ) :   0.9283 B(  3-C ,  4-H ) :   0.9280 B(  3-C ,  5-H ) :   0.9242
B(  3-C ,  6-S ) :   0.9121 B(  6-S , 15-F ) :   1.1836 B(  6-S , 16-O ) :   1.9740
B(  6-S , 26-O ) :   1.7678 B(  7-C ,  8-N ) :   1.2259 B(  7-C ,  9-N ) :   1.1768
B(  8-N , 13-H ) :   0.8722 B(  8-N , 14-H ) :   0.9248 B(  9-N , 10-H ) :   0.9143
B(  9-N , 11-H ) :   0.9225 B( 17-C , 23-C ) :   1.0290 B( 17-C , 24-H ) :   0.9376
B( 17-C , 25-H ) :   0.9425 B( 20-C , 23-C ) :   0.9874 B( 20-C , 29-H ) :   0.9587
B( 20-C , 30-H ) :   0.9463 B( 23-C , 27-H ) :   0.9529 B( 23-C , 28-H ) :   0.9428

Dispersion correction           -0.037812192
FINAL SINGLE POINT ENERGY     -1072.333211808543

DIPOLE MOMENT
-------------
                                X             Y             Z
Electronic contribution:      0.84353      -1.14425     -23.57645
Nuclear contribution   :      0.18720       2.58739      22.98820
                        -----------------------------------------
Total Dipole Moment    :      1.03073       1.44314      -0.58825
                        -----------------------------------------
Magnitude (a.u.)       :      1.86845
Magnitude (Debye)      :      4.74921

Rotational constants in cm-1:     0.028798     0.014448     0.010940
Rotational constants in MHz :   863.355869   433.126694   327.985023

                             ****ORCA TERMINATED NORMALLY****
TOTAL RUN TIME: 0 days 0 hours 0 minutes 18 seconds 520 msec
