                         Program Version 5.0.0 -  RELEASE  -
|  1> !PBE D3BJ RIJCOSX def2-TZVP def2/J TightSCF xyzfile
|  2>
|  3> *xyzfile 0 1 D9.xyz
|  4>
|  5> %MaxCore 64000
|  6>
|  7> %pal nprocs 18
|  8> end
|  9>
| 10> %scf
| 11>   MaxIter 150
| 12> end
| 13>
| 14>
| 15>                          ****END OF INPUT****

CARTESIAN COORDINATES (ANGSTROEM)
---------------------------------
  C      1.963365   -1.749150   -1.896887
  N      2.738490   -2.015170   -3.097113
  C      0.611877    1.657634   -4.500288
  C      1.694991    1.541794   -5.570447
  H      2.697326    1.734659   -5.183996
  H      1.506656    2.272239   -6.358076
  S      1.780287   -0.033128   -6.428739
  C      4.049736   -2.154717   -3.152044
  N      4.658206   -1.986293   -4.318655
  C      4.764231   -2.454435   -2.050491
  H      4.287363   -2.776259   -1.217496
  H      5.750825   -2.658351   -2.125988
  H      2.345176   -1.690274   -3.971447
  H      4.109004   -1.592677   -5.071760
  H      5.649095   -2.156462   -4.427237
  O      2.569287    0.213657   -7.607360
  O      0.416880   -0.462969   -6.618595
  C      2.088520   -0.300912   -1.415204
  H      2.231272   -2.451616   -1.102643
  H      0.930249   -1.977801   -2.155438
  C      0.680356    0.655418   -3.348038
  H     -0.356865    1.549231   -4.991128
  H      0.650228    2.675438   -4.096000
  C      1.968993    0.733582   -2.535654
  H      3.051356   -0.168602   -0.911868
  H      1.316501   -0.136231   -0.657252
  F      2.505129   -0.933263   -5.482570
  H      2.824195    0.624726   -3.208464
  H      2.058919    1.730331   -2.093112
  H      0.542252   -0.344731   -3.766662
  H     -0.174219    0.829692   -2.685182

 Total Charge           Charge          ....    0
 Multiplicity           Mult            ....    1
 Number of Electrons    NEL             ....  120
 Basis Dimension        Dim             ....  542

ORBITAL ENERGIES
----------------

  NO   OCC          E(Eh)            E(eV)
   0   2.0000     -88.280904     -2402.2455
   1   2.0000     -24.379803      -663.4082
   2   2.0000     -18.778524      -510.9896
   3   2.0000     -18.777932      -510.9735
   4   2.0000     -13.982827      -380.4921
   5   2.0000     -13.979787      -380.4093
   6   2.0000      -9.947864      -270.6951
   7   2.0000      -9.916981      -269.8548
   8   2.0000      -9.914835      -269.7964
   9   2.0000      -9.913332      -269.7555
  10   2.0000      -9.899727      -269.3853
  11   2.0000      -9.891035      -269.1487
  12   2.0000      -9.881129      -268.8792
  13   2.0000      -9.790759      -266.4201
  14   2.0000      -7.877336      -214.3532
  15   2.0000      -5.902207      -160.6072
  16   2.0000      -5.894925      -160.4091
  17   2.0000      -5.894467      -160.3966
  18   2.0000      -1.271664       -34.6037
  19   2.0000      -1.042685       -28.3729
  20   2.0000      -0.955267       -25.9941
  21   2.0000      -0.890627       -24.2352
  22   2.0000      -0.809918       -22.0390
  23   2.0000      -0.774170       -21.0662
  24   2.0000      -0.728647       -19.8275
  25   2.0000      -0.694315       -18.8933
  26   2.0000      -0.666917       -18.1477
  27   2.0000      -0.631197       -17.1757
  28   2.0000      -0.627586       -17.0775
  29   2.0000      -0.578118       -15.7314
  30   2.0000      -0.545807       -14.8522
  31   2.0000      -0.538004       -14.6398
  32   2.0000      -0.522150       -14.2084
  33   2.0000      -0.509752       -13.8711
  34   2.0000      -0.493434       -13.4270
  35   2.0000      -0.486857       -13.2481
  36   2.0000      -0.467637       -12.7251
  37   2.0000      -0.454352       -12.3635
  38   2.0000      -0.450280       -12.2527
  39   2.0000      -0.432341       -11.7646
  40   2.0000      -0.421761       -11.4767
  41   2.0000      -0.414876       -11.2893
  42   2.0000      -0.399052       -10.8588
  43   2.0000      -0.392930       -10.6922
  44   2.0000      -0.382824       -10.4172
  45   2.0000      -0.363546        -9.8926
  46   2.0000      -0.355204        -9.6656
  47   2.0000      -0.354100        -9.6355
  48   2.0000      -0.338286        -9.2052
  49   2.0000      -0.328360        -8.9351
  50   2.0000      -0.327213        -8.9039
  51   2.0000      -0.320466        -8.7203
  52   2.0000      -0.311939        -8.4883
  53   2.0000      -0.305487        -8.3127
  54   2.0000      -0.301002        -8.1907
  55   2.0000      -0.297789        -8.1033
  56   2.0000      -0.291922        -7.9436
  57   2.0000      -0.287585        -7.8256
  58   2.0000      -0.208524        -5.6742
  59   2.0000      -0.131966        -3.5910
  60   0.0000      -0.031401        -0.8545
  61   0.0000      -0.003886        -0.1058
  62   0.0000       0.007242         0.1971
  63   0.0000       0.015455         0.4206
  64   0.0000       0.023382         0.6362

MULLIKEN ATOMIC CHARGES
-----------------------
   0 C :   -0.205818
   1 N :   -0.211383
   2 C :   -0.109759
   3 C :   -0.307395
   4 H :    0.157463
   5 H :    0.168646
   6 S :    0.717607
   7 C :    0.263002
   8 N :   -0.430946
   9 C :   -0.513236
  10 H :    0.085602
  11 H :    0.076733
  12 H :    0.189037
  13 H :    0.211397
  14 H :    0.230647
  15 O :   -0.352426
  16 O :   -0.344614
  17 C :   -0.072264
  18 H :    0.123520
  19 H :    0.127883
  20 C :   -0.296165
  21 H :    0.130097
  22 H :    0.106380
  23 C :   -0.256201
  24 H :    0.113190
  25 H :    0.085288
  26 F :   -0.121640
  27 H :    0.106603
  28 H :    0.098866
  29 H :    0.123854
  30 H :    0.106035
Sum of atomic charges:    0.0000000

LOEWDIN ATOMIC CHARGES
----------------------
   0 C :   -0.286377
   1 N :    0.131297
   2 C :   -0.285594
   3 C :   -0.375974
   4 H :    0.141442
   5 H :    0.155828
   6 S :    0.491755
   7 C :   -0.490843
   8 N :   -0.003313
   9 C :   -0.349031
  10 H :    0.097218
  11 H :    0.093533
  12 H :    0.159371
  13 H :    0.147643
  14 H :    0.175206
  15 O :   -0.224531
  16 O :   -0.220656
  17 C :   -0.269712
  18 H :    0.140132
  19 H :    0.133873
  20 C :   -0.277611
  21 H :    0.149041
  22 H :    0.148715
  23 C :   -0.277413
  24 H :    0.146142
  25 H :    0.138144
  26 F :    0.056132
  27 H :    0.135466
  28 H :    0.140632
  29 H :    0.134403
  30 H :    0.145083

  Mayer bond orders larger than 0.100000
B(  0-C ,  1-N ) :   0.9975 B(  0-C , 17-C ) :   0.9732 B(  0-C , 18-H ) :   0.9504
B(  0-C , 19-H ) :   0.9680 B(  1-N ,  7-C ) :   1.2173 B(  1-N , 12-H ) :   0.9100
B(  2-C ,  3-C ) :   0.9759 B(  2-C , 20-C ) :   0.9990 B(  2-C , 21-H ) :   0.9447
B(  2-C , 22-H ) :   0.9268 B(  3-C ,  4-H ) :   0.9333 B(  3-C ,  5-H ) :   0.9306
B(  3-C ,  6-S ) :   0.9018 B(  6-S , 15-O ) :   2.0003 B(  6-S , 16-O ) :   1.9606
B(  6-S , 26-F ) :   1.0206 B(  7-C ,  8-N ) :   1.1711 B(  7-C ,  9-C ) :   1.6581
B(  8-N , 13-H ) :   0.9027 B(  8-N , 14-H ) :   0.9174 B(  9-C , 10-H ) :   0.9822
B(  9-C , 11-H ) :   0.9813 B( 17-C , 23-C ) :   1.0114 B( 17-C , 24-H ) :   0.9321
B( 17-C , 25-H ) :   0.9479 B( 20-C , 23-C ) :   0.9799 B( 20-C , 29-H ) :   0.9690
B( 20-C , 30-H ) :   0.9471 B( 23-C , 27-H ) :   0.9555 B( 23-C , 28-H ) :   0.9440

Dispersion correction           -0.037146808
FINAL SINGLE POINT ENERGY     -1072.348157563925

DIPOLE MOMENT
-------------
                                X             Y             Z
Electronic contribution:     -1.03165      -2.45046     -20.47991
Nuclear contribution   :      0.52036       3.84122      20.69523
                        -----------------------------------------
Total Dipole Moment    :     -0.51129       1.39076       0.21532
                        -----------------------------------------
Magnitude (a.u.)       :      1.49733
Magnitude (Debye)      :      3.80591

Rotational constants in cm-1:     0.029184     0.014996     0.011314
Rotational constants in MHz :   874.907122   449.569665   339.178205

                             ****ORCA TERMINATED NORMALLY****
TOTAL RUN TIME: 0 days 0 hours 0 minutes 20 seconds 437 msec
