                         Program Version 5.0.0 -  RELEASE  -
|  1> !wB97X-D3 RIJCOSX def2-TZVPD def2/J TightSCF
|  2> *xyz -1 1
|  3> C         -0.71189        0.84252       -4.21834
|  4> C         -0.39762       -0.20587       -5.28802
|  5> O          0.61717       -0.00535       -5.99827
|  6> O         -1.13317       -1.22138       -5.34147
|  7> H         -0.00939        1.64646       -4.28960
|  8> H         -0.64409        0.39449       -3.24902
|  9> H         -1.70192        1.21961       -4.36851
| 10> *
| 11>
| 12> %MaxCore 64000
| 13>
| 14> %pal nprocs 18
| 15> end
| 16>
| 17> %scf
| 18>   MaxIter 150
| 19> end
| 20>
| 21>
| 22>                          ****END OF INPUT****

CARTESIAN COORDINATES (ANGSTROEM)
---------------------------------
  C     -0.711890    0.842520   -4.218340
  C     -0.397620   -0.205870   -5.288020
  O      0.617170   -0.005350   -5.998270
  O     -1.133170   -1.221380   -5.341470
  H     -0.009390    1.646460   -4.289600
  H     -0.644090    0.394490   -3.249020
  H     -1.701920    1.219610   -4.368510

 Total Charge           Charge          ....   -1
 Multiplicity           Mult            ....    1
 Number of Electrons    NEL             ....   32
 Basis Dimension        Dim             ....  181

ORBITAL ENERGIES
----------------

  NO   OCC          E(Eh)            E(eV)
   0   2.0000     -18.960049      -515.9292
   1   2.0000     -18.959401      -515.9115
   2   2.0000     -10.156432      -276.3706
   3   2.0000     -10.083660      -274.3903
   4   2.0000      -0.932203       -25.3665
   5   2.0000      -0.837233       -22.7823
   6   2.0000      -0.657571       -17.8934
   7   2.0000      -0.408918       -11.1272
   8   2.0000      -0.359279        -9.7765
   9   2.0000      -0.344875        -9.3845
  10   2.0000      -0.325104        -8.8465
  11   2.0000      -0.280844        -7.6422
  12   2.0000      -0.261225        -7.1083
  13   2.0000      -0.137298        -3.7361
  14   2.0000      -0.132467        -3.6046
  15   2.0000      -0.118972        -3.2374
  16   0.0000       0.203236         5.5303
  17   0.0000       0.223833         6.0908
  18   0.0000       0.235924         6.4198
  19   0.0000       0.253978         6.9111
  20   0.0000       0.275146         7.4871

MULLIKEN ATOMIC CHARGES
-----------------------
   0 C :   -0.702756
   1 C :    0.542465
   2 O :   -0.747566
   3 O :   -0.760008
   4 H :    0.240025
   5 H :    0.209786
   6 H :    0.218054
Sum of atomic charges:   -1.0000000

LOEWDIN ATOMIC CHARGES
----------------------
   0 C :   -0.071425
   1 C :   -0.809610
   2 O :   -0.127163
   3 O :   -0.129625
   4 H :    0.042945
   5 H :    0.048189
   6 H :    0.046689

  Mayer bond orders larger than 0.100000
B(  0-C ,  1-C ) :   0.8941 B(  0-C ,  4-H ) :   0.9897 B(  0-C ,  5-H ) :   0.9395
B(  0-C ,  6-H ) :   0.9456 B(  1-C ,  2-O ) :   1.4719 B(  1-C ,  3-O ) :   1.4737

Dispersion correction           -0.000904839
FINAL SINGLE POINT ENERGY      -228.553569149230

DIPOLE MOMENT
-------------
                                X             Y             Z
Electronic contribution:      0.75672      -2.46512      -2.50539
Nuclear contribution   :     -1.06347       3.45957       3.47855
                        -----------------------------------------
Total Dipole Moment    :     -0.30675       0.99446       0.97317
                        -----------------------------------------
Magnitude (a.u.)       :      1.42481
Magnitude (Debye)      :      3.62159

Rotational constants in cm-1:     0.393276     0.333956     0.186777
Rotational constants in MHz : 11790.103634 10011.747201  5599.422324

                             ****ORCA TERMINATED NORMALLY****
TOTAL RUN TIME: 0 days 0 hours 0 minutes 7 seconds 407 msec
