                         Program Version 5.0.0 -  RELEASE  -
|  1> !wB97X-D3 RIJCOSX def2-TZVPD def2/J TightSCF
|  2> *xyz 1 1
|  3> C          2.23447       -2.98975       -2.39762
|  4> N          2.75680       -2.94555       -3.76503
|  5> C          1.98721       -2.59045       -4.81898
|  6> N          0.74322       -3.01749       -4.91352
|  7> N          2.49964       -1.84860       -5.80324
|  8> H          3.30978       -1.29282       -5.55895
|  9> H          1.80103       -1.30430       -6.28913
| 10> H          3.71612       -2.62880       -3.82953
| 11> H          0.39583       -3.62775       -4.18502
| 12> H          0.03920       -2.45438       -5.37137
| 13> H          1.22098       -3.33251       -2.41386
| 14> H          2.27280       -2.00995       -1.96933
| 15> H          2.82798       -3.65908       -1.81056
| 16> *
| 17>
| 18> %MaxCore 64000
| 19>
| 20> %pal nprocs 18
| 21> end
| 22>
| 23> %scf
| 24>   MaxIter 150
| 25> end
| 26>
| 27>
| 28>                          ****END OF INPUT****

CARTESIAN COORDINATES (ANGSTROEM)
---------------------------------
  C      2.234470   -2.989750   -2.397620
  N      2.756800   -2.945550   -3.765030
  C      1.987210   -2.590450   -4.818980
  N      0.743220   -3.017490   -4.913520
  N      2.499640   -1.848600   -5.803240
  H      3.309780   -1.292820   -5.558950
  H      1.801030   -1.304300   -6.289130
  H      3.716120   -2.628800   -3.829530
  H      0.395830   -3.627750   -4.185020
  H      0.039200   -2.454380   -5.371370
  H      1.220980   -3.332510   -2.413860
  H      2.272800   -2.009950   -1.969330
  H      2.827980   -3.659080   -1.810560

 Total Charge           Charge          ....    1
 Multiplicity           Mult            ....    1
 Number of Electrons    NEL             ....   40
 Basis Dimension        Dim             ....  257

ORBITAL ENERGIES
----------------

  NO   OCC          E(Eh)            E(eV)
   0   2.0000     -14.655656      -398.8007
   1   2.0000     -14.652547      -398.7161
   2   2.0000     -14.651573      -398.6896
   3   2.0000     -10.623488      -289.0798
   4   2.0000     -10.480838      -285.1981
   5   2.0000      -1.344416       -36.5834
   6   2.0000      -1.227254       -33.3953
   7   2.0000      -1.222878       -33.2762
   8   2.0000      -1.018620       -27.7181
   9   2.0000      -0.942322       -25.6419
  10   2.0000      -0.894085       -24.3293
  11   2.0000      -0.857511       -23.3341
  12   2.0000      -0.805873       -21.9289
  13   2.0000      -0.788388       -21.4531
  14   2.0000      -0.748773       -20.3752
  15   2.0000      -0.740561       -20.1517
  16   2.0000      -0.696304       -18.9474
  17   2.0000      -0.680540       -18.5184
  18   2.0000      -0.588358       -16.0100
  19   2.0000      -0.553199       -15.0533
  20   0.0000      -0.118756        -3.2315
  21   0.0000      -0.095316        -2.5937
  22   0.0000      -0.059494        -1.6189
  23   0.0000      -0.050286        -1.3684
  24   0.0000      -0.025615        -0.6970

MULLIKEN ATOMIC CHARGES
-----------------------
   0 C :   -0.899828
   1 N :   -0.206161
   2 C :    0.659358
   3 N :   -0.390581
   4 N :   -0.441910
   5 H :    0.265770
   6 H :    0.275941
   7 H :    0.256975
   8 H :    0.254244
   9 H :    0.253509
  10 H :    0.339105
  11 H :    0.342113
  12 H :    0.291465
Sum of atomic charges:    1.0000000

LOEWDIN ATOMIC CHARGES
----------------------
   0 C :   -0.020219
   1 N :    0.042929
   2 C :   -0.430639
   3 N :    0.216917
   4 N :    0.202185
   5 H :    0.138881
   6 H :    0.138503
   7 H :    0.156716
   8 H :    0.132715
   9 H :    0.149168
  10 H :    0.077607
  11 H :    0.097069
  12 H :    0.098169

  Mayer bond orders larger than 0.100000
B(  0-C ,  1-N ) :   0.8335 B(  0-C , 10-H ) :   0.8577 B(  0-C , 11-H ) :   0.9034
B(  0-C , 12-H ) :   0.9531 B(  1-N ,  2-C ) :   1.2732 B(  1-N ,  7-H ) :   0.9202
B(  2-C ,  3-N ) :   1.1704 B(  2-C ,  4-N ) :   1.1756 B(  3-N ,  8-H ) :   0.9168
B(  3-N ,  9-H ) :   0.9627 B(  4-N ,  5-H ) :   0.9355 B(  4-N ,  6-H ) :   0.8960

Dispersion correction           -0.002421492
FINAL SINGLE POINT ENERGY      -245.096532255153

DIPOLE MOMENT
-------------
                                X             Y             Z
Electronic contribution:      0.26538      -0.05394      -3.02039
Nuclear contribution   :     -0.61773       0.88991       3.03801
                        -----------------------------------------
Total Dipole Moment    :     -0.35235       0.83597       0.01762
                        -----------------------------------------
Magnitude (a.u.)       :      0.90736
Magnitude (Debye)      :      2.30633

Rotational constants in cm-1:     0.302561     0.133407     0.098295
Rotational constants in MHz :  9070.558660  3999.431512  2946.819102

                             ****ORCA TERMINATED NORMALLY****
TOTAL RUN TIME: 0 days 0 hours 0 minutes 21 seconds 76 msec
