                         Program Version 5.0.0 -  RELEASE  -
|  1> !wB97X-D3 RIJCOSX def2-TZVPD def2/J TightSCF
|  2> *xyz 0 1
|  3> C         -0.71189        0.84252       -4.21834
|  4> C         -0.39762       -0.20587       -5.28802
|  5> F          0.61717       -0.00535       -5.99827
|  6> O         -1.13317       -1.22138       -5.34147
|  7> H         -0.00939        1.64646       -4.28960
|  8> H         -0.64409        0.39449       -3.24902
|  9> H         -1.70192        1.21961       -4.36851
| 10> *
| 11>
| 12> %MaxCore 64000
| 13>
| 14> %pal nprocs 18
| 15> end
| 16>
| 17> %scf
| 18>   MaxIter 150
| 19> end
| 20>
| 21>
| 22>                          ****END OF INPUT****

CARTESIAN COORDINATES (ANGSTROEM)
---------------------------------
  C     -0.711890    0.842520   -4.218340
  C     -0.397620   -0.205870   -5.288020
  F      0.617170   -0.005350   -5.998270
  O     -1.133170   -1.221380   -5.341470
  H     -0.009390    1.646460   -4.289600
  H     -0.644090    0.394490   -3.249020
  H     -1.701920    1.219610   -4.368510

 Total Charge           Charge          ....    0
 Multiplicity           Mult            ....    1
 Number of Electrons    NEL             ....   32
 Basis Dimension        Dim             ....  181

ORBITAL ENERGIES
----------------

  NO   OCC          E(Eh)            E(eV)
   0   2.0000     -24.858564      -676.4359
   1   2.0000     -19.238011      -523.4929
   2   2.0000     -10.461070      -284.6602
   3   2.0000     -10.300214      -280.2831
   4   2.0000      -1.439251       -39.1640
   5   2.0000      -1.150854       -31.3163
   6   2.0000      -0.889123       -24.1943
   7   2.0000      -0.769498       -20.9391
   8   2.0000      -0.655205       -17.8290
   9   2.0000      -0.651702       -17.7337
  10   2.0000      -0.610036       -16.5999
  11   2.0000      -0.545918       -14.8552
  12   2.0000      -0.532741       -14.4966
  13   2.0000      -0.501103       -13.6357
  14   2.0000      -0.449917       -12.2429
  15   2.0000      -0.392970       -10.6933
  16   0.0000       0.053361         1.4520
  17   0.0000       0.061700         1.6789
  18   0.0000       0.093489         2.5440
  19   0.0000       0.107209         2.9173
  20   0.0000       0.117404         3.1947

MULLIKEN ATOMIC CHARGES
-----------------------
   0 C :   -0.780444
   1 C :    0.703041
   2 F :   -0.211898
   3 O :   -0.552497
   4 H :    0.304461
   5 H :    0.266323
   6 H :    0.271014
Sum of atomic charges:    0.0000000

LOEWDIN ATOMIC CHARGES
----------------------
   0 C :    0.009140
   1 C :   -0.508429
   2 F :    0.198668
   3 O :    0.064060
   4 H :    0.070026
   5 H :    0.083706
   6 H :    0.082830

  Mayer bond orders larger than 0.100000
B(  0-C ,  1-C ) :   0.8843 B(  0-C ,  4-H ) :   0.9359 B(  0-C ,  5-H ) :   0.9243
B(  0-C ,  6-H ) :   0.9307 B(  1-C ,  2-F ) :   0.9984 B(  1-C ,  3-O ) :   1.7063

Dispersion correction           -0.000909835
FINAL SINGLE POINT ENERGY      -253.121510821569

DIPOLE MOMENT
-------------
                                X             Y             Z
Electronic contribution:      2.42390      -2.25930      -3.81438
Nuclear contribution   :     -2.12043       3.31297       4.29327
                        -----------------------------------------
Total Dipole Moment    :      0.30347       1.05367       0.47889
                        -----------------------------------------
Magnitude (a.u.)       :      1.19651
Magnitude (Debye)      :      3.04130

Rotational constants in cm-1:     0.368089     0.321934     0.177312
Rotational constants in MHz : 11035.034199  9651.332398  5315.666874

                             ****ORCA TERMINATED NORMALLY****
TOTAL RUN TIME: 0 days 0 hours 0 minutes 11 seconds 772 msec
