                         Program Version 5.0.0 -  RELEASE  -
|  1> !wB97X-D3 RIJCOSX def2-TZVPD def2/J TightSCF
|  2> *xyz 0 1
|  3> C          2.23447       -2.98975       -2.39762
|  4> C          2.75680       -2.94555       -3.76503
|  5> C          1.98721       -2.59045       -4.81898
|  6> N          0.74322       -3.01749       -4.91352
|  7> N          2.49964       -1.84860       -5.80324
|  8> H          3.30978       -1.29282       -5.55895
|  9> H          1.80103       -1.30430       -6.28913
| 10> H          3.71612       -2.62880       -3.82953
| 11> H          0.39583       -3.62775       -4.18502
| 12> H          0.03920       -2.45438       -5.37137
| 13> H          1.22098       -3.33251       -2.41386
| 14> H          2.27280       -2.00995       -1.96933
| 15> H          2.82798       -3.65908       -1.81056
| 16> *
| 17>
| 18> %MaxCore 64000
| 19>
| 20> %pal nprocs 18
| 21> end
| 22>
| 23> %scf
| 24>   MaxIter 150
| 25> end
| 26>
| 27>
| 28>                          ****END OF INPUT****

CARTESIAN COORDINATES (ANGSTROEM)
---------------------------------
  C      2.234470   -2.989750   -2.397620
  C      2.756800   -2.945550   -3.765030
  C      1.987210   -2.590450   -4.818980
  N      0.743220   -3.017490   -4.913520
  N      2.499640   -1.848600   -5.803240
  H      3.309780   -1.292820   -5.558950
  H      1.801030   -1.304300   -6.289130
  H      3.716120   -2.628800   -3.829530
  H      0.395830   -3.627750   -4.185020
  H      0.039200   -2.454380   -5.371370
  H      1.220980   -3.332510   -2.413860
  H      2.272800   -2.009950   -1.969330
  H      2.827980   -3.659080   -1.810560

 Total Charge           Charge          ....    0
 Multiplicity           Mult            ....    1
 Number of Electrons    NEL             ....   40
 Basis Dimension        Dim             ....  257

ORBITAL ENERGIES
----------------

  NO   OCC          E(Eh)            E(eV)
   0   2.0000     -14.426779      -392.5726
   1   2.0000     -14.423049      -392.4711
   2   2.0000     -10.323564      -280.9185
   3   2.0000     -10.238989      -278.6171
   4   2.0000     -10.199326      -277.5378
   5   2.0000      -1.088848       -29.6291
   6   2.0000      -0.994880       -27.0721
   7   2.0000      -0.868111       -23.6225
   8   2.0000      -0.766697       -20.8629
   9   2.0000      -0.693584       -18.8734
  10   2.0000      -0.645244       -17.5580
  11   2.0000      -0.609342       -16.5810
  12   2.0000      -0.567934       -15.4543
  13   2.0000      -0.537954       -14.6385
  14   2.0000      -0.502009       -13.6604
  15   2.0000      -0.474640       -12.9156
  16   2.0000      -0.454606       -12.3705
  17   2.0000      -0.432793       -11.7769
  18   2.0000      -0.370858       -10.0915
  19   2.0000      -0.245232        -6.6731
  20   0.0000       0.061522         1.6741
  21   0.0000       0.090600         2.4654
  22   0.0000       0.095615         2.6018
  23   0.0000       0.115679         3.1478
  24   0.0000       0.124889         3.3984

MULLIKEN ATOMIC CHARGES
-----------------------
   0 C :   -0.940330
   1 C :   -0.669655
   2 C :    0.567565
   3 N :   -0.436557
   4 N :   -0.500846
   5 H :    0.251057
   6 H :    0.222859
   7 H :    0.353270
   8 H :    0.217442
   9 H :    0.183615
  10 H :    0.286591
  11 H :    0.216121
  12 H :    0.248868
Sum of atomic charges:   -0.0000000

LOEWDIN ATOMIC CHARGES
----------------------
   0 C :   -0.133463
   1 C :   -0.175050
   2 C :   -0.560827
   3 N :    0.117182
   4 N :    0.104718
   5 H :    0.108206
   6 H :    0.098078
   7 H :    0.052324
   8 H :    0.104946
   9 H :    0.106524
  10 H :    0.048961
  11 H :    0.067009
  12 H :    0.061393

  Mayer bond orders larger than 0.100000
B(  0-C ,  1-C ) :   0.7284 B(  0-C , 10-H ) :   0.9467 B(  0-C , 11-H ) :   1.0002
B(  0-C , 12-H ) :   1.0352 B(  1-C ,  2-C ) :   1.3794 B(  1-C ,  3-N ) :   0.1102
B(  1-C ,  7-H ) :   0.9890 B(  2-C ,  3-N ) :   1.0037 B(  2-C ,  4-N ) :   1.1122
B(  2-C ,  7-H ) :  -0.1536 B(  3-N ,  8-H ) :   0.9326 B(  3-N ,  9-H ) :   1.0109
B(  4-N ,  5-H ) :   0.9184 B(  4-N ,  6-H ) :   0.9361

Dispersion correction           -0.002422996
FINAL SINGLE POINT ENERGY      -228.617556905016

DIPOLE MOMENT
-------------
                                X             Y             Z
Electronic contribution:     -0.29667       0.06542      -3.43256
Nuclear contribution   :     -0.47056       0.83150       3.15332
                        -----------------------------------------
Total Dipole Moment    :     -0.76723       0.89692      -0.27924
                        -----------------------------------------
Magnitude (a.u.)       :      1.21289
Magnitude (Debye)      :      3.08291

Rotational constants in cm-1:     0.307275     0.134774     0.099280
Rotational constants in MHz :  9211.860934  4040.421317  2976.324646

                             ****ORCA TERMINATED NORMALLY****
TOTAL RUN TIME: 0 days 0 hours 0 minutes 24 seconds 671 msec
