                         Program Version 5.0.0 -  RELEASE  -
|  1> !wB97X-D3 RIJCOSX def2-TZVPD def2/J TightSCF
|  2> *xyz 0 1
|  3> C         -0.71189        0.84252       -4.21834
|  4> C         -0.39762       -0.20587       -5.28802
|  5> O          0.61717       -0.00535       -5.99827
|  6> F         -1.13317       -1.22138       -5.34147
|  7> H         -0.00939        1.64646       -4.28960
|  8> H         -0.64409        0.39449       -3.24902
|  9> H         -1.70192        1.21961       -4.36851
| 10> *
| 11>
| 12> %MaxCore 64000
| 13>
| 14> %pal nprocs 18
| 15> end
| 16>
| 17> %scf
| 18>   MaxIter 150
| 19> end
| 20>
| 21>
| 22>                          ****END OF INPUT****

CARTESIAN COORDINATES (ANGSTROEM)
---------------------------------
  C     -0.711890    0.842520   -4.218340
  C     -0.397620   -0.205870   -5.288020
  O      0.617170   -0.005350   -5.998270
  F     -1.133170   -1.221380   -5.341470
  H     -0.009390    1.646460   -4.289600
  H     -0.644090    0.394490   -3.249020
  H     -1.701920    1.219610   -4.368510

 Total Charge           Charge          ....    0
 Multiplicity           Mult            ....    1
 Number of Electrons    NEL             ....   32
 Basis Dimension        Dim             ....  181

ORBITAL ENERGIES
----------------

  NO   OCC          E(Eh)            E(eV)
   0   2.0000     -24.858957      -676.4466
   1   2.0000     -19.237943      -523.4911
   2   2.0000     -10.460728      -284.6509
   3   2.0000     -10.299978      -280.2767
   4   2.0000      -1.439181       -39.1621
   5   2.0000      -1.151219       -31.3263
   6   2.0000      -0.888661       -24.1817
   7   2.0000      -0.769516       -20.9396
   8   2.0000      -0.655865       -17.8470
   9   2.0000      -0.651276       -17.7221
  10   2.0000      -0.609486       -16.5849
  11   2.0000      -0.545113       -14.8333
  12   2.0000      -0.533411       -14.5149
  13   2.0000      -0.500957       -13.6317
  14   2.0000      -0.452395       -12.3103
  15   2.0000      -0.390985       -10.6392
  16   0.0000       0.056404         1.5348
  17   0.0000       0.061991         1.6869
  18   0.0000       0.093523         2.5449
  19   0.0000       0.107060         2.9133
  20   0.0000       0.115798         3.1510

MULLIKEN ATOMIC CHARGES
-----------------------
   0 C :   -0.803969
   1 C :    0.723071
   2 O :   -0.547824
   3 F :   -0.221265
   4 H :    0.269146
   5 H :    0.286346
   6 H :    0.294494
Sum of atomic charges:    0.0000000

LOEWDIN ATOMIC CHARGES
----------------------
   0 C :    0.008328
   1 C :   -0.509182
   2 O :    0.064491
   3 F :    0.199637
   4 H :    0.080083
   5 H :    0.079184
   6 H :    0.077459

  Mayer bond orders larger than 0.100000
B(  0-C ,  1-C ) :   0.8760 B(  0-C ,  4-H ) :   0.9806 B(  0-C ,  5-H ) :   0.9108
B(  0-C ,  6-H ) :   0.9157 B(  1-C ,  2-O ) :   1.6980 B(  1-C ,  3-F ) :   0.9812

Dispersion correction           -0.000897078
FINAL SINGLE POINT ENERGY      -253.121562453234

DIPOLE MOMENT
-------------
                                X             Y             Z
Electronic contribution:     -0.44343      -4.25148      -2.73769
Nuclear contribution   :     -0.31181       4.56949       3.61460
                        -----------------------------------------
Total Dipole Moment    :     -0.75523       0.31801       0.87691
                        -----------------------------------------
Magnitude (a.u.)       :      1.20020
Magnitude (Debye)      :      3.05066

Rotational constants in cm-1:     0.370228     0.320104     0.177247
Rotational constants in MHz : 11099.151631  9596.483000  5313.726171

                             ****ORCA TERMINATED NORMALLY****
TOTAL RUN TIME: 0 days 0 hours 0 minutes 13 seconds 436 msec
