                         Program Version 5.0.0 -  RELEASE  -
|  1> !wB97X-D3 RIJCOSX def2-TZVPD def2/J TightSCF
|  2> *xyz 0 1
|  3> C          2.23447       -2.98975       -2.39762
|  4> N          2.75680       -2.94555       -3.76503
|  5> C          1.98721       -2.59045       -4.81898
|  6> C          0.74322       -3.01749       -4.91352
|  7> N          2.49964       -1.84860       -5.80324
|  8> H          3.30978       -1.29282       -5.55895
|  9> H          1.80103       -1.30430       -6.28913
| 10> H          3.71612       -2.62880       -3.82953
| 11> H          0.39583       -3.62775       -4.18502
| 12> H          0.03920       -2.45438       -5.37137
| 13> H          1.22098       -3.33251       -2.41386
| 14> H          2.27280       -2.00995       -1.96933
| 15> H          2.82798       -3.65908       -1.81056
| 16> *
| 17>
| 18> %MaxCore 64000
| 19>
| 20> %pal nprocs 18
| 21> end
| 22>
| 23> %scf
| 24>   MaxIter 150
| 25> end
| 26>
| 27>
| 28>                          ****END OF INPUT****

CARTESIAN COORDINATES (ANGSTROEM)
---------------------------------
  C      2.234470   -2.989750   -2.397620
  N      2.756800   -2.945550   -3.765030
  C      1.987210   -2.590450   -4.818980
  C      0.743220   -3.017490   -4.913520
  N      2.499640   -1.848600   -5.803240
  H      3.309780   -1.292820   -5.558950
  H      1.801030   -1.304300   -6.289130
  H      3.716120   -2.628800   -3.829530
  H      0.395830   -3.627750   -4.185020
  H      0.039200   -2.454380   -5.371370
  H      1.220980   -3.332510   -2.413860
  H      2.272800   -2.009950   -1.969330
  H      2.827980   -3.659080   -1.810560

 Total Charge           Charge          ....    0
 Multiplicity           Mult            ....    1
 Number of Electrons    NEL             ....   40
 Basis Dimension        Dim             ....  257

ORBITAL ENERGIES
----------------

  NO   OCC          E(Eh)            E(eV)
   0   2.0000     -14.426092      -392.5539
   1   2.0000     -14.422581      -392.4584
   2   2.0000     -10.323158      -280.9074
   3   2.0000     -10.297250      -280.2024
   4   2.0000     -10.189731      -277.2767
   5   2.0000      -1.086413       -29.5628
   6   2.0000      -1.003266       -27.3003
   7   2.0000      -0.839963       -22.8566
   8   2.0000      -0.808507       -22.0006
   9   2.0000      -0.672910       -18.3108
  10   2.0000      -0.646863       -17.6020
  11   2.0000      -0.616277       -16.7697
  12   2.0000      -0.552104       -15.0235
  13   2.0000      -0.537364       -14.6224
  14   2.0000      -0.518430       -14.1072
  15   2.0000      -0.489536       -13.3209
  16   2.0000      -0.473108       -12.8739
  17   2.0000      -0.456037       -12.4094
  18   2.0000      -0.347911        -9.4671
  19   2.0000      -0.264996        -7.2109
  20   0.0000       0.063488         1.7276
  21   0.0000       0.087646         2.3850
  22   0.0000       0.097340         2.6488
  23   0.0000       0.117438         3.1956
  24   0.0000       0.124843         3.3972

MULLIKEN ATOMIC CHARGES
-----------------------
   0 C :   -0.838952
   1 N :   -0.237431
   2 C :    0.689577
   3 C :   -1.345831
   4 N :   -0.498648
   5 H :    0.219090
   6 H :    0.228970
   7 H :    0.228544
   8 H :    0.412374
   9 H :    0.273131
  10 H :    0.317366
  11 H :    0.278131
  12 H :    0.273679
Sum of atomic charges:    0.0000000

LOEWDIN ATOMIC CHARGES
----------------------
   0 C :   -0.072296
   1 N :   -0.033524
   2 C :   -0.568380
   3 C :    0.000442
   4 N :    0.102889
   5 H :    0.097344
   6 H :    0.107035
   7 H :    0.124510
   8 H :    0.008228
   9 H :    0.018445
  10 H :    0.065568
  11 H :    0.075306
  12 H :    0.074434

  Mayer bond orders larger than 0.100000
B(  0-C ,  1-N ) :   0.8236 B(  0-C , 10-H ) :   0.8808 B(  0-C , 11-H ) :   0.9290
B(  0-C , 12-H ) :   0.9372 B(  1-N ,  2-C ) :   1.0729 B(  1-N ,  7-H ) :   0.9323
B(  2-C ,  3-C ) :   1.3562 B(  2-C ,  4-N ) :   1.0015 B(  3-C ,  4-N ) :   0.1113
B(  3-C ,  8-H ) :   0.8251 B(  3-C ,  9-H ) :   1.0611 B(  4-N ,  5-H ) :   0.9587
B(  4-N ,  6-H ) :   0.9275

Dispersion correction           -0.002419930
FINAL SINGLE POINT ENERGY      -228.611139397589

DIPOLE MOMENT
-------------
                                X             Y             Z
Electronic contribution:      1.55001       0.12561      -2.35357
Nuclear contribution   :     -0.87840       0.81693       2.92070
                        -----------------------------------------
Total Dipole Moment    :      0.67161       0.94254       0.56713
                        -----------------------------------------
Magnitude (a.u.)       :      1.28883
Magnitude (Debye)      :      3.27594

Rotational constants in cm-1:     0.323282     0.134248     0.100848
Rotational constants in MHz :  9691.753357  4024.663509  3023.338831

                             ****ORCA TERMINATED NORMALLY****
TOTAL RUN TIME: 0 days 0 hours 0 minutes 24 seconds 921 msec
