                         Program Version 5.0.0 -  RELEASE  -
|  1> !wB97X-D3 RIJCOSX def2-TZVPD def2/J TightSCF
|  2> *xyz 0 1
|  3> C          2.23447       -2.98975       -2.39762
|  4> N          2.75680       -2.94555       -3.76503
|  5> C          1.98721       -2.59045       -4.81898
|  6> N          0.74322       -3.01749       -4.91352
|  7> C          2.49964       -1.84860       -5.80324
|  8> H          3.30978       -1.29282       -5.55895
|  9> H          1.80103       -1.30430       -6.28913
| 10> H          3.71612       -2.62880       -3.82953
| 11> H          0.39583       -3.62775       -4.18502
| 12> H          0.03920       -2.45438       -5.37137
| 13> H          1.22098       -3.33251       -2.41386
| 14> H          2.27280       -2.00995       -1.96933
| 15> H          2.82798       -3.65908       -1.81056
| 16> *
| 17>
| 18> %MaxCore 64000
| 19>
| 20> %pal nprocs 18
| 21> end
| 22>
| 23> %scf
| 24>   MaxIter 150
| 25> end
| 26>
| 27>
| 28>                          ****END OF INPUT****

CARTESIAN COORDINATES (ANGSTROEM)
---------------------------------
  C      2.234470   -2.989750   -2.397620
  N      2.756800   -2.945550   -3.765030
  C      1.987210   -2.590450   -4.818980
  N      0.743220   -3.017490   -4.913520
  C      2.499640   -1.848600   -5.803240
  H      3.309780   -1.292820   -5.558950
  H      1.801030   -1.304300   -6.289130
  H      3.716120   -2.628800   -3.829530
  H      0.395830   -3.627750   -4.185020
  H      0.039200   -2.454380   -5.371370
  H      1.220980   -3.332510   -2.413860
  H      2.272800   -2.009950   -1.969330
  H      2.827980   -3.659080   -1.810560

 Total Charge           Charge          ....    0
 Multiplicity           Mult            ....    1
 Number of Electrons    NEL             ....   40
 Basis Dimension        Dim             ....  257

ORBITAL ENERGIES
----------------

  NO   OCC          E(Eh)            E(eV)
   0   2.0000     -14.425714      -392.5436
   1   2.0000     -14.425702      -392.5433
   2   2.0000     -10.327603      -281.0284
   3   2.0000     -10.306376      -280.4508
   4   2.0000     -10.185145      -277.1519
   5   2.0000      -1.088992       -29.6330
   6   2.0000      -1.003887       -27.3171
   7   2.0000      -0.857988       -23.3470
   8   2.0000      -0.786858       -21.4115
   9   2.0000      -0.708303       -19.2739
  10   2.0000      -0.643003       -17.4970
  11   2.0000      -0.592316       -16.1177
  12   2.0000      -0.583129       -15.8677
  13   2.0000      -0.551399       -15.0043
  14   2.0000      -0.504361       -13.7244
  15   2.0000      -0.487092       -13.2544
  16   2.0000      -0.470064       -12.7911
  17   2.0000      -0.458792       -12.4844
  18   2.0000      -0.350737        -9.5440
  19   2.0000      -0.260313        -7.0835
  20   0.0000       0.061159         1.6642
  21   0.0000       0.091140         2.4801
  22   0.0000       0.096092         2.6148
  23   0.0000       0.117196         3.1891
  24   0.0000       0.121408         3.3037

MULLIKEN ATOMIC CHARGES
-----------------------
   0 C :   -0.909925
   1 N :   -0.233087
   2 C :    0.670866
   3 N :   -0.420647
   4 C :   -1.251246
   5 H :    0.293787
   6 H :    0.299363
   7 H :    0.242982
   8 H :    0.214761
   9 H :    0.203898
  10 H :    0.302578
  11 H :    0.303367
  12 H :    0.283303
Sum of atomic charges:   -0.0000000

LOEWDIN ATOMIC CHARGES
----------------------
   0 C :   -0.075403
   1 N :   -0.029133
   2 C :   -0.569626
   3 N :    0.116347
   4 C :   -0.015216
   5 H :    0.006638
   6 H :    0.008393
   7 H :    0.132353
   8 H :    0.095825
   9 H :    0.118525
  10 H :    0.061413
  11 H :    0.075495
  12 H :    0.074389

  Mayer bond orders larger than 0.100000
B(  0-C ,  1-N ) :   0.8497 B(  0-C , 10-H ) :   0.8810 B(  0-C , 11-H ) :   0.9442
B(  0-C , 12-H ) :   0.9433 B(  1-N ,  2-C ) :   1.1643 B(  1-N ,  7-H ) :   0.8975
B(  2-C ,  3-N ) :   1.0671 B(  2-C ,  4-C ) :   1.1856 B(  2-C ,  5-H ) :  -0.1095
B(  3-N ,  4-C ) :   0.1084 B(  3-N ,  8-H ) :   0.9363 B(  3-N ,  9-H ) :   0.9711
B(  4-C ,  5-H ) :   1.0948 B(  4-C ,  6-H ) :   0.9886

Dispersion correction           -0.002432462
FINAL SINGLE POINT ENERGY      -228.605402620780

DIPOLE MOMENT
-------------
                                X             Y             Z
Electronic contribution:     -0.09358      -1.03988      -1.46863
Nuclear contribution   :     -0.52265       1.05368       2.74049
                        -----------------------------------------
Total Dipole Moment    :     -0.61623       0.01380       1.27186
                        -----------------------------------------
Magnitude (a.u.)       :      1.41335
Magnitude (Debye)      :      3.59245

Rotational constants in cm-1:     0.310125     0.138772     0.101978
Rotational constants in MHz :  9297.312912  4160.277024  3057.230514

                             ****ORCA TERMINATED NORMALLY****
TOTAL RUN TIME: 0 days 0 hours 0 minutes 18 seconds 852 msec
