                         Program Version 5.0.0 -  RELEASE  -
|  1> !wB97X-D3 RIJCOSX def2-TZVPD def2/J TightSCF xyzfile
|  2>
|  3> *xyzfile 0 1 D1.xyz
|  4>
|  5> %MaxCore 64000
|  6>
|  7> %pal nprocs 18
|  8> end
|  9>
| 10> %scf
| 11>   MaxIter 150
| 12> end
| 13>
| 14>
| 15>                          ****END OF INPUT****

CARTESIAN COORDINATES (ANGSTROEM)
---------------------------------
  C      2.234473   -2.989754   -2.397622
  C      2.756799   -2.945553   -3.765029
  C     -1.104325    0.251374   -2.860056
  C     -0.711893    0.842517   -4.218344
  H      0.154626    1.499800   -4.130909
  H     -1.538134    1.459222   -4.582671
  C     -0.397624   -0.205875   -5.288018
  C      1.987208   -2.590451   -4.818975
  N      0.743221   -3.017493   -4.913524
  N      2.499636   -1.848598   -5.803241
  H      3.309780   -1.292818   -5.558947
  H      1.801025   -1.304298   -6.289129
  H      3.716116   -2.628797   -3.829533
  H      0.395828   -3.627747   -4.185024
  H      0.039201   -2.454383   -5.371367
  F      0.617165   -0.005348   -5.998273
  O     -1.133173   -1.221380   -5.341465
  C      2.191199   -1.619503   -1.715492
  H      2.872783   -3.666368   -1.828014
  H      1.246188   -3.447444   -2.407842
  C      1.298729   -0.554314   -2.359773
  H      1.872917   -1.787955   -0.681310
  H      3.216809   -1.238432   -1.654428
  C     -0.196255   -0.863365   -2.325763
  H      1.612531   -0.371346   -3.393065
  H      1.480944    0.388638   -1.834444
  H     -0.404105   -1.761825   -2.909448
  H     -0.490439   -1.087880   -1.294131
  H     -1.143842    1.066711   -2.129680
  H     -2.114401   -0.156834   -2.930323

 Total Charge           Charge          ....    0
 Multiplicity           Mult            ....    1
 Number of Electrons    NEL             ....  102
 Basis Dimension        Dim             ....  640

ORBITAL ENERGIES
----------------

  NO   OCC          E(Eh)            E(eV)
   0   2.0000     -24.892061      -677.3474
   1   2.0000     -19.268723      -524.3286
   2   2.0000     -14.409504      -392.1025
   3   2.0000     -14.399564      -391.8321
   4   2.0000     -10.486651      -285.3563
   5   2.0000     -10.321757      -280.8693
   6   2.0000     -10.313967      -280.6573
   7   2.0000     -10.295599      -280.1575
   8   2.0000     -10.274717      -279.5893
   9   2.0000     -10.270995      -279.4880
  10   2.0000     -10.258029      -279.1352
  11   2.0000     -10.247002      -278.8351
  12   2.0000     -10.186775      -277.1962
  13   2.0000      -1.474928       -40.1348
  14   2.0000      -1.187889       -32.3241
  15   2.0000      -1.075922       -29.2773
  16   2.0000      -0.980674       -26.6855
  17   2.0000      -0.949776       -25.8447
  18   2.0000      -0.908202       -24.7134
  19   2.0000      -0.870263       -23.6811
  20   2.0000      -0.824560       -22.4374
  21   2.0000      -0.801712       -21.8157
  22   2.0000      -0.765271       -20.8241
  23   2.0000      -0.724887       -19.7252
  24   2.0000      -0.698671       -19.0118
  25   2.0000      -0.688767       -18.7423
  26   2.0000      -0.676915       -18.4198
  27   2.0000      -0.657450       -17.8901
  28   2.0000      -0.649693       -17.6790
  29   2.0000      -0.621712       -16.9176
  30   2.0000      -0.596852       -16.2412
  31   2.0000      -0.585404       -15.9297
  32   2.0000      -0.578147       -15.7322
  33   2.0000      -0.556326       -15.1384
  34   2.0000      -0.545128       -14.8337
  35   2.0000      -0.538497       -14.6532
  36   2.0000      -0.522256       -14.2113
  37   2.0000      -0.508626       -13.8404
  38   2.0000      -0.493039       -13.4163
  39   2.0000      -0.485212       -13.2033
  40   2.0000      -0.473544       -12.8858
  41   2.0000      -0.465856       -12.6766
  42   2.0000      -0.453749       -12.3471
  43   2.0000      -0.441619       -12.0171
  44   2.0000      -0.431695       -11.7470
  45   2.0000      -0.421592       -11.4721
  46   2.0000      -0.410265       -11.1639
  47   2.0000      -0.403754       -10.9867
  48   2.0000      -0.397353       -10.8125
  49   2.0000      -0.352441        -9.5904
  50   2.0000      -0.235677        -6.4131
  51   0.0000       0.023312         0.6343
  52   0.0000       0.054186         1.4745
  53   0.0000       0.071011         1.9323
  54   0.0000       0.075403         2.0518
  55   0.0000       0.081930         2.2294

MULLIKEN ATOMIC CHARGES
-----------------------
   0 C :   -0.261804
   1 C :   -0.969056
   2 C :   -0.633938
   3 C :   -0.483162
   4 H :    0.369092
   5 H :    0.298555
   6 C :    0.720733
   7 C :   -0.009188
   8 N :   -0.357527
   9 N :   -0.546593
  10 H :    0.255804
  11 H :    0.344515
  12 H :    0.473579
  13 H :    0.279860
  14 H :    0.268390
  15 F :   -0.328755
  16 O :   -0.671948
  17 C :   -0.843401
  18 H :    0.207029
  19 H :    0.379656
  20 C :   -0.339001
  21 H :    0.259900
  22 H :    0.321986
  23 C :   -0.365352
  24 H :    0.176645
  25 H :    0.372610
  26 H :    0.125041
  27 H :    0.339329
  28 H :    0.281384
  29 H :    0.335616
Sum of atomic charges:    0.0000000

LOEWDIN ATOMIC CHARGES
----------------------
   0 C :   -0.242103
   1 C :   -0.132219
   2 C :   -0.189964
   3 C :   -0.096996
   4 H :    0.117690
   5 H :    0.129241
   6 C :   -0.443978
   7 C :   -0.546879
   8 N :    0.147712
   9 N :    0.123331
  10 H :    0.113251
  11 H :    0.071824
  12 H :    0.059291
  13 H :    0.112786
  14 H :    0.047623
  15 F :    0.193236
  16 O :    0.072554
  17 C :   -0.198227
  18 H :    0.103158
  19 H :    0.091322
  20 C :   -0.203576
  21 H :    0.107255
  22 H :    0.111216
  23 C :   -0.204640
  24 H :    0.097563
  25 H :    0.116042
  26 H :    0.091438
  27 H :    0.120692
  28 H :    0.116952
  29 H :    0.114408

  Mayer bond orders larger than 0.100000
B(  0-C ,  1-C ) :   0.7383 B(  0-C ,  7-C ) :   0.1200 B(  0-C , 17-C ) :   0.7638
B(  0-C , 18-H ) :   1.0955 B(  0-C , 19-H ) :   0.8299 B(  0-C , 23-C ) :   0.1316
B(  1-C ,  7-C ) :   1.6278 B(  1-C , 12-H ) :   0.8718 B(  1-C , 17-C ) :   0.2320
B(  2-C ,  3-C ) :   0.9153 B(  2-C ,  6-C ) :   0.1192 B(  2-C , 20-C ) :   0.2905
B(  2-C , 23-C ) :   0.9685 B(  2-C , 28-H ) :   0.9314 B(  2-C , 29-H ) :   0.8651
B(  3-C ,  4-H ) :   0.8916 B(  3-C ,  5-H ) :   0.8728 B(  3-C ,  6-C ) :   0.9486
B(  3-C , 20-C ) :   0.1904 B(  6-C , 15-F ) :   0.7520 B(  6-C , 16-O ) :   1.5187
B(  6-C , 23-C ) :   0.1067 B(  7-C ,  8-N ) :   1.0898 B(  7-C ,  9-N ) :   1.0295
B(  7-C , 12-H ) :  -0.1490 B(  7-C , 20-C ) :   0.1055 B(  8-N , 13-H ) :   0.8145
B(  8-N , 14-H ) :   0.7311 B(  9-N , 10-H ) :   0.8756 B(  9-N , 11-H ) :   0.6839
B( 17-C , 20-C ) :   1.0763 B( 17-C , 21-H ) :   0.9326 B( 17-C , 22-H ) :   0.9133
B( 17-C , 23-C ) :   0.4237 B( 17-C , 24-H ) :   0.1142 B( 20-C , 23-C ) :   0.4023
B( 20-C , 24-H ) :   1.1227 B( 20-C , 25-H ) :   0.7345 B( 20-C , 26-H ) :  -0.1234
B( 23-C , 24-H ) :  -0.1100 B( 23-C , 26-H ) :   1.2153 B( 23-C , 27-H ) :   0.7848

Dispersion correction           -0.015947558
FINAL SINGLE POINT ENERGY      -637.802416192996

DIPOLE MOMENT
-------------
                                X             Y             Z
Electronic contribution:     -3.11935       2.28085     -14.52451
Nuclear contribution   :      2.31842      -0.27661      14.74721
                        -----------------------------------------
Total Dipole Moment    :     -0.80092       2.00424       0.22270
                        -----------------------------------------
Magnitude (a.u.)       :      2.16981
Magnitude (Debye)      :      5.51522

Rotational constants in cm-1:     0.032691     0.023990     0.017099
Rotational constants in MHz :   980.050971   719.190545   512.606858

                             ****ORCA TERMINATED NORMALLY****
TOTAL RUN TIME: 0 days 0 hours 2 minutes 32 seconds 478 msec
