                         Program Version 5.0.0 -  RELEASE  -
|  1> !TPSS D3BJ RIJCOSX def2-TZVP def2/J TightSCF
|  2> *xyz -1 1
|  3> C          4.93020       -7.37532       -2.64962
|  4> C          3.84189       -6.95161       -3.63283
|  5> H          3.45814       -5.95442       -3.40712
|  6> H          2.98848       -7.64361       -3.56708
|  7> S          4.31812       -6.91593       -5.36869
|  8> O          5.40615       -5.89948       -5.51297
|  9> O          3.11191       -6.44508       -6.04379
| 10> O          4.76340       -8.23942       -5.69863
| 11> H          5.27901       -8.35440       -2.90385
| 12> H          4.53000       -7.38577       -1.65734
| 13> H          5.74437       -6.68276       -2.69856
| 14> *
| 15>
| 16> %MaxCore 64000
| 17>
| 18> %pal nprocs 4
| 19> end
| 20>
| 21> %scf
| 22>   MaxIter 150
| 23> end
| 24>
| 25>
| 26>                          ****END OF INPUT****

CARTESIAN COORDINATES (ANGSTROEM)
---------------------------------
  C      4.930200   -7.375320   -2.649620
  C      3.841890   -6.951610   -3.632830
  H      3.458140   -5.954420   -3.407120
  H      2.988480   -7.643610   -3.567080
  S      4.318120   -6.915930   -5.368690
  O      5.406150   -5.899480   -5.512970
  O      3.111910   -6.445080   -6.043790
  O      4.763400   -8.239420   -5.698630
  H      5.279010   -8.354400   -2.903850
  H      4.530000   -7.385770   -1.657340
  H      5.744370   -6.682760   -2.698560

 Total Charge           Charge          ....   -1
 Multiplicity           Mult            ....    1
 Number of Electrons    NEL             ....   58
 Basis Dimension        Dim             ....  222

ORBITAL ENERGIES
----------------

  NO   OCC          E(Eh)            E(eV)
   0   2.0000     -88.319021     -2403.2828
   1   2.0000     -18.657029      -507.6836
   2   2.0000     -18.647996      -507.4378
   3   2.0000     -18.640281      -507.2278
   4   2.0000      -9.841950      -267.8131
   5   2.0000      -9.838116      -267.7087
   6   2.0000      -7.667371      -208.6398
   7   2.0000      -5.646891      -153.6597
   8   2.0000      -5.646131      -153.6390
   9   2.0000      -5.645843      -153.6312
  10   2.0000      -0.836808       -22.7707
  11   2.0000      -0.716406       -19.4944
  12   2.0000      -0.688081       -18.7236
  13   2.0000      -0.571759       -15.5583
  14   2.0000      -0.451083       -12.2746
  15   2.0000      -0.326947        -8.8967
  16   2.0000      -0.271865        -7.3978
  17   2.0000      -0.260330        -7.0839
  18   2.0000      -0.223384        -6.0786
  19   2.0000      -0.206907        -5.6302
  20   2.0000      -0.203373        -5.5341
  21   2.0000      -0.182931        -4.9778
  22   2.0000      -0.170250        -4.6327
  23   2.0000      -0.096079        -2.6144
  24   2.0000      -0.094770        -2.5788
  25   2.0000      -0.066144        -1.7999
  26   2.0000      -0.059194        -1.6108
  27   2.0000      -0.047621        -1.2958
  28   2.0000      -0.010788        -0.2935
  29   0.0000       0.163150         4.4395
  30   0.0000       0.206656         5.6234
  31   0.0000       0.220579         6.0023
  32   0.0000       0.225670         6.1408
  33   0.0000       0.250165         6.8073

MULLIKEN ATOMIC CHARGES
-----------------------
   0 C :   -0.314867
   1 C :   -0.203496
   2 H :    0.073458
   3 H :    0.062103
   4 S :    0.752779
   5 O :   -0.579049
   6 O :   -0.541837
   7 O :   -0.517076
   8 H :    0.104286
   9 H :    0.061304
  10 H :    0.102394
Sum of atomic charges:   -1.0000000

LOEWDIN ATOMIC CHARGES
----------------------
   0 C :   -0.338254
   1 C :   -0.432428
   2 H :    0.115395
   3 H :    0.115418
   4 S :    0.384185
   5 O :   -0.426801
   6 O :   -0.382493
   7 O :   -0.351664
   8 H :    0.110336
   9 H :    0.096103
  10 H :    0.110203

  Mayer bond orders larger than 0.100000
B(  0-C ,  1-C ) :   0.9894 B(  0-C ,  8-H ) :   0.9684 B(  0-C ,  9-H ) :   0.9568
B(  0-C , 10-H ) :   0.9674 B(  1-C ,  2-H ) :   0.9511 B(  1-C ,  3-H ) :   0.9455
B(  1-C ,  4-S ) :   0.8584 B(  4-S ,  5-O ) :   1.7366 B(  4-S ,  6-O ) :   1.8087
B(  4-S ,  7-O ) :   1.8006

Dispersion correction           -0.012037070
FINAL SINGLE POINT ENERGY      -703.372194278105

DIPOLE MOMENT
-------------
                                X             Y             Z
Electronic contribution:     -0.34259       0.82911      -7.97144
Nuclear contribution   :      0.07504      -1.14369       9.75001
                        -----------------------------------------
Total Dipole Moment    :     -0.26755      -0.31458       1.77856
                        -----------------------------------------
Magnitude (a.u.)       :      1.82588
Magnitude (Debye)      :      4.64101

Rotational constants in cm-1:     0.160553     0.082191     0.080550
Rotational constants in MHz :  4813.250478  2464.013016  2414.833054

                             ****ORCA TERMINATED NORMALLY****
TOTAL RUN TIME: 0 days 0 hours 0 minutes 15 seconds 101 msec
