                         Program Version 5.0.0 -  RELEASE  -
|  1> !TPSS D3BJ RIJCOSX def2-TZVP def2/J TightSCF
|  2> *xyz 1 1
|  3> C          5.55821       -1.99291       -6.21505
|  4> C          4.18188       -2.58967       -6.29891
|  5> N          3.14587       -1.76843       -6.48675
|  6> N          4.01910       -3.86431       -6.22743
|  7> H          4.76849       -4.59115       -5.99077
|  8> H          3.12241       -4.33339       -6.31462
|  9> H          3.28164       -0.77779       -6.56655
| 10> H          2.21255       -2.13419       -6.56225
| 11> C          6.41926       -2.54294       -5.07763
| 12> H          6.03683       -2.19819       -7.17685
| 13> H          5.46761       -0.90737       -6.12797
| 14> H          6.50056       -3.60553       -5.17358
| 15> H          5.96544       -2.30329       -4.13874
| 16> H          7.39438       -2.10494       -5.12457
| 17> *
| 18>
| 19> %MaxCore 64000
| 20>
| 21> %pal nprocs 4
| 22> end
| 23>
| 24> %scf
| 25>   MaxIter 150
| 26> end
| 27>
| 28>
| 29>                          ****END OF INPUT****

CARTESIAN COORDINATES (ANGSTROEM)
---------------------------------
  C      5.558210   -1.992910   -6.215050
  C      4.181880   -2.589670   -6.298910
  N      3.145870   -1.768430   -6.486750
  N      4.019100   -3.864310   -6.227430
  H      4.768490   -4.591150   -5.990770
  H      3.122410   -4.333390   -6.314620
  H      3.281640   -0.777790   -6.566550
  H      2.212550   -2.134190   -6.562250
  C      6.419260   -2.542940   -5.077630
  H      6.036830   -2.198190   -7.176850
  H      5.467610   -0.907370   -6.127970
  H      6.500560   -3.605530   -5.173580
  H      5.965440   -2.303290   -4.138740
  H      7.394380   -2.104940   -5.124570

 Total Charge           Charge          ....    1
 Multiplicity           Mult            ....    1
 Number of Electrons    NEL             ....   40
 Basis Dimension        Dim             ....  209

ORBITAL ENERGIES
----------------

  NO   OCC          E(Eh)            E(eV)
   0   2.0000     -14.351690      -390.5293
   1   2.0000     -14.341214      -390.2443
   2   2.0000     -10.297694      -280.2145
   3   2.0000     -10.183041      -277.0946
   4   2.0000     -10.140433      -275.9352
   5   2.0000      -1.137268       -30.9466
   6   2.0000      -1.046387       -28.4736
   7   2.0000      -0.911824       -24.8120
   8   2.0000      -0.815944       -22.2030
   9   2.0000      -0.766049       -20.8453
  10   2.0000      -0.725557       -19.7434
  11   2.0000      -0.701533       -19.0897
  12   2.0000      -0.654924       -17.8214
  13   2.0000      -0.609524       -16.5860
  14   2.0000      -0.582476       -15.8500
  15   2.0000      -0.561540       -15.2803
  16   2.0000      -0.510382       -13.8882
  17   2.0000      -0.503074       -13.6893
  18   2.0000      -0.489042       -13.3075
  19   2.0000      -0.454563       -12.3693
  20   0.0000      -0.232454        -6.3254
  21   0.0000      -0.172689        -4.6991
  22   0.0000      -0.137278        -3.7355
  23   0.0000      -0.125923        -3.4265
  24   0.0000      -0.104052        -2.8314

MULLIKEN ATOMIC CHARGES
-----------------------
   0 C :   -0.180941
   1 C :    0.292676
   2 N :   -0.341292
   3 N :   -0.346148
   4 H :    0.318313
   5 H :    0.288826
   6 H :    0.300405
   7 H :    0.278961
   8 C :   -0.339891
   9 H :    0.170503
  10 H :    0.131826
  11 H :    0.105277
  12 H :    0.150144
  13 H :    0.171343
Sum of atomic charges:    1.0000000

LOEWDIN ATOMIC CHARGES
----------------------
   0 C :   -0.213070
   1 C :   -0.303888
   2 N :    0.113593
   3 N :    0.122428
   4 H :    0.233975
   5 H :    0.199448
   6 H :    0.199920
   7 H :    0.191281
   8 C :   -0.256315
   9 H :    0.171987
  10 H :    0.156745
  11 H :    0.116150
  12 H :    0.129771
  13 H :    0.137974

  Mayer bond orders larger than 0.100000
B(  0-C ,  1-C ) :   1.0147 B(  0-C ,  8-C ) :   1.0250 B(  0-C ,  9-H ) :   0.9085
B(  0-C , 10-H ) :   0.9424 B(  1-C ,  2-N ) :   1.4511 B(  1-C ,  3-N ) :   1.4833
B(  2-N ,  6-H ) :   0.8809 B(  2-N ,  7-H ) :   0.8869 B(  3-N ,  4-H ) :   0.8645
B(  3-N ,  5-H ) :   0.8795 B(  8-C , 11-H ) :   0.9636 B(  8-C , 12-H ) :   0.9600
B(  8-C , 13-H ) :   0.9538

Dispersion correction           -0.012359601
FINAL SINGLE POINT ENERGY      -229.159132612258

DIPOLE MOMENT
-------------
                                X             Y             Z
Electronic contribution:     -3.79290      -0.47226      -1.56663
Nuclear contribution   :      2.76041       0.12669       1.26265
                        -----------------------------------------
Total Dipole Moment    :     -1.03249      -0.34557      -0.30398
                        -----------------------------------------
Magnitude (a.u.)       :      1.13042
Magnitude (Debye)      :      2.87331

Rotational constants in cm-1:     0.280918     0.124524     0.094121
Rotational constants in MHz :  8421.697738  3733.133254  2821.684112

                             ****ORCA TERMINATED NORMALLY****
TOTAL RUN TIME: 0 days 0 hours 0 minutes 13 seconds 608 msec
