                         Program Version 5.0.0 -  RELEASE  -
|  1> !TPSS D3BJ RIJCOSX def2-TZVP def2/J TightSCF
|  2> *xyz 0 1
|  3> C          4.93020       -7.37532       -2.64962
|  4> C          3.84189       -6.95161       -3.63283
|  5> H          3.45814       -5.95442       -3.40712
|  6> H          2.98848       -7.64361       -3.56708
|  7> S          4.31812       -6.91593       -5.36869
|  8> F          5.40615       -5.89948       -5.51297
|  9> O          3.11191       -6.44508       -6.04379
| 10> O          4.76340       -8.23942       -5.69863
| 11> H          5.27901       -8.35440       -2.90385
| 12> H          4.53000       -7.38577       -1.65734
| 13> H          5.74437       -6.68276       -2.69856
| 14> *
| 15>
| 16> %MaxCore 64000
| 17>
| 18> %pal nprocs 4
| 19> end
| 20>
| 21> %scf
| 22>   MaxIter 150
| 23> end
| 24>
| 25>
| 26>                          ****END OF INPUT****

CARTESIAN COORDINATES (ANGSTROEM)
---------------------------------
  C      4.930200   -7.375320   -2.649620
  C      3.841890   -6.951610   -3.632830
  H      3.458140   -5.954420   -3.407120
  H      2.988480   -7.643610   -3.567080
  S      4.318120   -6.915930   -5.368690
  F      5.406150   -5.899480   -5.512970
  O      3.111910   -6.445080   -6.043790
  O      4.763400   -8.239420   -5.698630
  H      5.279010   -8.354400   -2.903850
  H      4.530000   -7.385770   -1.657340
  H      5.744370   -6.682760   -2.698560

 Total Charge           Charge          ....    0
 Multiplicity           Mult            ....    1
 Number of Electrons    NEL             ....   58
 Basis Dimension        Dim             ....  222

ORBITAL ENERGIES
----------------

  NO   OCC          E(Eh)            E(eV)
   0   2.0000     -88.580176     -2410.3891
   1   2.0000     -24.500895      -666.7033
   2   2.0000     -18.896708      -514.2056
   3   2.0000     -18.887326      -513.9503
   4   2.0000     -10.045884      -273.3624
   5   2.0000     -10.005834      -272.2726
   6   2.0000      -7.929538      -215.7737
   7   2.0000      -5.912826      -160.8962
   8   2.0000      -5.906030      -160.7112
   9   2.0000      -5.905804      -160.7051
  10   2.0000      -1.257758       -34.2253
  11   2.0000      -1.036559       -28.2062
  12   2.0000      -0.949078       -25.8257
  13   2.0000      -0.764182       -20.7945
  14   2.0000      -0.661514       -18.0007
  15   2.0000      -0.615633       -16.7522
  16   2.0000      -0.520627       -14.1670
  17   2.0000      -0.496180       -13.5017
  18   2.0000      -0.490535       -13.3481
  19   2.0000      -0.449568       -12.2334
  20   2.0000      -0.429290       -11.6816
  21   2.0000      -0.406376       -11.0581
  22   2.0000      -0.389689       -10.6040
  23   2.0000      -0.368415       -10.0251
  24   2.0000      -0.363344        -9.8871
  25   2.0000      -0.337000        -9.1702
  26   2.0000      -0.296930        -8.0799
  27   2.0000      -0.286613        -7.7991
  28   2.0000      -0.273365        -7.4386
  29   0.0000      -0.015479        -0.4212
  30   0.0000       0.025232         0.6866
  31   0.0000       0.036042         0.9808
  32   0.0000       0.054511         1.4833
  33   0.0000       0.059905         1.6301

MULLIKEN ATOMIC CHARGES
-----------------------
   0 C :   -0.342473
   1 C :   -0.221724
   2 H :    0.136778
   3 H :    0.151107
   4 S :    0.772247
   5 F :   -0.113328
   6 O :   -0.398517
   7 O :   -0.376787
   8 H :    0.143937
   9 H :    0.127712
  10 H :    0.121048
Sum of atomic charges:   -0.0000000

LOEWDIN ATOMIC CHARGES
----------------------
   0 C :   -0.309029
   1 C :   -0.391595
   2 H :    0.136030
   3 H :    0.150970
   4 S :    0.510645
   5 F :    0.044014
   6 O :   -0.266783
   7 O :   -0.237235
   8 H :    0.123171
   9 H :    0.122460
  10 H :    0.117353

  Mayer bond orders larger than 0.100000
B(  0-C ,  1-C ) :   1.0056 B(  0-C ,  8-H ) :   0.9619 B(  0-C ,  9-H ) :   0.9542
B(  0-C , 10-H ) :   0.9660 B(  1-C ,  2-H ) :   0.9350 B(  1-C ,  3-H ) :   0.9317
B(  1-C ,  4-S ) :   0.8985 B(  4-S ,  5-F ) :   1.1000 B(  4-S ,  6-O ) :   1.9410
B(  4-S ,  7-O ) :   1.9469

Dispersion correction           -0.011463517
FINAL SINGLE POINT ENERGY      -727.916980127894

DIPOLE MOMENT
-------------
                                X             Y             Z
Electronic contribution:      1.29268       2.61764      -8.84931
Nuclear contribution   :     -0.98922      -2.24849      10.35711
                        -----------------------------------------
Total Dipole Moment    :      0.30346       0.36915       1.50780
                        -----------------------------------------
Magnitude (a.u.)       :      1.58171
Magnitude (Debye)      :      4.02040

Rotational constants in cm-1:     0.151436     0.080885     0.078670
Rotational constants in MHz :  4539.936009  2424.868817  2358.476812

                             ****ORCA TERMINATED NORMALLY****
TOTAL RUN TIME: 0 days 0 hours 0 minutes 14 seconds 667 msec
