                         Program Version 5.0.0 -  RELEASE  -
|  1> !TPSS D3BJ RIJCOSX def2-TZVP def2/J TightSCF
|  2> *xyz 0 1
|  3> C          5.55821       -1.99291       -6.21505
|  4> C          4.18188       -2.58967       -6.29891
|  5> C          3.14587       -1.76843       -6.48675
|  6> N          4.01910       -3.86431       -6.22743
|  7> H          4.76849       -4.59115       -5.99077
|  8> H          3.12241       -4.33339       -6.31462
|  9> H          3.28164       -0.77779       -6.56655
| 10> H          2.21255       -2.13419       -6.56225
| 11> C          6.41926       -2.54294       -5.07763
| 12> H          6.03683       -2.19819       -7.17685
| 13> H          5.46761       -0.90737       -6.12797
| 14> H          6.50056       -3.60553       -5.17358
| 15> H          5.96544       -2.30329       -4.13874
| 16> H          7.39438       -2.10494       -5.12457
| 17> *
| 18>
| 19> %MaxCore 64000
| 20>
| 21> %pal nprocs 4
| 22> end
| 23>
| 24> %scf
| 25>   MaxIter 150
| 26> end
| 27>
| 28>
| 29>                          ****END OF INPUT****

CARTESIAN COORDINATES (ANGSTROEM)
---------------------------------
  C      5.558210   -1.992910   -6.215050
  C      4.181880   -2.589670   -6.298910
  C      3.145870   -1.768430   -6.486750
  N      4.019100   -3.864310   -6.227430
  H      4.768490   -4.591150   -5.990770
  H      3.122410   -4.333390   -6.314620
  H      3.281640   -0.777790   -6.566550
  H      2.212550   -2.134190   -6.562250
  C      6.419260   -2.542940   -5.077630
  H      6.036830   -2.198190   -7.176850
  H      5.467610   -0.907370   -6.127970
  H      6.500560   -3.605530   -5.173580
  H      5.965440   -2.303290   -4.138740
  H      7.394380   -2.104940   -5.124570

 Total Charge           Charge          ....    0
 Multiplicity           Mult            ....    1
 Number of Electrons    NEL             ....   40
 Basis Dimension        Dim             ....  209

ORBITAL ENERGIES
----------------

  NO   OCC          E(Eh)            E(eV)
   0   2.0000     -14.108413      -383.9094
   1   2.0000      -9.998892      -272.0837
   2   2.0000      -9.982811      -271.6461
   3   2.0000      -9.972935      -271.3774
   4   2.0000      -9.910494      -269.6782
   5   2.0000      -0.869711       -23.6660
   6   2.0000      -0.720400       -19.6031
   7   2.0000      -0.661460       -17.9992
   8   2.0000      -0.580500       -15.7962
   9   2.0000      -0.533853       -14.5269
  10   2.0000      -0.472262       -12.8509
  11   2.0000      -0.428085       -11.6488
  12   2.0000      -0.401160       -10.9161
  13   2.0000      -0.381548       -10.3824
  14   2.0000      -0.351216        -9.5571
  15   2.0000      -0.341880        -9.3030
  16   2.0000      -0.321074        -8.7369
  17   2.0000      -0.294104        -8.0030
  18   2.0000      -0.290664        -7.9094
  19   2.0000      -0.153076        -4.1654
  20   0.0000       0.008205         0.2233
  21   0.0000       0.027021         0.7353
  22   0.0000       0.053846         1.4652
  23   0.0000       0.058850         1.6014
  24   0.0000       0.082372         2.2414

MULLIKEN ATOMIC CHARGES
-----------------------
   0 C :   -0.149215
   1 C :    0.197301
   2 C :   -0.423978
   3 N :   -0.469342
   4 H :    0.237388
   5 H :    0.237764
   6 H :    0.106102
   7 H :    0.083919
   8 C :   -0.324574
   9 H :    0.092853
  10 H :    0.097599
  11 H :    0.081553
  12 H :    0.116583
  13 H :    0.116047
Sum of atomic charges:    0.0000000

LOEWDIN ATOMIC CHARGES
----------------------
   0 C :   -0.231722
   1 C :   -0.381536
   2 C :   -0.276351
   3 N :    0.013828
   4 H :    0.185256
   5 H :    0.171864
   6 H :    0.097761
   7 H :    0.090954
   8 C :   -0.291550
   9 H :    0.139664
  10 H :    0.144728
  11 H :    0.105339
  12 H :    0.117141
  13 H :    0.114624

  Mayer bond orders larger than 0.100000
B(  0-C ,  1-C ) :   1.0214 B(  0-C ,  8-C ) :   1.0131 B(  0-C ,  9-H ) :   0.9444
B(  0-C , 10-H ) :   0.9484 B(  1-C ,  2-C ) :   1.7512 B(  1-C ,  3-N ) :   1.1944
B(  2-C ,  6-H ) :   0.9755 B(  2-C ,  7-H ) :   0.9774 B(  3-N ,  4-H ) :   0.9072
B(  3-N ,  5-H ) :   0.9067 B(  8-C , 11-H ) :   0.9723 B(  8-C , 12-H ) :   0.9685
B(  8-C , 13-H ) :   0.9681

Dispersion correction           -0.012840611
FINAL SINGLE POINT ENERGY      -212.678306200260

DIPOLE MOMENT
-------------
                                X             Y             Z
Electronic contribution:     -2.04789      -1.09775      -1.02958
Nuclear contribution   :      2.41345       0.31141       1.16343
                        -----------------------------------------
Total Dipole Moment    :      0.36556      -0.78634       0.13385
                        -----------------------------------------
Magnitude (a.u.)       :      0.87743
Magnitude (Debye)      :      2.23025

Rotational constants in cm-1:     0.287957     0.129204     0.097498
Rotational constants in MHz :  8632.737925  3873.424745  2922.919500

                             ****ORCA TERMINATED NORMALLY****
TOTAL RUN TIME: 0 days 0 hours 0 minutes 15 seconds 50 msec
