                         Program Version 5.0.0 -  RELEASE  -
|  1> !TPSS D3BJ RIJCOSX def2-TZVP def2/J TightSCF
|  2> *xyz 0 1
|  3> C          4.93020       -7.37532       -2.64962
|  4> C          3.84189       -6.95161       -3.63283
|  5> H          3.45814       -5.95442       -3.40712
|  6> H          2.98848       -7.64361       -3.56708
|  7> S          4.31812       -6.91593       -5.36869
|  8> O          5.40615       -5.89948       -5.51297
|  9> F          3.11191       -6.44508       -6.04379
| 10> O          4.76340       -8.23942       -5.69863
| 11> H          5.27901       -8.35440       -2.90385
| 12> H          4.53000       -7.38577       -1.65734
| 13> H          5.74437       -6.68276       -2.69856
| 14> *
| 15>
| 16> %MaxCore 64000
| 17>
| 18> %pal nprocs 4
| 19> end
| 20>
| 21> %scf
| 22>   MaxIter 150
| 23> end
| 24>
| 25>
| 26>                          ****END OF INPUT****

CARTESIAN COORDINATES (ANGSTROEM)
---------------------------------
  C      4.930200   -7.375320   -2.649620
  C      3.841890   -6.951610   -3.632830
  H      3.458140   -5.954420   -3.407120
  H      2.988480   -7.643610   -3.567080
  S      4.318120   -6.915930   -5.368690
  O      5.406150   -5.899480   -5.512970
  F      3.111910   -6.445080   -6.043790
  O      4.763400   -8.239420   -5.698630
  H      5.279010   -8.354400   -2.903850
  H      4.530000   -7.385770   -1.657340
  H      5.744370   -6.682760   -2.698560

 Total Charge           Charge          ....    0
 Multiplicity           Mult            ....    1
 Number of Electrons    NEL             ....   58
 Basis Dimension        Dim             ....  222

ORBITAL ENERGIES
----------------

  NO   OCC          E(Eh)            E(eV)
   0   2.0000     -88.581942     -2410.4372
   1   2.0000     -24.515298      -667.0952
   2   2.0000     -18.895749      -514.1795
   3   2.0000     -18.879494      -513.7371
   4   2.0000     -10.046673      -273.3839
   5   2.0000     -10.005011      -272.2502
   6   2.0000      -7.931184      -215.8185
   7   2.0000      -5.914423      -160.9396
   8   2.0000      -5.907688      -160.7564
   9   2.0000      -5.907425      -160.7492
  10   2.0000      -1.283793       -34.9338
  11   2.0000      -1.029928       -28.0258
  12   2.0000      -0.931045       -25.3350
  13   2.0000      -0.763893       -20.7866
  14   2.0000      -0.673894       -18.3376
  15   2.0000      -0.616057       -16.7638
  16   2.0000      -0.524043       -14.2599
  17   2.0000      -0.514297       -13.9947
  18   2.0000      -0.499796       -13.6001
  19   2.0000      -0.450947       -12.2709
  20   2.0000      -0.432468       -11.7680
  21   2.0000      -0.393995       -10.7212
  22   2.0000      -0.388121       -10.5613
  23   2.0000      -0.371668       -10.1136
  24   2.0000      -0.353154        -9.6098
  25   2.0000      -0.338572        -9.2130
  26   2.0000      -0.293875        -7.9967
  27   2.0000      -0.278459        -7.5773
  28   2.0000      -0.259705        -7.0669
  29   0.0000      -0.001313        -0.0357
  30   0.0000       0.012374         0.3367
  31   0.0000       0.042689         1.1616
  32   0.0000       0.046746         1.2720
  33   0.0000       0.056524         1.5381

MULLIKEN ATOMIC CHARGES
-----------------------
   0 C :   -0.343098
   1 C :   -0.208474
   2 H :    0.131754
   3 H :    0.126482
   4 S :    0.764755
   5 O :   -0.428206
   6 F :   -0.085525
   7 O :   -0.369746
   8 H :    0.141466
   9 H :    0.128283
  10 H :    0.142310
Sum of atomic charges:    0.0000000

LOEWDIN ATOMIC CHARGES
----------------------
   0 C :   -0.294737
   1 C :   -0.397064
   2 H :    0.134416
   3 H :    0.136567
   4 S :    0.503693
   5 O :   -0.306100
   6 F :    0.085963
   7 O :   -0.235839
   8 H :    0.124528
   9 H :    0.123604
  10 H :    0.124971

  Mayer bond orders larger than 0.100000
B(  0-C ,  1-C ) :   1.0209 B(  0-C ,  8-H ) :   0.9634 B(  0-C ,  9-H ) :   0.9516
B(  0-C , 10-H ) :   0.9635 B(  1-C ,  2-H ) :   0.9281 B(  1-C ,  3-H ) :   0.9247
B(  1-C ,  4-S ) :   0.9030 B(  4-S ,  5-O ) :   1.8869 B(  4-S ,  6-F ) :   1.1414
B(  4-S ,  7-O ) :   1.9509

Dispersion correction           -0.011510652
FINAL SINGLE POINT ENERGY      -727.905981635098

DIPOLE MOMENT
-------------
                                X             Y             Z
Electronic contribution:     -2.53304       1.70169      -9.74104
Nuclear contribution   :      1.40145      -1.67996      10.91024
                        -----------------------------------------
Total Dipole Moment    :     -1.13160       0.02172       1.16920
                        -----------------------------------------
Magnitude (a.u.)       :      1.62727
Magnitude (Debye)      :      4.13619

Rotational constants in cm-1:     0.155875     0.079864     0.077188
Rotational constants in MHz :  4673.017506  2394.277415  2314.027118

                             ****ORCA TERMINATED NORMALLY****
TOTAL RUN TIME: 0 days 0 hours 0 minutes 15 seconds 602 msec
