                         Program Version 5.0.0 -  RELEASE  -
|  1> !TPSS D3BJ RIJCOSX def2-TZVP def2/J TightSCF
|  2> *xyz 0 1
|  3> C          5.55821       -1.99291       -6.21505
|  4> C          4.18188       -2.58967       -6.29891
|  5> N          3.14587       -1.76843       -6.48675
|  6> C          4.01910       -3.86431       -6.22743
|  7> H          4.76849       -4.59115       -5.99077
|  8> H          3.12241       -4.33339       -6.31462
|  9> H          3.28164       -0.77779       -6.56655
| 10> H          2.21255       -2.13419       -6.56225
| 11> C          6.41926       -2.54294       -5.07763
| 12> H          6.03683       -2.19819       -7.17685
| 13> H          5.46761       -0.90737       -6.12797
| 14> H          6.50056       -3.60553       -5.17358
| 15> H          5.96544       -2.30329       -4.13874
| 16> H          7.39438       -2.10494       -5.12457
| 17> *
| 18>
| 19> %MaxCore 64000
| 20>
| 21> %pal nprocs 4
| 22> end
| 23>
| 24> %scf
| 25>   MaxIter 150
| 26> end
| 27>
| 28>
| 29>                          ****END OF INPUT****

CARTESIAN COORDINATES (ANGSTROEM)
---------------------------------
  C      5.558210   -1.992910   -6.215050
  C      4.181880   -2.589670   -6.298910
  N      3.145870   -1.768430   -6.486750
  C      4.019100   -3.864310   -6.227430
  H      4.768490   -4.591150   -5.990770
  H      3.122410   -4.333390   -6.314620
  H      3.281640   -0.777790   -6.566550
  H      2.212550   -2.134190   -6.562250
  C      6.419260   -2.542940   -5.077630
  H      6.036830   -2.198190   -7.176850
  H      5.467610   -0.907370   -6.127970
  H      6.500560   -3.605530   -5.173580
  H      5.965440   -2.303290   -4.138740
  H      7.394380   -2.104940   -5.124570

 Total Charge           Charge          ....    0
 Multiplicity           Mult            ....    1
 Number of Electrons    NEL             ....   40
 Basis Dimension        Dim             ....  209

ORBITAL ENERGIES
----------------

  NO   OCC          E(Eh)            E(eV)
   0   2.0000     -14.097841      -383.6218
   1   2.0000      -9.996786      -272.0264
   2   2.0000      -9.983873      -271.6750
   3   2.0000      -9.966998      -271.2158
   4   2.0000      -9.917040      -269.8564
   5   2.0000      -0.860034       -23.4027
   6   2.0000      -0.723383       -19.6843
   7   2.0000      -0.657858       -17.9012
   8   2.0000      -0.589951       -16.0534
   9   2.0000      -0.510002       -13.8778
  10   2.0000      -0.478210       -13.0128
  11   2.0000      -0.440739       -11.9931
  12   2.0000      -0.405245       -11.0273
  13   2.0000      -0.375869       -10.2279
  14   2.0000      -0.343152        -9.3377
  15   2.0000      -0.333940        -9.0870
  16   2.0000      -0.313595        -8.5333
  17   2.0000      -0.298049        -8.1103
  18   2.0000      -0.286025        -7.7831
  19   2.0000      -0.159715        -4.3461
  20   0.0000       0.019762         0.5378
  21   0.0000       0.026816         0.7297
  22   0.0000       0.055695         1.5155
  23   0.0000       0.064880         1.7655
  24   0.0000       0.086259         2.3472

MULLIKEN ATOMIC CHARGES
-----------------------
   0 C :   -0.138959
   1 C :    0.198708
   2 N :   -0.464571
   3 C :   -0.419624
   4 H :    0.101982
   5 H :    0.088353
   6 H :    0.228776
   7 H :    0.228809
   8 C :   -0.326284
   9 H :    0.103516
  10 H :    0.067428
  11 H :    0.113708
  12 H :    0.109848
  13 H :    0.108309
Sum of atomic charges:   -0.0000000

LOEWDIN ATOMIC CHARGES
----------------------
   0 C :   -0.231726
   1 C :   -0.367906
   2 N :    0.000511
   3 C :   -0.276462
   4 H :    0.117387
   5 H :    0.097285
   6 H :    0.159443
   7 H :    0.165988
   8 C :   -0.282619
   9 H :    0.145531
  10 H :    0.128926
  11 H :    0.115769
  12 H :    0.116401
  13 H :    0.111472

  Mayer bond orders larger than 0.100000
B(  0-C ,  1-C ) :   0.9870 B(  0-C ,  8-C ) :   1.0297 B(  0-C ,  9-H ) :   0.9492
B(  0-C , 10-H ) :   0.9432 B(  1-C ,  2-N ) :   1.1657 B(  1-C ,  3-C ) :   1.7994
B(  2-N ,  6-H ) :   0.9175 B(  2-N ,  7-H ) :   0.9124 B(  3-C ,  4-H ) :   0.9775
B(  3-C ,  5-H ) :   0.9661 B(  8-C , 11-H ) :   0.9721 B(  8-C , 12-H ) :   0.9703
B(  8-C , 13-H ) :   0.9638

Dispersion correction           -0.012885411
FINAL SINGLE POINT ENERGY      -212.687346416582

DIPOLE MOMENT
-------------
                                X             Y             Z
Electronic contribution:     -2.84100       0.83819      -1.29428
Nuclear contribution   :      2.61570      -0.17401       1.22349
                        -----------------------------------------
Total Dipole Moment    :     -0.22530       0.66418      -0.07079
                        -----------------------------------------
Magnitude (a.u.)       :      0.70491
Magnitude (Debye)      :      1.79175

Rotational constants in cm-1:     0.298189     0.125314     0.096441
Rotational constants in MHz :  8939.495008  3756.825352  2891.223400

                             ****ORCA TERMINATED NORMALLY****
TOTAL RUN TIME: 0 days 0 hours 0 minutes 16 seconds 333 msec
