                         Program Version 5.0.0 -  RELEASE  -
|  1> !TPSS D3BJ RIJCOSX def2-TZVP def2/J TightSCF
|  2> *xyz 0 1
|  3> C          4.93020       -7.37532       -2.64962
|  4> C          3.84189       -6.95161       -3.63283
|  5> H          3.45814       -5.95442       -3.40712
|  6> H          2.98848       -7.64361       -3.56708
|  7> S          4.31812       -6.91593       -5.36869
|  8> O          5.40615       -5.89948       -5.51297
|  9> O          3.11191       -6.44508       -6.04379
| 10> F          4.76340       -8.23942       -5.69863
| 11> H          5.27901       -8.35440       -2.90385
| 12> H          4.53000       -7.38577       -1.65734
| 13> H          5.74437       -6.68276       -2.69856
| 14> *
| 15>
| 16> %MaxCore 64000
| 17>
| 18> %pal nprocs 4
| 19> end
| 20>
| 21> %scf
| 22>   MaxIter 150
| 23> end
| 24>
| 25>
| 26>                          ****END OF INPUT****

CARTESIAN COORDINATES (ANGSTROEM)
---------------------------------
  C      4.930200   -7.375320   -2.649620
  C      3.841890   -6.951610   -3.632830
  H      3.458140   -5.954420   -3.407120
  H      2.988480   -7.643610   -3.567080
  S      4.318120   -6.915930   -5.368690
  O      5.406150   -5.899480   -5.512970
  O      3.111910   -6.445080   -6.043790
  F      4.763400   -8.239420   -5.698630
  H      5.279010   -8.354400   -2.903850
  H      4.530000   -7.385770   -1.657340
  H      5.744370   -6.682760   -2.698560

 Total Charge           Charge          ....    0
 Multiplicity           Mult            ....    1
 Number of Electrons    NEL             ....   58
 Basis Dimension        Dim             ....  222

ORBITAL ENERGIES
----------------

  NO   OCC          E(Eh)            E(eV)
   0   2.0000     -88.583583     -2410.4818
   1   2.0000     -24.528752      -667.4613
   2   2.0000     -18.887453      -513.9537
   3   2.0000     -18.880576      -513.7666
   4   2.0000     -10.046912      -273.3904
   5   2.0000     -10.006757      -272.2977
   6   2.0000      -7.932736      -215.8607
   7   2.0000      -5.916131      -160.9861
   8   2.0000      -5.909141      -160.7959
   9   2.0000      -5.908869      -160.7885
  10   2.0000      -1.305477       -35.5238
  11   2.0000      -1.018797       -27.7229
  12   2.0000      -0.924229       -25.1495
  13   2.0000      -0.766224       -20.8500
  14   2.0000      -0.676806       -18.4168
  15   2.0000      -0.626549       -17.0493
  16   2.0000      -0.541525       -14.7357
  17   2.0000      -0.528343       -14.3770
  18   2.0000      -0.497387       -13.5346
  19   2.0000      -0.450516       -12.2592
  20   2.0000      -0.430011       -11.7012
  21   2.0000      -0.403411       -10.9774
  22   2.0000      -0.385833       -10.4991
  23   2.0000      -0.369369       -10.0510
  24   2.0000      -0.358873        -9.7654
  25   2.0000      -0.329397        -8.9633
  26   2.0000      -0.285407        -7.7663
  27   2.0000      -0.277481        -7.5506
  28   2.0000      -0.254212        -6.9175
  29   0.0000      -0.010039        -0.2732
  30   0.0000       0.018690         0.5086
  31   0.0000       0.036071         0.9816
  32   0.0000       0.045151         1.2286
  33   0.0000       0.057211         1.5568

MULLIKEN ATOMIC CHARGES
-----------------------
   0 C :   -0.341401
   1 C :   -0.219027
   2 H :    0.156726
   3 H :    0.131310
   4 S :    0.761488
   5 O :   -0.423482
   6 O :   -0.386997
   7 F :   -0.069525
   8 H :    0.117807
   9 H :    0.128017
  10 H :    0.145084
Sum of atomic charges:   -0.0000000

LOEWDIN ATOMIC CHARGES
----------------------
   0 C :   -0.309273
   1 C :   -0.392348
   2 H :    0.148767
   3 H :    0.137957
   4 S :    0.499887
   5 O :   -0.302537
   6 O :   -0.261832
   7 F :    0.116619
   8 H :    0.116371
   9 H :    0.122636
  10 H :    0.123753

  Mayer bond orders larger than 0.100000
B(  0-C ,  1-C ) :   1.0041 B(  0-C ,  8-H ) :   0.9659 B(  0-C ,  9-H ) :   0.9539
B(  0-C , 10-H ) :   0.9617 B(  1-C ,  2-H ) :   0.9337 B(  1-C ,  3-H ) :   0.9315
B(  1-C ,  4-S ) :   0.8973 B(  4-S ,  5-O ) :   1.8841 B(  4-S ,  6-O ) :   1.9438
B(  4-S ,  7-F ) :   1.1546

Dispersion correction           -0.011453405
FINAL SINGLE POINT ENERGY      -727.894861229022

DIPOLE MOMENT
-------------
                                X             Y             Z
Electronic contribution:      0.21358      -1.27167      -9.16613
Nuclear contribution   :     -0.31946       0.18980      10.55057
                        -----------------------------------------
Total Dipole Moment    :     -0.10587      -1.08188       1.38444
                        -----------------------------------------
Magnitude (a.u.)       :      1.76021
Magnitude (Debye)      :      4.47410

Rotational constants in cm-1:     0.151421     0.081183     0.078684
Rotational constants in MHz :  4539.489207  2433.790160  2358.892966

                             ****ORCA TERMINATED NORMALLY****
TOTAL RUN TIME: 0 days 0 hours 0 minutes 14 seconds 650 msec
