                         Program Version 5.0.0 -  RELEASE  -
|  1> !TPSS D3BJ RIJCOSX def2-TZVP def2/J TightSCF xyzfile
|  2>
|  3> *xyzfile 0 1 D5.xyz
|  4>
|  5> %MaxCore 64000
|  6>
|  7> %pal nprocs 18
|  8> end
|  9>
| 10> %scf
| 11>   MaxIter 150
| 12> end
| 13>
| 14>
| 15>                          ****END OF INPUT****

CARTESIAN COORDINATES (ANGSTROEM)
---------------------------------
  C      5.558206   -1.992914   -6.215054
  C      4.930199   -7.375319   -2.649623
  C      3.841892   -6.951611   -3.632829
  H      3.458144   -5.954425   -3.407121
  H      2.988484   -7.643606   -3.567078
  S      4.318115   -6.915930   -5.368692
  C      4.181880   -2.589671   -6.298911
  C      3.145873   -1.768431   -6.486753
  N      4.019102   -3.864307   -6.227427
  H      4.768490   -4.591153   -5.990773
  H      3.122405   -4.333392   -6.314620
  H      3.281635   -0.777786   -6.566549
  H      2.212549   -2.134193   -6.562246
  O      5.406154   -5.899480   -5.512972
  O      3.111910   -6.445079   -6.043792
  C      6.419260   -2.542944   -5.077630
  C      5.872267   -5.002756   -2.427819
  C      6.173994   -6.485522   -2.606315
  H      6.734852   -6.613767   -3.534015
  H      6.821463   -6.831018   -1.793617
  H      4.469612   -7.406168   -1.655876
  H      5.230134   -8.398678   -2.885906
  C      5.896512   -2.169314   -3.694552
  H      7.428880   -2.143665   -5.208078
  H      6.505894   -3.627541   -5.175502
  C      6.807804   -2.623428   -2.551019
  H      4.894708   -2.589732   -3.557501
  H      5.778823   -1.081255   -3.635790
  C      7.111544   -4.122463   -2.520363
  H      7.751615   -2.071393   -2.614406
  H      6.345837   -2.326401   -1.604086
  H      5.362882   -4.828697   -1.471335
  H      5.174429   -4.702577   -3.211298
  H      7.778329   -4.329347   -1.677651
  H      7.673189   -4.402845   -3.417586
  F      4.763396   -8.239424   -5.698629
  H      6.036826   -2.198189   -7.176852
  H      5.467610   -0.907371   -6.127968

 Total Charge           Charge          ....    0
 Multiplicity           Mult            ....    1
 Number of Electrons    NEL             ....  136
 Basis Dimension        Dim             ....  634

ORBITAL ENERGIES
----------------

  NO   OCC          E(Eh)            E(eV)
   0   2.0000     -88.612853     -2411.2783
   1   2.0000     -24.552751      -668.1143
   2   2.0000     -18.915635      -514.7206
   3   2.0000     -18.915307      -514.7117
   4   2.0000     -14.056250      -382.4900
   5   2.0000     -10.060915      -273.7714
   6   2.0000     -10.024064      -272.7686
   7   2.0000      -9.996516      -272.0190
   8   2.0000      -9.984726      -271.6982
   9   2.0000      -9.978075      -271.5172
  10   2.0000      -9.972791      -271.3734
  11   2.0000      -9.969793      -271.2919
  12   2.0000      -9.965222      -271.1675
  13   2.0000      -9.964734      -271.1542
  14   2.0000      -9.961153      -271.0568
  15   2.0000      -9.884080      -268.9595
  16   2.0000      -7.962263      -216.6642
  17   2.0000      -5.945497      -161.7852
  18   2.0000      -5.939168      -161.6130
  19   2.0000      -5.938011      -161.5815
  20   2.0000      -1.329214       -36.1697
  21   2.0000      -1.053597       -28.6698
  22   2.0000      -0.962233       -26.1837
  23   2.0000      -0.832563       -22.6552
  24   2.0000      -0.793776       -21.5997
  25   2.0000      -0.752378       -20.4733
  26   2.0000      -0.727151       -19.7868
  27   2.0000      -0.699315       -19.0293
  28   2.0000      -0.681362       -18.5408
  29   2.0000      -0.652488       -17.7551
  30   2.0000      -0.631280       -17.1780
  31   2.0000      -0.599581       -16.3154
  32   2.0000      -0.572216       -15.5708
  33   2.0000      -0.556606       -15.1460
  34   2.0000      -0.553639       -15.0653
  35   2.0000      -0.542397       -14.7594
  36   2.0000      -0.522399       -14.2152
  37   2.0000      -0.508159       -13.8277
  38   2.0000      -0.498494       -13.5647
  39   2.0000      -0.465342       -12.6626
  40   2.0000      -0.460933       -12.5426
  41   2.0000      -0.457471       -12.4484
  42   2.0000      -0.435157       -11.8412
  43   2.0000      -0.419338       -11.4108
  44   2.0000      -0.417948       -11.3729
  45   2.0000      -0.408136       -11.1060
  46   2.0000      -0.396978       -10.8023
  47   2.0000      -0.390483       -10.6256
  48   2.0000      -0.379402       -10.3241
  49   2.0000      -0.377134       -10.2623
  50   2.0000      -0.362945        -9.8762
  51   2.0000      -0.357930        -9.7398
  52   2.0000      -0.352812        -9.6005
  53   2.0000      -0.336708        -9.1623
  54   2.0000      -0.325957        -8.8697
  55   2.0000      -0.321297        -8.7429
  56   2.0000      -0.318314        -8.6618
  57   2.0000      -0.310192        -8.4408
  58   2.0000      -0.306676        -8.3451
  59   2.0000      -0.300864        -8.1869
  60   2.0000      -0.292912        -7.9705
  61   2.0000      -0.287508        -7.8235
  62   2.0000      -0.284402        -7.7390
  63   2.0000      -0.276223        -7.5164
  64   2.0000      -0.272061        -7.4031
  65   2.0000      -0.258906        -7.0452
  66   2.0000      -0.255086        -6.9413
  67   2.0000      -0.124405        -3.3852
  68   0.0000      -0.032655        -0.8886
  69   0.0000      -0.003979        -0.1083
  70   0.0000       0.008254         0.2246
  71   0.0000       0.018957         0.5158
  72   0.0000       0.029477         0.8021

MULLIKEN ATOMIC CHARGES
-----------------------
   0 C :   -0.074279
   1 C :   -0.138733
   2 C :   -0.288334
   3 H :    0.184306
   4 H :    0.151578
   5 S :    0.808229
   6 C :    0.123678
   7 C :   -0.447469
   8 N :   -0.452592
   9 H :    0.272338
  10 H :    0.231451
  11 H :    0.092368
  12 H :    0.077662
  13 O :   -0.432004
  14 O :   -0.397838
  15 C :   -0.261552
  16 C :   -0.244234
  17 C :   -0.179294
  18 H :    0.114288
  19 H :    0.093634
  20 H :    0.105102
  21 H :    0.111115
  22 C :   -0.208006
  23 H :    0.075151
  24 H :    0.125845
  25 C :   -0.075712
  26 H :    0.116567
  27 H :    0.079233
  28 C :   -0.175773
  29 H :    0.079878
  30 H :    0.072686
  31 H :    0.080172
  32 H :    0.096605
  33 H :    0.079671
  34 H :    0.102403
  35 F :   -0.061882
  36 H :    0.083296
  37 H :    0.080447
Sum of atomic charges:   -0.0000000

LOEWDIN ATOMIC CHARGES
----------------------
   0 C :   -0.207186
   1 C :   -0.281130
   2 C :   -0.363252
   3 H :    0.153347
   4 H :    0.144677
   5 S :    0.536350
   6 C :   -0.387608
   7 C :   -0.300412
   8 N :    0.001592
   9 H :    0.149468
  10 H :    0.164505
  11 H :    0.092844
  12 H :    0.087892
  13 O :   -0.262882
  14 O :   -0.245658
  15 C :   -0.262819
  16 C :   -0.265338
  17 C :   -0.269277
  18 H :    0.135761
  19 H :    0.136449
  20 H :    0.146306
  21 H :    0.136348
  22 C :   -0.261051
  23 H :    0.132146
  24 H :    0.132220
  25 C :   -0.262370
  26 H :    0.136258
  27 H :    0.135142
  28 C :   -0.262636
  29 H :    0.133061
  30 H :    0.131370
  31 H :    0.132018
  32 H :    0.132347
  33 H :    0.131309
  34 H :    0.136340
  35 F :    0.128791
  36 H :    0.140636
  37 H :    0.144443

  Mayer bond orders larger than 0.100000
B(  0-C ,  6-C ) :   1.0240 B(  0-C , 15-C ) :   0.9935 B(  0-C , 36-H ) :   0.9285
B(  0-C , 37-H ) :   0.9474 B(  1-C ,  2-C ) :   0.9886 B(  1-C , 17-C ) :   1.0126
B(  1-C , 20-H ) :   0.9283 B(  1-C , 21-H ) :   0.9516 B(  2-C ,  3-H ) :   0.9256
B(  2-C ,  4-H ) :   0.9271 B(  2-C ,  5-S ) :   0.9147 B(  5-S , 13-O ) :   1.7394
B(  5-S , 14-O ) :   1.8909 B(  5-S , 35-F ) :   1.1790 B(  6-C ,  7-C ) :   1.7311
B(  6-C ,  8-N ) :   1.2766 B(  7-C , 11-H ) :   0.9783 B(  7-C , 12-H ) :   0.9729
B(  8-N ,  9-H ) :   0.8201 B(  8-N , 10-H ) :   0.8955 B(  9-H , 13-O ) :   0.1050
B( 15-C , 22-C ) :   1.0169 B( 15-C , 23-H ) :   0.9341 B( 15-C , 24-H ) :   0.9677
B( 16-C , 17-C ) :   1.0017 B( 16-C , 28-C ) :   1.0458 B( 16-C , 31-H ) :   0.9434
B( 16-C , 32-H ) :   0.9447 B( 17-C , 18-H ) :   0.9518 B( 17-C , 19-H ) :   0.9446
B( 22-C , 25-C ) :   1.0127 B( 22-C , 26-H ) :   0.9667 B( 22-C , 27-H ) :   0.9383
B( 25-C , 28-C ) :   1.0121 B( 25-C , 29-H ) :   0.9442 B( 25-C , 30-H ) :   0.9462
B( 28-C , 33-H ) :   0.9396 B( 28-C , 34-H ) :   0.9555

Dispersion correction           -0.057838484
FINAL SINGLE POINT ENERGY     -1136.052873385878

DIPOLE MOMENT
-------------
                                X             Y             Z
Electronic contribution:     -8.11316     -23.35058     -13.70162
Nuclear contribution   :      8.54118      20.92489      15.31138
                        -----------------------------------------
Total Dipole Moment    :      0.42802      -2.42569       1.60976
                        -----------------------------------------
Magnitude (a.u.)       :      2.94253
Magnitude (Debye)      :      7.47933

Rotational constants in cm-1:     0.018156     0.012306     0.008278
Rotational constants in MHz :   544.309022   368.914527   248.178402

                             ****ORCA TERMINATED NORMALLY****
TOTAL RUN TIME: 0 days 0 hours 0 minutes 31 seconds 429 msec
