                         Program Version 5.0.0 -  RELEASE  -
|  1> !CAM-B3LYP RIJCOSX def2-TZVPD def2/J TightSCF
|  2> *xyz -1 1
|  3> C         -0.87096        0.24804       -2.66280
|  4> C         -0.47749        0.60819       -4.10105
|  5> H          0.20677        1.45830       -4.11875
|  6> H         -1.36844        0.92942       -4.64785
|  7> C          0.18467       -0.50664       -4.91676
|  8> O         -0.15869       -1.70109       -4.65798
|  9> O          1.05594       -0.17441       -5.74037
| 10> H         -1.54056       -0.58646       -2.67455
| 11> H         -1.35339        1.08600       -2.20455
| 12> H          0.00660       -0.00662       -2.10609
| 13> *
| 14>
| 15> %MaxCore 64000
| 16>
| 17> %pal nprocs 4
| 18> end
| 19>
| 20> %scf
| 21>   MaxIter 150
| 22> end
| 23>
| 24>
| 25>                          ****END OF INPUT****

CARTESIAN COORDINATES (ANGSTROEM)
---------------------------------
  C     -0.870960    0.248040   -2.662800
  C     -0.477490    0.608190   -4.101050
  H      0.206770    1.458300   -4.118750
  H     -1.368440    0.929420   -4.647850
  C      0.184670   -0.506640   -4.916760
  O     -0.158690   -1.701090   -4.657980
  O      1.055940   -0.174410   -5.740370
  H     -1.540560   -0.586460   -2.674550
  H     -1.353390    1.086000   -2.204550
  H      0.006600   -0.006620   -2.106090

 Total Charge           Charge          ....   -1
 Multiplicity           Mult            ....    1
 Number of Electrons    NEL             ....   40
 Basis Dimension        Dim             ....  236

ORBITAL ENERGIES
----------------

  NO   OCC          E(Eh)            E(eV)
   0   2.0000     -18.936208      -515.2804
   1   2.0000     -18.932349      -515.1754
   2   2.0000     -10.130560      -275.6665
   3   2.0000     -10.077968      -274.2354
   4   2.0000     -10.070957      -274.0447
   5   2.0000      -0.903708       -24.5911
   6   2.0000      -0.807998       -21.9867
   7   2.0000      -0.687001       -18.6942
   8   2.0000      -0.555075       -15.1044
   9   2.0000      -0.391326       -10.6485
  10   2.0000      -0.365004        -9.9323
  11   2.0000      -0.332088        -9.0366
  12   2.0000      -0.299210        -8.1419
  13   2.0000      -0.284167        -7.7326
  14   2.0000      -0.276994        -7.5374
  15   2.0000      -0.246590        -6.7100
  16   2.0000      -0.227666        -6.1951
  17   2.0000      -0.112891        -3.0719
  18   2.0000      -0.108775        -2.9599
  19   2.0000      -0.096071        -2.6142
  20   0.0000       0.157338         4.2814
  21   0.0000       0.180610         4.9146
  22   0.0000       0.192508         5.2384
  23   0.0000       0.207881         5.6567
  24   0.0000       0.224440         6.1073

MULLIKEN ATOMIC CHARGES
-----------------------
   0 C :   -0.984800
   1 C :   -0.151471
   2 H :    0.225401
   3 H :    0.189080
   4 C :    0.322271
   5 O :   -0.724977
   6 O :   -0.704877
   7 H :    0.249648
   8 H :    0.311670
   9 H :    0.268056
Sum of atomic charges:   -1.0000000

LOEWDIN ATOMIC CHARGES
----------------------
   0 C :   -0.135581
   1 C :   -0.210177
   2 H :    0.088436
   3 H :    0.095495
   4 C :   -0.773734
   5 O :   -0.118506
   6 O :   -0.100147
   7 H :    0.053257
   8 H :    0.042037
   9 H :    0.058920

  Mayer bond orders larger than 0.100000
B(  0-C ,  1-C ) :   0.5561 B(  0-C ,  7-H ) :   1.0257 B(  0-C ,  8-H ) :   0.9424
B(  0-C ,  9-H ) :   0.9795 B(  1-C ,  2-H ) :   1.0080 B(  1-C ,  3-H ) :   0.9632
B(  1-C ,  4-C ) :   0.9404 B(  4-C ,  5-O ) :   1.4769 B(  4-C ,  6-O ) :   1.5000

FINAL SINGLE POINT ENERGY      -267.836798693545

DIPOLE MOMENT
-------------
                                X             Y             Z
Electronic contribution:      2.60719      -2.88033      -4.52854
Nuclear contribution   :     -3.54611       4.15440       5.90446
                        -----------------------------------------
Total Dipole Moment    :     -0.93892       1.27407       1.37592
                        -----------------------------------------
Magnitude (a.u.)       :      2.09714
Magnitude (Debye)      :      5.33050

Rotational constants in cm-1:     0.332789     0.132085     0.101080
Rotational constants in MHz :  9976.755824  3959.803182  3030.288811

                             ****ORCA TERMINATED NORMALLY****
TOTAL RUN TIME: 0 days 0 hours 0 minutes 42 seconds 290 msec
