                         Program Version 5.0.0 -  RELEASE  -
|  1> !CAM-B3LYP RIJCOSX def2-TZVPD def2/J TightSCF
|  2> *xyz 1 1
|  3> C          2.48645       -2.67712       -2.56345
|  4> C          3.03764       -2.36672       -3.92351
|  5> N          2.28036       -2.45441       -4.96769
|  6> N          4.32174       -2.01793       -4.01664
|  7> H          4.87994       -1.91167       -3.17382
|  8> H          4.71015       -1.67088       -4.88356
|  9> H          1.27042       -2.41265       -4.86614
| 10> H          2.58183       -2.05528       -5.84688
| 11> C          2.49799       -1.46946       -1.61030
| 12> H          1.47259       -3.05153       -2.69437
| 13> H          3.08320       -3.49064       -2.14147
| 14> H          1.91240       -0.67831       -2.02991
| 15> H          3.50450       -1.13364       -1.47227
| 16> H          2.08509       -1.75655       -0.66585
| 17> *
| 18>
| 19> %MaxCore 64000
| 20>
| 21> %pal nprocs 4
| 22> end
| 23>
| 24> %scf
| 25>   MaxIter 150
| 26> end
| 27>
| 28>
| 29>                          ****END OF INPUT****

CARTESIAN COORDINATES (ANGSTROEM)
---------------------------------
  C      2.486450   -2.677120   -2.563450
  C      3.037640   -2.366720   -3.923510
  N      2.280360   -2.454410   -4.967690
  N      4.321740   -2.017930   -4.016640
  H      4.879940   -1.911670   -3.173820
  H      4.710150   -1.670880   -4.883560
  H      1.270420   -2.412650   -4.866140
  H      2.581830   -2.055280   -5.846880
  C      2.497990   -1.469460   -1.610300
  H      1.472590   -3.051530   -2.694370
  H      3.083200   -3.490640   -2.141470
  H      1.912400   -0.678310   -2.029910
  H      3.504500   -1.133640   -1.472270
  H      2.085090   -1.756550   -0.665850

 Total Charge           Charge          ....    1
 Multiplicity           Mult            ....    1
 Number of Electrons    NEL             ....   40
 Basis Dimension        Dim             ....  266

ORBITAL ENERGIES
----------------

  NO   OCC          E(Eh)            E(eV)
   0   2.0000     -14.638948      -398.3460
   1   2.0000     -14.633299      -398.1923
   2   2.0000     -10.572617      -287.6955
   3   2.0000     -10.443042      -284.1696
   4   2.0000     -10.400158      -283.0027
   5   2.0000      -1.292865       -35.1807
   6   2.0000      -1.193856       -32.4865
   7   2.0000      -1.052760       -28.6470
   8   2.0000      -0.944499       -25.7011
   9   2.0000      -0.892460       -24.2851
  10   2.0000      -0.847732       -23.0680
  11   2.0000      -0.823864       -22.4185
  12   2.0000      -0.771225       -20.9861
  13   2.0000      -0.724376       -19.7113
  14   2.0000      -0.693524       -18.8717
  15   2.0000      -0.678829       -18.4719
  16   2.0000      -0.615594       -16.7512
  17   2.0000      -0.605594       -16.4790
  18   2.0000      -0.595476       -16.2037
  19   2.0000      -0.561085       -15.2679
  20   0.0000      -0.168576        -4.5872
  21   0.0000      -0.136422        -3.7122
  22   0.0000      -0.096912        -2.6371
  23   0.0000      -0.091736        -2.4963
  24   0.0000      -0.068521        -1.8645

MULLIKEN ATOMIC CHARGES
-----------------------
   0 C :   -0.448226
   1 C :    0.572422
   2 N :   -0.279310
   3 N :   -0.312177
   4 H :    0.235123
   5 H :    0.210953
   6 H :    0.262972
   7 H :    0.231853
   8 C :   -1.110199
   9 H :    0.303392
  10 H :    0.307181
  11 H :    0.344547
  12 H :    0.347793
  13 H :    0.333676
Sum of atomic charges:    1.0000000

LOEWDIN ATOMIC CHARGES
----------------------
   0 C :   -0.146035
   1 C :   -0.357948
   2 N :    0.232694
   3 N :    0.226903
   4 H :    0.145207
   5 H :    0.144088
   6 H :    0.155548
   7 H :    0.149257
   8 C :   -0.055286
   9 H :    0.124252
  10 H :    0.139171
  11 H :    0.084289
  12 H :    0.070430
  13 H :    0.087430

  Mayer bond orders larger than 0.100000
B(  0-C ,  1-C ) :   0.7508 B(  0-C ,  8-C ) :   0.5935 B(  0-C ,  9-H ) :   0.9587
B(  0-C , 10-H ) :   0.9591 B(  1-C ,  2-N ) :   1.3090 B(  1-C ,  3-N ) :   1.1872
B(  2-N ,  6-H ) :   0.9185 B(  2-N ,  7-H ) :   0.9646 B(  3-N ,  4-H ) :   0.9468
B(  3-N ,  5-H ) :   0.9960 B(  8-C , 11-H ) :   0.9598 B(  8-C , 12-H ) :   0.9005
B(  8-C , 13-H ) :   0.9830

FINAL SINGLE POINT ENERGY      -228.995292441347

DIPOLE MOMENT
-------------
                                X             Y             Z
Electronic contribution:      1.04986      -1.07455      -3.90192
Nuclear contribution   :     -0.84604       1.34287       2.92710
                        -----------------------------------------
Total Dipole Moment    :      0.20382       0.26832      -0.97482
                        -----------------------------------------
Magnitude (a.u.)       :      1.03142
Magnitude (Debye)      :      2.62165

Rotational constants in cm-1:     0.265816     0.126189     0.097583
Rotational constants in MHz :  7968.948902  3783.040103  2925.457702

                             ****ORCA TERMINATED NORMALLY****
TOTAL RUN TIME: 0 days 0 hours 1 minutes 1 seconds 862 msec
