                         Program Version 5.0.0 -  RELEASE  -
|  1> !CAM-B3LYP RIJCOSX def2-TZVPD def2/J TightSCF xyzfile
|  2>
|  3> *xyzfile 0 1 B.xyz
|  4>
|  5> %MaxCore 64000
|  6>
|  7> %pal nprocs 4
|  8> end
|  9>
| 10> %scf
| 11>   MaxIter 150
| 12> end
| 13>
| 14>
| 15>                          ****END OF INPUT****

CARTESIAN COORDINATES (ANGSTROEM)
---------------------------------
  C      2.486452   -2.677121   -2.563447
  C     -0.870963    0.248043   -2.662804
  C     -0.477492    0.608191   -4.101052
  H      0.206773    1.458299   -4.118748
  H     -1.368442    0.929419   -4.647855
  C      0.184673   -0.506640   -4.916760
  C      3.037640   -2.366715   -3.923509
  N      2.280360   -2.454408   -4.967692
  N      4.321736   -2.017932   -4.016641
  H      4.879940   -1.911668   -3.173823
  H      4.710148   -1.670882   -4.883561
  H      1.270423   -2.412650   -4.866143
  H      2.581829   -2.055282   -5.846878
  O     -0.158685   -1.701088   -4.657981
  O      1.055938   -0.174410   -5.740373
  C      2.497991   -1.469464   -1.610303
  C      1.582841   -0.321986   -2.042619
  H      2.193083   -1.833912   -0.625420
  H      3.523356   -1.103982   -1.490392
  C      0.100160   -0.673551   -1.915815
  H      1.822311   -0.040361   -3.072834
  H      1.813180    0.557019   -1.433266
  H     -0.063284   -1.679120   -2.301112
  H     -0.168820   -0.691680   -0.853831
  H     -1.001048    1.181040   -2.104071
  H     -1.844645   -0.246592   -2.663281
  H      1.472592   -3.051527   -2.694366
  H      3.083201   -3.490638   -2.141472

 Total Charge           Charge          ....    0
 Multiplicity           Mult            ....    1
 Number of Electrons    NEL             ....   94
 Basis Dimension        Dim             ....  594

ORBITAL ENERGIES
----------------

  NO   OCC          E(Eh)            E(eV)
   0   2.0000     -19.109881      -520.0063
   1   2.0000     -19.103652      -519.8368
   2   2.0000     -14.472661      -393.8211
   3   2.0000     -14.435782      -392.8176
   4   2.0000     -10.397609      -282.9333
   5   2.0000     -10.297293      -280.2036
   6   2.0000     -10.289367      -279.9879
   7   2.0000     -10.270846      -279.4839
   8   2.0000     -10.240166      -278.6491
   9   2.0000     -10.221728      -278.1473
  10   2.0000     -10.217337      -278.0279
  11   2.0000     -10.205867      -277.7158
  12   2.0000      -1.117906       -30.4198
  13   2.0000      -1.082268       -29.4500
  14   2.0000      -1.016927       -27.6720
  15   2.0000      -0.985740       -26.8233
  16   2.0000      -0.916071       -24.9276
  17   2.0000      -0.861486       -23.4422
  18   2.0000      -0.815770       -22.1982
  19   2.0000      -0.758721       -20.6458
  20   2.0000      -0.738146       -20.0860
  21   2.0000      -0.693984       -18.8843
  22   2.0000      -0.680791       -18.5253
  23   2.0000      -0.654182       -17.8012
  24   2.0000      -0.632511       -17.2115
  25   2.0000      -0.596125       -16.2214
  26   2.0000      -0.572573       -15.5805
  27   2.0000      -0.551626       -15.0105
  28   2.0000      -0.530309       -14.4304
  29   2.0000      -0.523913       -14.2564
  30   2.0000      -0.516803       -14.0629
  31   2.0000      -0.493070       -13.4171
  32   2.0000      -0.481624       -13.1057
  33   2.0000      -0.477772       -13.0008
  34   2.0000      -0.461256       -12.5514
  35   2.0000      -0.448994       -12.2178
  36   2.0000      -0.437523       -11.9056
  37   2.0000      -0.424094       -11.5402
  38   2.0000      -0.418247       -11.3811
  39   2.0000      -0.401595       -10.9280
  40   2.0000      -0.387678       -10.5492
  41   2.0000      -0.379212       -10.3189
  42   2.0000      -0.370239       -10.0747
  43   2.0000      -0.360895        -9.8204
  44   2.0000      -0.290956        -7.9173
  45   2.0000      -0.279216        -7.5979
  46   2.0000      -0.268844        -7.3156
  47   0.0000      -0.005721        -0.1557
  48   0.0000       0.002440         0.0664
  49   0.0000       0.031672         0.8618
  50   0.0000       0.042180         1.1478
  51   0.0000       0.048545         1.3210

MULLIKEN ATOMIC CHARGES
-----------------------
   0 C :   -0.590550
   1 C :   -0.593016
   2 C :   -0.540072
   3 H :    0.265386
   4 H :    0.299555
   5 C :    0.601519
   6 C :    0.373913
   7 N :   -0.233933
   8 N :   -0.359293
   9 H :    0.203477
  10 H :    0.198227
  11 H :    0.284651
  12 H :    0.211127
  13 O :   -0.827531
  14 O :   -0.746390
  15 C :   -0.524495
  16 C :   -0.483218
  17 H :    0.304688
  18 H :    0.295076
  19 C :   -0.533914
  20 H :    0.284327
  21 H :    0.291109
  22 H :    0.263762
  23 H :    0.350846
  24 H :    0.282335
  25 H :    0.299768
  26 H :    0.305747
  27 H :    0.316899
Sum of atomic charges:   -0.0000000

LOEWDIN ATOMIC CHARGES
----------------------
   0 C :   -0.104516
   1 C :   -0.197841
   2 C :   -0.130359
   3 H :    0.107985
   4 H :    0.116930
   5 C :   -0.695100
   6 C :   -0.362927
   7 N :    0.234846
   8 N :    0.192460
   9 H :    0.125375
  10 H :    0.130951
  11 H :    0.049129
  12 H :    0.134279
  13 O :   -0.074223
  14 O :   -0.043864
  15 C :   -0.188637
  16 C :   -0.194034
  17 H :    0.118041
  18 H :    0.102076
  19 C :   -0.214330
  20 H :    0.106729
  21 H :    0.119301
  22 H :    0.090096
  23 H :    0.113505
  24 H :    0.105874
  25 H :    0.109310
  26 H :    0.120113
  27 H :    0.128830

  Mayer bond orders larger than 0.100000
B(  0-C ,  6-C ) :   0.7259 B(  0-C , 15-C ) :   0.7389 B(  0-C , 26-H ) :   0.9633
B(  0-C , 27-H ) :   0.9643 B(  1-C ,  2-C ) :   0.7086 B(  1-C , 19-C ) :   0.9560
B(  1-C , 24-H ) :   0.9863 B(  1-C , 25-H ) :   0.9484 B(  2-C ,  3-H ) :   1.0568
B(  2-C ,  4-H ) :   0.9152 B(  2-C ,  5-C ) :   0.8725 B(  5-C , 13-O ) :   1.1966
B(  5-C , 14-O ) :   1.3605 B(  6-C ,  7-N ) :   1.4804 B(  6-C ,  8-N ) :   1.0245
B(  7-N , 11-H ) :   0.6961 B(  7-N , 12-H ) :   0.9366 B(  7-N , 13-O ) :  -0.1072
B(  8-N ,  9-H ) :   0.9887 B(  8-N , 10-H ) :   0.9714 B( 11-H , 13-O ) :   0.2401
B( 15-C , 16-C ) :   0.8810 B( 15-C , 17-H ) :   0.9537 B( 15-C , 18-H ) :   0.8964
B( 15-C , 19-C ) :   0.1606 B( 16-C , 19-C ) :   0.4189 B( 16-C , 20-H ) :   0.9240
B( 16-C , 21-H ) :   0.9766 B( 16-C , 22-H ) :  -0.1006 B( 19-C , 22-H ) :   0.9984
B( 19-C , 23-H ) :   0.8947

FINAL SINGLE POINT ENERGY      -574.406327706167

DIPOLE MOMENT
-------------
                                X             Y             Z
Electronic contribution:      1.71844      -2.91659      -8.76969
Nuclear contribution   :      1.39386       1.90489      10.36520
                        -----------------------------------------
Total Dipole Moment    :      3.11230      -1.01170       1.59551
                        -----------------------------------------
Magnitude (a.u.)       :      3.64082
Magnitude (Debye)      :      9.25424

Rotational constants in cm-1:     0.041165     0.025922     0.019001
Rotational constants in MHz :  1234.086888   777.109255   569.639629

                             ****ORCA TERMINATED NORMALLY****
TOTAL RUN TIME: 0 days 0 hours 7 minutes 33 seconds 808 msec
