                         Program Version 5.0.0 -  RELEASE  -
|  1> !CAM-B3LYP RIJCOSX def2-TZVPD def2/J TightSCF
|  2> *xyz 0 1
|  3> C         -0.87096        0.24804       -2.66280
|  4> C         -0.47749        0.60819       -4.10105
|  5> H          0.20677        1.45830       -4.11875
|  6> H         -1.36844        0.92942       -4.64785
|  7> C          0.18467       -0.50664       -4.91676
|  8> F         -0.15869       -1.70109       -4.65798
|  9> O          1.05594       -0.17441       -5.74037
| 10> H         -1.54056       -0.58646       -2.67455
| 11> H         -1.35339        1.08600       -2.20455
| 12> H          0.00660       -0.00662       -2.10609
| 13> *
| 14>
| 15> %MaxCore 64000
| 16>
| 17> %pal nprocs 4
| 18> end
| 19>
| 20> %scf
| 21>   MaxIter 150
| 22> end
| 23>
| 24>
| 25>                          ****END OF INPUT****

CARTESIAN COORDINATES (ANGSTROEM)
---------------------------------
  C     -0.870960    0.248040   -2.662800
  C     -0.477490    0.608190   -4.101050
  H      0.206770    1.458300   -4.118750
  H     -1.368440    0.929420   -4.647850
  C      0.184670   -0.506640   -4.916760
  F     -0.158690   -1.701090   -4.657980
  O      1.055940   -0.174410   -5.740370
  H     -1.540560   -0.586460   -2.674550
  H     -1.353390    1.086000   -2.204550
  H      0.006600   -0.006620   -2.106090

 Total Charge           Charge          ....    0
 Multiplicity           Mult            ....    1
 Number of Electrons    NEL             ....   40
 Basis Dimension        Dim             ....  236

ORBITAL ENERGIES
----------------

  NO   OCC          E(Eh)            E(eV)
   0   2.0000     -24.824969      -675.5218
   1   2.0000     -19.209180      -522.7084
   2   2.0000     -10.427821      -283.7554
   3   2.0000     -10.278011      -279.6789
   4   2.0000     -10.251329      -278.9528
   5   2.0000      -1.394809       -37.9547
   6   2.0000      -1.124461       -30.5981
   7   2.0000      -0.887256       -24.1435
   8   2.0000      -0.765992       -20.8437
   9   2.0000      -0.720575       -19.6078
  10   2.0000      -0.623395       -16.9634
  11   2.0000      -0.616265       -16.7694
  12   2.0000      -0.571660       -15.5557
  13   2.0000      -0.539728       -14.6868
  14   2.0000      -0.505151       -13.7458
  15   2.0000      -0.473156       -12.8752
  16   2.0000      -0.457756       -12.4562
  17   2.0000      -0.447423       -12.1750
  18   2.0000      -0.417738       -11.3672
  19   2.0000      -0.363397        -9.8885
  20   0.0000       0.017283         0.4703
  21   0.0000       0.026919         0.7325
  22   0.0000       0.052081         1.4172
  23   0.0000       0.059255         1.6124
  24   0.0000       0.073365         1.9964

MULLIKEN ATOMIC CHARGES
-----------------------
   0 C :   -1.086689
   1 C :   -0.171389
   2 H :    0.260886
   3 H :    0.271805
   4 C :    0.458597
   5 F :   -0.212498
   6 O :   -0.475036
   7 H :    0.308897
   8 H :    0.315775
   9 H :    0.329652
Sum of atomic charges:   -0.0000000

LOEWDIN ATOMIC CHARGES
----------------------
   0 C :   -0.094876
   1 C :   -0.152231
   2 H :    0.118506
   3 H :    0.122170
   4 C :   -0.483781
   5 F :    0.193224
   6 O :    0.086688
   7 H :    0.067788
   8 H :    0.069135
   9 H :    0.073377

  Mayer bond orders larger than 0.100000
B(  0-C ,  1-C ) :   0.5644 B(  0-C ,  7-H ) :   0.9692 B(  0-C ,  8-H ) :   0.9676
B(  0-C ,  9-H ) :   0.9499 B(  1-C ,  2-H ) :   0.9758 B(  1-C ,  3-H ) :   0.9272
B(  1-C ,  4-C ) :   0.9224 B(  4-C ,  5-F ) :   1.0242 B(  4-C ,  6-O ) :   1.7824

FINAL SINGLE POINT ENERGY      -292.407102634944

DIPOLE MOMENT
-------------
                                X             Y             Z
Electronic contribution:      2.59163      -5.34019      -5.27415
Nuclear contribution   :     -3.42837       5.66737       6.17046
                        -----------------------------------------
Total Dipole Moment    :     -0.83674       0.32718       0.89631
                        -----------------------------------------
Magnitude (a.u.)       :      1.26907
Magnitude (Debye)      :      3.22572

Rotational constants in cm-1:     0.304660     0.130969     0.097716
Rotational constants in MHz :  9133.464515  3926.366384  2929.457090

                             ****ORCA TERMINATED NORMALLY****
TOTAL RUN TIME: 0 days 0 hours 0 minutes 44 seconds 452 msec
