                         Program Version 5.0.0 -  RELEASE  -
|  1> !CAM-B3LYP RIJCOSX def2-TZVPD def2/J TightSCF
|  2> *xyz 0 1
|  3> C          2.48645       -2.67712       -2.56345
|  4> C          3.03764       -2.36672       -3.92351
|  5> C          2.28036       -2.45441       -4.96769
|  6> N          4.32174       -2.01793       -4.01664
|  7> H          4.87994       -1.91167       -3.17382
|  8> H          4.71015       -1.67088       -4.88356
|  9> H          1.27042       -2.41265       -4.86614
| 10> H          2.58183       -2.05528       -5.84688
| 11> C          2.49799       -1.46946       -1.61030
| 12> H          1.47259       -3.05153       -2.69437
| 13> H          3.08320       -3.49064       -2.14147
| 14> H          1.91240       -0.67831       -2.02991
| 15> H          3.50450       -1.13364       -1.47227
| 16> H          2.08509       -1.75655       -0.66585
| 17> *
| 18>
| 19> %MaxCore 64000
| 20>
| 21> %pal nprocs 4
| 22> end
| 23>
| 24> %scf
| 25>   MaxIter 150
| 26> end
| 27>
| 28>
| 29>                          ****END OF INPUT****

CARTESIAN COORDINATES (ANGSTROEM)
---------------------------------
  C      2.486450   -2.677120   -2.563450
  C      3.037640   -2.366720   -3.923510
  C      2.280360   -2.454410   -4.967690
  N      4.321740   -2.017930   -4.016640
  H      4.879940   -1.911670   -3.173820
  H      4.710150   -1.670880   -4.883560
  H      1.270420   -2.412650   -4.866140
  H      2.581830   -2.055280   -5.846880
  C      2.497990   -1.469460   -1.610300
  H      1.472590   -3.051530   -2.694370
  H      3.083200   -3.490640   -2.141470
  H      1.912400   -0.678310   -2.029910
  H      3.504500   -1.133640   -1.472270
  H      2.085090   -1.756550   -0.665850

 Total Charge           Charge          ....    0
 Multiplicity           Mult            ....    1
 Number of Electrons    NEL             ....   40
 Basis Dimension        Dim             ....  266

ORBITAL ENERGIES
----------------

  NO   OCC          E(Eh)            E(eV)
   0   2.0000     -14.389610      -391.5612
   1   2.0000     -10.265694      -279.3437
   2   2.0000     -10.242757      -278.7196
   3   2.0000     -10.231186      -278.4047
   4   2.0000     -10.172498      -276.8078
   5   2.0000      -1.008885       -27.4532
   6   2.0000      -0.862463       -23.4688
   7   2.0000      -0.807116       -21.9628
   8   2.0000      -0.714894       -19.4532
   9   2.0000      -0.641530       -17.4569
  10   2.0000      -0.596418       -16.2294
  11   2.0000      -0.549790       -14.9606
  12   2.0000      -0.506886       -13.7931
  13   2.0000      -0.501549       -13.6478
  14   2.0000      -0.456940       -12.4340
  15   2.0000      -0.450943       -12.2708
  16   2.0000      -0.420840       -11.4516
  17   2.0000      -0.399869       -10.8810
  18   2.0000      -0.392122       -10.6702
  19   2.0000      -0.256877        -6.9900
  20   0.0000       0.029441         0.8011
  21   0.0000       0.055061         1.4983
  22   0.0000       0.060810         1.6547
  23   0.0000       0.066628         1.8130
  24   0.0000       0.086859         2.3635

MULLIKEN ATOMIC CHARGES
-----------------------
   0 C :   -0.496174
   1 C :    0.567740
   2 C :   -0.964600
   3 N :   -0.387057
   4 H :    0.163951
   5 H :    0.160205
   6 H :    0.257701
   7 H :    0.294072
   8 C :   -1.059009
   9 H :    0.247538
  10 H :    0.290905
  11 H :    0.309390
  12 H :    0.303434
  13 H :    0.311905
Sum of atomic charges:    0.0000000

LOEWDIN ATOMIC CHARGES
----------------------
   0 C :   -0.199013
   1 C :   -0.496865
   2 C :    0.007868
   3 N :    0.103240
   4 H :    0.102113
   5 H :    0.108833
   6 H :    0.027952
   7 H :    0.024460
   8 C :   -0.092618
   9 H :    0.108178
  10 H :    0.114017
  11 H :    0.072651
  12 H :    0.055464
  13 H :    0.063721

  Mayer bond orders larger than 0.100000
B(  0-C ,  1-C ) :   0.7341 B(  0-C ,  8-C ) :   0.5936 B(  0-C ,  9-H ) :   0.9987
B(  0-C , 10-H ) :   0.9482 B(  1-C ,  2-C ) :   1.3984 B(  1-C ,  3-N ) :   0.9427
B(  1-C ,  7-H ) :  -0.1206 B(  2-C ,  6-H ) :   0.9819 B(  2-C ,  7-H ) :   1.0607
B(  3-N ,  4-H ) :   1.0160 B(  3-N ,  5-H ) :   1.0122 B(  8-C , 11-H ) :   1.0018
B(  8-C , 12-H ) :   0.9383 B(  8-C , 13-H ) :   0.9874

FINAL SINGLE POINT ENERGY      -212.522117998629

DIPOLE MOMENT
-------------
                                X             Y             Z
Electronic contribution:      1.51479      -0.88108      -2.12323
Nuclear contribution   :     -0.99743       1.27863       2.57190
                        -----------------------------------------
Total Dipole Moment    :      0.51736       0.39755       0.44867
                        -----------------------------------------
Magnitude (a.u.)       :      0.79184
Magnitude (Debye)      :      2.01269

Rotational constants in cm-1:     0.274050     0.130114     0.100964
Rotational constants in MHz :  8215.815505  3900.722919  3026.834930

                             ****ORCA TERMINATED NORMALLY****
TOTAL RUN TIME: 0 days 0 hours 1 minutes 4 seconds 800 msec
