                         Program Version 5.0.0 -  RELEASE  -
|  1> !CAM-B3LYP RIJCOSX def2-TZVPD def2/J TightSCF
|  2> *xyz 0 1
|  3> C         -0.87096        0.24804       -2.66280
|  4> C         -0.47749        0.60819       -4.10105
|  5> H          0.20677        1.45830       -4.11875
|  6> H         -1.36844        0.92942       -4.64785
|  7> C          0.18467       -0.50664       -4.91676
|  8> O         -0.15869       -1.70109       -4.65798
|  9> F          1.05594       -0.17441       -5.74037
| 10> H         -1.54056       -0.58646       -2.67455
| 11> H         -1.35339        1.08600       -2.20455
| 12> H          0.00660       -0.00662       -2.10609
| 13> *
| 14>
| 15> %MaxCore 64000
| 16>
| 17> %pal nprocs 4
| 18> end
| 19>
| 20> %scf
| 21>   MaxIter 150
| 22> end
| 23>
| 24>
| 25>                          ****END OF INPUT****

CARTESIAN COORDINATES (ANGSTROEM)
---------------------------------
  C     -0.870960    0.248040   -2.662800
  C     -0.477490    0.608190   -4.101050
  H      0.206770    1.458300   -4.118750
  H     -1.368440    0.929420   -4.647850
  C      0.184670   -0.506640   -4.916760
  O     -0.158690   -1.701090   -4.657980
  F      1.055940   -0.174410   -5.740370
  H     -1.540560   -0.586460   -2.674550
  H     -1.353390    1.086000   -2.204550
  H      0.006600   -0.006620   -2.106090

 Total Charge           Charge          ....    0
 Multiplicity           Mult            ....    1
 Number of Electrons    NEL             ....   40
 Basis Dimension        Dim             ....  236

ORBITAL ENERGIES
----------------

  NO   OCC          E(Eh)            E(eV)
   0   2.0000     -24.834390      -675.7781
   1   2.0000     -19.205729      -522.6145
   2   2.0000     -10.430259      -283.8218
   3   2.0000     -10.279244      -279.7124
   4   2.0000     -10.245361      -278.7905
   5   2.0000      -1.413527       -38.4640
   6   2.0000      -1.109207       -30.1831
   7   2.0000      -0.883385       -24.0381
   8   2.0000      -0.775823       -21.1112
   9   2.0000      -0.719565       -19.5803
  10   2.0000      -0.631747       -17.1907
  11   2.0000      -0.616602       -16.7786
  12   2.0000      -0.583482       -15.8774
  13   2.0000      -0.538701       -14.6588
  14   2.0000      -0.504057       -13.7161
  15   2.0000      -0.463657       -12.6167
  16   2.0000      -0.444700       -12.1009
  17   2.0000      -0.442718       -12.0470
  18   2.0000      -0.413214       -11.2441
  19   2.0000      -0.361268        -9.8306
  20   0.0000       0.015496         0.4217
  21   0.0000       0.027886         0.7588
  22   0.0000       0.051098         1.3905
  23   0.0000       0.061125         1.6633
  24   0.0000       0.073198         1.9918

MULLIKEN ATOMIC CHARGES
-----------------------
   0 C :   -1.053474
   1 C :   -0.241229
   2 H :    0.290335
   3 H :    0.268474
   4 C :    0.502954
   5 O :   -0.494322
   6 F :   -0.204182
   7 H :    0.295039
   8 H :    0.327290
   9 H :    0.309113
Sum of atomic charges:    0.0000000

LOEWDIN ATOMIC CHARGES
----------------------
   0 C :   -0.089448
   1 C :   -0.158547
   2 H :    0.110450
   3 H :    0.122168
   4 C :   -0.484863
   5 O :    0.066072
   6 F :    0.219845
   7 H :    0.071024
   8 H :    0.068781
   9 H :    0.074519

  Mayer bond orders larger than 0.100000
B(  0-C ,  1-C ) :   0.6318 B(  0-C ,  7-H ) :   0.9909 B(  0-C ,  8-H ) :   0.9421
B(  0-C ,  9-H ) :   0.9486 B(  1-C ,  2-H ) :   0.9497 B(  1-C ,  3-H ) :   0.9307
B(  1-C ,  4-C ) :   0.9301 B(  4-C ,  5-O ) :   1.7520 B(  4-C ,  6-F ) :   1.0306

FINAL SINGLE POINT ENERGY      -292.400181440270

DIPOLE MOMENT
-------------
                                X             Y             Z
Electronic contribution:      4.63589      -2.80817      -7.10579
Nuclear contribution   :     -4.75269       4.00281       7.35060
                        -----------------------------------------
Total Dipole Moment    :     -0.11680       1.19465       0.24481
                        -----------------------------------------
Magnitude (a.u.)       :      1.22505
Magnitude (Debye)      :      3.11384

Rotational constants in cm-1:     0.323805     0.124913     0.096140
Rotational constants in MHz :  9707.430323  3744.789513  2882.191141

                             ****ORCA TERMINATED NORMALLY****
TOTAL RUN TIME: 0 days 0 hours 0 minutes 52 seconds 587 msec
