                         Program Version 5.0.0 -  RELEASE  -
|  1> !CAM-B3LYP RIJCOSX def2-TZVPD def2/J TightSCF
|  2> *xyz 0 1
|  3> C          2.48645       -2.67712       -2.56345
|  4> C          3.03764       -2.36672       -3.92351
|  5> N          2.28036       -2.45441       -4.96769
|  6> C          4.32174       -2.01793       -4.01664
|  7> H          4.87994       -1.91167       -3.17382
|  8> H          4.71015       -1.67088       -4.88356
|  9> H          1.27042       -2.41265       -4.86614
| 10> H          2.58183       -2.05528       -5.84688
| 11> C          2.49799       -1.46946       -1.61030
| 12> H          1.47259       -3.05153       -2.69437
| 13> H          3.08320       -3.49064       -2.14147
| 14> H          1.91240       -0.67831       -2.02991
| 15> H          3.50450       -1.13364       -1.47227
| 16> H          2.08509       -1.75655       -0.66585
| 17> *
| 18>
| 19> %MaxCore 64000
| 20>
| 21> %pal nprocs 4
| 22> end
| 23>
| 24> %scf
| 25>   MaxIter 150
| 26> end
| 27>
| 28>
| 29>                          ****END OF INPUT****

CARTESIAN COORDINATES (ANGSTROEM)
---------------------------------
  C      2.486450   -2.677120   -2.563450
  C      3.037640   -2.366720   -3.923510
  N      2.280360   -2.454410   -4.967690
  C      4.321740   -2.017930   -4.016640
  H      4.879940   -1.911670   -3.173820
  H      4.710150   -1.670880   -4.883560
  H      1.270420   -2.412650   -4.866140
  H      2.581830   -2.055280   -5.846880
  C      2.497990   -1.469460   -1.610300
  H      1.472590   -3.051530   -2.694370
  H      3.083200   -3.490640   -2.141470
  H      1.912400   -0.678310   -2.029910
  H      3.504500   -1.133640   -1.472270
  H      2.085090   -1.756550   -0.665850

 Total Charge           Charge          ....    0
 Multiplicity           Mult            ....    1
 Number of Electrons    NEL             ....   40
 Basis Dimension        Dim             ....  266

ORBITAL ENERGIES
----------------

  NO   OCC          E(Eh)            E(eV)
   0   2.0000     -14.393657      -391.6713
   1   2.0000     -10.265996      -279.3520
   2   2.0000     -10.243364      -278.7361
   3   2.0000     -10.227321      -278.2996
   4   2.0000     -10.173307      -276.8298
   5   2.0000      -1.024418       -27.8758
   6   2.0000      -0.863945       -23.5091
   7   2.0000      -0.790765       -21.5178
   8   2.0000      -0.720164       -19.5967
   9   2.0000      -0.645280       -17.5590
  10   2.0000      -0.593271       -16.1437
  11   2.0000      -0.554304       -15.0834
  12   2.0000      -0.516144       -14.0450
  13   2.0000      -0.478329       -13.0160
  14   2.0000      -0.463393       -12.6096
  15   2.0000      -0.446704       -12.1554
  16   2.0000      -0.418694       -11.3932
  17   2.0000      -0.402847       -10.9620
  18   2.0000      -0.401229       -10.9180
  19   2.0000      -0.246926        -6.7192
  20   0.0000       0.030217         0.8222
  21   0.0000       0.052717         1.4345
  22   0.0000       0.060803         1.6545
  23   0.0000       0.066051         1.7973
  24   0.0000       0.087029         2.3682

MULLIKEN ATOMIC CHARGES
-----------------------
   0 C :   -0.465330
   1 C :    0.665627
   2 N :   -0.350169
   3 C :   -1.177765
   4 H :    0.272733
   5 H :    0.271234
   6 H :    0.200820
   7 H :    0.182474
   8 C :   -1.050086
   9 H :    0.281666
  10 H :    0.256286
  11 H :    0.299754
  12 H :    0.308041
  13 H :    0.304715
Sum of atomic charges:   -0.0000000

LOEWDIN ATOMIC CHARGES
----------------------
   0 C :   -0.198931
   1 C :   -0.503503
   2 N :    0.101769
   3 C :    0.019004
   4 H :    0.020499
   5 H :    0.016859
   6 H :    0.109206
   7 H :    0.113790
   8 C :   -0.091991
   9 H :    0.101926
  10 H :    0.116584
  11 H :    0.070659
  12 H :    0.061414
  13 H :    0.062715

  Mayer bond orders larger than 0.100000
B(  0-C ,  1-C ) :   0.6258 B(  0-C ,  8-C ) :   0.5730 B(  0-C ,  9-H ) :   1.0360
B(  0-C , 10-H ) :   0.9826 B(  1-C ,  2-N ) :   1.0682 B(  1-C ,  3-C ) :   1.2360
B(  1-C ,  5-H ) :  -0.1277 B(  1-C ,  9-H ) :  -0.1098 B(  2-N ,  6-H ) :   0.9766
B(  2-N ,  7-H ) :   0.9756 B(  3-C ,  4-H ) :   0.9533 B(  3-C ,  5-H ) :   1.0747
B(  8-C , 11-H ) :   0.9711 B(  8-C , 12-H ) :   0.9716 B(  8-C , 13-H ) :   0.9711

FINAL SINGLE POINT ENERGY      -212.522270045199

DIPOLE MOMENT
-------------
                                X             Y             Z
Electronic contribution:     -0.25220      -1.19259      -2.95492
Nuclear contribution   :     -0.52463       1.37972       2.79217
                        -----------------------------------------
Total Dipole Moment    :     -0.77683       0.18713      -0.16274
                        -----------------------------------------
Magnitude (a.u.)       :      0.81546
Magnitude (Debye)      :      2.07273

Rotational constants in cm-1:     0.281086     0.127387     0.100311
Rotational constants in MHz :  8426.743103  3818.969834  3007.238026

                             ****ORCA TERMINATED NORMALLY****
TOTAL RUN TIME: 0 days 0 hours 1 minutes 4 seconds 517 msec
