                         Program Version 5.0.0 -  RELEASE  -
|  1> !CAM-B3LYP RIJCOSX def2-TZVPD def2/J TightSCF xyzfile
|  2>
|  3> *xyzfile 0 1 D1.xyz
|  4>
|  5> %MaxCore 64000
|  6>
|  7> %pal nprocs 4
|  8> end
|  9>
| 10> %scf
| 11>   MaxIter 150
| 12> end
| 13>
| 14>
| 15>                          ****END OF INPUT****

CARTESIAN COORDINATES (ANGSTROEM)
---------------------------------
  C      2.486452   -2.677121   -2.563447
  C     -0.870963    0.248043   -2.662804
  C     -0.477492    0.608191   -4.101052
  H      0.206773    1.458299   -4.118748
  H     -1.368442    0.929419   -4.647855
  C      0.184673   -0.506640   -4.916760
  C      3.037640   -2.366715   -3.923509
  C      2.280360   -2.454408   -4.967692
  N      4.321736   -2.017932   -4.016641
  H      4.879940   -1.911668   -3.173823
  H      4.710148   -1.670882   -4.883561
  H      1.270423   -2.412650   -4.866143
  H      2.581829   -2.055282   -5.846878
  F     -0.158685   -1.701088   -4.657981
  O      1.055938   -0.174410   -5.740373
  C      2.497991   -1.469464   -1.610303
  C      1.582841   -0.321986   -2.042619
  H      2.193083   -1.833912   -0.625420
  H      3.523356   -1.103982   -1.490392
  C      0.100160   -0.673551   -1.915815
  H      1.822311   -0.040361   -3.072834
  H      1.813180    0.557019   -1.433266
  H     -0.063284   -1.679120   -2.301112
  H     -0.168820   -0.691680   -0.853831
  H     -1.001048    1.181040   -2.104071
  H     -1.844645   -0.246592   -2.663281
  H      1.472592   -3.051527   -2.694366
  H      3.083201   -3.490638   -2.141472

 Total Charge           Charge          ....    0
 Multiplicity           Mult            ....    1
 Number of Electrons    NEL             ....   94
 Basis Dimension        Dim             ....  594

ORBITAL ENERGIES
----------------

  NO   OCC          E(Eh)            E(eV)
   0   2.0000     -24.825162      -675.5270
   1   2.0000     -19.205243      -522.6012
   2   2.0000     -14.377068      -391.2199
   3   2.0000     -10.426023      -283.7065
   4   2.0000     -10.273513      -279.5565
   5   2.0000     -10.257504      -279.1209
   6   2.0000     -10.249719      -278.9090
   7   2.0000     -10.245230      -278.7869
   8   2.0000     -10.242423      -278.7105
   9   2.0000     -10.240970      -278.6710
  10   2.0000     -10.236543      -278.5505
  11   2.0000     -10.150617      -276.2123
  12   2.0000      -1.402088       -38.1527
  13   2.0000      -1.123316       -30.5670
  14   2.0000      -0.996876       -27.1264
  15   2.0000      -0.911874       -24.8133
  16   2.0000      -0.875937       -23.8355
  17   2.0000      -0.825917       -22.4743
  18   2.0000      -0.802855       -21.8468
  19   2.0000      -0.756985       -20.5986
  20   2.0000      -0.735466       -20.0130
  21   2.0000      -0.695769       -18.9328
  22   2.0000      -0.657086       -17.8802
  23   2.0000      -0.648974       -17.6595
  24   2.0000      -0.624875       -17.0037
  25   2.0000      -0.611252       -16.6330
  26   2.0000      -0.581193       -15.8151
  27   2.0000      -0.568233       -15.4624
  28   2.0000      -0.552498       -15.0342
  29   2.0000      -0.542358       -14.7583
  30   2.0000      -0.529085       -14.3971
  31   2.0000      -0.511737       -13.9251
  32   2.0000      -0.500766       -13.6265
  33   2.0000      -0.481905       -13.1133
  34   2.0000      -0.472473       -12.8566
  35   2.0000      -0.456014       -12.4088
  36   2.0000      -0.443519       -12.0688
  37   2.0000      -0.440367       -11.9830
  38   2.0000      -0.424228       -11.5438
  39   2.0000      -0.418168       -11.3789
  40   2.0000      -0.405087       -11.0230
  41   2.0000      -0.400490       -10.8979
  42   2.0000      -0.383614       -10.4387
  43   2.0000      -0.378540       -10.3006
  44   2.0000      -0.374468       -10.1898
  45   2.0000      -0.356406        -9.6983
  46   2.0000      -0.241187        -6.5630
  47   0.0000       0.018258         0.4968
  48   0.0000       0.027248         0.7414
  49   0.0000       0.036617         0.9964
  50   0.0000       0.043966         1.1964
  51   0.0000       0.048384         1.3166

MULLIKEN ATOMIC CHARGES
-----------------------
   0 C :   -0.687733
   1 C :   -0.591990
   2 C :   -0.457510
   3 H :    0.293153
   4 H :    0.322043
   5 C :    0.498344
   6 C :    0.423365
   7 C :   -1.101850
   8 N :   -0.408210
   9 H :    0.151196
  10 H :    0.158982
  11 H :    0.581130
  12 H :    0.277671
  13 F :   -0.287491
  14 O :   -0.530820
  15 C :   -0.572448
  16 C :   -0.434603
  17 H :    0.294208
  18 H :    0.332792
  19 C :   -0.576130
  20 H :    0.309416
  21 H :    0.278228
  22 H :    0.242887
  23 H :    0.364202
  24 H :    0.287579
  25 H :    0.308121
  26 H :    0.186630
  27 H :    0.338839
Sum of atomic charges:    0.0000000

LOEWDIN ATOMIC CHARGES
----------------------
   0 C :   -0.142727
   1 C :   -0.193723
   2 C :   -0.097278
   3 H :    0.124774
   4 H :    0.126561
   5 C :   -0.475692
   6 C :   -0.469818
   7 C :    0.010885
   8 N :    0.108389
   9 H :    0.099146
  10 H :    0.109595
  11 H :   -0.000000
  12 H :    0.039985
  13 F :    0.161849
  14 O :    0.094652
  15 C :   -0.195078
  16 C :   -0.195474
  17 H :    0.111075
  18 H :    0.102485
  19 C :   -0.208921
  20 H :    0.106357
  21 H :    0.118092
  22 H :    0.094865
  23 H :    0.119263
  24 H :    0.113955
  25 H :    0.110778
  26 H :    0.106635
  27 H :    0.119369

  Mayer bond orders larger than 0.100000
B(  0-C ,  6-C ) :   0.6706 B(  0-C ,  8-N ) :   0.1516 B(  0-C , 15-C ) :   0.7749
B(  0-C , 26-H ) :   1.0249 B(  0-C , 27-H ) :   0.9394 B(  1-C ,  2-C ) :   0.7147
B(  1-C , 19-C ) :   0.8545 B(  1-C , 24-H ) :   0.9759 B(  1-C , 25-H ) :   0.9845
B(  2-C ,  3-H ) :   1.0176 B(  2-C ,  4-H ) :   0.9105 B(  2-C ,  5-C ) :   0.8251
B(  5-C , 13-F ) :   0.9643 B(  5-C , 14-O ) :   1.7045 B(  6-C ,  7-C ) :   1.4412
B(  6-C ,  8-N ) :   0.8299 B(  6-C , 11-H ) :  -0.1760 B(  6-C , 12-H ) :  -0.1565
B(  7-C , 11-H ) :   0.7372 B(  7-C , 12-H ) :   1.1353 B(  8-N ,  9-H ) :   1.0411
B(  8-N , 10-H ) :   0.9937 B( 15-C , 16-C ) :   0.9047 B( 15-C , 17-H ) :   0.9615
B( 15-C , 18-H ) :   0.8840 B( 15-C , 19-C ) :   0.1888 B( 16-C , 19-C ) :   0.3947
B( 16-C , 20-H ) :   0.9383 B( 16-C , 21-H ) :   0.9857 B( 16-C , 22-H ) :  -0.1208
B( 19-C , 22-H ) :   1.0633 B( 19-C , 23-H ) :   0.8711

FINAL SINGLE POINT ENERGY      -582.301180689170

DIPOLE MOMENT
-------------
                                X             Y             Z
Electronic contribution:     -3.72725      -1.62183     -10.22381
Nuclear contribution   :      3.32973       2.37270      11.37738
                        -----------------------------------------
Total Dipole Moment    :     -0.39752       0.75087       1.15357
                        -----------------------------------------
Magnitude (a.u.)       :      1.43267
Magnitude (Debye)      :      3.64156

Rotational constants in cm-1:     0.040902     0.025807     0.019036
Rotational constants in MHz :  1226.202138   773.670450   570.681201

                             ****ORCA TERMINATED NORMALLY****
TOTAL RUN TIME: 0 days 0 hours 7 minutes 30 seconds 506 msec
