                         Program Version 5.0.0 -  RELEASE  -
|  1> !CAM-B3LYP RIJCOSX def2-TZVPD def2/J TightSCF xyzfile
|  2>
|  3> *xyzfile 0 1 D2.xyz
|  4>
|  5> %MaxCore 64000
|  6>
|  7> %pal nprocs 4
|  8> end
|  9>
| 10> %scf
| 11>   MaxIter 150
| 12> end
| 13>
| 14>
| 15>                          ****END OF INPUT****

CARTESIAN COORDINATES (ANGSTROEM)
---------------------------------
  C      2.486452   -2.677121   -2.563447
  C     -0.870963    0.248043   -2.662804
  C     -0.477492    0.608191   -4.101052
  H      0.206773    1.458299   -4.118748
  H     -1.368442    0.929419   -4.647855
  C      0.184673   -0.506640   -4.916760
  C      3.037640   -2.366715   -3.923509
  N      2.280360   -2.454408   -4.967692
  C      4.321736   -2.017932   -4.016641
  H      4.879940   -1.911668   -3.173823
  H      4.710148   -1.670882   -4.883561
  H      1.270423   -2.412650   -4.866143
  H      2.581829   -2.055282   -5.846878
  F     -0.158685   -1.701088   -4.657981
  O      1.055938   -0.174410   -5.740373
  C      2.497991   -1.469464   -1.610303
  C      1.582841   -0.321986   -2.042619
  H      2.193083   -1.833912   -0.625420
  H      3.523356   -1.103982   -1.490392
  C      0.100160   -0.673551   -1.915815
  H      1.822311   -0.040361   -3.072834
  H      1.813180    0.557019   -1.433266
  H     -0.063284   -1.679120   -2.301112
  H     -0.168820   -0.691680   -0.853831
  H     -1.001048    1.181040   -2.104071
  H     -1.844645   -0.246592   -2.663281
  H      1.472592   -3.051527   -2.694366
  H      3.083201   -3.490638   -2.141472

 Total Charge           Charge          ....    0
 Multiplicity           Mult            ....    1
 Number of Electrons    NEL             ....   94
 Basis Dimension        Dim             ....  594

ORBITAL ENERGIES
----------------

  NO   OCC          E(Eh)            E(eV)
   0   2.0000     -24.853452      -676.2968
   1   2.0000     -19.225194      -523.1441
   2   2.0000     -14.365785      -390.9129
   3   2.0000     -10.444973      -284.2222
   4   2.0000     -10.284994      -279.8689
   5   2.0000     -10.264982      -279.3244
   6   2.0000     -10.253822      -279.0207
   7   2.0000     -10.250423      -278.9282
   8   2.0000     -10.243268      -278.7335
   9   2.0000     -10.240022      -278.6452
  10   2.0000     -10.237551      -278.5779
  11   2.0000     -10.160031      -276.4685
  12   2.0000      -1.429029       -38.8859
  13   2.0000      -1.143114       -31.1057
  14   2.0000      -1.007293       -27.4098
  15   2.0000      -0.919753       -25.0278
  16   2.0000      -0.878563       -23.9069
  17   2.0000      -0.836368       -22.7587
  18   2.0000      -0.789838       -21.4926
  19   2.0000      -0.770282       -20.9604
  20   2.0000      -0.746598       -20.3160
  21   2.0000      -0.705111       -19.1870
  22   2.0000      -0.670714       -18.2510
  23   2.0000      -0.662149       -18.0180
  24   2.0000      -0.644675       -17.5425
  25   2.0000      -0.614172       -16.7125
  26   2.0000      -0.585854       -15.9419
  27   2.0000      -0.569895       -15.5076
  28   2.0000      -0.554977       -15.1017
  29   2.0000      -0.549205       -14.9446
  30   2.0000      -0.542397       -14.7594
  31   2.0000      -0.515406       -14.0249
  32   2.0000      -0.498598       -13.5676
  33   2.0000      -0.490845       -13.3566
  34   2.0000      -0.477666       -12.9980
  35   2.0000      -0.461695       -12.5634
  36   2.0000      -0.454856       -12.3773
  37   2.0000      -0.445197       -12.1144
  38   2.0000      -0.433596       -11.7988
  39   2.0000      -0.423114       -11.5135
  40   2.0000      -0.411646       -11.2015
  41   2.0000      -0.404765       -11.0142
  42   2.0000      -0.390926       -10.6376
  43   2.0000      -0.387853       -10.5540
  44   2.0000      -0.379510       -10.3270
  45   2.0000      -0.369574       -10.0566
  46   2.0000      -0.231231        -6.2921
  47   0.0000       0.001892         0.0515
  48   0.0000       0.020657         0.5621
  49   0.0000       0.039697         1.0802
  50   0.0000       0.042049         1.1442
  51   0.0000       0.045809         1.2465

MULLIKEN ATOMIC CHARGES
-----------------------
   0 C :   -0.578569
   1 C :   -0.606360
   2 C :   -0.445270
   3 H :    0.294417
   4 H :    0.327337
   5 C :    0.537646
   6 C :    0.485008
   7 N :   -0.446437
   8 C :   -1.239925
   9 H :    0.297918
  10 H :    0.284966
  11 H :    0.396160
  12 H :    0.174689
  13 F :   -0.330216
  14 O :   -0.531022
  15 C :   -0.548734
  16 C :   -0.576868
  17 H :    0.300496
  18 H :    0.342606
  19 C :   -0.511417
  20 H :    0.321961
  21 H :    0.281055
  22 H :    0.228107
  23 H :    0.369799
  24 H :    0.293370
  25 H :    0.313011
  26 H :    0.275106
  27 H :    0.291165
Sum of atomic charges:    0.0000000

LOEWDIN ATOMIC CHARGES
----------------------
   0 C :   -0.142080
   1 C :   -0.193292
   2 C :   -0.096385
   3 H :    0.127023
   4 H :    0.128133
   5 C :   -0.470350
   6 C :   -0.483042
   7 N :    0.117835
   8 C :    0.022797
   9 H :    0.017964
  10 H :    0.018088
  11 H :    0.058129
  12 H :    0.115129
  13 F :    0.172123
  14 O :    0.098979
  15 C :   -0.191388
  16 C :   -0.195236
  17 H :    0.111409
  18 H :    0.108491
  19 C :   -0.211231
  20 H :    0.104821
  21 H :    0.119650
  22 H :    0.092004
  23 H :    0.120289
  24 H :    0.115582
  25 H :    0.111054
  26 H :    0.100937
  27 H :    0.122566

  Mayer bond orders larger than 0.100000
B(  0-C ,  6-C ) :   0.5836 B(  0-C , 15-C ) :   0.7595 B(  0-C , 26-H ) :   1.0159
B(  0-C , 27-H ) :   0.9502 B(  1-C ,  2-C ) :   0.7113 B(  1-C , 19-C ) :   0.8204
B(  1-C , 24-H ) :   0.9684 B(  1-C , 25-H ) :   0.9857 B(  2-C ,  3-H ) :   1.0107
B(  2-C ,  4-H ) :   0.9093 B(  2-C ,  5-C ) :   0.8311 B(  5-C , 13-F ) :   0.8394
B(  5-C , 14-O ) :   1.7350 B(  6-C ,  7-N ) :   1.0160 B(  6-C ,  8-C ) :   1.2841
B(  6-C , 10-H ) :  -0.1058 B(  7-N ,  8-C ) :   0.1653 B(  7-N , 11-H ) :   0.6987
B(  7-N , 12-H ) :   0.9278 B(  8-C ,  9-H ) :   0.9805 B(  8-C , 10-H ) :   1.0367
B( 15-C , 16-C ) :   0.9222 B( 15-C , 17-H ) :   0.9325 B( 15-C , 18-H ) :   0.9137
B( 15-C , 19-C ) :   0.1643 B( 16-C , 19-C ) :   0.3557 B( 16-C , 20-H ) :   0.9678
B( 16-C , 21-H ) :   0.9711 B( 16-C , 22-H ) :  -0.1300 B( 19-C , 22-H ) :   1.0891
B( 19-C , 23-H ) :   0.8583

FINAL SINGLE POINT ENERGY      -582.312774772807

DIPOLE MOMENT
-------------
                                X             Y             Z
Electronic contribution:     -5.35787      -1.77516     -10.84912
Nuclear contribution   :      3.65024       2.44123      11.52670
                        -----------------------------------------
Total Dipole Moment    :     -1.70763       0.66607       0.67759
                        -----------------------------------------
Magnitude (a.u.)       :      1.95417
Magnitude (Debye)      :      4.96710

Rotational constants in cm-1:     0.040600     0.026409     0.019262
Rotational constants in MHz :  1217.142957   791.712481   577.449390

                             ****ORCA TERMINATED NORMALLY****
TOTAL RUN TIME: 0 days 0 hours 7 minutes 28 seconds 474 msec
