                         Program Version 5.0.0 -  RELEASE  -
|  1> !CAM-B3LYP RIJCOSX def2-TZVPD def2/J TightSCF xyzfile
|  2>
|  3> *xyzfile 0 1 D3.xyz
|  4>
|  5> %MaxCore 64000
|  6>
|  7> %pal nprocs 4
|  8> end
|  9>
| 10> %scf
| 11>   MaxIter 150
| 12> end
| 13>
| 14>
| 15>                          ****END OF INPUT****

CARTESIAN COORDINATES (ANGSTROEM)
---------------------------------
  C      2.486452   -2.677121   -2.563447
  C     -0.870963    0.248043   -2.662804
  C     -0.477492    0.608191   -4.101052
  H      0.206773    1.458299   -4.118748
  H     -1.368442    0.929419   -4.647855
  C      0.184673   -0.506640   -4.916760
  C      3.037640   -2.366715   -3.923509
  C      2.280360   -2.454408   -4.967692
  N      4.321736   -2.017932   -4.016641
  H      4.879940   -1.911668   -3.173823
  H      4.710148   -1.670882   -4.883561
  H      1.270423   -2.412650   -4.866143
  H      2.581829   -2.055282   -5.846878
  O     -0.158685   -1.701088   -4.657981
  F      1.055938   -0.174410   -5.740373
  C      2.497991   -1.469464   -1.610303
  C      1.582841   -0.321986   -2.042619
  H      2.193083   -1.833912   -0.625420
  H      3.523356   -1.103982   -1.490392
  C      0.100160   -0.673551   -1.915815
  H      1.822311   -0.040361   -3.072834
  H      1.813180    0.557019   -1.433266
  H     -0.063284   -1.679120   -2.301112
  H     -0.168820   -0.691680   -0.853831
  H     -1.001048    1.181040   -2.104071
  H     -1.844645   -0.246592   -2.663281
  H      1.472592   -3.051527   -2.694366
  H      3.083201   -3.490638   -2.141472

 Total Charge           Charge          ....    0
 Multiplicity           Mult            ....    1
 Number of Electrons    NEL             ....   94
 Basis Dimension        Dim             ....  594

ORBITAL ENERGIES
----------------

  NO   OCC          E(Eh)            E(eV)
   0   2.0000     -24.832838      -675.7359
   1   2.0000     -19.203555      -522.5553
   2   2.0000     -14.375940      -391.1892
   3   2.0000     -10.431498      -283.8555
   4   2.0000     -10.276161      -279.6286
   5   2.0000     -10.254593      -279.0417
   6   2.0000     -10.247147      -278.8390
   7   2.0000     -10.239355      -278.6270
   8   2.0000     -10.239102      -278.6201
   9   2.0000     -10.236267      -278.5430
  10   2.0000     -10.231318      -278.4083
  11   2.0000     -10.142927      -276.0031
  12   2.0000      -1.413224       -38.4558
  13   2.0000      -1.118020       -30.4229
  14   2.0000      -0.995434       -27.0871
  15   2.0000      -0.906465       -24.6662
  16   2.0000      -0.873338       -23.7647
  17   2.0000      -0.824116       -22.4253
  18   2.0000      -0.800592       -21.7852
  19   2.0000      -0.759727       -20.6732
  20   2.0000      -0.732642       -19.9362
  21   2.0000      -0.691664       -18.8211
  22   2.0000      -0.652976       -17.7684
  23   2.0000      -0.639640       -17.4055
  24   2.0000      -0.625772       -17.0281
  25   2.0000      -0.605870       -16.4866
  26   2.0000      -0.593342       -16.1457
  27   2.0000      -0.579307       -15.7637
  28   2.0000      -0.549986       -14.9659
  29   2.0000      -0.541255       -14.7283
  30   2.0000      -0.524893       -14.2831
  31   2.0000      -0.509261       -13.8577
  32   2.0000      -0.502694       -13.6790
  33   2.0000      -0.472306       -12.8521
  34   2.0000      -0.466173       -12.6852
  35   2.0000      -0.464032       -12.6269
  36   2.0000      -0.444939       -12.1074
  37   2.0000      -0.433036       -11.7835
  38   2.0000      -0.423937       -11.5359
  39   2.0000      -0.420203       -11.4343
  40   2.0000      -0.401399       -10.9226
  41   2.0000      -0.393839       -10.7169
  42   2.0000      -0.381183       -10.3725
  43   2.0000      -0.375348       -10.2137
  44   2.0000      -0.374186       -10.1821
  45   2.0000      -0.333777        -9.0825
  46   2.0000      -0.239867        -6.5271
  47   0.0000       0.013602         0.3701
  48   0.0000       0.027157         0.7390
  49   0.0000       0.038067         1.0358
  50   0.0000       0.043500         1.1837
  51   0.0000       0.050415         1.3719

MULLIKEN ATOMIC CHARGES
-----------------------
   0 C :   -0.683334
   1 C :   -0.604459
   2 C :   -0.532749
   3 H :    0.352029
   4 H :    0.311426
   5 C :    0.543473
   6 C :    0.461285
   7 C :   -1.315052
   8 N :   -0.410207
   9 H :    0.150185
  10 H :    0.154465
  11 H :    0.757877
  12 H :    0.266553
  13 O :   -0.550439
  14 F :   -0.264037
  15 C :   -0.579633
  16 C :   -0.396242
  17 H :    0.291940
  18 H :    0.326178
  19 C :   -0.595567
  20 H :    0.246470
  21 H :    0.280814
  22 H :    0.267547
  23 H :    0.366293
  24 H :    0.294962
  25 H :    0.315193
  26 H :    0.202710
  27 H :    0.342319
Sum of atomic charges:   -0.0000000

LOEWDIN ATOMIC CHARGES
----------------------
   0 C :   -0.139523
   1 C :   -0.185962
   2 C :   -0.101443
   3 H :    0.117535
   4 H :    0.127034
   5 C :   -0.461470
   6 C :   -0.471839
   7 C :    0.007915
   8 N :    0.103029
   9 H :    0.098152
  10 H :    0.106551
  11 H :   -0.021412
  12 H :    0.038523
  13 O :    0.049967
  14 F :    0.229315
  15 C :   -0.194553
  16 C :   -0.197236
  17 H :    0.111643
  18 H :    0.101283
  19 C :   -0.208383
  20 H :    0.103082
  21 H :    0.116577
  22 H :    0.094997
  23 H :    0.118875
  24 H :    0.113962
  25 H :    0.113981
  26 H :    0.110270
  27 H :    0.119129

  Mayer bond orders larger than 0.100000
B(  0-C ,  6-C ) :   0.6699 B(  0-C ,  8-N ) :   0.1489 B(  0-C , 15-C ) :   0.7665
B(  0-C , 26-H ) :   1.0110 B(  0-C , 27-H ) :   0.9405 B(  1-C ,  2-C ) :   0.7922
B(  1-C , 19-C ) :   0.9304 B(  1-C , 24-H ) :   0.9802 B(  1-C , 25-H ) :   0.9384
B(  2-C ,  3-H ) :   0.9434 B(  2-C ,  4-H ) :   0.9138 B(  2-C ,  5-C ) :   0.8678
B(  5-C , 13-O ) :   1.7811 B(  5-C , 14-F ) :   0.9088 B(  6-C ,  7-C ) :   1.3644
B(  6-C ,  8-N ) :   0.8312 B(  6-C , 11-H ) :  -0.1649 B(  6-C , 12-H ) :  -0.2082
B(  7-C , 11-H ) :   0.6491 B(  7-C , 12-H ) :   1.2386 B(  8-N ,  9-H ) :   1.0452
B(  8-N , 10-H ) :   0.9990 B( 11-H , 13-O ) :  -0.2547 B( 15-C , 16-C ) :   0.9275
B( 15-C , 17-H ) :   0.9564 B( 15-C , 18-H ) :   0.8883 B( 15-C , 19-C ) :   0.1774
B( 16-C , 19-C ) :   0.4090 B( 16-C , 20-H ) :   0.9587 B( 16-C , 21-H ) :   0.9862
B( 16-C , 22-H ) :  -0.1056 B( 19-C , 22-H ) :   1.0446 B( 19-C , 23-H ) :   0.8656

FINAL SINGLE POINT ENERGY      -582.295238351045

DIPOLE MOMENT
-------------
                                X             Y             Z
Electronic contribution:     -1.78003       0.92390     -12.09132
Nuclear contribution   :      1.88979       0.56282      12.66056
                        -----------------------------------------
Total Dipole Moment    :      0.10975       1.48672       0.56924
                        -----------------------------------------
Magnitude (a.u.)       :      1.59575
Magnitude (Debye)      :      4.05606

Rotational constants in cm-1:     0.040271     0.025954     0.018866
Rotational constants in MHz :  1207.302496   778.083475   565.600538

                             ****ORCA TERMINATED NORMALLY****
TOTAL RUN TIME: 0 days 0 hours 7 minutes 44 seconds 418 msec
