                         Program Version 5.0.0 -  RELEASE  -
|  1> !CAM-B3LYP RIJCOSX def2-TZVPD def2/J TightSCF xyzfile
|  2>
|  3> *xyzfile 0 1 D4.xyz
|  4>
|  5> %MaxCore 64000
|  6>
|  7> %pal nprocs 4
|  8> end
|  9>
| 10> %scf
| 11>   MaxIter 150
| 12> end
| 13>
| 14>
| 15>                          ****END OF INPUT****

CARTESIAN COORDINATES (ANGSTROEM)
---------------------------------
  C      2.486452   -2.677121   -2.563447
  C     -0.870963    0.248043   -2.662804
  C     -0.477492    0.608191   -4.101052
  H      0.206773    1.458299   -4.118748
  H     -1.368442    0.929419   -4.647855
  C      0.184673   -0.506640   -4.916760
  C      3.037640   -2.366715   -3.923509
  N      2.280360   -2.454408   -4.967692
  C      4.321736   -2.017932   -4.016641
  H      4.879940   -1.911668   -3.173823
  H      4.710148   -1.670882   -4.883561
  H      1.270423   -2.412650   -4.866143
  H      2.581829   -2.055282   -5.846878
  O     -0.158685   -1.701088   -4.657981
  F      1.055938   -0.174410   -5.740373
  C      2.497991   -1.469464   -1.610303
  C      1.582841   -0.321986   -2.042619
  H      2.193083   -1.833912   -0.625420
  H      3.523356   -1.103982   -1.490392
  C      0.100160   -0.673551   -1.915815
  H      1.822311   -0.040361   -3.072834
  H      1.813180    0.557019   -1.433266
  H     -0.063284   -1.679120   -2.301112
  H     -0.168820   -0.691680   -0.853831
  H     -1.001048    1.181040   -2.104071
  H     -1.844645   -0.246592   -2.663281
  H      1.472592   -3.051527   -2.694366
  H      3.083201   -3.490638   -2.141472

 Total Charge           Charge          ....    0
 Multiplicity           Mult            ....    1
 Number of Electrons    NEL             ....   94
 Basis Dimension        Dim             ....  594

ORBITAL ENERGIES
----------------

  NO   OCC          E(Eh)            E(eV)
   0   2.0000     -24.854721      -676.3313
   1   2.0000     -19.230081      -523.2771
   2   2.0000     -14.356792      -390.6682
   3   2.0000     -10.454850      -284.4909
   4   2.0000     -10.289174      -279.9826
   5   2.0000     -10.263006      -279.2706
   6   2.0000     -10.250801      -278.9385
   7   2.0000     -10.241944      -278.6975
   8   2.0000     -10.241708      -278.6910
   9   2.0000     -10.236623      -278.5527
  10   2.0000     -10.231620      -278.4165
  11   2.0000     -10.157638      -276.4034
  12   2.0000      -1.434988       -39.0480
  13   2.0000      -1.143939       -31.1282
  14   2.0000      -1.001426       -27.2502
  15   2.0000      -0.915605       -24.9149
  16   2.0000      -0.876340       -23.8464
  17   2.0000      -0.834511       -22.7082
  18   2.0000      -0.792152       -21.5556
  19   2.0000      -0.764998       -20.8167
  20   2.0000      -0.743931       -20.2434
  21   2.0000      -0.700692       -19.0668
  22   2.0000      -0.662422       -18.0254
  23   2.0000      -0.654947       -17.8220
  24   2.0000      -0.634303       -17.2603
  25   2.0000      -0.624605       -16.9964
  26   2.0000      -0.602223       -16.3873
  27   2.0000      -0.569843       -15.5062
  28   2.0000      -0.554931       -15.1004
  29   2.0000      -0.549074       -14.9411
  30   2.0000      -0.542685       -14.7672
  31   2.0000      -0.515182       -14.0188
  32   2.0000      -0.495040       -13.4707
  33   2.0000      -0.482577       -13.1316
  34   2.0000      -0.474910       -12.9230
  35   2.0000      -0.462551       -12.5866
  36   2.0000      -0.448603       -12.2071
  37   2.0000      -0.440495       -11.9865
  38   2.0000      -0.427916       -11.6442
  39   2.0000      -0.426102       -11.5948
  40   2.0000      -0.406203       -11.0533
  41   2.0000      -0.401581       -10.9276
  42   2.0000      -0.387945       -10.5565
  43   2.0000      -0.386030       -10.5044
  44   2.0000      -0.378906       -10.3106
  45   2.0000      -0.364658        -9.9229
  46   2.0000      -0.228634        -6.2214
  47   0.0000      -0.006391        -0.1739
  48   0.0000       0.020998         0.5714
  49   0.0000       0.038754         1.0546
  50   0.0000       0.044757         1.2179
  51   0.0000       0.046170         1.2563

MULLIKEN ATOMIC CHARGES
-----------------------
   0 C :   -0.559771
   1 C :   -0.620615
   2 C :   -0.519583
   3 H :    0.355625
   4 H :    0.314423
   5 C :    0.620285
   6 C :    0.450321
   7 N :   -0.457652
   8 C :   -1.230586
   9 H :    0.298545
  10 H :    0.284400
  11 H :    0.405822
  12 H :    0.159579
  13 O :   -0.610830
  14 F :   -0.270406
  15 C :   -0.568091
  16 C :   -0.540128
  17 H :    0.298414
  18 H :    0.341521
  19 C :   -0.518503
  20 H :    0.257764
  21 H :    0.282115
  22 H :    0.253400
  23 H :    0.372940
  24 H :    0.300168
  25 H :    0.319730
  26 H :    0.284337
  27 H :    0.296777
Sum of atomic charges:    0.0000000

LOEWDIN ATOMIC CHARGES
----------------------
   0 C :   -0.139506
   1 C :   -0.185015
   2 C :   -0.098914
   3 H :    0.120494
   4 H :    0.129299
   5 C :   -0.450671
   6 C :   -0.485158
   7 N :    0.113039
   8 C :    0.015737
   9 H :    0.016373
  10 H :    0.014287
  11 H :    0.033333
  12 H :    0.113793
  13 O :    0.057903
  14 F :    0.234448
  15 C :   -0.191000
  16 C :   -0.196740
  17 H :    0.111906
  18 H :    0.107286
  19 C :   -0.210186
  20 H :    0.101467
  21 H :    0.118179
  22 H :    0.092602
  23 H :    0.120046
  24 H :    0.115796
  25 H :    0.114491
  26 H :    0.104392
  27 H :    0.122321

  Mayer bond orders larger than 0.100000
B(  0-C ,  6-C ) :   0.5925 B(  0-C , 15-C ) :   0.7506 B(  0-C , 26-H ) :   1.0125
B(  0-C , 27-H ) :   0.9481 B(  1-C ,  2-C ) :   0.7886 B(  1-C , 19-C ) :   0.8973
B(  1-C , 24-H ) :   0.9707 B(  1-C , 25-H ) :   0.9417 B(  2-C ,  3-H ) :   0.9373
B(  2-C ,  4-H ) :   0.9122 B(  2-C ,  5-C ) :   0.8810 B(  5-C , 13-O ) :   1.5981
B(  5-C , 14-F ) :   0.9263 B(  6-C ,  7-N ) :   1.0136 B(  6-C ,  8-C ) :   1.3132
B(  7-N ,  8-C ) :   0.1632 B(  7-N , 11-H ) :   0.6762 B(  7-N , 12-H ) :   0.9447
B(  8-C ,  9-H ) :   0.9859 B(  8-C , 10-H ) :   1.0374 B( 15-C , 16-C ) :   0.9469
B( 15-C , 17-H ) :   0.9276 B( 15-C , 18-H ) :   0.9162 B( 15-C , 19-C ) :   0.1508
B( 16-C , 19-C ) :   0.3709 B( 16-C , 20-H ) :   0.9882 B( 16-C , 21-H ) :   0.9683
B( 16-C , 22-H ) :  -0.1109 B( 19-C , 22-H ) :   1.0664 B( 19-C , 23-H ) :   0.8500

FINAL SINGLE POINT ENERGY      -582.314003169509

DIPOLE MOMENT
-------------
                                X             Y             Z
Electronic contribution:     -3.45576       0.81622     -12.71670
Nuclear contribution   :      2.21030       0.63135      12.80988
                        -----------------------------------------
Total Dipole Moment    :     -1.24546       1.44757       0.09318
                        -----------------------------------------
Magnitude (a.u.)       :      1.91189
Magnitude (Debye)      :      4.85963

Rotational constants in cm-1:     0.039980     0.026547     0.019089
Rotational constants in MHz :  1198.568620   795.867393   572.288555

                             ****ORCA TERMINATED NORMALLY****
TOTAL RUN TIME: 0 days 0 hours 7 minutes 27 seconds 40 msec
