                         Program Version 5.0.0 -  RELEASE  -
|  1> !wB97X-D3 RIJCOSX def2-SVPD def2/J TightSCF
|  2> *xyz -1 1
|  3> C         -0.05517        1.61942       -3.78858
|  4> C          1.22302        2.46987       -3.75691
|  5> H          1.11470        3.25807       -4.53300
|  6> H          1.23773        3.01124       -2.79216
|  7> O          2.35381        1.71203       -3.93448
|  8> H         -0.10198        1.08015       -4.71156
|  9> H         -0.91014        2.25726       -3.70441
| 10> H         -0.04403        0.92826       -2.97183
| 11> *
| 12>
| 13> %MaxCore 64000
| 14>
| 15> %pal nprocs 18
| 16> end
| 17>
| 18> %scf
| 19>   MaxIter 150
| 20> end
| 21>
| 22>
| 23>                          ****END OF INPUT****

CARTESIAN COORDINATES (ANGSTROEM)
---------------------------------
  C     -0.055170    1.619420   -3.788580
  C      1.223020    2.469870   -3.756910
  H      1.114700    3.258070   -4.533000
  H      1.237730    3.011240   -2.792160
  O      2.353810    1.712030   -3.934480
  H     -0.101980    1.080150   -4.711560
  H     -0.910140    2.257260   -3.704410
  H     -0.044030    0.928260   -2.971830

 Total Charge           Charge          ....   -1
 Multiplicity           Mult            ....    1
 Number of Electrons    NEL             ....   26
 Basis Dimension        Dim             ....  103

ORBITAL ENERGIES
----------------

  NO   OCC          E(Eh)            E(eV)
   0   2.0000     -18.906815      -514.4806
   1   2.0000     -10.102701      -274.9085
   2   2.0000     -10.080393      -274.3014
   3   2.0000      -0.780752       -21.2453
   4   2.0000      -0.632658       -17.2155
   5   2.0000      -0.475222       -12.9315
   6   2.0000      -0.351882        -9.5752
   7   2.0000      -0.326704        -8.8901
   8   2.0000      -0.270383        -7.3575
   9   2.0000      -0.252117        -6.8604
  10   2.0000      -0.204282        -5.5588
  11   2.0000      -0.058327        -1.5872
  12   2.0000      -0.056901        -1.5484
  13   0.0000       0.246138         6.6977
  14   0.0000       0.277537         7.5522
  15   0.0000       0.316289         8.6067
  16   0.0000       0.328736         8.9454
  17   0.0000       0.344515         9.3747

MULLIKEN ATOMIC CHARGES
-----------------------
   0 C :    0.299157
   1 C :    0.169938
   2 H :   -0.152026
   3 H :   -0.165738
   4 O :   -0.924113
   5 H :   -0.085353
   6 H :   -0.058199
   7 H :   -0.083666
Sum of atomic charges:   -1.0000000

LOEWDIN ATOMIC CHARGES
----------------------
   0 C :    0.057962
   1 C :   -0.258963
   2 H :   -0.030011
   3 H :   -0.031636
   4 O :   -0.599323
   5 H :   -0.039933
   6 H :   -0.057246
   7 H :   -0.040851

  Mayer bond orders larger than 0.100000
B(  0-C ,  1-C ) :   1.1754 B(  0-C ,  2-H ) :   0.1067 B(  0-C ,  3-H ) :   0.1051
B(  0-C ,  4-O ) :   0.1060 B(  0-C ,  5-H ) :   0.9058 B(  0-C ,  6-H ) :   0.8902
B(  0-C ,  7-H ) :   0.9050 B(  1-C ,  2-H ) :   0.9751 B(  1-C ,  3-H ) :   0.9818
B(  1-C ,  4-O ) :   1.1753 B(  1-C ,  5-H ) :   0.1687 B(  1-C ,  6-H ) :   0.1148
B(  1-C ,  7-H ) :   0.1608

Dispersion correction           -0.000857260
FINAL SINGLE POINT ENERGY      -154.273382004605

DIPOLE MOMENT
-------------
                                X             Y             Z
Electronic contribution:      2.63712      -0.48270      -0.23708
Nuclear contribution   :     -4.28298       0.81046       0.39340
                        -----------------------------------------
Total Dipole Moment    :     -1.64586       0.32776       0.15632
                        -----------------------------------------
Magnitude (a.u.)       :      1.68545
Magnitude (Debye)      :      4.28406

Rotational constants in cm-1:     1.266793     0.328147     0.288309
Rotational constants in MHz : 37977.512300  9837.594308  8643.275638

                             ****ORCA TERMINATED NORMALLY****
TOTAL RUN TIME: 0 days 0 hours 0 minutes 4 seconds 518 msec
