                         Program Version 5.0.0 -  RELEASE  -
|  1> !wB97X-D3 RIJCOSX def2-SVPD def2/J TightSCF
|  2> *xyz 1 1
|  3> C          1.63556       -1.67040       -5.29211
|  4> C          0.33848       -1.50091       -4.50540
|  5> N          2.48451       -0.50741       -5.14039
|  6> H          1.39834       -1.82924       -6.35259
|  7> H          2.15586       -2.56540       -4.93209
|  8> C          3.45115       -0.14953       -5.95259
|  9> N          3.92267        1.08956       -5.85071
| 10> N          3.96616       -1.00618       -6.86788
| 11> H          3.52139       -1.90647       -6.99527
| 12> H          4.44482       -0.62347       -7.67035
| 13> H          2.25200        0.24080       -4.49879
| 14> H          3.46428        1.64078       -5.13639
| 15> H          4.83447        1.31375       -6.22465
| 16> H         -0.17658       -0.62881       -4.85045
| 17> H          0.56384       -1.39374       -3.46490
| 18> H         -0.28102       -2.36136       -4.64938
| 19> *
| 20>
| 21> %MaxCore 64000
| 22>
| 23> %pal nprocs 18
| 24> end
| 25>
| 26> %scf
| 27>   MaxIter 150
| 28> end
| 29>
| 30>
| 31>                          ****END OF INPUT****

CARTESIAN COORDINATES (ANGSTROEM)
---------------------------------
  C      1.635560   -1.670400   -5.292110
  C      0.338480   -1.500910   -4.505400
  N      2.484510   -0.507410   -5.140390
  H      1.398340   -1.829240   -6.352590
  H      2.155860   -2.565400   -4.932090
  C      3.451150   -0.149530   -5.952590
  N      3.922670    1.089560   -5.850710
  N      3.966160   -1.006180   -6.867880
  H      3.521390   -1.906470   -6.995270
  H      4.444820   -0.623470   -7.670350
  H      2.252000    0.240800   -4.498790
  H      3.464280    1.640780   -5.136390
  H      4.834470    1.313750   -6.224650
  H     -0.176580   -0.628810   -4.850450
  H      0.563840   -1.393740   -3.464900
  H     -0.281020   -2.361360   -4.649380

 Total Charge           Charge          ....    1
 Multiplicity           Mult            ....    1
 Number of Electrons    NEL             ....   48
 Basis Dimension        Dim             ....  200

ORBITAL ENERGIES
----------------

  NO   OCC          E(Eh)            E(eV)
   0   2.0000     -14.666456      -399.0946
   1   2.0000     -14.662256      -398.9803
   2   2.0000     -14.660398      -398.9297
   3   2.0000     -10.628221      -289.2086
   4   2.0000     -10.500666      -285.7377
   5   2.0000     -10.429391      -283.7981
   6   2.0000      -1.332596       -36.2618
   7   2.0000      -1.216768       -33.1099
   8   2.0000      -1.202510       -32.7220
   9   2.0000      -1.047202       -28.4958
  10   2.0000      -0.938365       -25.5342
  11   2.0000      -0.922234       -25.0953
  12   2.0000      -0.883498       -24.0412
  13   2.0000      -0.850575       -23.1453
  14   2.0000      -0.792184       -21.5564
  15   2.0000      -0.786865       -21.4117
  16   2.0000      -0.767612       -20.8878
  17   2.0000      -0.743554       -20.2331
  18   2.0000      -0.705734       -19.2040
  19   2.0000      -0.645246       -17.5580
  20   2.0000      -0.627808       -17.0835
  21   2.0000      -0.618037       -16.8176
  22   2.0000      -0.575054       -15.6480
  23   2.0000      -0.547574       -14.9002
  24   0.0000      -0.091367        -2.4862
  25   0.0000      -0.077085        -2.0976
  26   0.0000      -0.047105        -1.2818
  27   0.0000      -0.031358        -0.8533
  28   0.0000      -0.013448        -0.3659

MULLIKEN ATOMIC CHARGES
-----------------------
   0 C :    0.022004
   1 C :    0.681548
   2 N :   -0.486215
   3 H :   -0.052324
   4 H :   -0.055945
   5 C :    1.261501
   6 N :   -0.061146
   7 N :   -0.124000
   8 H :    0.004582
   9 H :   -0.043132
  10 H :   -0.107434
  11 H :    0.056047
  12 H :   -0.065168
  13 H :   -0.009123
  14 H :    0.002004
  15 H :   -0.023197
Sum of atomic charges:    1.0000000

LOEWDIN ATOMIC CHARGES
----------------------
   0 C :    0.023373
   1 C :    0.155781
   2 N :    0.031591
   3 H :    0.038683
   4 H :    0.043572
   5 C :   -0.023745
   6 N :    0.256475
   7 N :    0.274642
   8 H :    0.017573
   9 H :    0.038198
  10 H :    0.055683
  11 H :    0.035584
  12 H :    0.047157
  13 H :   -0.001352
  14 H :   -0.000210
  15 H :    0.006992

  Mayer bond orders larger than 0.100000
B(  0-C ,  1-C ) :   1.2821 B(  0-C ,  2-N ) :   0.8966 B(  0-C ,  3-H ) :   0.8866
B(  0-C ,  4-H ) :   0.9222 B(  0-C , 10-H ) :  -0.1054 B(  0-C , 13-H ) :   0.1903
B(  0-C , 14-H ) :   0.2125 B(  0-C , 15-H ) :   0.2568 B(  1-C , 13-H ) :   0.8136
B(  1-C , 14-H ) :   0.7577 B(  1-C , 15-H ) :   0.7762 B(  2-N ,  3-H ) :   0.1547
B(  2-N ,  4-H ) :   0.1549 B(  2-N ,  5-C ) :   1.0824 B(  2-N ,  6-N ) :   0.2623
B(  2-N ,  7-N ) :   0.1888 B(  2-N , 10-H ) :   1.1950 B(  5-C ,  6-N ) :   0.9571
B(  5-C ,  7-N ) :   0.9250 B(  5-C ,  9-H ) :  -0.1107 B(  5-C , 10-H ) :  -0.2121
B(  6-N ,  7-N ) :   0.1450 B(  6-N , 11-H ) :   1.0420 B(  6-N , 12-H ) :   1.2097
B(  7-N ,  8-H ) :   1.0337 B(  7-N ,  9-H ) :   1.2032 B(  8-H ,  9-H ) :  -0.1435
B( 11-H , 12-H ) :  -0.1333

Dispersion correction           -0.003480723
FINAL SINGLE POINT ENERGY      -284.135491037887

DIPOLE MOMENT
-------------
                                X             Y             Z
Electronic contribution:      4.71255       2.48497      -1.70695
Nuclear contribution   :     -3.96322      -1.85512       1.24891
                        -----------------------------------------
Total Dipole Moment    :      0.74933       0.62985      -0.45805
                        -----------------------------------------
Magnitude (a.u.)       :      1.08075
Magnitude (Debye)      :      2.74706

Rotational constants in cm-1:     0.261404     0.067000     0.054949
Rotational constants in MHz :  7836.702504  2008.609425  1647.329138

                             ****ORCA TERMINATED NORMALLY****
TOTAL RUN TIME: 0 days 0 hours 0 minutes 11 seconds 648 msec
