                         Program Version 5.0.0 -  RELEASE  -
|  1> !wB97X-D3 RIJCOSX def2-SVPD def2/J TightSCF
|  2> *xyz 0 1
|  3> C         -0.05517        1.61942       -3.78858
|  4> C          1.22302        2.46987       -3.75691
|  5> H          1.11470        3.25807       -4.53300
|  6> H          1.23773        3.01124       -2.79216
|  7> F          2.35381        1.71203       -3.93448
|  8> H         -0.10198        1.08015       -4.71156
|  9> H         -0.91014        2.25726       -3.70441
| 10> H         -0.04403        0.92826       -2.97183
| 11> *
| 12>
| 13> %MaxCore 64000
| 14>
| 15> %pal nprocs 18
| 16> end
| 17>
| 18> %scf
| 19>   MaxIter 150
| 20> end
| 21>
| 22>
| 23>                          ****END OF INPUT****

CARTESIAN COORDINATES (ANGSTROEM)
---------------------------------
  C     -0.055170    1.619420   -3.788580
  C      1.223020    2.469870   -3.756910
  H      1.114700    3.258070   -4.533000
  H      1.237730    3.011240   -2.792160
  F      2.353810    1.712030   -3.934480
  H     -0.101980    1.080150   -4.711560
  H     -0.910140    2.257260   -3.704410
  H     -0.044030    0.928260   -2.971830

 Total Charge           Charge          ....    0
 Multiplicity           Mult            ....    1
 Number of Electrons    NEL             ....   26
 Basis Dimension        Dim             ....  103

ORBITAL ENERGIES
----------------

  NO   OCC          E(Eh)            E(eV)
   0   2.0000     -24.789624      -674.5600
   1   2.0000     -10.371802      -282.2311
   2   2.0000     -10.286294      -279.9043
   3   2.0000      -1.298569       -35.3359
   4   2.0000      -0.875838       -23.8328
   5   2.0000      -0.738472       -20.0948
   6   2.0000      -0.613265       -16.6878
   7   2.0000      -0.602143       -16.3852
   8   2.0000      -0.562455       -15.3052
   9   2.0000      -0.506046       -13.7702
  10   2.0000      -0.499359       -13.5883
  11   2.0000      -0.435417       -11.8483
  12   2.0000      -0.429529       -11.6881
  13   0.0000       0.093966         2.5569
  14   0.0000       0.124581         3.3900
  15   0.0000       0.154967         4.2169
  16   0.0000       0.159615         4.3433
  17   0.0000       0.186599         5.0776

MULLIKEN ATOMIC CHARGES
-----------------------
   0 C :    0.224512
   1 C :    0.381851
   2 H :   -0.027953
   3 H :   -0.042674
   4 F :   -0.463335
   5 H :   -0.032683
   6 H :   -0.010017
   7 H :   -0.029701
Sum of atomic charges:    0.0000000

LOEWDIN ATOMIC CHARGES
----------------------
   0 C :    0.129222
   1 C :    0.069196
   2 H :    0.033108
   3 H :    0.030634
   4 F :   -0.225279
   5 H :   -0.012161
   6 H :   -0.011699
   7 H :   -0.013021

  Mayer bond orders larger than 0.100000
B(  0-C ,  1-C ) :   1.3140 B(  0-C ,  5-H ) :   0.9082 B(  0-C ,  6-H ) :   0.8781
B(  0-C ,  7-H ) :   0.9095 B(  1-C ,  2-H ) :   0.9548 B(  1-C ,  3-H ) :   0.9607
B(  1-C ,  4-F ) :   0.7339 B(  1-C ,  5-H ) :   0.1250 B(  1-C ,  6-H ) :   0.1042
B(  1-C ,  7-H ) :   0.1185

Dispersion correction           -0.000872722
FINAL SINGLE POINT ENERGY      -178.888914745561

DIPOLE MOMENT
-------------
                                X             Y             Z
Electronic contribution:      4.99957      -0.72278      -0.42884
Nuclear contribution   :     -5.66833       1.07099       0.52006
                        -----------------------------------------
Total Dipole Moment    :     -0.66876       0.34821       0.09122
                        -----------------------------------------
Magnitude (a.u.)       :      0.75948
Magnitude (Debye)      :      1.93046

Rotational constants in cm-1:     1.245689     0.305293     0.269541
Rotational constants in MHz : 37344.801915  9152.442838  8080.640229

                             ****ORCA TERMINATED NORMALLY****
TOTAL RUN TIME: 0 days 0 hours 0 minutes 4 seconds 420 msec
