                         Program Version 5.0.0 -  RELEASE  -
|  1> !wB97X-D3 RIJCOSX def2-SVPD def2/J TightSCF
|  2> *xyz 0 1
|  3> C          1.63556       -1.67040       -5.29211
|  4> C          0.33848       -1.50091       -4.50540
|  5> C          2.48451       -0.50741       -5.14039
|  6> H          1.39834       -1.82924       -6.35259
|  7> H          2.15586       -2.56540       -4.93209
|  8> C          3.45115       -0.14953       -5.95259
|  9> N          3.92267        1.08956       -5.85071
| 10> N          3.96616       -1.00618       -6.86788
| 11> H          3.52139       -1.90647       -6.99527
| 12> H          4.44482       -0.62347       -7.67035
| 13> H          2.25200        0.24080       -4.49879
| 14> H          3.46428        1.64078       -5.13639
| 15> H          4.83447        1.31375       -6.22465
| 16> H         -0.17658       -0.62881       -4.85045
| 17> H          0.56384       -1.39374       -3.46490
| 18> H         -0.28102       -2.36136       -4.64938
| 19> *
| 20>
| 21> %MaxCore 64000
| 22>
| 23> %pal nprocs 18
| 24> end
| 25>
| 26> %scf
| 27>   MaxIter 150
| 28> end
| 29>
| 30>
| 31>                          ****END OF INPUT****

CARTESIAN COORDINATES (ANGSTROEM)
---------------------------------
  C      1.635560   -1.670400   -5.292110
  C      0.338480   -1.500910   -4.505400
  C      2.484510   -0.507410   -5.140390
  H      1.398340   -1.829240   -6.352590
  H      2.155860   -2.565400   -4.932090
  C      3.451150   -0.149530   -5.952590
  N      3.922670    1.089560   -5.850710
  N      3.966160   -1.006180   -6.867880
  H      3.521390   -1.906470   -6.995270
  H      4.444820   -0.623470   -7.670350
  H      2.252000    0.240800   -4.498790
  H      3.464280    1.640780   -5.136390
  H      4.834470    1.313750   -6.224650
  H     -0.176580   -0.628810   -4.850450
  H      0.563840   -1.393740   -3.464900
  H     -0.281020   -2.361360   -4.649380

 Total Charge           Charge          ....    0
 Multiplicity           Mult            ....    1
 Number of Electrons    NEL             ....   48
 Basis Dimension        Dim             ....  200

ORBITAL ENERGIES
----------------

  NO   OCC          E(Eh)            E(eV)
   0   2.0000     -14.438819      -392.9002
   1   2.0000     -14.433579      -392.7577
   2   2.0000     -10.330245      -281.1003
   3   2.0000     -10.267535      -279.3938
   4   2.0000     -10.258541      -279.1491
   5   2.0000     -10.210790      -277.8497
   6   2.0000      -1.068228       -29.0680
   7   2.0000      -0.977576       -26.6012
   8   2.0000      -0.887535       -24.1511
   9   2.0000      -0.806535       -21.9469
  10   2.0000      -0.717363       -19.5204
  11   2.0000      -0.685591       -18.6559
  12   2.0000      -0.637715       -17.3531
  13   2.0000      -0.615631       -16.7522
  14   2.0000      -0.566539       -15.4163
  15   2.0000      -0.543501       -14.7894
  16   2.0000      -0.528804       -14.3895
  17   2.0000      -0.496413       -13.5081
  18   2.0000      -0.478079       -13.0092
  19   2.0000      -0.437377       -11.9016
  20   2.0000      -0.426324       -11.6009
  21   2.0000      -0.424961       -11.5638
  22   2.0000      -0.360548        -9.8110
  23   2.0000      -0.250364        -6.8127
  24   0.0000       0.091690         2.4950
  25   0.0000       0.113024         3.0755
  26   0.0000       0.117858         3.2071
  27   0.0000       0.141898         3.8612
  28   0.0000       0.146475         3.9858

MULLIKEN ATOMIC CHARGES
-----------------------
   0 C :   -0.239494
   1 C :    0.875287
   2 C :   -0.073457
   3 H :   -0.154747
   4 H :   -0.082655
   5 C :    0.546182
   6 N :    0.001462
   7 N :   -0.117261
   8 H :   -0.005779
   9 H :   -0.144057
  10 H :   -0.389585
  11 H :    0.077221
  12 H :   -0.184064
  13 H :   -0.009783
  14 H :   -0.001905
  15 H :   -0.097364
Sum of atomic charges:   -0.0000000

LOEWDIN ATOMIC CHARGES
----------------------
   0 C :   -0.117512
   1 C :    0.107425
   2 C :   -0.043750
   3 H :    0.017305
   4 H :    0.019448
   5 C :   -0.223600
   6 N :    0.167725
   7 N :    0.196867
   8 H :   -0.013565
   9 H :   -0.010039
  10 H :   -0.049630
  11 H :    0.003246
  12 H :   -0.004117
  13 H :   -0.013755
  14 H :   -0.013723
  15 H :   -0.022325

  Mayer bond orders larger than 0.100000
B(  0-C ,  1-C ) :   1.1938 B(  0-C ,  2-C ) :   0.9536 B(  0-C ,  3-H ) :   0.8890
B(  0-C ,  4-H ) :   0.7862 B(  0-C , 10-H ) :   0.1911 B(  0-C , 13-H ) :   0.2135
B(  0-C , 14-H ) :   0.2264 B(  0-C , 15-H ) :   0.3009 B(  1-C , 13-H ) :   0.7846
B(  1-C , 14-H ) :   0.7411 B(  1-C , 15-H ) :   0.7149 B(  2-C ,  3-H ) :   0.1162
B(  2-C ,  4-H ) :   0.2430 B(  2-C ,  5-C ) :   1.7016 B(  2-C ,  6-N ) :   0.3048
B(  2-C ,  7-N ) :   0.1990 B(  2-C ,  8-H ) :  -0.1237 B(  2-C , 10-H ) :   0.8745
B(  3-H , 10-H ) :   0.1102 B(  5-C ,  6-N ) :   0.9625 B(  5-C ,  7-N ) :   0.9522
B(  6-N ,  7-N ) :   0.1060 B(  6-N , 11-H ) :   1.0235 B(  6-N , 12-H ) :   1.2092
B(  7-N ,  8-H ) :   1.0310 B(  7-N ,  9-H ) :   1.2085 B(  8-H ,  9-H ) :  -0.1240
B( 11-H , 12-H ) :  -0.1321

Dispersion correction           -0.003473136
FINAL SINGLE POINT ENERGY      -267.667455277988

DIPOLE MOMENT
-------------
                                X             Y             Z
Electronic contribution:      4.51139       2.15465      -1.90309
Nuclear contribution   :     -3.99655      -1.83277       1.34879
                        -----------------------------------------
Total Dipole Moment    :      0.51484       0.32188      -0.55430
                        -----------------------------------------
Magnitude (a.u.)       :      0.82214
Magnitude (Debye)      :      2.08972

Rotational constants in cm-1:     0.262971     0.067064     0.055026
Rotational constants in MHz :  7883.664566  2010.513309  1649.636654

                             ****ORCA TERMINATED NORMALLY****
TOTAL RUN TIME: 0 days 0 hours 0 minutes 12 seconds 314 msec
