                         Program Version 5.0.0 -  RELEASE  -
|  1> !wB97X-D3 RIJCOSX def2-SVPD def2/J TightSCF
|  2> *xyz 0 1
|  3> C          1.63556       -1.67040       -5.29211
|  4> C          0.33848       -1.50091       -4.50540
|  5> N          2.48451       -0.50741       -5.14039
|  6> H          1.39834       -1.82924       -6.35259
|  7> H          2.15586       -2.56540       -4.93209
|  8> C          3.45115       -0.14953       -5.95259
|  9> C          3.92267        1.08956       -5.85071
| 10> N          3.96616       -1.00618       -6.86788
| 11> H          3.52139       -1.90647       -6.99527
| 12> H          4.44482       -0.62347       -7.67035
| 13> H          2.25200        0.24080       -4.49879
| 14> H          3.46428        1.64078       -5.13639
| 15> H          4.83447        1.31375       -6.22465
| 16> H         -0.17658       -0.62881       -4.85045
| 17> H          0.56384       -1.39374       -3.46490
| 18> H         -0.28102       -2.36136       -4.64938
| 19> *
| 20>
| 21> %MaxCore 64000
| 22>
| 23> %pal nprocs 18
| 24> end
| 25>
| 26> %scf
| 27>   MaxIter 150
| 28> end
| 29>
| 30>
| 31>                          ****END OF INPUT****

CARTESIAN COORDINATES (ANGSTROEM)
---------------------------------
  C      1.635560   -1.670400   -5.292110
  C      0.338480   -1.500910   -4.505400
  N      2.484510   -0.507410   -5.140390
  H      1.398340   -1.829240   -6.352590
  H      2.155860   -2.565400   -4.932090
  C      3.451150   -0.149530   -5.952590
  C      3.922670    1.089560   -5.850710
  N      3.966160   -1.006180   -6.867880
  H      3.521390   -1.906470   -6.995270
  H      4.444820   -0.623470   -7.670350
  H      2.252000    0.240800   -4.498790
  H      3.464280    1.640780   -5.136390
  H      4.834470    1.313750   -6.224650
  H     -0.176580   -0.628810   -4.850450
  H      0.563840   -1.393740   -3.464900
  H     -0.281020   -2.361360   -4.649380

 Total Charge           Charge          ....    0
 Multiplicity           Mult            ....    1
 Number of Electrons    NEL             ....   48
 Basis Dimension        Dim             ....  200

ORBITAL ENERGIES
----------------

  NO   OCC          E(Eh)            E(eV)
   0   2.0000     -14.437723      -392.8704
   1   2.0000     -14.437281      -392.8584
   2   2.0000     -10.335176      -281.2344
   3   2.0000     -10.333432      -281.1870
   4   2.0000     -10.290625      -280.0221
   5   2.0000     -10.197295      -277.4825
   6   2.0000      -1.081216       -29.4214
   7   2.0000      -0.991665       -26.9846
   8   2.0000      -0.889587       -24.2069
   9   2.0000      -0.811767       -22.0893
  10   2.0000      -0.735042       -20.0015
  11   2.0000      -0.702488       -19.1157
  12   2.0000      -0.639470       -17.4009
  13   2.0000      -0.599459       -16.3121
  14   2.0000      -0.584688       -15.9102
  15   2.0000      -0.563626       -15.3370
  16   2.0000      -0.518989       -14.1224
  17   2.0000      -0.497043       -13.5252
  18   2.0000      -0.477957       -13.0059
  19   2.0000      -0.472969       -12.8702
  20   2.0000      -0.472179       -12.8487
  21   2.0000      -0.447044       -12.1647
  22   2.0000      -0.353211        -9.6114
  23   2.0000      -0.249120        -6.7789
  24   0.0000       0.085491         2.3263
  25   0.0000       0.104862         2.8534
  26   0.0000       0.114478         3.1151
  27   0.0000       0.141490         3.8501
  28   0.0000       0.151068         4.1108

MULLIKEN ATOMIC CHARGES
-----------------------
   0 C :    0.049701
   1 C :    0.726178
   2 N :   -0.394501
   3 H :   -0.112641
   4 H :   -0.132756
   5 C :    0.560341
   6 C :    0.452852
   7 N :   -0.041236
   8 H :   -0.126992
   9 H :   -0.045642
  10 H :   -0.137975
  11 H :   -0.231714
  12 H :   -0.434999
  13 H :   -0.040202
  14 H :   -0.026353
  15 H :   -0.064061
Sum of atomic charges:    0.0000000

LOEWDIN ATOMIC CHARGES
----------------------
   0 C :   -0.006898
   1 C :    0.126626
   2 N :   -0.030836
   3 H :    0.020941
   4 H :    0.021198
   5 C :   -0.228908
   6 C :    0.130956
   7 N :    0.194154
   8 H :   -0.025890
   9 H :    0.005859
  10 H :    0.030408
  11 H :   -0.103260
  12 H :   -0.096799
  13 H :   -0.011218
  14 H :   -0.012596
  15 H :   -0.013737

  Mayer bond orders larger than 0.100000
B(  0-C ,  1-C ) :   1.2455 B(  0-C ,  2-N ) :   0.9011 B(  0-C ,  3-H ) :   0.9014
B(  0-C ,  4-H ) :   0.9307 B(  0-C , 10-H ) :  -0.1144 B(  0-C , 13-H ) :   0.2133
B(  0-C , 14-H ) :   0.2257 B(  0-C , 15-H ) :   0.2666 B(  1-C , 13-H ) :   0.8026
B(  1-C , 14-H ) :   0.7519 B(  1-C , 15-H ) :   0.7659 B(  2-N ,  3-H ) :   0.1487
B(  2-N ,  4-H ) :   0.1838 B(  2-N ,  5-C ) :   1.1162 B(  2-N ,  6-C ) :   0.2569
B(  2-N ,  7-N ) :   0.1110 B(  2-N , 10-H ) :   1.1461 B(  5-C ,  6-C ) :   1.7147
B(  5-C ,  7-N ) :   0.9030 B(  5-C , 10-H ) :  -0.1493 B(  5-C , 11-H ) :   0.2137
B(  5-C , 12-H ) :   0.2555 B(  6-C ,  7-N ) :   0.2183 B(  6-C , 11-H ) :   0.8164
B(  6-C , 12-H ) :   0.6983 B(  7-N ,  8-H ) :   1.0498 B(  7-N ,  9-H ) :   1.1621
B(  8-H ,  9-H ) :  -0.1354

Dispersion correction           -0.003505480
FINAL SINGLE POINT ENERGY      -267.655971416213

DIPOLE MOMENT
-------------
                                X             Y             Z
Electronic contribution:      2.95628       0.55496      -1.28643
Nuclear contribution   :     -3.69145      -1.49398       1.19810
                        -----------------------------------------
Total Dipole Moment    :     -0.73517      -0.93902      -0.08833
                        -----------------------------------------
Magnitude (a.u.)       :      1.19585
Magnitude (Debye)      :      3.03960

Rotational constants in cm-1:     0.270790     0.068966     0.056679
Rotational constants in MHz :  8118.084803  2067.559423  1699.196934

                             ****ORCA TERMINATED NORMALLY****
TOTAL RUN TIME: 0 days 0 hours 0 minutes 12 seconds 863 msec
