                         Program Version 5.0.0 -  RELEASE  -
|  1> !wB97X-D3 RIJCOSX def2-SVPD def2/J TightSCF
|  2> *xyz 0 1
|  3> C          1.63556       -1.67040       -5.29211
|  4> C          0.33848       -1.50091       -4.50540
|  5> N          2.48451       -0.50741       -5.14039
|  6> H          1.39834       -1.82924       -6.35259
|  7> H          2.15586       -2.56540       -4.93209
|  8> C          3.45115       -0.14953       -5.95259
|  9> N          3.92267        1.08956       -5.85071
| 10> C          3.96616       -1.00618       -6.86788
| 11> H          3.52139       -1.90647       -6.99527
| 12> H          4.44482       -0.62347       -7.67035
| 13> H          2.25200        0.24080       -4.49879
| 14> H          3.46428        1.64078       -5.13639
| 15> H          4.83447        1.31375       -6.22465
| 16> H         -0.17658       -0.62881       -4.85045
| 17> H          0.56384       -1.39374       -3.46490
| 18> H         -0.28102       -2.36136       -4.64938
| 19> *
| 20>
| 21> %MaxCore 64000
| 22>
| 23> %pal nprocs 18
| 24> end
| 25>
| 26> %scf
| 27>   MaxIter 150
| 28> end
| 29>
| 30>
| 31>                          ****END OF INPUT****

CARTESIAN COORDINATES (ANGSTROEM)
---------------------------------
  C      1.635560   -1.670400   -5.292110
  C      0.338480   -1.500910   -4.505400
  N      2.484510   -0.507410   -5.140390
  H      1.398340   -1.829240   -6.352590
  H      2.155860   -2.565400   -4.932090
  C      3.451150   -0.149530   -5.952590
  N      3.922670    1.089560   -5.850710
  C      3.966160   -1.006180   -6.867880
  H      3.521390   -1.906470   -6.995270
  H      4.444820   -0.623470   -7.670350
  H      2.252000    0.240800   -4.498790
  H      3.464280    1.640780   -5.136390
  H      4.834470    1.313750   -6.224650
  H     -0.176580   -0.628810   -4.850450
  H      0.563840   -1.393740   -3.464900
  H     -0.281020   -2.361360   -4.649380

 Total Charge           Charge          ....    0
 Multiplicity           Mult            ....    1
 Number of Electrons    NEL             ....   48
 Basis Dimension        Dim             ....  200

ORBITAL ENERGIES
----------------

  NO   OCC          E(Eh)            E(eV)
   0   2.0000     -14.444312      -393.0497
   1   2.0000     -14.439500      -392.9188
   2   2.0000     -10.336898      -281.2813
   3   2.0000     -10.326508      -280.9986
   4   2.0000     -10.286839      -279.9191
   5   2.0000     -10.199457      -277.5413
   6   2.0000      -1.089868       -29.6568
   7   2.0000      -0.997121       -27.1330
   8   2.0000      -0.875118       -23.8132
   9   2.0000      -0.812756       -22.1162
  10   2.0000      -0.752749       -20.4833
  11   2.0000      -0.673101       -18.3160
  12   2.0000      -0.640761       -17.4360
  13   2.0000      -0.627820       -17.0839
  14   2.0000      -0.579088       -15.7578
  15   2.0000      -0.568173       -15.4608
  16   2.0000      -0.502694       -13.6790
  17   2.0000      -0.493877       -13.4391
  18   2.0000      -0.491590       -13.3769
  19   2.0000      -0.468185       -12.7400
  20   2.0000      -0.458794       -12.4844
  21   2.0000      -0.447551       -12.1785
  22   2.0000      -0.346557        -9.4303
  23   2.0000      -0.253504        -6.8982
  24   0.0000       0.085675         2.3313
  25   0.0000       0.102140         2.7794
  26   0.0000       0.117244         3.1904
  27   0.0000       0.141909         3.8615
  28   0.0000       0.147198         4.0055

MULLIKEN ATOMIC CHARGES
-----------------------
   0 C :    0.061412
   1 C :    0.739796
   2 N :   -0.415777
   3 H :   -0.066675
   4 H :   -0.090364
   5 C :    0.422746
   6 N :    0.050264
   7 C :    0.441146
   8 H :   -0.130534
   9 H :   -0.431662
  10 H :   -0.251273
  11 H :   -0.104043
  12 H :   -0.084914
  13 H :   -0.041064
  14 H :   -0.034506
  15 H :   -0.064553
Sum of atomic charges:   -0.0000000

LOEWDIN ATOMIC CHARGES
----------------------
   0 C :    0.005386
   1 C :    0.123913
   2 N :   -0.030856
   3 H :    0.028122
   4 H :    0.029186
   5 C :   -0.239072
   6 N :    0.179496
   7 C :    0.152152
   8 H :   -0.122224
   9 H :   -0.106190
  10 H :    0.019259
  11 H :   -0.010792
  12 H :    0.014665
  13 H :   -0.014283
  14 H :   -0.015694
  15 H :   -0.013067

  Mayer bond orders larger than 0.100000
B(  0-C ,  1-C ) :   1.2277 B(  0-C ,  2-N ) :   0.9382 B(  0-C ,  3-H ) :   0.8897
B(  0-C ,  4-H ) :   0.9190 B(  0-C , 10-H ) :  -0.1089 B(  0-C , 13-H ) :   0.1977
B(  0-C , 14-H ) :   0.2292 B(  0-C , 15-H ) :   0.2621 B(  1-C , 13-H ) :   0.8095
B(  1-C , 14-H ) :   0.7405 B(  1-C , 15-H ) :   0.7648 B(  2-N ,  3-H ) :   0.1717
B(  2-N ,  4-H ) :   0.1558 B(  2-N ,  5-C ) :   1.1083 B(  2-N ,  6-N ) :   0.1793
B(  2-N ,  7-C ) :   0.2985 B(  2-N , 10-H ) :   1.2169 B(  5-C ,  6-N ) :   0.9383
B(  5-C ,  7-C ) :   1.8334 B(  5-C ,  8-H ) :   0.2861 B(  5-C ,  9-H ) :   0.2095
B(  5-C , 10-H ) :  -0.2108 B(  6-N ,  7-C ) :   0.2372 B(  6-N , 11-H ) :   1.0714
B(  6-N , 12-H ) :   1.1925 B(  7-C ,  8-H ) :   0.6624 B(  7-C ,  9-H ) :   0.7758
B(  8-H ,  9-H ) :   0.1864 B( 11-H , 12-H ) :  -0.1233

Dispersion correction           -0.003486481
FINAL SINGLE POINT ENERGY      -267.656619109426

DIPOLE MOMENT
-------------
                                X             Y             Z
Electronic contribution:      3.01928       2.61867      -0.20934
Nuclear contribution   :     -3.68222      -1.93858       0.98231
                        -----------------------------------------
Total Dipole Moment    :     -0.66294       0.68009       0.77297
                        -----------------------------------------
Magnitude (a.u.)       :      1.22454
Magnitude (Debye)      :      3.11253

Rotational constants in cm-1:     0.275407     0.068040     0.056255
Rotational constants in MHz :  8256.498401  2039.796466  1686.484500

                             ****ORCA TERMINATED NORMALLY****
TOTAL RUN TIME: 0 days 0 hours 0 minutes 12 seconds 534 msec
