                         Program Version 5.0.0 -  RELEASE  -
|  1> !wB97X-D3 RIJCOSX def2-SVPD def2/J TightSCF xyzfile
|  2>
|  3> *xyzfile 0 1 D2.xyz
|  4>
|  5> %MaxCore 64000
|  6>
|  7> %pal nprocs 18
|  8> end
|  9>
| 10> %scf
| 11>   MaxIter 150
| 12> end
| 13>
| 14>
| 15>                          ****END OF INPUT****

CARTESIAN COORDINATES (ANGSTROEM)
---------------------------------
  C      1.635557   -1.670396   -5.292109
  C      0.338484   -1.500907   -4.505398
  N      2.484511   -0.507410   -5.140392
  C     -0.684873   -0.528026   -5.099889
  C     -0.290406    0.951335   -5.153423
  H      0.607991    1.070692   -5.764412
  C     -0.055168    1.619420   -3.788577
  H     -1.080912    1.483775   -5.689436
  H      0.045006    0.862302   -3.003015
  H     -0.922936    2.230329   -3.517028
  C      1.223022    2.469865   -3.756911
  H      1.114701    3.258074   -4.532999
  H      1.237732    3.011242   -2.792157
  F      2.353815    1.712032   -3.934477
  H      1.398337   -1.829239   -6.352591
  H      2.155864   -2.565398   -4.932091
  C      3.451149   -0.149530   -5.952589
  C      3.922667    1.089559   -5.850711
  N      3.966162   -1.006183   -6.867880
  H      3.521391   -1.906467   -6.995270
  H      4.444824   -0.623472   -7.670348
  H      2.251995    0.240804   -4.498792
  H      3.464277    1.640782   -5.136392
  H      4.834470    1.313745   -6.224653
  H     -0.937999   -0.869056   -6.110838
  H     -1.604638   -0.622496   -4.513132
  H      0.594887   -1.211578   -3.482312
  H     -0.126530   -2.487656   -4.434176

 Total Charge           Charge          ....    0
 Multiplicity           Mult            ....    1
 Number of Electrons    NEL             ....   88
 Basis Dimension        Dim             ....  359

ORBITAL ENERGIES
----------------

  NO   OCC          E(Eh)            E(eV)
   0   2.0000     -24.818583      -675.3480
   1   2.0000     -14.422375      -392.4528
   2   2.0000     -14.408996      -392.0887
   3   2.0000     -10.382906      -282.5332
   4   2.0000     -10.319205      -280.7998
   5   2.0000     -10.316359      -280.7224
   6   2.0000     -10.305693      -280.4322
   7   2.0000     -10.294279      -280.1216
   8   2.0000     -10.293967      -280.1131
   9   2.0000     -10.291981      -280.0590
  10   2.0000     -10.170924      -276.7649
  11   2.0000      -1.336471       -36.3672
  12   2.0000      -1.063007       -28.9259
  13   2.0000      -0.977166       -26.5900
  14   2.0000      -0.931046       -25.3350
  15   2.0000      -0.887982       -24.1632
  16   2.0000      -0.847673       -23.0663
  17   2.0000      -0.793572       -21.5942
  18   2.0000      -0.759330       -20.6624
  19   2.0000      -0.729217       -19.8430
  20   2.0000      -0.690438       -18.7878
  21   2.0000      -0.673335       -18.3224
  22   2.0000      -0.650070       -17.6893
  23   2.0000      -0.622877       -16.9493
  24   2.0000      -0.614513       -16.7217
  25   2.0000      -0.608029       -16.5453
  26   2.0000      -0.588137       -16.0040
  27   2.0000      -0.576392       -15.6844
  28   2.0000      -0.551627       -15.0105
  29   2.0000      -0.542230       -14.7548
  30   2.0000      -0.523491       -14.2449
  31   2.0000      -0.510968       -13.9041
  32   2.0000      -0.498429       -13.5629
  33   2.0000      -0.480075       -13.0635
  34   2.0000      -0.467213       -12.7135
  35   2.0000      -0.460530       -12.5316
  36   2.0000      -0.449810       -12.2399
  37   2.0000      -0.444563       -12.0972
  38   2.0000      -0.427722       -11.6389
  39   2.0000      -0.418103       -11.3772
  40   2.0000      -0.416732       -11.3398
  41   2.0000      -0.413049       -11.2396
  42   2.0000      -0.334127        -9.0921
  43   2.0000      -0.230353        -6.2682
  44   0.0000       0.085846         2.3360
  45   0.0000       0.096003         2.6124
  46   0.0000       0.105126         2.8606
  47   0.0000       0.109420         2.9775
  48   0.0000       0.127998         3.4830

MULLIKEN ATOMIC CHARGES
-----------------------
   0 C :    0.662512
   1 C :    0.130129
   2 N :   -0.130051
   3 C :    0.178752
   4 C :    0.048179
   5 H :    0.111423
   6 C :   -0.051928
   7 H :   -0.260657
   8 H :   -0.046215
   9 H :   -0.135163
  10 C :    0.934560
  11 H :   -0.034030
  12 H :   -0.045596
  13 F :   -0.799590
  14 H :   -0.031151
  15 H :   -0.221253
  16 C :    0.657222
  17 C :    0.690826
  18 N :   -0.060887
  19 H :   -0.071594
  20 H :   -0.061575
  21 H :   -0.459932
  22 H :   -0.270803
  23 H :   -0.571623
  24 H :    0.103528
  25 H :   -0.104264
  26 H :   -0.010478
  27 H :   -0.150337
Sum of atomic charges:    0.0000000

LOEWDIN ATOMIC CHARGES
----------------------
   0 C :    0.045032
   1 C :   -0.025534
   2 N :   -0.004261
   3 C :   -0.027539
   4 C :   -0.021686
   5 H :    0.011706
   6 C :   -0.003474
   7 H :    0.020587
   8 H :    0.015506
   9 H :    0.030766
  10 C :    0.163143
  11 H :    0.050791
  12 H :    0.038743
  13 F :   -0.221966
  14 H :    0.020875
  15 H :    0.019037
  16 C :   -0.208102
  17 C :    0.156160
  18 N :    0.191652
  19 H :   -0.028823
  20 H :    0.002509
  21 H :   -0.058178
  22 H :   -0.153812
  23 H :   -0.097955
  24 H :    0.025134
  25 H :    0.022439
  26 H :    0.014729
  27 H :    0.022521

  Mayer bond orders larger than 0.100000
B(  0-C ,  1-C ) :   1.2002 B(  0-C ,  2-N ) :   0.9068 B(  0-C , 14-H ) :   0.7710
B(  0-C , 15-H ) :   0.8856 B(  0-C , 21-H ) :  -0.1795 B(  0-C , 26-H ) :   0.1322
B(  0-C , 27-H ) :   0.1898 B(  1-C ,  3-C ) :   1.2069 B(  1-C , 24-H ) :   0.1527
B(  1-C , 25-H ) :   0.1851 B(  1-C , 26-H ) :   0.7874 B(  1-C , 27-H ) :   0.8060
B(  2-N , 14-H ) :   0.3175 B(  2-N , 15-H ) :   0.1897 B(  2-N , 16-C ) :   1.0198
B(  2-N , 17-C ) :   0.3345 B(  2-N , 18-N ) :   0.1281 B(  2-N , 21-H ) :   1.0270
B(  3-C ,  4-C ) :   1.2836 B(  3-C ,  5-H ) :   0.1317 B(  3-C ,  7-H ) :   0.1219
B(  3-C , 24-H ) :   0.6884 B(  3-C , 25-H ) :   0.8572 B(  3-C , 26-H ) :   0.1458
B(  3-C , 27-H ) :   0.1370 B(  4-C ,  5-H ) :   0.8513 B(  4-C ,  6-C ) :   1.1806
B(  4-C ,  7-H ) :   0.8627 B(  4-C ,  8-H ) :   0.1206 B(  4-C ,  9-H ) :   0.1603
B(  4-C , 24-H ) :   0.2097 B(  4-C , 25-H ) :   0.1257 B(  6-C ,  8-H ) :   0.8916
B(  6-C ,  9-H ) :   0.9344 B(  6-C , 10-C ) :   1.1476 B(  6-C , 12-H ) :   0.1612
B(  6-C , 13-F ) :   0.1347 B( 10-C , 11-H ) :   0.8583 B( 10-C , 12-H ) :   0.8248
B( 10-C , 13-F ) :   0.6577 B( 11-H , 13-F ) :   0.1964 B( 13-F , 22-H ) :   0.2010
B( 16-C , 17-C ) :   1.6396 B( 16-C , 18-N ) :   0.7883 B( 16-C , 20-H ) :  -0.1247
B( 16-C , 21-H ) :  -0.3510 B( 16-C , 22-H ) :   0.3007 B( 16-C , 23-H ) :   0.3798
B( 17-C , 18-N ) :   0.3033 B( 17-C , 22-H ) :   0.5515 B( 17-C , 23-H ) :   0.4770
B( 18-N , 19-H ) :   0.9968 B( 18-N , 20-H ) :   1.1946 B( 19-H , 20-H ) :  -0.1459
B( 21-H , 22-H ) :  -0.1136

Dispersion correction           -0.011866316
FINAL SINGLE POINT ENERGY      -523.883316411233

DIPOLE MOMENT
-------------
                                X             Y             Z
Electronic contribution:      6.32930       2.46023       1.71990
Nuclear contribution   :     -7.85451      -2.70006      -1.48294
                        -----------------------------------------
Total Dipole Moment    :     -1.52521      -0.23983       0.23696
                        -----------------------------------------
Magnitude (a.u.)       :      1.56203
Magnitude (Debye)      :      3.97037

Rotational constants in cm-1:     0.044065     0.029250     0.019826
Rotational constants in MHz :  1321.026981   876.903192   594.367265

                             ****ORCA TERMINATED NORMALLY****
TOTAL RUN TIME: 0 days 0 hours 1 minutes 3 seconds 869 msec
