                         Program Version 5.0.0 -  RELEASE  -
|  1> !PBE0 D3BJ RIJCOSX def2-TZVP def2/J TightSCF
|  2> *xyz 1 1
|  3> C          1.64703       -2.34528       -5.02041
|  4> C          2.20996       -2.81239       -3.66571
|  5> C          2.48901       -1.66851       -2.73754
|  6> N          3.59631       -0.94761       -2.95225
|  7> N          1.66394       -1.41369       -1.77781
|  8> H          0.81164       -1.96318       -1.70275
|  9> H          1.84550       -0.63508       -1.15875
| 10> H          4.20535       -1.17600       -3.73383
| 11> H          3.81723       -0.12585       -2.40604
| 12> H          3.14311       -3.36280       -3.81152
| 13> H          1.48768       -3.45893       -3.16521
| 14> H          1.46566       -3.19589       -5.64368
| 15> H          2.35406       -1.69850       -5.49654
| 16> H          0.73014       -1.81680       -4.86253
| 17> *
| 18>
| 19> %MaxCore 64000
| 20> %pal nprocs 4
| 21> end
| 22>
| 23> %scf
| 24>   MaxIter 150
| 25> end
| 26>
| 27>
| 28>                          ****END OF INPUT****

CARTESIAN COORDINATES (ANGSTROEM)
---------------------------------
  C      1.647030   -2.345280   -5.020410
  C      2.209960   -2.812390   -3.665710
  C      2.489010   -1.668510   -2.737540
  N      3.596310   -0.947610   -2.952250
  N      1.663940   -1.413690   -1.777810
  H      0.811640   -1.963180   -1.702750
  H      1.845500   -0.635080   -1.158750
  H      4.205350   -1.176000   -3.733830
  H      3.817230   -0.125850   -2.406040
  H      3.143110   -3.362800   -3.811520
  H      1.487680   -3.458930   -3.165210
  H      1.465660   -3.195890   -5.643680
  H      2.354060   -1.698500   -5.496540
  H      0.730140   -1.816800   -4.862530

 Total Charge           Charge          ....    1
 Multiplicity           Mult            ....    1
 Number of Electrons    NEL             ....   40
 Basis Dimension        Dim             ....  209

ORBITAL ENERGIES
----------------

  NO   OCC          E(Eh)            E(eV)
   0   2.0000     -14.634041      -398.2125
   1   2.0000     -14.624946      -397.9650
   2   2.0000     -10.542673      -286.8807
   3   2.0000     -10.420435      -283.5545
   4   2.0000     -10.374632      -282.3081
   5   2.0000      -1.232870       -33.5481
   6   2.0000      -1.135428       -30.8966
   7   2.0000      -0.991677       -26.9849
   8   2.0000      -0.881153       -23.9774
   9   2.0000      -0.835381       -22.7319
  10   2.0000      -0.791778       -21.5454
  11   2.0000      -0.767799       -20.8929
  12   2.0000      -0.719048       -19.5663
  13   2.0000      -0.662620       -18.0308
  14   2.0000      -0.636332       -17.3155
  15   2.0000      -0.626732       -17.0542
  16   2.0000      -0.557112       -15.1598
  17   2.0000      -0.547701       -14.9037
  18   2.0000      -0.542274       -14.7560
  19   2.0000      -0.504990       -13.7415
  20   0.0000      -0.201106        -5.4724
  21   0.0000      -0.151921        -4.1340
  22   0.0000      -0.104828        -2.8525
  23   0.0000      -0.103976        -2.8293
  24   0.0000      -0.073590        -2.0025

MULLIKEN ATOMIC CHARGES
-----------------------
   0 C :   -0.344245
   1 C :   -0.252661
   2 C :    0.308341
   3 N :   -0.365530
   4 N :   -0.307736
   5 H :    0.305611
   6 H :    0.285505
   7 H :    0.304832
   8 H :    0.284380
   9 H :    0.176360
  10 H :    0.144320
  11 H :    0.178660
  12 H :    0.137762
  13 H :    0.144401
Sum of atomic charges:    1.0000000

LOEWDIN ATOMIC CHARGES
----------------------
   0 C :   -0.262454
   1 C :   -0.222059
   2 C :   -0.297334
   3 N :    0.096262
   4 N :    0.135170
   5 H :    0.217113
   6 H :    0.204070
   7 H :    0.209654
   8 H :    0.195369
   9 H :    0.168214
  10 H :    0.159968
  11 H :    0.140104
  12 H :    0.126048
  13 H :    0.129875

  Mayer bond orders larger than 0.100000
B(  0-C ,  1-C ) :   0.9889 B(  0-C , 11-H ) :   0.9582 B(  0-C , 12-H ) :   0.9661
B(  0-C , 13-H ) :   0.9571 B(  1-C ,  2-C ) :   0.9959 B(  1-C ,  9-H ) :   0.9386
B(  1-C , 10-H ) :   0.9546 B(  2-C ,  3-N ) :   1.4394 B(  2-C ,  4-N ) :   1.5251
B(  3-N ,  7-H ) :   0.8812 B(  3-N ,  8-H ) :   0.8862 B(  4-N ,  5-H ) :   0.8735
B(  4-N ,  6-H ) :   0.8806

Dispersion correction           -0.008510887
FINAL SINGLE POINT ENERGY      -228.853033012247

DIPOLE MOMENT
-------------
                                X             Y             Z
Electronic contribution:      1.19414       1.65956       3.62416
Nuclear contribution   :     -0.98617      -1.03178      -2.77619
                        -----------------------------------------
Total Dipole Moment    :      0.20797       0.62778       0.84797
                        -----------------------------------------
Magnitude (a.u.)       :      1.07537
Magnitude (Debye)      :      2.73337

Rotational constants in cm-1:     0.257311     0.127495     0.099037
Rotational constants in MHz :  7713.982239  3822.189706  2969.039713

                             ****ORCA TERMINATED NORMALLY****
TOTAL RUN TIME: 0 days 0 hours 0 minutes 31 seconds 29 msec
