                         Program Version 5.0.0 -  RELEASE  -
|  1> !PBE0 D3BJ RIJCOSX def2-TZVP def2/J TightSCF xyzfile
|  2>
|  3> *xyzfile 0 1 B.xyz
|  4>
|  5> %MaxCore 64000
|  6>
|  7> %pal nprocs 18
|  8> end
|  9>
| 10> %scf
| 11>   MaxIter 150
| 12> end
| 13>
| 14>
| 15>                          ****END OF INPUT****

CARTESIAN COORDINATES (ANGSTROEM)
---------------------------------
  C      1.647032   -2.345276   -5.020411
  C      0.217628   -1.814022   -4.924389
  C      2.209964   -2.812388   -3.665708
  C     -0.811356   -2.908780   -4.607625
  C     -1.916579   -2.485081   -3.643665
  H     -2.554525   -1.712428   -4.091993
  C     -1.363531   -1.981337   -2.293608
  H     -2.553448   -3.355667   -3.458815
  O     -0.350395   -2.749689   -1.796006
  H      2.308385   -1.588704   -5.457128
  H      1.674286   -3.203478   -5.697392
  C      2.489007   -1.668510   -2.737538
  N      3.596314   -0.947608   -2.952247
  N      1.663936   -1.413685   -1.777806
  H      0.811642   -1.963178   -1.702755
  H      1.845503   -0.635078   -1.158749
  H      4.205351   -1.176003   -3.733825
  H      3.817230   -0.125845   -2.406041
  H     -1.244829   -3.280884   -5.541040
  H     -0.306331   -3.757746   -4.142734
  H     -0.036244   -1.318555   -5.865303
  H      0.175004   -1.035382   -4.158095
  H      3.143106   -3.362803   -3.811524
  H      1.487683   -3.458935   -3.165211
  H     -2.226220   -1.908386   -1.602039
  H     -1.051353   -0.915671   -2.443331

 Total Charge           Charge          ....    0
 Multiplicity           Mult            ....    1
 Number of Electrons    NEL             ....   80
 Basis Dimension        Dim             ....  406

ORBITAL ENERGIES
----------------

  NO   OCC          E(Eh)            E(eV)
   0   2.0000     -19.058206      -518.6001
   1   2.0000     -14.459020      -393.4499
   2   2.0000     -14.413652      -392.2154
   3   2.0000     -10.358612      -281.8722
   4   2.0000     -10.246076      -278.8099
   5   2.0000     -10.234058      -278.4829
   6   2.0000     -10.203770      -277.6587
   7   2.0000     -10.191916      -277.3361
   8   2.0000     -10.184172      -277.1254
   9   2.0000     -10.166380      -276.6413
  10   2.0000      -1.048573       -28.5331
  11   2.0000      -0.954480       -25.9727
  12   2.0000      -0.902938       -24.5702
  13   2.0000      -0.839213       -22.8361
  14   2.0000      -0.776305       -21.1243
  15   2.0000      -0.725115       -19.7314
  16   2.0000      -0.669688       -18.2231
  17   2.0000      -0.649207       -17.6658
  18   2.0000      -0.612703       -16.6725
  19   2.0000      -0.605323       -16.4717
  20   2.0000      -0.578691       -15.7470
  21   2.0000      -0.537806       -14.6345
  22   2.0000      -0.515410       -14.0250
  23   2.0000      -0.498078       -13.5534
  24   2.0000      -0.477426       -12.9914
  25   2.0000      -0.452671       -12.3178
  26   2.0000      -0.441696       -12.0192
  27   2.0000      -0.414771       -11.2865
  28   2.0000      -0.401835       -10.9345
  29   2.0000      -0.398666       -10.8482
  30   2.0000      -0.367295        -9.9946
  31   2.0000      -0.358791        -9.7632
  32   2.0000      -0.348497        -9.4831
  33   2.0000      -0.329851        -8.9757
  34   2.0000      -0.321683        -8.7534
  35   2.0000      -0.308427        -8.3927
  36   2.0000      -0.300186        -8.1685
  37   2.0000      -0.293469        -7.9857
  38   2.0000      -0.177859        -4.8398
  39   2.0000      -0.170413        -4.6372
  40   0.0000      -0.024020        -0.6536
  41   0.0000      -0.004912        -0.1337
  42   0.0000       0.033806         0.9199
  43   0.0000       0.059163         1.6099
  44   0.0000       0.071391         1.9426

MULLIKEN ATOMIC CHARGES
-----------------------
   0 C :   -0.184461
   1 C :   -0.203466
   2 C :   -0.256891
   3 C :   -0.192948
   4 C :   -0.108488
   5 H :    0.058402
   6 C :   -0.057541
   7 H :    0.076746
   8 O :   -0.683470
   9 H :    0.091595
  10 H :    0.118443
  11 C :    0.249019
  12 N :   -0.410957
  13 N :   -0.299091
  14 H :    0.300614
  15 H :    0.218634
  16 H :    0.268308
  17 H :    0.250943
  18 H :    0.089630
  19 H :    0.095134
  20 H :    0.100325
  21 H :    0.102001
  22 H :    0.134591
  23 H :    0.187537
  24 H :    0.047502
  25 H :    0.007889
Sum of atomic charges:    0.0000000

LOEWDIN ATOMIC CHARGES
----------------------
   0 C :   -0.261273
   1 C :   -0.263011
   2 C :   -0.213358
   3 C :   -0.277669
   4 C :   -0.290088
   5 H :    0.124385
   6 C :   -0.493359
   7 H :    0.131126
   8 O :   -0.275853
   9 H :    0.129196
  10 H :    0.144824
  11 C :   -0.320119
  12 N :    0.038939
  13 N :    0.148970
  14 H :    0.101736
  15 H :    0.173473
  16 H :    0.188381
  17 H :    0.176322
  18 H :    0.128900
  19 H :    0.141070
  20 H :    0.133788
  21 H :    0.139090
  22 H :    0.148375
  23 H :    0.168665
  24 H :    0.099851
  25 H :    0.077640

  Mayer bond orders larger than 0.100000
B(  0-C ,  1-C ) :   0.9968 B(  0-C ,  2-C ) :   0.9799 B(  0-C ,  9-H ) :   0.9582
B(  0-C , 10-H ) :   0.9487 B(  1-C ,  3-C ) :   0.9868 B(  1-C , 20-H ) :   0.9500
B(  1-C , 21-H ) :   0.9710 B(  2-C , 11-C ) :   0.9857 B(  2-C , 22-H ) :   0.9434
B(  2-C , 23-H ) :   0.9367 B(  3-C ,  4-C ) :   1.0062 B(  3-C , 18-H ) :   0.9518
B(  3-C , 19-H ) :   0.9601 B(  4-C ,  5-H ) :   0.9472 B(  4-C ,  6-C ) :   0.9668
B(  4-C ,  7-H ) :   0.9428 B(  4-C ,  8-O ) :  -0.1159 B(  6-C ,  8-O ) :   1.2617
B(  6-C , 24-H ) :   0.9510 B(  6-C , 25-H ) :   0.9591 B(  8-O , 14-H ) :   0.3871
B( 11-C , 12-N ) :   1.3158 B( 11-C , 13-N ) :   1.7001 B( 12-N , 16-H ) :   0.8961
B( 12-N , 17-H ) :   0.8994 B( 13-N , 14-H ) :   0.6226 B( 13-N , 15-H ) :   0.9021

Dispersion correction           -0.023149150
FINAL SINGLE POINT ENERGY      -460.721758803563

DIPOLE MOMENT
-------------
                                X             Y             Z
Electronic contribution:      5.61043       0.86938       4.35648
Nuclear contribution   :     -2.25948       0.71378      -5.15247
                        -----------------------------------------
Total Dipole Moment    :      3.35094       1.58316      -0.79599
                        -----------------------------------------
Magnitude (a.u.)       :      3.79062
Magnitude (Debye)      :      9.63499

Rotational constants in cm-1:     0.063973     0.031829     0.024059
Rotational constants in MHz :  1917.874550   954.201145   721.285252

                             ****ORCA TERMINATED NORMALLY****
TOTAL RUN TIME: 0 days 0 hours 0 minutes 32 seconds 675 msec
