                         Program Version 5.0.0 -  RELEASE  -
|  1> !PBE0 D3BJ RIJCOSX def2-TZVP def2/J TightSCF
|  2> *xyz 0 1
|  3> C         -1.91658       -2.48508       -3.64367
|  4> C         -1.36353       -1.98134       -2.29361
|  5> F         -0.35039       -2.74969       -1.79601
|  6> H         -2.22622       -1.90839       -1.60204
|  7> H         -1.05135       -0.91567       -2.44333
|  8> H         -1.11522       -2.57167       -4.34739
|  9> H         -2.64227       -1.79099       -4.01314
| 10> H         -2.37564       -3.44180       -3.50640
| 11> *
| 12>
| 13> %MaxCore 64000
| 14> %pal nprocs 4
| 15> end
| 16>
| 17> %scf
| 18>   MaxIter 150
| 19> end
| 20>
| 21>
| 22>                          ****END OF INPUT****

CARTESIAN COORDINATES (ANGSTROEM)
---------------------------------
  C     -1.916580   -2.485080   -3.643670
  C     -1.363530   -1.981340   -2.293610
  F     -0.350390   -2.749690   -1.796010
  H     -2.226220   -1.908390   -1.602040
  H     -1.051350   -0.915670   -2.443330
  H     -1.115220   -2.571670   -4.347390
  H     -2.642270   -1.790990   -4.013140
  H     -2.375640   -3.441800   -3.506400

 Total Charge           Charge          ....    0
 Multiplicity           Mult            ....    1
 Number of Electrons    NEL             ....   26
 Basis Dimension        Dim             ....  123

ORBITAL ENERGIES
----------------

  NO   OCC          E(Eh)            E(eV)
   0   2.0000     -24.757159      -673.6765
   1   2.0000     -10.298902      -280.2474
   2   2.0000     -10.214261      -277.9442
   3   2.0000      -1.231615       -33.5140
   4   2.0000      -0.785828       -21.3835
   5   2.0000      -0.650952       -17.7133
   6   2.0000      -0.524539       -14.2734
   7   2.0000      -0.509126       -13.8540
   8   2.0000      -0.474062       -12.8999
   9   2.0000      -0.419496       -11.4151
  10   2.0000      -0.413931       -11.2636
  11   2.0000      -0.347674        -9.4607
  12   2.0000      -0.340494        -9.2653
  13   0.0000       0.051459         1.4003
  14   0.0000       0.090124         2.4524
  15   0.0000       0.106991         2.9114
  16   0.0000       0.108619         2.9557
  17   0.0000       0.123569         3.3625

MULLIKEN ATOMIC CHARGES
-----------------------
   0 C :   -0.341684
   1 C :    0.015518
   2 F :   -0.224907
   3 H :    0.094609
   4 H :    0.094188
   5 H :    0.123795
   6 H :    0.115878
   7 H :    0.122603
Sum of atomic charges:    0.0000000

LOEWDIN ATOMIC CHARGES
----------------------
   0 C :   -0.313940
   1 C :   -0.377683
   2 F :    0.099762
   3 H :    0.116762
   4 H :    0.118381
   5 H :    0.117753
   6 H :    0.122279
   7 H :    0.116686

  Mayer bond orders larger than 0.100000
B(  0-C ,  1-C ) :   1.0104 B(  0-C ,  5-H ) :   0.9671 B(  0-C ,  6-H ) :   0.9565
B(  0-C ,  7-H ) :   0.9684 B(  1-C ,  2-F ) :   1.0074 B(  1-C ,  3-H ) :   0.9660
B(  1-C ,  4-H ) :   0.9678

Dispersion correction           -0.002808038
FINAL SINGLE POINT ENERGY      -178.937004232384

DIPOLE MOMENT
-------------
                                X             Y             Z
Electronic contribution:      3.63313      -1.36743       3.43616
Nuclear contribution   :     -4.15401       1.70894      -3.75000
                        -----------------------------------------
Total Dipole Moment    :     -0.52089       0.34151      -0.31384
                        -----------------------------------------
Magnitude (a.u.)       :      0.69746
Magnitude (Debye)      :      1.77279

Rotational constants in cm-1:     1.266842     0.300492     0.266603
Rotational constants in MHz : 37978.968232  9008.526876  7992.551454

                             ****ORCA TERMINATED NORMALLY****
TOTAL RUN TIME: 0 days 0 hours 0 minutes 10 seconds 725 msec
