                         Program Version 5.0.0 -  RELEASE  -
|  1> !PBE0 D3BJ RIJCOSX def2-TZVP def2/J TightSCF
|  2> *xyz 0 1
|  3> C          1.64703       -2.34528       -5.02041
|  4> C          2.20996       -2.81239       -3.66571
|  5> C          2.48901       -1.66851       -2.73754
|  6> C          3.59631       -0.94761       -2.95225
|  7> N          1.66394       -1.41369       -1.77781
|  8> H          0.81164       -1.96318       -1.70275
|  9> H          1.84550       -0.63508       -1.15875
| 10> H          4.20535       -1.17600       -3.73383
| 11> H          3.81723       -0.12585       -2.40604
| 12> H          3.14311       -3.36280       -3.81152
| 13> H          1.48768       -3.45893       -3.16521
| 14> H          1.46566       -3.19589       -5.64368
| 15> H          2.35406       -1.69850       -5.49654
| 16> H          0.73014       -1.81680       -4.86253
| 17> *
| 18>
| 19> %MaxCore 64000
| 20> %pal nprocs 4
| 21> end
| 22>
| 23> %scf
| 24>   MaxIter 150
| 25> end
| 26>
| 27>
| 28>                          ****END OF INPUT****

CARTESIAN COORDINATES (ANGSTROEM)
---------------------------------
  C      1.647030   -2.345280   -5.020410
  C      2.209960   -2.812390   -3.665710
  C      2.489010   -1.668510   -2.737540
  C      3.596310   -0.947610   -2.952250
  N      1.663940   -1.413690   -1.777810
  H      0.811640   -1.963180   -1.702750
  H      1.845500   -0.635080   -1.158750
  H      4.205350   -1.176000   -3.733830
  H      3.817230   -0.125850   -2.406040
  H      3.143110   -3.362800   -3.811520
  H      1.487680   -3.458930   -3.165210
  H      1.465660   -3.195890   -5.643680
  H      2.354060   -1.698500   -5.496540
  H      0.730140   -1.816800   -4.862530

 Total Charge           Charge          ....    0
 Multiplicity           Mult            ....    1
 Number of Electrons    NEL             ....   40
 Basis Dimension        Dim             ....  209

ORBITAL ENERGIES
----------------

  NO   OCC          E(Eh)            E(eV)
   0   2.0000     -14.386836      -391.4857
   1   2.0000     -10.239497      -278.6309
   2   2.0000     -10.220433      -278.1121
   3   2.0000     -10.202462      -277.6231
   4   2.0000     -10.146639      -276.1041
   5   2.0000      -0.965674       -26.2773
   6   2.0000      -0.801520       -21.8105
   7   2.0000      -0.729204       -19.8426
   8   2.0000      -0.657349       -17.8874
   9   2.0000      -0.584977       -15.9180
  10   2.0000      -0.547290       -14.8925
  11   2.0000      -0.493894       -13.4395
  12   2.0000      -0.454512       -12.3679
  13   2.0000      -0.424032       -11.5385
  14   2.0000      -0.406004       -11.0479
  15   2.0000      -0.392818       -10.6891
  16   2.0000      -0.362265        -9.8577
  17   2.0000      -0.346616        -9.4319
  18   2.0000      -0.344506        -9.3745
  19   2.0000      -0.192694        -5.2435
  20   0.0000       0.033178         0.9028
  21   0.0000       0.053844         1.4652
  22   0.0000       0.077221         2.1013
  23   0.0000       0.083850         2.2817
  24   0.0000       0.101133         2.7520

MULLIKEN ATOMIC CHARGES
-----------------------
   0 C :   -0.335452
   1 C :   -0.210657
   2 C :    0.188497
   3 C :   -0.446204
   4 N :   -0.425706
   5 H :    0.232665
   6 H :    0.235660
   7 H :    0.110815
   8 H :    0.091104
   9 H :    0.125962
  10 H :    0.079582
  11 H :    0.116795
  12 H :    0.126325
  13 H :    0.110616
Sum of atomic charges:    0.0000000

LOEWDIN ATOMIC CHARGES
----------------------
   0 C :   -0.293305
   1 C :   -0.239897
   2 C :   -0.383426
   3 C :   -0.291906
   4 N :    0.020186
   5 H :    0.175291
   6 H :    0.178298
   7 H :    0.105705
   8 H :    0.094141
   9 H :    0.150582
  10 H :    0.132605
  11 H :    0.114202
  12 H :    0.120451
  13 H :    0.117072

  Mayer bond orders larger than 0.100000
B(  0-C ,  1-C ) :   0.9957 B(  0-C , 11-H ) :   0.9691 B(  0-C , 12-H ) :   0.9727
B(  0-C , 13-H ) :   0.9724 B(  1-C ,  2-C ) :   0.9543 B(  1-C ,  9-H ) :   0.9728
B(  1-C , 10-H ) :   0.9641 B(  2-C ,  3-C ) :   1.7579 B(  2-C ,  4-N ) :   1.2342
B(  3-C ,  7-H ) :   0.9852 B(  3-C ,  8-H ) :   0.9775 B(  4-N ,  5-H ) :   0.9116
B(  4-N ,  6-H ) :   0.9069

Dispersion correction           -0.008866053
FINAL SINGLE POINT ENERGY      -212.387786255319

DIPOLE MOMENT
-------------
                                X             Y             Z
Electronic contribution:     -0.07693       0.65421       3.04407
Nuclear contribution   :     -0.69146      -0.83112      -2.71336
                        -----------------------------------------
Total Dipole Moment    :     -0.76839      -0.17691       0.33071
                        -----------------------------------------
Magnitude (a.u.)       :      0.85504
Magnitude (Debye)      :      2.17333

Rotational constants in cm-1:     0.270661     0.129240     0.102040
Rotational constants in MHz :  8114.202941  3874.518141  3059.074383

                             ****ORCA TERMINATED NORMALLY****
TOTAL RUN TIME: 0 days 0 hours 0 minutes 30 seconds 3 msec
