                         Program Version 5.0.0 -  RELEASE  -
|  1> !PBE0 D3BJ RIJCOSX def2-TZVP def2/J TightSCF
|  2> *xyz 0 1
|  3> C          1.64703       -2.34528       -5.02041
|  4> C          2.20996       -2.81239       -3.66571
|  5> C          2.48901       -1.66851       -2.73754
|  6> N          3.59631       -0.94761       -2.95225
|  7> C          1.66394       -1.41369       -1.77781
|  8> H          0.81164       -1.96318       -1.70275
|  9> H          1.84550       -0.63508       -1.15875
| 10> H          4.20535       -1.17600       -3.73383
| 11> H          3.81723       -0.12585       -2.40604
| 12> H          3.14311       -3.36280       -3.81152
| 13> H          1.48768       -3.45893       -3.16521
| 14> H          1.46566       -3.19589       -5.64368
| 15> H          2.35406       -1.69850       -5.49654
| 16> H          0.73014       -1.81680       -4.86253
| 17> *
| 18>
| 19> %MaxCore 64000
| 20> %pal nprocs 4
| 21> end
| 22>
| 23> %scf
| 24>   MaxIter 150
| 25> end
| 26>
| 27>
| 28>                          ****END OF INPUT****

CARTESIAN COORDINATES (ANGSTROEM)
---------------------------------
  C      1.647030   -2.345280   -5.020410
  C      2.209960   -2.812390   -3.665710
  C      2.489010   -1.668510   -2.737540
  N      3.596310   -0.947610   -2.952250
  C      1.663940   -1.413690   -1.777810
  H      0.811640   -1.963180   -1.702750
  H      1.845500   -0.635080   -1.158750
  H      4.205350   -1.176000   -3.733830
  H      3.817230   -0.125850   -2.406040
  H      3.143110   -3.362800   -3.811520
  H      1.487680   -3.458930   -3.165210
  H      1.465660   -3.195890   -5.643680
  H      2.354060   -1.698500   -5.496540
  H      0.730140   -1.816800   -4.862530

 Total Charge           Charge          ....    0
 Multiplicity           Mult            ....    1
 Number of Electrons    NEL             ....   40
 Basis Dimension        Dim             ....  209

ORBITAL ENERGIES
----------------

  NO   OCC          E(Eh)            E(eV)
   0   2.0000     -14.380082      -391.3019
   1   2.0000     -10.236422      -278.5472
   2   2.0000     -10.218737      -278.0660
   3   2.0000     -10.203583      -277.6536
   4   2.0000     -10.149270      -276.1757
   5   2.0000      -0.946503       -25.7556
   6   2.0000      -0.801879       -21.8202
   7   2.0000      -0.743531       -20.2325
   8   2.0000      -0.652839       -17.7647
   9   2.0000      -0.580848       -15.8057
  10   2.0000      -0.534932       -14.5562
  11   2.0000      -0.493929       -13.4405
  12   2.0000      -0.447223       -12.1696
  13   2.0000      -0.435244       -11.8436
  14   2.0000      -0.409288       -11.1373
  15   2.0000      -0.395224       -10.7546
  16   2.0000      -0.362191        -9.8557
  17   2.0000      -0.343786        -9.3549
  18   2.0000      -0.337507        -9.1840
  19   2.0000      -0.204211        -5.5569
  20   0.0000       0.034417         0.9365
  21   0.0000       0.057599         1.5674
  22   0.0000       0.080192         2.1821
  23   0.0000       0.088553         2.4096
  24   0.0000       0.097859         2.6629

MULLIKEN ATOMIC CHARGES
-----------------------
   0 C :   -0.336210
   1 C :   -0.225625
   2 C :    0.219481
   3 N :   -0.481595
   4 C :   -0.401908
   5 H :    0.109183
   6 H :    0.087293
   7 H :    0.234650
   8 H :    0.231684
   9 H :    0.100467
  10 H :    0.113064
  11 H :    0.120727
  12 H :    0.104419
  13 H :    0.124368
Sum of atomic charges:   -0.0000000

LOEWDIN ATOMIC CHARGES
----------------------
   0 C :   -0.296845
   1 C :   -0.240003
   2 C :   -0.370630
   3 N :   -0.014325
   4 C :   -0.265462
   5 H :    0.111944
   6 H :    0.101825
   7 H :    0.169341
   8 H :    0.168762
   9 H :    0.137345
  10 H :    0.148274
  11 H :    0.115506
  12 H :    0.113653
  13 H :    0.120615

  Mayer bond orders larger than 0.100000
B(  0-C ,  1-C ) :   0.9896 B(  0-C , 11-H ) :   0.9705 B(  0-C , 12-H ) :   0.9726
B(  0-C , 13-H ) :   0.9736 B(  1-C ,  2-C ) :   0.9764 B(  1-C ,  9-H ) :   0.9610
B(  1-C , 10-H ) :   0.9728 B(  2-C ,  3-N ) :   1.1532 B(  2-C ,  4-C ) :   1.8177
B(  3-N ,  7-H ) :   0.9186 B(  3-N ,  8-H ) :   0.9139 B(  4-C ,  5-H ) :   0.9792
B(  4-C ,  6-H ) :   0.9781

Dispersion correction           -0.008857027
FINAL SINGLE POINT ENERGY      -212.391724435120

DIPOLE MOMENT
-------------
                                X             Y             Z
Electronic contribution:      1.67410       1.08805       1.98784
Nuclear contribution   :     -1.13902      -0.93906      -2.44135
                        -----------------------------------------
Total Dipole Moment    :      0.53508       0.14899      -0.45351
                        -----------------------------------------
Magnitude (a.u.)       :      0.71706
Magnitude (Debye)      :      1.82263

Rotational constants in cm-1:     0.267243     0.130607     0.102304
Rotational constants in MHz :  8011.748167  3915.504600  3066.999841

                             ****ORCA TERMINATED NORMALLY****
TOTAL RUN TIME: 0 days 0 hours 0 minutes 30 seconds 854 msec
