                         Program Version 5.0.0 -  RELEASE  -
|  1> !PBE0 D3BJ RIJCOSX def2-TZVP def2/J TightSCF xyzfile
|  2>
|  3> *xyzfile 0 1 D1.xyz
|  4>
|  5> %MaxCore 64000
|  6>
|  7> %pal nprocs 18
|  8> end
|  9>
| 10> %scf
| 11>   MaxIter 150
| 12> end
| 13>
| 14>
| 15>                          ****END OF INPUT****

CARTESIAN COORDINATES (ANGSTROEM)
---------------------------------
  C      1.647032   -2.345276   -5.020411
  C      0.217628   -1.814022   -4.924389
  C      2.209964   -2.812388   -3.665708
  C     -0.811356   -2.908780   -4.607625
  C     -1.916579   -2.485081   -3.643665
  H     -2.554525   -1.712428   -4.091993
  C     -1.363531   -1.981337   -2.293608
  H     -2.553448   -3.355667   -3.458815
  F     -0.350395   -2.749689   -1.796006
  H      2.308385   -1.588704   -5.457128
  H      1.674286   -3.203478   -5.697392
  C      2.489007   -1.668510   -2.737538
  C      3.596314   -0.947608   -2.952247
  N      1.663936   -1.413685   -1.777806
  H      0.811642   -1.963178   -1.702755
  H      1.845503   -0.635078   -1.158749
  H      4.205351   -1.176003   -3.733825
  H      3.817230   -0.125845   -2.406041
  H     -1.244829   -3.280884   -5.541040
  H     -0.306331   -3.757746   -4.142734
  H     -0.036244   -1.318555   -5.865303
  H      0.175004   -1.035382   -4.158095
  H      3.143106   -3.362803   -3.811524
  H      1.487683   -3.458935   -3.165211
  H     -2.226220   -1.908386   -1.602039
  H     -1.051353   -0.915671   -2.443331

 Total Charge           Charge          ....    0
 Multiplicity           Mult            ....    1
 Number of Electrons    NEL             ....   80
 Basis Dimension        Dim             ....  406

ORBITAL ENERGIES
----------------

  NO   OCC          E(Eh)            E(eV)
   0   2.0000     -24.806660      -675.0235
   1   2.0000     -14.351688      -390.5293
   2   2.0000     -10.319023      -280.7949
   3   2.0000     -10.238965      -278.6164
   4   2.0000     -10.223894      -278.2063
   5   2.0000     -10.222968      -278.1811
   6   2.0000     -10.214411      -277.9483
   7   2.0000     -10.211309      -277.8638
   8   2.0000     -10.207232      -277.7529
   9   2.0000     -10.131824      -275.7009
  10   2.0000      -1.289559       -35.0907
  11   2.0000      -0.943966       -25.6866
  12   2.0000      -0.845372       -23.0037
  13   2.0000      -0.803275       -21.8582
  14   2.0000      -0.758253       -20.6331
  15   2.0000      -0.713473       -19.4146
  16   2.0000      -0.686869       -18.6906
  17   2.0000      -0.631672       -17.1887
  18   2.0000      -0.606665       -16.5082
  19   2.0000      -0.593471       -16.1492
  20   2.0000      -0.551686       -15.0121
  21   2.0000      -0.547642       -14.9021
  22   2.0000      -0.527244       -14.3470
  23   2.0000      -0.501150       -13.6370
  24   2.0000      -0.480647       -13.0791
  25   2.0000      -0.472770       -12.8647
  26   2.0000      -0.453652       -12.3445
  27   2.0000      -0.432562       -11.7706
  28   2.0000      -0.431421       -11.7396
  29   2.0000      -0.401131       -10.9153
  30   2.0000      -0.382170       -10.3994
  31   2.0000      -0.374836       -10.1998
  32   2.0000      -0.372290       -10.1305
  33   2.0000      -0.366918        -9.9844
  34   2.0000      -0.350410        -9.5351
  35   2.0000      -0.342464        -9.3189
  36   2.0000      -0.331402        -9.0179
  37   2.0000      -0.321197        -8.7402
  38   2.0000      -0.318620        -8.6701
  39   2.0000      -0.176152        -4.7933
  40   0.0000       0.037280         1.0144
  41   0.0000       0.048809         1.3282
  42   0.0000       0.059395         1.6162
  43   0.0000       0.069753         1.8981
  44   0.0000       0.071229         1.9382

MULLIKEN ATOMIC CHARGES
-----------------------
   0 C :   -0.155829
   1 C :   -0.219256
   2 C :   -0.226444
   3 C :   -0.224035
   4 C :   -0.196203
   5 H :    0.114885
   6 C :   -0.085615
   7 H :    0.114645
   8 F :   -0.193661
   9 H :    0.112842
  10 H :    0.092882
  11 C :    0.164667
  12 C :   -0.462498
  13 N :   -0.464221
  14 H :    0.280022
  15 H :    0.215664
  16 H :    0.103300
  17 H :    0.085676
  18 H :    0.115535
  19 H :    0.117375
  20 H :    0.107190
  21 H :    0.110543
  22 H :    0.126980
  23 H :    0.104806
  24 H :    0.126724
  25 H :    0.134029
Sum of atomic charges:   -0.0000000

LOEWDIN ATOMIC CHARGES
----------------------
   0 C :   -0.258206
   1 C :   -0.263711
   2 C :   -0.217523
   3 C :   -0.272977
   4 C :   -0.279086
   5 H :    0.145912
   6 C :   -0.356365
   7 H :    0.139233
   8 F :    0.169529
   9 H :    0.141236
  10 H :    0.135564
  11 C :   -0.385283
  12 C :   -0.305698
  13 N :    0.020375
  14 H :    0.120681
  15 H :    0.169349
  16 H :    0.102686
  17 H :    0.092090
  18 H :    0.138753
  19 H :    0.142296
  20 H :    0.135706
  21 H :    0.140284
  22 H :    0.151395
  23 H :    0.136573
  24 H :    0.128096
  25 H :    0.129091

  Mayer bond orders larger than 0.100000
B(  0-C ,  1-C ) :   1.0135 B(  0-C ,  2-C ) :   0.9839 B(  0-C ,  9-H ) :   0.9476
B(  0-C , 10-H ) :   0.9505 B(  1-C ,  3-C ) :   0.9683 B(  1-C , 20-H ) :   0.9508
B(  1-C , 21-H ) :   0.9712 B(  2-C , 11-C ) :   0.9465 B(  2-C , 22-H ) :   0.9609
B(  2-C , 23-H ) :   0.9798 B(  3-C ,  4-C ) :   0.9934 B(  3-C , 18-H ) :   0.9545
B(  3-C , 19-H ) :   0.9726 B(  4-C ,  5-H ) :   0.9429 B(  4-C ,  6-C ) :   1.0183
B(  4-C ,  7-H ) :   0.9575 B(  6-C ,  8-F ) :   0.9306 B(  6-C , 24-H ) :   0.9609
B(  6-C , 25-H ) :   0.9732 B(  8-F , 14-H ) :   0.1163 B( 11-C , 12-C ) :   1.7387
B( 11-C , 13-N ) :   1.2738 B( 12-C , 16-H ) :   0.9842 B( 12-C , 17-H ) :   0.9795
B( 13-N , 14-H ) :   0.8330 B( 13-N , 15-H ) :   0.9143

Dispersion correction           -0.022934275
FINAL SINGLE POINT ENERGY      -468.676728383255

DIPOLE MOMENT
-------------
                                X             Y             Z
Electronic contribution:     -1.29967      -1.74302       6.94623
Nuclear contribution   :     -0.37390       1.73388      -6.94752
                        -----------------------------------------
Total Dipole Moment    :     -1.67357      -0.00913      -0.00130
                        -----------------------------------------
Magnitude (a.u.)       :      1.67360
Magnitude (Debye)      :      4.25395

Rotational constants in cm-1:     0.062220     0.032742     0.024374
Rotational constants in MHz :  1865.297979   981.573941   730.711364

                             ****ORCA TERMINATED NORMALLY****
TOTAL RUN TIME: 0 days 0 hours 0 minutes 33 seconds 479 msec
