                         Program Version 5.0.0 -  RELEASE  -
|  1> !PBE0 D3BJ RIJCOSX def2-TZVP def2/J TightSCF xyzfile
|  2>
|  3> *xyzfile 0 1 D2.xyz
|  4>
|  5> %MaxCore 64000
|  6>
|  7> %pal nprocs 18
|  8> end
|  9>
| 10> %scf
| 11>   MaxIter 150
| 12> end
| 13>
| 14>
| 15>                          ****END OF INPUT****

CARTESIAN COORDINATES (ANGSTROEM)
---------------------------------
  C      1.647032   -2.345276   -5.020411
  C      0.217628   -1.814022   -4.924389
  C      2.209964   -2.812388   -3.665708
  C     -0.811356   -2.908780   -4.607625
  C     -1.916579   -2.485081   -3.643665
  H     -2.554525   -1.712428   -4.091993
  C     -1.363531   -1.981337   -2.293608
  H     -2.553448   -3.355667   -3.458815
  F     -0.350395   -2.749689   -1.796006
  H      2.308385   -1.588704   -5.457128
  H      1.674286   -3.203478   -5.697392
  C      2.489007   -1.668510   -2.737538
  N      3.596314   -0.947608   -2.952247
  C      1.663936   -1.413685   -1.777806
  H      0.811642   -1.963178   -1.702755
  H      1.845503   -0.635078   -1.158749
  H      4.205351   -1.176003   -3.733825
  H      3.817230   -0.125845   -2.406041
  H     -1.244829   -3.280884   -5.541040
  H     -0.306331   -3.757746   -4.142734
  H     -0.036244   -1.318555   -5.865303
  H      0.175004   -1.035382   -4.158095
  H      3.143106   -3.362803   -3.811524
  H      1.487683   -3.458935   -3.165211
  H     -2.226220   -1.908386   -1.602039
  H     -1.051353   -0.915671   -2.443331

 Total Charge           Charge          ....    0
 Multiplicity           Mult            ....    1
 Number of Electrons    NEL             ....   80
 Basis Dimension        Dim             ....  406

ORBITAL ENERGIES
----------------

  NO   OCC          E(Eh)            E(eV)
   0   2.0000     -24.772723      -674.1001
   1   2.0000     -14.366578      -390.9345
   2   2.0000     -10.299405      -280.2610
   3   2.0000     -10.226556      -278.2787
   4   2.0000     -10.219725      -278.0929
   5   2.0000     -10.214946      -277.9628
   6   2.0000     -10.212080      -277.8848
   7   2.0000     -10.207936      -277.7721
   8   2.0000     -10.206544      -277.7342
   9   2.0000     -10.116886      -275.2945
  10   2.0000      -1.257885       -34.2288
  11   2.0000      -0.932948       -25.3868
  12   2.0000      -0.835749       -22.7419
  13   2.0000      -0.800055       -21.7706
  14   2.0000      -0.749509       -20.3952
  15   2.0000      -0.721904       -19.6440
  16   2.0000      -0.676939       -18.4204
  17   2.0000      -0.622259       -16.9325
  18   2.0000      -0.587109       -15.9760
  19   2.0000      -0.583156       -15.8685
  20   2.0000      -0.542190       -14.7537
  21   2.0000      -0.528026       -14.3683
  22   2.0000      -0.512607       -13.9487
  23   2.0000      -0.501923       -13.6580
  24   2.0000      -0.476196       -12.9579
  25   2.0000      -0.459204       -12.4956
  26   2.0000      -0.455092       -12.3837
  27   2.0000      -0.443299       -12.0628
  28   2.0000      -0.414546       -11.2804
  29   2.0000      -0.394521       -10.7355
  30   2.0000      -0.380191       -10.3455
  31   2.0000      -0.369151       -10.0451
  32   2.0000      -0.361439        -9.8352
  33   2.0000      -0.348284        -9.4773
  34   2.0000      -0.337596        -9.1864
  35   2.0000      -0.334141        -9.0924
  36   2.0000      -0.321878        -8.7587
  37   2.0000      -0.316959        -8.6249
  38   2.0000      -0.304485        -8.2855
  39   2.0000      -0.188272        -5.1232
  40   0.0000       0.042213         1.1487
  41   0.0000       0.049840         1.3562
  42   0.0000       0.057511         1.5649
  43   0.0000       0.075410         2.0520
  44   0.0000       0.081837         2.2269

MULLIKEN ATOMIC CHARGES
-----------------------
   0 C :   -0.159311
   1 C :   -0.209802
   2 C :   -0.249576
   3 C :   -0.216809
   4 C :   -0.192007
   5 H :    0.107154
   6 C :   -0.077310
   7 H :    0.108739
   8 F :   -0.178025
   9 H :    0.095181
  10 H :    0.099476
  11 C :    0.212171
  12 N :   -0.483506
  13 C :   -0.542575
  14 H :    0.236003
  15 H :    0.072260
  16 H :    0.227491
  17 H :    0.227456
  18 H :    0.110450
  19 H :    0.110550
  20 H :    0.101923
  21 H :    0.121197
  22 H :    0.107487
  23 H :    0.126660
  24 H :    0.116615
  25 H :    0.128107
Sum of atomic charges:   -0.0000000

LOEWDIN ATOMIC CHARGES
----------------------
   0 C :   -0.264453
   1 C :   -0.263470
   2 C :   -0.219605
   3 C :   -0.272598
   4 C :   -0.280311
   5 H :    0.143106
   6 C :   -0.355345
   7 H :    0.137600
   8 F :    0.169868
   9 H :    0.133811
  10 H :    0.136565
  11 C :   -0.378306
  12 N :   -0.020607
  13 C :   -0.268156
  14 H :    0.076316
  15 H :    0.096132
  16 H :    0.165228
  17 H :    0.166132
  18 H :    0.136758
  19 H :    0.142216
  20 H :    0.133737
  21 H :    0.142771
  22 H :    0.138521
  23 H :    0.149278
  24 H :    0.124912
  25 H :    0.129898

  Mayer bond orders larger than 0.100000
B(  0-C ,  1-C ) :   1.0096 B(  0-C ,  2-C ) :   0.9726 B(  0-C ,  9-H ) :   0.9492
B(  0-C , 10-H ) :   0.9564 B(  1-C ,  3-C ) :   0.9779 B(  1-C , 20-H ) :   0.9499
B(  1-C , 21-H ) :   0.9707 B(  2-C , 11-C ) :   0.9793 B(  2-C , 22-H ) :   0.9547
B(  2-C , 23-H ) :   0.9868 B(  3-C ,  4-C ) :   0.9990 B(  3-C , 18-H ) :   0.9549
B(  3-C , 19-H ) :   0.9698 B(  4-C ,  5-H ) :   0.9442 B(  4-C ,  6-C ) :   1.0194
B(  4-C ,  7-H ) :   0.9563 B(  6-C ,  8-F ) :   0.9555 B(  6-C , 24-H ) :   0.9612
B(  6-C , 25-H ) :   0.9729 B( 11-C , 12-N ) :   1.1304 B( 11-C , 13-C ) :   1.7812
B( 12-N , 16-H ) :   0.9193 B( 12-N , 17-H ) :   0.9158 B( 13-C , 14-H ) :   0.9273
B( 13-C , 15-H ) :   0.9745

Dispersion correction           -0.023056784
FINAL SINGLE POINT ENERGY      -468.659715724584

DIPOLE MOMENT
-------------
                                X             Y             Z
Electronic contribution:      0.45903      -1.30662       6.07529
Nuclear contribution   :     -0.73748       1.64619      -6.72655
                        -----------------------------------------
Total Dipole Moment    :     -0.27846       0.33957      -0.65126
                        -----------------------------------------
Magnitude (a.u.)       :      0.78548
Magnitude (Debye)      :      1.99654

Rotational constants in cm-1:     0.063169     0.031711     0.023958
Rotational constants in MHz :  1893.751676   950.657187   718.229932

                             ****ORCA TERMINATED NORMALLY****
TOTAL RUN TIME: 0 days 0 hours 0 minutes 28 seconds 890 msec
