                         Program Version 5.0.0 -  RELEASE  -
|  1> !BLYP D3BJ RIJCOSX def2-TZVPD def2/J TightSCF
|  2> *xyz -1 1
|  3> C          0.96805        1.63064       -3.71575
|  4> C         -0.50835        1.72268       -4.12430
|  5> S         -1.32861        0.14674       -4.43578
|  6> H         -0.59151        2.29496       -5.04722
|  7> H         -1.11411        2.23561       -3.37436
|  8> O         -2.57135        0.47573       -5.06834
|  9> O         -1.51496       -0.40051       -3.06342
| 10> O         -0.37793       -0.62756       -5.20114
| 11> H          1.51840        1.12197       -4.47946
| 12> H          1.05062        1.08971       -2.79625
| 13> H          1.36450        2.61606       -3.58668
| 14> *
| 15> %MaxCore 64000
| 16>
| 17> %pal nprocs 4
| 18> end
| 19>
| 20> %scf
| 21>   MaxIter 150
| 22> end
| 23>
| 24>
| 25>                          ****END OF INPUT****

CARTESIAN COORDINATES (ANGSTROEM)
---------------------------------
  C      0.968050    1.630640   -3.715750
  C     -0.508350    1.722680   -4.124300
  S     -1.328610    0.146740   -4.435780
  H     -0.591510    2.294960   -5.047220
  H     -1.114110    2.235610   -3.374360
  O     -2.571350    0.475730   -5.068340
  O     -1.514960   -0.400510   -3.063420
  O     -0.377930   -0.627560   -5.201140
  H      1.518400    1.121970   -4.479460
  H      1.050620    1.089710   -2.796250
  H      1.364500    2.616060   -3.586680

 Total Charge           Charge          ....   -1
 Multiplicity           Mult            ....    1
 Number of Electrons    NEL             ....   58
 Basis Dimension        Dim             ....  285

ORBITAL ENERGIES
----------------

  NO   OCC          E(Eh)            E(eV)
   0   2.0000     -88.078538     -2396.7389
   1   2.0000     -18.556802      -504.9562
   2   2.0000     -18.553621      -504.8697
   3   2.0000     -18.538970      -504.4710
   4   2.0000      -9.760337      -265.5923
   5   2.0000      -9.756467      -265.4870
   6   2.0000      -7.609676      -207.0698
   7   2.0000      -5.638261      -153.4249
   8   2.0000      -5.637384      -153.4010
   9   2.0000      -5.637098      -153.3932
  10   2.0000      -0.828876       -22.5549
  11   2.0000      -0.707598       -19.2547
  12   2.0000      -0.678551       -18.4643
  13   2.0000      -0.547924       -14.9098
  14   2.0000      -0.433275       -11.7900
  15   2.0000      -0.316042        -8.5999
  16   2.0000      -0.260275        -7.0825
  17   2.0000      -0.255521        -6.9531
  18   2.0000      -0.218930        -5.9574
  19   2.0000      -0.204503        -5.5648
  20   2.0000      -0.200391        -5.4529
  21   2.0000      -0.178395        -4.8544
  22   2.0000      -0.165285        -4.4976
  23   2.0000      -0.102006        -2.7757
  24   2.0000      -0.100044        -2.7223
  25   2.0000      -0.071263        -1.9392
  26   2.0000      -0.064878        -1.7654
  27   2.0000      -0.049832        -1.3560
  28   2.0000      -0.017149        -0.4667
  29   0.0000       0.110533         3.0078
  30   0.0000       0.135157         3.6778
  31   0.0000       0.143690         3.9100
  32   0.0000       0.151903         4.1335
  33   0.0000       0.168749         4.5919

MULLIKEN ATOMIC CHARGES
-----------------------
   0 C :   -1.204955
   1 C :   -0.371401
   2 S :    1.237061
   3 H :    0.277001
   4 H :    0.254468
   5 O :   -0.677536
   6 O :   -0.756467
   7 O :   -0.705855
   8 H :    0.299109
   9 H :    0.312868
  10 H :    0.335708
Sum of atomic charges:   -1.0000000

LOEWDIN ATOMIC CHARGES
----------------------
   0 C :   -0.140268
   1 C :   -0.328196
   2 S :    0.314576
   3 H :    0.071478
   4 H :    0.076694
   5 O :   -0.366407
   6 O :   -0.407959
   7 O :   -0.369514
   8 H :    0.050935
   9 H :    0.056115
  10 H :    0.042547

  Mayer bond orders larger than 0.100000
B(  0-C ,  1-C ) :   0.6086 B(  0-C ,  8-H ) :   0.9827 B(  0-C ,  9-H ) :   0.9662
B(  0-C , 10-H ) :   0.9068 B(  1-C ,  2-S ) :   0.8758 B(  1-C ,  3-H ) :   0.9409
B(  1-C ,  4-H ) :   0.9606 B(  1-C ,  5-O ) :   0.1549 B(  1-C ,  6-O ) :   0.1296
B(  1-C ,  7-O ) :   0.1112 B(  2-S ,  5-O ) :   1.4798 B(  2-S ,  6-O ) :   1.4265
B(  2-S ,  7-O ) :   1.4658

Dispersion correction           -0.020497875
FINAL SINGLE POINT ENERGY      -703.248648726767

DIPOLE MOMENT
-------------
                                X             Y             Z
Electronic contribution:     -5.63414      -5.36715      -1.94363
Nuclear contribution   :      6.64523       6.80157       2.07300
                        -----------------------------------------
Total Dipole Moment    :      1.01109       1.43442       0.12937
                        -----------------------------------------
Magnitude (a.u.)       :      1.75972
Magnitude (Debye)      :      4.47285

Rotational constants in cm-1:     0.163070     0.082807     0.081541
Rotational constants in MHz :  4888.719902  2482.497026  2444.541148

                             ****ORCA TERMINATED NORMALLY****
TOTAL RUN TIME: 0 days 0 hours 0 minutes 15 seconds 865 msec
