                         Program Version 5.0.0 -  RELEASE  -
|  1> !BLYP D3BJ RIJCOSX def2-TZVPD def2/J TightSCF
|  2> *xyz 1 1
|  3> C          1.36401        0.46874       -2.81376
|  4> N          0.42884        0.32140       -1.65531
|  5> C          0.96805        1.63064       -3.71575
|  6> H          0.74858       -0.40054       -1.00134
|  7> H         -0.46105        0.02333       -2.07773
|  8> H          0.31026        1.20137       -1.13495
|  9> H          1.29485       -0.46874       -3.36468
| 10> H          2.37622        0.59740       -2.43149
| 11> H          1.65923        1.70213       -4.52942
| 12> H          0.98421        2.54058       -3.15304
| 13> H         -0.01744        1.46536       -4.09838
| 14> *
| 15> %MaxCore 64000
| 16>
| 17> %pal nprocs 4
| 18> end
| 19>
| 20> %scf
| 21>   MaxIter 150
| 22> end
| 23>
| 24>
| 25>                          ****END OF INPUT****

CARTESIAN COORDINATES (ANGSTROEM)
---------------------------------
  C      1.364010    0.468740   -2.813760
  N      0.428840    0.321400   -1.655310
  C      0.968050    1.630640   -3.715750
  H      0.748580   -0.400540   -1.001340
  H     -0.461050    0.023330   -2.077730
  H      0.310260    1.201370   -1.134950
  H      1.294850   -0.468740   -3.364680
  H      2.376220    0.597400   -2.431490
  H      1.659230    1.702130   -4.529420
  H      0.984210    2.540580   -3.153040
  H     -0.017440    1.465360   -4.098380

 Total Charge           Charge          ....    1
 Multiplicity           Mult            ....    1
 Number of Electrons    NEL             ....   26
 Basis Dimension        Dim             ....  183

ORBITAL ENERGIES
----------------

  NO   OCC          E(Eh)            E(eV)
   0   2.0000     -14.338555      -390.1719
   1   2.0000     -10.158228      -276.4194
   2   2.0000     -10.080713      -274.3101
   3   2.0000      -1.128456       -30.7069
   4   2.0000      -0.889940       -24.2165
   5   2.0000      -0.778000       -21.1704
   6   2.0000      -0.748146       -20.3581
   7   2.0000      -0.732235       -19.9251
   8   2.0000      -0.642643       -17.4872
   9   2.0000      -0.594218       -16.1695
  10   2.0000      -0.538371       -14.6498
  11   2.0000      -0.522999       -14.2315
  12   2.0000      -0.508990       -13.8503
  13   0.0000      -0.226213        -6.1556
  14   0.0000      -0.167557        -4.5595
  15   0.0000      -0.163675        -4.4538
  16   0.0000      -0.153305        -4.1716
  17   0.0000      -0.121550        -3.3075

MULLIKEN ATOMIC CHARGES
-----------------------
   0 C :   -0.285192
   1 N :   -0.221308
   2 C :   -1.136736
   3 H :    0.317110
   4 H :    0.319677
   5 H :    0.301222
   6 H :    0.304932
   7 H :    0.313967
   8 H :    0.331650
   9 H :    0.374296
  10 H :    0.380382
Sum of atomic charges:    1.0000000

LOEWDIN ATOMIC CHARGES
----------------------
   0 C :   -0.194640
   1 N :    0.191889
   2 C :   -0.044789
   3 H :    0.175887
   4 H :    0.176499
   5 H :    0.177902
   6 H :    0.132666
   7 H :    0.132473
   8 H :    0.091731
   9 H :    0.080284
  10 H :    0.080097

  Mayer bond orders larger than 0.100000
B(  0-C ,  1-N ) :   0.9084 B(  0-C ,  2-C ) :   0.5905 B(  0-C ,  6-H ) :   0.9239
B(  0-C ,  7-H ) :   0.9181 B(  1-N ,  3-H ) :   0.8872 B(  1-N ,  4-H ) :   0.8794
B(  1-N ,  5-H ) :   0.8901 B(  2-C ,  8-H ) :   0.9794 B(  2-C ,  9-H ) :   0.9073
B(  2-C , 10-H ) :   0.9034

Dispersion correction           -0.012468106
FINAL SINGLE POINT ENERGY      -135.519724603588

DIPOLE MOMENT
-------------
                                X             Y             Z
Electronic contribution:     -0.33293      -0.93209       1.54165
Nuclear contribution   :     -0.20470       0.31427      -0.31587
                        -----------------------------------------
Total Dipole Moment    :     -0.53763      -0.61782       1.22578
                        -----------------------------------------
Magnitude (a.u.)       :      1.47421
Magnitude (Debye)      :      3.74715

Rotational constants in cm-1:     1.011480     0.279280     0.248378
Rotational constants in MHz : 30323.408050  8372.602834  7446.185305

                             ****ORCA TERMINATED NORMALLY****
TOTAL RUN TIME: 0 days 0 hours 0 minutes 9 seconds 35 msec
