                         Program Version 5.0.0 -  RELEASE  -
|  1> !BLYP D3BJ RIJCOSX def2-TZVPD def2/J TightSCF xyzfile
|  2>
|  3> *xyzfile 0 1 B.xyz
|  4>
|  5> %MaxCore 64000
|  6>
|  7> %pal nprocs 4
|  8> end
|  9>
| 10> %scf
| 11>   MaxIter 150
| 12> end
| 13>
| 14>
| 15>                          ****END OF INPUT****

CARTESIAN COORDINATES (ANGSTROEM)
---------------------------------
  C      1.364014    0.468742   -2.813764
  N      0.428844    0.321402   -1.655312
  C      0.968045    1.630639   -3.715749
  C     -0.508347    1.722679   -4.124300
  S     -1.328608    0.146737   -4.435781
  H     -0.591511    2.294958   -5.047219
  H     -1.114114    2.235610   -3.374362
  H      0.748578   -0.400542   -1.001345
  H     -0.461053    0.023332   -2.077731
  H      0.310258    1.201375   -1.134948
  O     -2.571347    0.475733   -5.068341
  O     -1.514963   -0.400512   -3.063420
  H      1.294847   -0.468742   -3.364684
  H      2.376216    0.597400   -2.431495
  H      1.578688    1.520652   -4.612733
  H      1.266653    2.575988   -3.250448
  O     -0.377928   -0.627558   -5.201141

 Total Charge           Charge          ....    0
 Multiplicity           Mult            ....    1
 Number of Electrons    NEL             ....   74
 Basis Dimension        Dim             ....  395

ORBITAL ENERGIES
----------------

  NO   OCC          E(Eh)            E(eV)
   0   2.0000     -88.245648     -2401.2862
   1   2.0000     -18.727841      -509.6105
   2   2.0000     -18.712677      -509.1978
   3   2.0000     -18.710765      -509.1458
   4   2.0000     -14.136610      -384.6767
   5   2.0000      -9.994180      -271.9555
   6   2.0000      -9.945896      -270.6416
   7   2.0000      -9.923686      -270.0372
   8   2.0000      -7.777024      -211.6236
   9   2.0000      -5.806041      -157.9904
  10   2.0000      -5.805004      -157.9622
  11   2.0000      -5.803663      -157.9257
  12   2.0000      -0.997210       -27.1355
  13   2.0000      -0.942640       -25.6505
  14   2.0000      -0.865362       -23.5477
  15   2.0000      -0.863730       -23.5033
  16   2.0000      -0.746081       -20.3019
  17   2.0000      -0.665456       -18.1080
  18   2.0000      -0.588068       -16.0021
  19   2.0000      -0.563989       -15.3469
  20   2.0000      -0.555889       -15.1265
  21   2.0000      -0.485539       -13.2122
  22   2.0000      -0.469293       -12.7701
  23   2.0000      -0.435650       -11.8546
  24   2.0000      -0.418295       -11.3824
  25   2.0000      -0.404386       -11.0039
  26   2.0000      -0.374405       -10.1881
  27   2.0000      -0.365855        -9.9554
  28   2.0000      -0.355322        -9.6688
  29   2.0000      -0.343665        -9.3516
  30   2.0000      -0.330790        -9.0012
  31   2.0000      -0.271712        -7.3937
  32   2.0000      -0.263390        -7.1672
  33   2.0000      -0.238696        -6.4953
  34   2.0000      -0.226870        -6.1734
  35   2.0000      -0.224011        -6.0957
  36   2.0000      -0.188306        -5.1241
  37   0.0000      -0.072116        -1.9624
  38   0.0000      -0.027690        -0.7535
  39   0.0000      -0.021712        -0.5908
  40   0.0000       0.004100         0.1116
  41   0.0000       0.015760         0.4288

MULLIKEN ATOMIC CHARGES
-----------------------
   0 C :   -0.708899
   1 N :   -0.143673
   2 C :   -0.288809
   3 C :   -0.739740
   4 S :    1.361111
   5 H :    0.278692
   6 H :    0.300639
   7 H :    0.303134
   8 H :    0.325473
   9 H :    0.276951
  10 O :   -0.634896
  11 O :   -0.848726
  12 H :    0.401752
  13 H :    0.317506
  14 H :    0.220805
  15 H :    0.260384
  16 O :   -0.681703
Sum of atomic charges:   -0.0000000

LOEWDIN ATOMIC CHARGES
----------------------
   0 C :   -0.166587
   1 N :    0.159840
   2 C :   -0.200641
   3 C :   -0.243731
   4 S :    0.403980
   5 H :    0.097953
   6 H :    0.092529
   7 H :    0.163009
   8 H :    0.022857
   9 H :    0.165353
  10 O :   -0.295943
  11 O :   -0.352422
  12 H :    0.118412
  13 H :    0.120761
  14 H :    0.118606
  15 H :    0.109018
  16 O :   -0.312993

  Mayer bond orders larger than 0.100000
B(  0-C ,  1-N ) :   0.9478 B(  0-C ,  2-C ) :   0.7904 B(  0-C , 12-H ) :   0.8637
B(  0-C , 13-H ) :   0.8842 B(  1-N ,  7-H ) :   0.8786 B(  1-N ,  8-H ) :   0.7654
B(  1-N ,  9-H ) :   0.8867 B(  2-C ,  3-C ) :   0.8903 B(  2-C , 14-H ) :   0.9469
B(  2-C , 15-H ) :   0.9364 B(  3-C ,  4-S ) :   0.8883 B(  3-C ,  5-H ) :   0.9664
B(  3-C ,  6-H ) :   0.9143 B(  3-C , 10-O ) :   0.1837 B(  3-C , 11-O ) :   0.1441
B(  3-C , 16-O ) :   0.1084 B(  4-S , 10-O ) :   1.4921 B(  4-S , 11-O ) :   1.2493
B(  4-S , 16-O ) :   1.4561 B(  8-H , 11-O ) :   0.1454

Dispersion correction           -0.037763650
FINAL SINGLE POINT ENERGY      -798.434118353939

DIPOLE MOMENT
-------------
                                X             Y             Z
Electronic contribution:     -6.99662      -4.20738      -4.37693
Nuclear contribution   :      9.95459       5.57517       7.68169
                        -----------------------------------------
Total Dipole Moment    :      2.95797       1.36779       3.30476
                        -----------------------------------------
Magnitude (a.u.)       :      4.64132
Magnitude (Debye)      :     11.79730

Rotational constants in cm-1:     0.102119     0.045768     0.041299
Rotational constants in MHz :  3061.441288  1372.093000  1238.124534

                             ****ORCA TERMINATED NORMALLY****
TOTAL RUN TIME: 0 days 0 hours 0 minutes 26 seconds 249 msec
