                         Program Version 5.0.0 -  RELEASE  -
|  1> !BLYP D3BJ RIJCOSX def2-TZVPD def2/J TightSCF
|  2> *xyz 0 1
|  3> C          0.96805        1.63064       -3.71575
|  4> C         -0.50835        1.72268       -4.12430
|  5> S         -1.32861        0.14674       -4.43578
|  6> H         -0.59151        2.29496       -5.04722
|  7> H         -1.11411        2.23561       -3.37436
|  8> F         -2.57135        0.47573       -5.06834
|  9> O         -1.51496       -0.40051       -3.06342
| 10> O         -0.37793       -0.62756       -5.20114
| 11> H          1.51840        1.12197       -4.47946
| 12> H          1.05062        1.08971       -2.79625
| 13> H          1.36450        2.61606       -3.58668
| 14> *
| 15> %MaxCore 64000
| 16>
| 17> %pal nprocs 4
| 18> end
| 19>
| 20> %scf
| 21>   MaxIter 150
| 22> end
| 23>
| 24>
| 25>                          ****END OF INPUT****

CARTESIAN COORDINATES (ANGSTROEM)
---------------------------------
  C      0.968050    1.630640   -3.715750
  C     -0.508350    1.722680   -4.124300
  S     -1.328610    0.146740   -4.435780
  H     -0.591510    2.294960   -5.047220
  H     -1.114110    2.235610   -3.374360
  F     -2.571350    0.475730   -5.068340
  O     -1.514960   -0.400510   -3.063420
  O     -0.377930   -0.627560   -5.201140
  H      1.518400    1.121970   -4.479460
  H      1.050620    1.089710   -2.796250
  H      1.364500    2.616060   -3.586680

 Total Charge           Charge          ....    0
 Multiplicity           Mult            ....    1
 Number of Electrons    NEL             ....   58
 Basis Dimension        Dim             ....  285

ORBITAL ENERGIES
----------------

  NO   OCC          E(Eh)            E(eV)
   0   2.0000     -88.337138     -2403.7757
   1   2.0000     -24.406482      -664.1342
   2   2.0000     -18.785453      -511.1782
   3   2.0000     -18.770669      -510.7759
   4   2.0000      -9.960647      -271.0430
   5   2.0000      -9.920239      -269.9434
   6   2.0000      -7.868747      -214.1195
   7   2.0000      -5.900865      -160.5707
   8   2.0000      -5.894245      -160.3906
   9   2.0000      -5.894122      -160.3872
  10   2.0000      -1.279753       -34.8238
  11   2.0000      -1.006581       -27.3905
  12   2.0000      -0.910210       -24.7681
  13   2.0000      -0.737177       -20.0596
  14   2.0000      -0.665813       -18.1177
  15   2.0000      -0.606851       -16.5133
  16   2.0000      -0.523908       -14.2563
  17   2.0000      -0.522966       -14.2306
  18   2.0000      -0.492890       -13.4122
  19   2.0000      -0.437104       -11.8942
  20   2.0000      -0.425006       -11.5650
  21   2.0000      -0.388126       -10.5614
  22   2.0000      -0.379189       -10.3183
  23   2.0000      -0.359047        -9.7702
  24   2.0000      -0.341608        -9.2956
  25   2.0000      -0.331673        -9.0253
  26   2.0000      -0.286568        -7.7979
  27   2.0000      -0.271311        -7.3828
  28   2.0000      -0.255351        -6.9485
  29   0.0000      -0.031811        -0.8656
  30   0.0000      -0.010584        -0.2880
  31   0.0000       0.006342         0.1726
  32   0.0000       0.014384         0.3914
  33   0.0000       0.022161         0.6030

MULLIKEN ATOMIC CHARGES
-----------------------
   0 C :   -1.216893
   1 C :   -0.379963
   2 S :    1.174486
   3 H :    0.333175
   4 H :    0.317838
   5 F :   -0.109271
   6 O :   -0.590961
   7 O :   -0.555195
   8 H :    0.339996
   9 H :    0.350124
  10 H :    0.336666
Sum of atomic charges:   -0.0000000

LOEWDIN ATOMIC CHARGES
----------------------
   0 C :   -0.092622
   1 C :   -0.285432
   2 S :    0.560371
   3 H :    0.089700
   4 H :    0.095790
   5 F :   -0.034487
   6 O :   -0.288889
   7 O :   -0.256237
   8 H :    0.067773
   9 H :    0.073261
  10 H :    0.070772

  Mayer bond orders larger than 0.100000
B(  0-C ,  1-C ) :   0.6758 B(  0-C ,  8-H ) :   0.9444 B(  0-C ,  9-H ) :   0.9297
B(  0-C , 10-H ) :   0.9130 B(  1-C ,  2-S ) :   0.8678 B(  1-C ,  3-H ) :   0.8721
B(  1-C ,  4-H ) :   0.9069 B(  2-S ,  5-F ) :   1.0217 B(  2-S ,  6-O ) :   1.6289
B(  2-S ,  7-O ) :   1.6699 B(  6-O ,  7-O ) :   0.1188

Dispersion correction           -0.019595241
FINAL SINGLE POINT ENERGY      -727.768708438561

DIPOLE MOMENT
-------------
                                X             Y             Z
Electronic contribution:     -8.31424      -5.20703      -3.21741
Nuclear contribution   :      8.31000       6.74109       2.87442
                        -----------------------------------------
Total Dipole Moment    :     -0.00424       1.53406      -0.34299
                        -----------------------------------------
Magnitude (a.u.)       :      1.57194
Magnitude (Debye)      :      3.99556

Rotational constants in cm-1:     0.158705     0.080192     0.078179
Rotational constants in MHz :  4757.865601  2404.095079  2343.752507

                             ****ORCA TERMINATED NORMALLY****
TOTAL RUN TIME: 0 days 0 hours 0 minutes 16 seconds 337 msec
