                         Program Version 5.0.0 -  RELEASE  -
|  1> !BLYP D3BJ RIJCOSX def2-TZVPD def2/J TightSCF
|  2> *xyz 0 1
|  3> C          1.36401        0.46874       -2.81376
|  4> C          0.42884        0.32140       -1.65531
|  5> C          0.96805        1.63064       -3.71575
|  6> H          0.74858       -0.40054       -1.00134
|  7> H         -0.46105        0.02333       -2.07773
|  8> H          0.31026        1.20137       -1.13495
|  9> H          1.29485       -0.46874       -3.36468
| 10> H          2.37622        0.59740       -2.43149
| 11> H          1.65923        1.70213       -4.52942
| 12> H          0.98421        2.54058       -3.15304
| 13> H         -0.01744        1.46536       -4.09838
| 14> *
| 15> %MaxCore 64000
| 16>
| 17> %pal nprocs 4
| 18> end
| 19>
| 20> %scf
| 21>   MaxIter 150
| 22> end
| 23>
| 24>
| 25>                          ****END OF INPUT****

CARTESIAN COORDINATES (ANGSTROEM)
---------------------------------
  C      1.364010    0.468740   -2.813760
  C      0.428840    0.321400   -1.655310
  C      0.968050    1.630640   -3.715750
  H      0.748580   -0.400540   -1.001340
  H     -0.461050    0.023330   -2.077730
  H      0.310260    1.201370   -1.134950
  H      1.294850   -0.468740   -3.364680
  H      2.376220    0.597400   -2.431490
  H      1.659230    1.702130   -4.529420
  H      0.984210    2.540580   -3.153040
  H     -0.017440    1.465360   -4.098380

 Total Charge           Charge          ....    0
 Multiplicity           Mult            ....    1
 Number of Electrons    NEL             ....   26
 Basis Dimension        Dim             ....  183

ORBITAL ENERGIES
----------------

  NO   OCC          E(Eh)            E(eV)
   0   2.0000      -9.890223      -269.1267
   1   2.0000      -9.881664      -268.8938
   2   2.0000      -9.864903      -268.4377
   3   2.0000      -0.710594       -19.3363
   4   2.0000      -0.616571       -16.7778
   5   2.0000      -0.518993       -14.1225
   6   2.0000      -0.417066       -11.3489
   7   2.0000      -0.392409       -10.6780
   8   2.0000      -0.353201        -9.6111
   9   2.0000      -0.342434        -9.3181
  10   2.0000      -0.292377        -7.9560
  11   2.0000      -0.288731        -7.8568
  12   2.0000      -0.285041        -7.7564
  13   0.0000      -0.002733        -0.0744
  14   0.0000       0.022723         0.6183
  15   0.0000       0.026295         0.7155
  16   0.0000       0.041818         1.1379
  17   0.0000       0.062992         1.7141

MULLIKEN ATOMIC CHARGES
-----------------------
   0 C :    0.043140
   1 C :   -1.338992
   2 C :   -1.146547
   3 H :    0.345736
   4 H :    0.354942
   5 H :    0.366193
   6 H :    0.206694
   7 H :    0.245173
   8 H :    0.291633
   9 H :    0.312487
  10 H :    0.319540
Sum of atomic charges:    0.0000000

LOEWDIN ATOMIC CHARGES
----------------------
   0 C :   -0.310486
   1 C :   -0.115439
   2 C :   -0.108356
   3 H :    0.047532
   4 H :    0.052774
   5 H :    0.052337
   6 H :    0.099620
   7 H :    0.098415
   8 H :    0.057859
   9 H :    0.062627
  10 H :    0.063118

  Mayer bond orders larger than 0.100000
B(  0-C ,  1-C ) :   0.5195 B(  0-C ,  2-C ) :   0.5723 B(  0-C ,  6-H ) :   0.9930
B(  0-C ,  7-H ) :   0.9628 B(  1-C ,  3-H ) :   0.9543 B(  1-C ,  4-H ) :   0.9521
B(  1-C ,  5-H ) :   0.9101 B(  2-C ,  8-H ) :   0.9836 B(  2-C ,  9-H ) :   0.9700
B(  2-C , 10-H ) :   0.9639

Dispersion correction           -0.012552241
FINAL SINGLE POINT ENERGY      -119.097984028767

DIPOLE MOMENT
-------------
                                X             Y             Z
Electronic contribution:      0.36907      -0.18550      -0.01607
Nuclear contribution   :     -0.35842       0.15752       0.02695
                        -----------------------------------------
Total Dipole Moment    :      0.01065      -0.02798       0.01088
                        -----------------------------------------
Magnitude (a.u.)       :      0.03185
Magnitude (Debye)      :      0.08095

Rotational constants in cm-1:     1.019891     0.293671     0.260247
Rotational constants in MHz : 30575.551403  8804.039097  7802.009261

                             ****ORCA TERMINATED NORMALLY****
TOTAL RUN TIME: 0 days 0 hours 0 minutes 8 seconds 794 msec
