                         Program Version 5.0.0 -  RELEASE  -
|  1> !BLYP D3BJ RIJCOSX def2-TZVPD def2/J TightSCF
|  2> *xyz 0 1
|  3> C          0.96805        1.63064       -3.71575
|  4> C         -0.50835        1.72268       -4.12430
|  5> S         -1.32861        0.14674       -4.43578
|  6> H         -0.59151        2.29496       -5.04722
|  7> H         -1.11411        2.23561       -3.37436
|  8> O         -2.57135        0.47573       -5.06834
|  9> F         -1.51496       -0.40051       -3.06342
| 10> O         -0.37793       -0.62756       -5.20114
| 11> H          1.51840        1.12197       -4.47946
| 12> H          1.05062        1.08971       -2.79625
| 13> H          1.36450        2.61606       -3.58668
| 14> *
| 15> %MaxCore 64000
| 16>
| 17> %pal nprocs 4
| 18> end
| 19>
| 20> %scf
| 21>   MaxIter 150
| 22> end
| 23>
| 24>
| 25>                          ****END OF INPUT****

CARTESIAN COORDINATES (ANGSTROEM)
---------------------------------
  C      0.968050    1.630640   -3.715750
  C     -0.508350    1.722680   -4.124300
  S     -1.328610    0.146740   -4.435780
  H     -0.591510    2.294960   -5.047220
  H     -1.114110    2.235610   -3.374360
  O     -2.571350    0.475730   -5.068340
  F     -1.514960   -0.400510   -3.063420
  O     -0.377930   -0.627560   -5.201140
  H      1.518400    1.121970   -4.479460
  H      1.050620    1.089710   -2.796250
  H      1.364500    2.616060   -3.586680

 Total Charge           Charge          ....    0
 Multiplicity           Mult            ....    1
 Number of Electrons    NEL             ....   58
 Basis Dimension        Dim             ....  285

ORBITAL ENERGIES
----------------

  NO   OCC          E(Eh)            E(eV)
   0   2.0000     -88.333863     -2403.6866
   1   2.0000     -24.378416      -663.3704
   2   2.0000     -18.788340      -511.2567
   3   2.0000     -18.785182      -511.1708
   4   2.0000      -9.959730      -271.0180
   5   2.0000      -9.921282      -269.9718
   6   2.0000      -7.865639      -214.0349
   7   2.0000      -5.897922      -160.4906
   8   2.0000      -5.891246      -160.3090
   9   2.0000      -5.890888      -160.2992
  10   2.0000      -1.234327       -33.5878
  11   2.0000      -1.021054       -27.7843
  12   2.0000      -0.935157       -25.4469
  13   2.0000      -0.738572       -20.0976
  14   2.0000      -0.647273       -17.6132
  15   2.0000      -0.599958       -16.3257
  16   2.0000      -0.510284       -13.8855
  17   2.0000      -0.491094       -13.3633
  18   2.0000      -0.483663       -13.1611
  19   2.0000      -0.437558       -11.9066
  20   2.0000      -0.420240       -11.4353
  21   2.0000      -0.400922       -10.9096
  22   2.0000      -0.382899       -10.4192
  23   2.0000      -0.356732        -9.7072
  24   2.0000      -0.353873        -9.6294
  25   2.0000      -0.334154        -9.0928
  26   2.0000      -0.293973        -7.9994
  27   2.0000      -0.287736        -7.8297
  28   2.0000      -0.274272        -7.4633
  29   0.0000      -0.032248        -0.8775
  30   0.0000      -0.003999        -0.1088
  31   0.0000       0.008561         0.2330
  32   0.0000       0.010837         0.2949
  33   0.0000       0.022420         0.6101

MULLIKEN ATOMIC CHARGES
-----------------------
   0 C :   -1.195641
   1 C :   -0.370571
   2 S :    1.174681
   3 H :    0.316506
   4 H :    0.324725
   5 O :   -0.535575
   6 F :   -0.180947
   7 O :   -0.556441
   8 H :    0.335785
   9 H :    0.349140
  10 H :    0.338339
Sum of atomic charges:    0.0000000

LOEWDIN ATOMIC CHARGES
----------------------
   0 C :   -0.103136
   1 C :   -0.275963
   2 S :    0.560886
   3 H :    0.101626
   4 H :    0.095271
   5 O :   -0.250002
   6 F :   -0.077221
   7 O :   -0.254075
   8 H :    0.066492
   9 H :    0.067384
  10 H :    0.068739

  Mayer bond orders larger than 0.100000
B(  0-C ,  1-C ) :   0.6330 B(  0-C ,  8-H ) :   0.9724 B(  0-C ,  9-H ) :   0.9142
B(  0-C , 10-H ) :   0.9245 B(  1-C ,  2-S ) :   0.8667 B(  1-C ,  3-H ) :   0.9125
B(  1-C ,  4-H ) :   0.9000 B(  1-C ,  5-O ) :   0.1264 B(  2-S ,  5-O ) :   1.6772
B(  2-S ,  6-F ) :   0.9669 B(  2-S ,  7-O ) :   1.6694 B(  5-O ,  7-O ) :   0.1130

Dispersion correction           -0.019511205
FINAL SINGLE POINT ENERGY      -727.791805498199

DIPOLE MOMENT
-------------
                                X             Y             Z
Electronic contribution:     -6.56520      -6.67024       0.13655
Nuclear contribution   :      7.20921       7.65416       0.78523
                        -----------------------------------------
Total Dipole Moment    :      0.64401       0.98392       0.92179
                        -----------------------------------------
Magnitude (a.u.)       :      1.49417
Magnitude (Debye)      :      3.79787

Rotational constants in cm-1:     0.153780     0.081282     0.079816
Rotational constants in MHz :  4610.199589  2436.778679  2392.820729

                             ****ORCA TERMINATED NORMALLY****
TOTAL RUN TIME: 0 days 0 hours 0 minutes 14 seconds 762 msec
