                         Program Version 5.0.0 -  RELEASE  -
|  1> !BLYP D3BJ RIJCOSX def2-TZVPD def2/J TightSCF
|  2> *xyz 0 1
|  3> C          0.96805        1.63064       -3.71575
|  4> C         -0.50835        1.72268       -4.12430
|  5> S         -1.32861        0.14674       -4.43578
|  6> H         -0.59151        2.29496       -5.04722
|  7> H         -1.11411        2.23561       -3.37436
|  8> O         -2.57135        0.47573       -5.06834
|  9> O         -1.51496       -0.40051       -3.06342
| 10> F         -0.37793       -0.62756       -5.20114
| 11> H          1.51840        1.12197       -4.47946
| 12> H          1.05062        1.08971       -2.79625
| 13> H          1.36450        2.61606       -3.58668
| 14> *
| 15> %MaxCore 64000
| 16>
| 17> %pal nprocs 4
| 18> end
| 19>
| 20> %scf
| 21>   MaxIter 150
| 22> end
| 23>
| 24>
| 25>                          ****END OF INPUT****

CARTESIAN COORDINATES (ANGSTROEM)
---------------------------------
  C      0.968050    1.630640   -3.715750
  C     -0.508350    1.722680   -4.124300
  S     -1.328610    0.146740   -4.435780
  H     -0.591510    2.294960   -5.047220
  H     -1.114110    2.235610   -3.374360
  O     -2.571350    0.475730   -5.068340
  O     -1.514960   -0.400510   -3.063420
  F     -0.377930   -0.627560   -5.201140
  H      1.518400    1.121970   -4.479460
  H      1.050620    1.089710   -2.796250
  H      1.364500    2.616060   -3.586680

 Total Charge           Charge          ....    0
 Multiplicity           Mult            ....    1
 Number of Electrons    NEL             ....   58
 Basis Dimension        Dim             ....  285

ORBITAL ENERGIES
----------------

  NO   OCC          E(Eh)            E(eV)
   0   2.0000     -88.336408     -2403.7559
   1   2.0000     -24.400670      -663.9760
   2   2.0000     -18.788895      -511.2718
   3   2.0000     -18.770829      -510.7802
   4   2.0000      -9.960479      -271.0384
   5   2.0000      -9.924701      -270.0648
   6   2.0000      -7.868066      -214.1010
   7   2.0000      -5.900352      -160.5567
   8   2.0000      -5.893557      -160.3718
   9   2.0000      -5.893322      -160.3654
  10   2.0000      -1.269801       -34.5530
  11   2.0000      -1.012248       -27.5447
  12   2.0000      -0.912949       -24.8426
  13   2.0000      -0.740722       -20.1561
  14   2.0000      -0.659518       -17.9464
  15   2.0000      -0.608955       -16.5705
  16   2.0000      -0.529306       -14.4031
  17   2.0000      -0.515578       -14.0296
  18   2.0000      -0.484810       -13.1924
  19   2.0000      -0.438688       -11.9373
  20   2.0000      -0.420244       -11.4354
  21   2.0000      -0.397045       -10.8041
  22   2.0000      -0.385814       -10.4985
  23   2.0000      -0.362251        -9.8574
  24   2.0000      -0.348883        -9.4936
  25   2.0000      -0.332293        -9.0421
  26   2.0000      -0.290027        -7.8920
  27   2.0000      -0.271549        -7.3892
  28   2.0000      -0.258064        -7.0223
  29   0.0000      -0.036273        -0.9870
  30   0.0000      -0.005007        -0.1363
  31   0.0000       0.007705         0.2097
  32   0.0000       0.012015         0.3270
  33   0.0000       0.020179         0.5491

MULLIKEN ATOMIC CHARGES
-----------------------
   0 C :   -1.237369
   1 C :   -0.330774
   2 S :    1.167125
   3 H :    0.328847
   4 H :    0.298718
   5 O :   -0.529164
   6 O :   -0.592974
   7 F :   -0.142166
   8 H :    0.349175
   9 H :    0.354215
  10 H :    0.334365
Sum of atomic charges:   -0.0000000

LOEWDIN ATOMIC CHARGES
----------------------
   0 C :   -0.103972
   1 C :   -0.276310
   2 S :    0.558573
   3 H :    0.092591
   4 H :    0.106198
   5 O :   -0.249048
   6 O :   -0.287583
   7 F :   -0.042462
   8 H :    0.062713
   9 H :    0.070043
  10 H :    0.069257

  Mayer bond orders larger than 0.100000
B(  0-C ,  1-C ) :   0.5997 B(  0-C ,  8-H ) :   0.9176 B(  0-C ,  9-H ) :   0.9504
B(  0-C , 10-H ) :   0.9318 B(  1-C ,  2-S ) :   0.8625 B(  1-C ,  3-H ) :   0.9050
B(  1-C ,  4-H ) :   0.9272 B(  1-C ,  5-O ) :   0.1215 B(  2-S ,  5-O ) :   1.6854
B(  2-S ,  6-O ) :   1.6317 B(  2-S ,  7-F ) :   1.0185 B(  5-O ,  6-O ) :   0.1109

Dispersion correction           -0.019472425
FINAL SINGLE POINT ENERGY      -727.773149757198

DIPOLE MOMENT
-------------
                                X             Y             Z
Electronic contribution:     -4.67314      -7.02323      -3.42516
Nuclear contribution   :      6.02439       7.89075       3.01280
                        -----------------------------------------
Total Dipole Moment    :      1.35125       0.86752      -0.41236
                        -----------------------------------------
Magnitude (a.u.)       :      1.65786
Magnitude (Debye)      :      4.21394

Rotational constants in cm-1:     0.153652     0.082400     0.079295
Rotational constants in MHz :  4606.361242  2470.285703  2377.214112

                             ****ORCA TERMINATED NORMALLY****
TOTAL RUN TIME: 0 days 0 hours 0 minutes 16 seconds 974 msec
