                         Program Version 5.0.0 -  RELEASE  -
|  1> !BLYP D3BJ RIJCOSX def2-TZVPD def2/J TightSCF xyzfile
|  2>
|  3> *xyzfile 0 1 D1.xyz
|  4>
|  5> %MaxCore 64000
|  6>
|  7> %pal nprocs 4
|  8> end
|  9>
| 10> %scf
| 11>   MaxIter 150
| 12> end
| 13>
| 14>
| 15>                          ****END OF INPUT****

CARTESIAN COORDINATES (ANGSTROEM)
---------------------------------
  C      1.364014    0.468742   -2.813764
  C      0.428844    0.321402   -1.655312
  C      0.968045    1.630639   -3.715749
  C     -0.508347    1.722679   -4.124300
  S     -1.328608    0.146737   -4.435781
  H     -0.591511    2.294958   -5.047219
  H     -1.114114    2.235610   -3.374362
  H      0.748578   -0.400542   -1.001345
  H     -0.461053    0.023332   -2.077731
  H      0.310258    1.201375   -1.134948
  F     -2.571347    0.475733   -5.068341
  O     -1.514963   -0.400512   -3.063420
  H      1.294847   -0.468742   -3.364684
  H      2.376216    0.597400   -2.431495
  H      1.578688    1.520652   -4.612733
  H      1.266653    2.575988   -3.250448
  O     -0.377928   -0.627558   -5.201141

 Total Charge           Charge          ....    0
 Multiplicity           Mult            ....    1
 Number of Electrons    NEL             ....   74
 Basis Dimension        Dim             ....  395

ORBITAL ENERGIES
----------------

  NO   OCC          E(Eh)            E(eV)
   0   2.0000     -88.341963     -2403.9070
   1   2.0000     -24.408787      -664.1968
   2   2.0000     -18.789445      -511.2868
   3   2.0000     -18.777811      -510.9702
   4   2.0000      -9.961082      -271.0548
   5   2.0000      -9.924317      -270.0544
   6   2.0000      -9.889680      -269.1119
   7   2.0000      -9.834795      -267.6184
   8   2.0000      -7.873895      -214.2596
   9   2.0000      -5.906002      -160.7105
  10   2.0000      -5.899608      -160.5365
  11   2.0000      -5.899044      -160.5211
  12   2.0000      -1.282503       -34.8987
  13   2.0000      -1.014864       -27.6158
  14   2.0000      -0.923019       -25.1166
  15   2.0000      -0.748613       -20.3708
  16   2.0000      -0.697103       -18.9691
  17   2.0000      -0.650220       -17.6934
  18   2.0000      -0.606546       -16.5050
  19   2.0000      -0.541925       -14.7465
  20   2.0000      -0.527901       -14.3649
  21   2.0000      -0.512262       -13.9394
  22   2.0000      -0.486059       -13.2263
  23   2.0000      -0.448949       -12.2165
  24   2.0000      -0.439567       -11.9612
  25   2.0000      -0.405424       -11.0321
  26   2.0000      -0.402850       -10.9621
  27   2.0000      -0.373263       -10.1570
  28   2.0000      -0.356344        -9.6966
  29   2.0000      -0.351221        -9.5572
  30   2.0000      -0.334965        -9.1149
  31   2.0000      -0.308870        -8.4048
  32   2.0000      -0.300887        -8.1875
  33   2.0000      -0.279912        -7.6168
  34   2.0000      -0.277080        -7.5397
  35   2.0000      -0.265891        -7.2353
  36   2.0000      -0.235084        -6.3970
  37   0.0000      -0.031991        -0.8705
  38   0.0000      -0.014904        -0.4055
  39   0.0000       0.004798         0.1305
  40   0.0000       0.010838         0.2949
  41   0.0000       0.020999         0.5714

MULLIKEN ATOMIC CHARGES
-----------------------
   0 C :   -0.319757
   1 C :   -1.425573
   2 C :   -0.348300
   3 C :   -0.707873
   4 S :    1.204315
   5 H :    0.321742
   6 H :    0.338752
   7 H :    0.414441
   8 H :    0.468128
   9 H :    0.365178
  10 F :   -0.099901
  11 O :   -0.630598
  12 H :    0.290474
  13 H :    0.243331
  14 H :    0.196209
  15 H :    0.281071
  16 O :   -0.591639
Sum of atomic charges:   -0.0000000

LOEWDIN ATOMIC CHARGES
----------------------
   0 C :   -0.244082
   1 C :   -0.107564
   2 C :   -0.207591
   3 C :   -0.216808
   4 S :    0.606083
   5 H :    0.095781
   6 H :    0.104863
   7 H :    0.059685
   8 H :   -0.035349
   9 H :    0.061805
  10 F :   -0.027825
  11 O :   -0.282688
  12 H :    0.100435
  13 H :    0.107619
  14 H :    0.108065
  15 H :    0.118501
  16 O :   -0.240928

  Mayer bond orders larger than 0.100000
B(  0-C ,  1-C ) :   0.5143 B(  0-C ,  2-C ) :   0.8836 B(  0-C , 12-H ) :   0.9184
B(  0-C , 13-H ) :   0.9425 B(  1-C ,  3-C ) :   0.1031 B(  1-C ,  7-H ) :   0.9012
B(  1-C ,  8-H ) :   0.9579 B(  1-C ,  9-H ) :   0.9726 B(  2-C ,  3-C ) :   0.9858
B(  2-C , 14-H ) :   0.9263 B(  2-C , 15-H ) :   0.9091 B(  3-C ,  4-S ) :   0.8876
B(  3-C ,  5-H ) :   0.8813 B(  3-C ,  6-H ) :   0.8537 B(  3-C , 11-O ) :   0.1493
B(  3-C , 16-O ) :   0.1122 B(  4-S , 10-F ) :   1.0022 B(  4-S , 11-O ) :   1.6257
B(  4-S , 16-O ) :   1.6408 B(  8-H , 11-O ) :  -0.2105 B( 11-O , 16-O ) :   0.1201

Dispersion correction           -0.036994389
FINAL SINGLE POINT ENERGY      -806.337077651267

DIPOLE MOMENT
-------------
                                X             Y             Z
Electronic contribution:    -12.45685      -4.13983      -9.68930
Nuclear contribution   :     12.25227       5.48563       9.26621
                        -----------------------------------------
Total Dipole Moment    :     -0.20458       1.34580      -0.42309
                        -----------------------------------------
Magnitude (a.u.)       :      1.42550
Magnitude (Debye)      :      3.62333

Rotational constants in cm-1:     0.103176     0.044975     0.040960
Rotational constants in MHz :  3093.138469  1348.317425  1227.945122

                             ****ORCA TERMINATED NORMALLY****
TOTAL RUN TIME: 0 days 0 hours 0 minutes 26 seconds 700 msec
