                         Program Version 5.0.0 -  RELEASE  -
|  1> !BLYP D3BJ RIJCOSX def2-TZVPD def2/J TightSCF xyzfile
|  2>
|  3> *xyzfile 0 1 D2.xyz
|  4>
|  5> %MaxCore 64000
|  6>
|  7> %pal nprocs 4
|  8> end
|  9>
| 10> %scf
| 11>   MaxIter 150
| 12> end
| 13>
| 14>
| 15>                          ****END OF INPUT****

CARTESIAN COORDINATES (ANGSTROEM)
---------------------------------
  C      1.364014    0.468742   -2.813764
  C      0.428844    0.321402   -1.655312
  C      0.968045    1.630639   -3.715749
  C     -0.508347    1.722679   -4.124300
  S     -1.328608    0.146737   -4.435781
  H     -0.591511    2.294958   -5.047219
  H     -1.114114    2.235610   -3.374362
  H      0.748578   -0.400542   -1.001345
  H     -0.461053    0.023332   -2.077731
  H      0.310258    1.201375   -1.134948
  O     -2.571347    0.475733   -5.068341
  F     -1.514963   -0.400512   -3.063420
  H      1.294847   -0.468742   -3.364684
  H      2.376216    0.597400   -2.431495
  H      1.578688    1.520652   -4.612733
  H      1.266653    2.575988   -3.250448
  O     -0.377928   -0.627558   -5.201141

 Total Charge           Charge          ....    0
 Multiplicity           Mult            ....    1
 Number of Electrons    NEL             ....   74
 Basis Dimension        Dim             ....  395

ORBITAL ENERGIES
----------------

  NO   OCC          E(Eh)            E(eV)
   0   2.0000     -88.336934     -2403.7702
   1   2.0000     -24.384290      -663.5303
   2   2.0000     -18.790694      -511.3208
   3   2.0000     -18.787767      -511.2411
   4   2.0000      -9.959097      -271.0008
   5   2.0000      -9.925232      -270.0793
   6   2.0000      -9.902945      -269.4728
   7   2.0000      -9.863134      -268.3895
   8   2.0000      -7.869070      -214.1283
   9   2.0000      -5.901490      -160.5877
  10   2.0000      -5.894551      -160.3989
  11   2.0000      -5.894185      -160.3889
  12   2.0000      -1.247874       -33.9564
  13   2.0000      -1.025050       -27.8930
  14   2.0000      -0.938208       -25.5299
  15   2.0000      -0.755133       -20.5482
  16   2.0000      -0.701567       -19.0906
  17   2.0000      -0.642372       -17.4798
  18   2.0000      -0.622470       -16.9383
  19   2.0000      -0.534365       -14.5408
  20   2.0000      -0.520638       -14.1673
  21   2.0000      -0.501992       -13.6599
  22   2.0000      -0.486791       -13.2462
  23   2.0000      -0.442597       -12.0437
  24   2.0000      -0.426573       -11.6076
  25   2.0000      -0.420354       -11.4384
  26   2.0000      -0.403624       -10.9832
  27   2.0000      -0.380749       -10.3607
  28   2.0000      -0.364872        -9.9287
  29   2.0000      -0.354373        -9.6430
  30   2.0000      -0.343541        -9.3482
  31   2.0000      -0.310615        -8.4523
  32   2.0000      -0.302176        -8.2226
  33   2.0000      -0.296485        -8.0678
  34   2.0000      -0.288650        -7.8546
  35   2.0000      -0.282014        -7.6740
  36   2.0000      -0.271638        -7.3917
  37   0.0000      -0.027906        -0.7593
  38   0.0000      -0.009443        -0.2570
  39   0.0000       0.002474         0.0673
  40   0.0000       0.004876         0.1327
  41   0.0000       0.016002         0.4354

MULLIKEN ATOMIC CHARGES
-----------------------
   0 C :   -0.348068
   1 C :   -1.452825
   2 C :   -0.282025
   3 C :   -0.684828
   4 S :    1.200198
   5 H :    0.290461
   6 H :    0.325280
   7 H :    0.420492
   8 H :    0.478595
   9 H :    0.379180
  10 O :   -0.562555
  11 F :   -0.221696
  12 H :    0.306130
  13 H :    0.244228
  14 H :    0.197172
  15 H :    0.290181
  16 O :   -0.579919
Sum of atomic charges:   -0.0000000

LOEWDIN ATOMIC CHARGES
----------------------
   0 C :   -0.247516
   1 C :   -0.096855
   2 C :   -0.214927
   3 C :   -0.211849
   4 S :    0.585872
   5 H :    0.107205
   6 H :    0.104140
   7 H :    0.061529
   8 H :   -0.007686
   9 H :    0.065572
  10 O :   -0.240762
  11 F :   -0.099442
  12 H :    0.098354
  13 H :    0.110005
  14 H :    0.108877
  15 H :    0.115854
  16 O :   -0.238371

  Mayer bond orders larger than 0.100000
B(  0-C ,  1-C ) :   0.5055 B(  0-C ,  2-C ) :   0.8510 B(  0-C , 12-H ) :   0.9311
B(  0-C , 13-H ) :   0.9445 B(  1-C ,  3-C ) :   0.1232 B(  1-C ,  7-H ) :   0.8813
B(  1-C ,  8-H ) :   0.9319 B(  1-C ,  9-H ) :   0.9206 B(  1-C , 11-F ) :   0.1173
B(  2-C ,  3-C ) :   0.8900 B(  2-C , 14-H ) :   0.9426 B(  2-C , 15-H ) :   0.9250
B(  3-C ,  4-S ) :   0.8919 B(  3-C ,  5-H ) :   0.9191 B(  3-C ,  6-H ) :   0.8791
B(  3-C , 10-O ) :   0.1316 B(  3-C , 16-O ) :   0.1029 B(  4-S , 10-O ) :   1.6011
B(  4-S , 11-F ) :   1.0184 B(  4-S , 16-O ) :   1.6406 B(  8-H , 11-F ) :  -0.1577
B( 10-O , 16-O ) :   0.1097

Dispersion correction           -0.036550297
FINAL SINGLE POINT ENERGY      -806.357294133389

DIPOLE MOMENT
-------------
                                X             Y             Z
Electronic contribution:    -10.52651      -5.60533      -6.19506
Nuclear contribution   :     11.08796       6.45140       7.05645
                        -----------------------------------------
Total Dipole Moment    :      0.56145       0.84606       0.86139
                        -----------------------------------------
Magnitude (a.u.)       :      1.33156
Magnitude (Debye)      :      3.38456

Rotational constants in cm-1:     0.100113     0.046890     0.041843
Rotational constants in MHz :  3001.313402  1405.711946  1254.411771

                             ****ORCA TERMINATED NORMALLY****
TOTAL RUN TIME: 0 days 0 hours 0 minutes 26 seconds 389 msec
