                         Program Version 5.0.0 -  RELEASE  -
|  1> !BLYP D3BJ RIJCOSX def2-TZVPD def2/J TightSCF xyzfile
|  2>
|  3> *xyzfile 0 1 D3.xyz
|  4>
|  5> %MaxCore 64000
|  6>
|  7> %pal nprocs 4
|  8> end
|  9>
| 10> %scf
| 11>   MaxIter 150
| 12> end
| 13>
| 14>
| 15>                          ****END OF INPUT****

CARTESIAN COORDINATES (ANGSTROEM)
---------------------------------
  C      1.364014    0.468742   -2.813764
  C      0.428844    0.321402   -1.655312
  C      0.968045    1.630639   -3.715749
  C     -0.508347    1.722679   -4.124300
  S     -1.328608    0.146737   -4.435781
  H     -0.591511    2.294958   -5.047219
  H     -1.114114    2.235610   -3.374362
  H      0.748578   -0.400542   -1.001345
  H     -0.461053    0.023332   -2.077731
  H      0.310258    1.201375   -1.134948
  O     -2.571347    0.475733   -5.068341
  O     -1.514963   -0.400512   -3.063420
  H      1.294847   -0.468742   -3.364684
  H      2.376216    0.597400   -2.431495
  H      1.578688    1.520652   -4.612733
  H      1.266653    2.575988   -3.250448
  F     -0.377928   -0.627558   -5.201141

 Total Charge           Charge          ....    0
 Multiplicity           Mult            ....    1
 Number of Electrons    NEL             ....   74
 Basis Dimension        Dim             ....  395

ORBITAL ENERGIES
----------------

  NO   OCC          E(Eh)            E(eV)
   0   2.0000     -88.342081     -2403.9102
   1   2.0000     -24.404611      -664.0832
   2   2.0000     -18.792418      -511.3677
   3   2.0000     -18.776840      -510.9438
   4   2.0000      -9.960808      -271.0474
   5   2.0000      -9.927757      -270.1480
   6   2.0000      -9.900852      -269.4159
   7   2.0000      -9.838407      -267.7167
   8   2.0000      -7.873974      -214.2617
   9   2.0000      -5.906279      -160.7180
  10   2.0000      -5.899700      -160.5390
  11   2.0000      -5.898939      -160.5183
  12   2.0000      -1.274362       -34.6772
  13   2.0000      -1.019173       -27.7331
  14   2.0000      -0.926395       -25.2085
  15   2.0000      -0.754173       -20.5221
  16   2.0000      -0.696282       -18.9468
  17   2.0000      -0.650633       -17.7046
  18   2.0000      -0.608608       -16.5611
  19   2.0000      -0.546582       -14.8733
  20   2.0000      -0.523560       -14.2468
  21   2.0000      -0.517321       -14.0770
  22   2.0000      -0.483578       -13.1588
  23   2.0000      -0.443766       -12.0755
  24   2.0000      -0.441290       -12.0081
  25   2.0000      -0.414984       -11.2923
  26   2.0000      -0.403911       -10.9910
  27   2.0000      -0.378119       -10.2891
  28   2.0000      -0.361810        -9.8453
  29   2.0000      -0.350679        -9.5425
  30   2.0000      -0.339942        -9.2503
  31   2.0000      -0.317853        -8.6492
  32   2.0000      -0.300737        -8.1835
  33   2.0000      -0.290298        -7.8994
  34   2.0000      -0.284337        -7.7372
  35   2.0000      -0.276259        -7.5174
  36   2.0000      -0.229090        -6.2338
  37   0.0000      -0.035422        -0.9639
  38   0.0000      -0.009980        -0.2716
  39   0.0000       0.000390         0.0106
  40   0.0000       0.010442         0.2841
  41   0.0000       0.016348         0.4448

MULLIKEN ATOMIC CHARGES
-----------------------
   0 C :   -0.252279
   1 C :   -1.398698
   2 C :   -0.384914
   3 C :   -0.632762
   4 S :    1.197462
   5 H :    0.294704
   6 H :    0.312505
   7 H :    0.413911
   8 H :    0.466981
   9 H :    0.370987
  10 O :   -0.552703
  11 O :   -0.622609
  12 H :    0.233093
  13 H :    0.232778
  14 H :    0.203663
  15 H :    0.283276
  16 F :   -0.165396
Sum of atomic charges:    0.0000000

LOEWDIN ATOMIC CHARGES
----------------------
   0 C :   -0.249537
   1 C :   -0.109739
   2 C :   -0.218716
   3 C :   -0.205828
   4 S :    0.604008
   5 H :    0.098522
   6 H :    0.115346
   7 H :    0.059548
   8 H :   -0.037352
   9 H :    0.063260
  10 O :   -0.238568
  11 O :   -0.276584
  12 H :    0.096992
  13 H :    0.108175
  14 H :    0.103949
  15 H :    0.117118
  16 F :   -0.030593

  Mayer bond orders larger than 0.100000
B(  0-C ,  1-C ) :   0.5047 B(  0-C ,  2-C ) :   0.8192 B(  0-C , 12-H ) :   0.9563
B(  0-C , 13-H ) :   0.9518 B(  1-C ,  7-H ) :   0.9076 B(  1-C ,  8-H ) :   0.9947
B(  1-C ,  9-H ) :   0.9683 B(  2-C ,  3-C ) :   0.9205 B(  2-C , 14-H ) :   0.9623
B(  2-C , 15-H ) :   0.9123 B(  3-C ,  4-S ) :   0.8783 B(  3-C ,  5-H ) :   0.9418
B(  3-C ,  6-H ) :   0.8847 B(  3-C , 10-O ) :   0.1229 B(  3-C , 11-O ) :   0.1385
B(  4-S , 10-O ) :   1.6412 B(  4-S , 11-O ) :   1.6412 B(  4-S , 16-F ) :   1.0103
B(  8-H , 11-O ) :  -0.2395

Dispersion correction           -0.036692829
FINAL SINGLE POINT ENERGY      -806.340205616744

DIPOLE MOMENT
-------------
                                X             Y             Z
Electronic contribution:     -8.70770      -5.99976      -9.87213
Nuclear contribution   :      9.83476       6.70164       9.41257
                        -----------------------------------------
Total Dipole Moment    :      1.12706       0.70188      -0.45956
                        -----------------------------------------
Magnitude (a.u.)       :      1.40502
Magnitude (Debye)      :      3.57129

Rotational constants in cm-1:     0.099832     0.045916     0.042219
Rotational constants in MHz :  2992.874960  1376.530174  1265.693813

                             ****ORCA TERMINATED NORMALLY****
TOTAL RUN TIME: 0 days 0 hours 0 minutes 26 seconds 717 msec
