                         Program Version 5.0.0 -  RELEASE  -
|  1> !LC-PBE RIJCOSX def2-SVPD def2/J TightSCF
|  2> *xyz -1 1
|  3> C         -5.57236       -5.80780       -0.81644
|  4> S         -6.90318       -4.61903       -0.52846
|  5> O         -8.11485       -5.25093       -0.95701
|  6> O         -6.53271       -3.42684       -1.31485
|  7> O         -6.86563       -4.29496        0.91412
|  8> H         -5.55376       -6.07856       -1.85145
|  9> H         -5.73990       -6.68165       -0.22212
| 10> H         -4.63562       -5.36690       -0.54622
| 11> *
| 12> %MaxCore 64000
| 13>
| 14> %pal nprocs 4
| 15> end
| 16>
| 17> %scf
| 18>   MaxIter 150
| 19> end
| 20>
| 21>                          ****END OF INPUT****

CARTESIAN COORDINATES (ANGSTROEM)
---------------------------------
  C     -5.572360   -5.807800   -0.816440
  S     -6.903180   -4.619030   -0.528460
  O     -8.114850   -5.250930   -0.957010
  O     -6.532710   -3.426840   -1.314850
  O     -6.865630   -4.294960    0.914120
  H     -5.553760   -6.078560   -1.851450
  H     -5.739900   -6.681650   -0.222120
  H     -4.635620   -5.366900   -0.546220

 Total Charge           Charge          ....   -1
 Multiplicity           Mult            ....    1
 Number of Electrons    NEL             ....   50
 Basis Dimension        Dim             ....  140

ORBITAL ENERGIES
----------------

  NO   OCC          E(Eh)            E(eV)
   0   2.0000     -88.316882     -2403.2245
   1   2.0000     -18.777906      -510.9728
   2   2.0000     -18.764623      -510.6113
   3   2.0000     -18.763653      -510.5850
   4   2.0000      -9.986374      -271.7431
   5   2.0000      -7.938347      -216.0134
   6   2.0000      -5.960708      -162.1991
   7   2.0000      -5.960509      -162.1937
   8   2.0000      -5.960456      -162.1923
   9   2.0000      -1.107183       -30.1280
  10   2.0000      -0.951598       -25.8943
  11   2.0000      -0.927457       -25.2374
  12   2.0000      -0.757229       -20.6052
  13   2.0000      -0.542723       -14.7682
  14   2.0000      -0.456136       -12.4121
  15   2.0000      -0.438897       -11.9430
  16   2.0000      -0.437225       -11.8975
  17   2.0000      -0.392837       -10.6896
  18   2.0000      -0.391820       -10.6620
  19   2.0000      -0.293508        -7.9868
  20   2.0000      -0.291758        -7.9391
  21   2.0000      -0.251801        -6.8518
  22   2.0000      -0.240824        -6.5531
  23   2.0000      -0.237367        -6.4591
  24   2.0000      -0.196525        -5.3477
  25   0.0000       0.210020         5.7149
  26   0.0000       0.232225         6.3192
  27   0.0000       0.232643         6.3305
  28   0.0000       0.238230         6.4826
  29   0.0000       0.270650         7.3648

MULLIKEN ATOMIC CHARGES
-----------------------
   0 C :    0.232709
   1 S :    0.979198
   2 O :   -0.706317
   3 O :   -0.756910
   4 O :   -0.758683
   5 H :    0.005291
   6 H :    0.000575
   7 H :    0.004136
Sum of atomic charges:   -1.0000000

LOEWDIN ATOMIC CHARGES
----------------------
   0 C :    0.027561
   1 S :    0.818289
   2 O :   -0.574862
   3 O :   -0.599422
   4 O :   -0.598679
   5 H :   -0.024473
   6 H :   -0.025153
   7 H :   -0.023260

  Mayer bond orders larger than 0.100000
B(  0-C ,  1-S ) :   0.9667 B(  0-C ,  5-H ) :   0.9371 B(  0-C ,  6-H ) :   0.9393
B(  0-C ,  7-H ) :   0.9411 B(  1-S ,  2-O ) :   1.3820 B(  1-S ,  3-O ) :   1.3437
B(  1-S ,  4-O ) :   1.3407 B(  1-S ,  7-H ) :   0.1046

FINAL SINGLE POINT ENERGY      -662.427503788615

DIPOLE MOMENT
-------------
                                X             Y             Z
Electronic contribution:     -3.16235       2.64634       0.61355
Nuclear contribution   :      4.23639      -3.86101      -0.94151
                        -----------------------------------------
Total Dipole Moment    :      1.07404      -1.21467      -0.32796
                        -----------------------------------------
Magnitude (a.u.)       :      1.65425
Magnitude (Debye)      :      4.20477

Rotational constants in cm-1:     0.172406     0.155169     0.153146
Rotational constants in MHz :  5168.590738  4651.861875  4591.214998

                             ****ORCA TERMINATED NORMALLY****
TOTAL RUN TIME: 0 days 0 hours 0 minutes 11 seconds 402 msec
