                         Program Version 5.0.0 -  RELEASE  -
|  1> !LC-PBE RIJCOSX def2-SVPD def2/J TightSCF
|  2> *xyz 1 1
|  3> C         -4.38262       -1.67089        1.21620
|  4> N         -5.76354       -1.91517        0.70501
|  5> H         -5.84081       -2.11520       -0.30065
|  6> H         -6.40882       -1.14866        0.93612
|  7> H         -6.17478       -2.79061        1.05143
|  8> H         -4.01369       -0.74796        0.81997
|  9> H         -3.74223       -2.47168        0.91037
| 10> H         -4.40201       -1.61791        2.28471
| 11> *
| 12> %MaxCore 64000
| 13>
| 14> %pal nprocs 4
| 15> end
| 16>
| 17> %scf
| 18>   MaxIter 150
| 19> end
| 20>
| 21>                          ****END OF INPUT****

CARTESIAN COORDINATES (ANGSTROEM)
---------------------------------
  C     -4.382620   -1.670890    1.216200
  N     -5.763540   -1.915170    0.705010
  H     -5.840810   -2.115200   -0.300650
  H     -6.408820   -1.148660    0.936120
  H     -6.174780   -2.790610    1.051430
  H     -4.013690   -0.747960    0.819970
  H     -3.742230   -2.471680    0.910370
  H     -4.402010   -1.617910    2.284710

 Total Charge           Charge          ....    1
 Multiplicity           Mult            ....    1
 Number of Electrons    NEL             ....   18
 Basis Dimension        Dim             ....   88

ORBITAL ENERGIES
----------------

  NO   OCC          E(Eh)            E(eV)
   0   2.0000     -14.579320      -396.7235
   1   2.0000     -10.385275      -282.5977
   2   2.0000      -1.391234       -37.8574
   3   2.0000      -1.106332       -30.1048
   4   2.0000      -0.963673       -26.2229
   5   2.0000      -0.939592       -25.5676
   6   2.0000      -0.861251       -23.4358
   7   2.0000      -0.763862       -20.7857
   8   2.0000      -0.760230       -20.6869
   9   0.0000      -0.119055        -3.2397
  10   0.0000      -0.056338        -1.5330
  11   0.0000      -0.046352        -1.2613
  12   0.0000      -0.046003        -1.2518
  13   0.0000       0.000605         0.0165

MULLIKEN ATOMIC CHARGES
-----------------------
   0 C :    0.639005
   1 N :   -0.900039
   2 H :    0.376579
   3 H :    0.405918
   4 H :    0.383938
   5 H :    0.030200
   6 H :    0.026536
   7 H :    0.037865
Sum of atomic charges:    1.0000000

LOEWDIN ATOMIC CHARGES
----------------------
   0 C :    0.258003
   1 N :    0.289008
   2 H :    0.116962
   3 H :    0.119142
   4 H :    0.114455
   5 H :    0.033869
   6 H :    0.033889
   7 H :    0.034673

  Mayer bond orders larger than 0.100000
B(  0-C ,  1-N ) :   0.7655 B(  0-C ,  5-H ) :   0.9279 B(  0-C ,  6-H ) :   0.9286
B(  0-C ,  7-H ) :   0.9185 B(  1-N ,  2-H ) :   0.8058 B(  1-N ,  3-H ) :   0.7603
B(  1-N ,  4-H ) :   0.8020

FINAL SINGLE POINT ENERGY       -95.834956548469

DIPOLE MOMENT
-------------
                                X             Y             Z
Electronic contribution:     -0.97782      -0.13972      -0.36090
Nuclear contribution   :      0.12888      -0.05969       0.04130
                        -----------------------------------------
Total Dipole Moment    :     -0.84894      -0.19941      -0.31960
                        -----------------------------------------
Magnitude (a.u.)       :      0.92877
Magnitude (Debye)      :      2.36075

Rotational constants in cm-1:     2.932748     0.676653     0.669753
Rotational constants in MHz : 87921.559023 20285.538082 20078.692306

                             ****ORCA TERMINATED NORMALLY****
TOTAL RUN TIME: 0 days 0 hours 0 minutes 4 seconds 430 msec
