                         Program Version 5.0.0 -  RELEASE  -
|  1> !LC-PBE RIJCOSX def2-SVPD def2/J TightSCF xyzfile
|  2>
|  3> *xyzfile 0 1 B.xyz
|  4>
|  5> %MaxCore 64000
|  6>
|  7> %pal nprocs 4
|  8> end
|  9>
| 10> %scf
| 11>   MaxIter 150
| 12> end
| 13>
| 14>
| 15>                          ****END OF INPUT****

CARTESIAN COORDINATES (ANGSTROEM)
---------------------------------
  C     -4.382623   -1.670889    1.216201
  N     -5.763539   -1.915170    0.705012
  C     -3.281728   -2.191272    0.294361
  C     -5.572364   -5.807798   -0.816445
  S     -6.903179   -4.619033   -0.528458
  H     -5.840812   -2.115205   -0.300646
  H     -6.408823   -1.148656    0.936124
  H     -6.174781   -2.790606    1.051433
  O     -8.114853   -5.250932   -0.957007
  O     -6.532715   -3.426838   -1.314848
  H     -4.328618   -2.139223    2.198103
  H     -4.261583   -0.597399    1.357248
  O     -6.865632   -4.294957    0.914118
  C     -3.474641   -3.605898   -0.259608
  H     -2.354548   -2.127602    0.871433
  H     -3.166611   -1.499693   -0.545037
  C     -3.827078   -4.661097    0.786174
  H     -2.560559   -3.889391   -0.788050
  H     -4.255932   -3.570040   -1.019300
  C     -4.457800   -5.941875    0.229195
  H     -5.177347   -5.542575   -1.797714
  H     -6.074202   -6.768894   -0.921272
  H     -4.530506   -4.253640    1.511979
  H     -2.933400   -4.932302    1.356825
  H     -3.681064   -6.562236   -0.229885
  H     -4.843942   -6.512728    1.075805

 Total Charge           Charge          ....    0
 Multiplicity           Mult            ....    1
 Number of Electrons    NEL             ....   98
 Basis Dimension        Dim             ....  356

ORBITAL ENERGIES
----------------

  NO   OCC          E(Eh)            E(eV)
   0   2.0000     -88.487352     -2407.8633
   1   2.0000     -18.952291      -515.7181
   2   2.0000     -18.948667      -515.6195
   3   2.0000     -18.935117      -515.2507
   4   2.0000     -14.337349      -390.1391
   5   2.0000     -10.217987      -278.0456
   6   2.0000     -10.164402      -276.5875
   7   2.0000     -10.139606      -275.9127
   8   2.0000     -10.139055      -275.8977
   9   2.0000     -10.135963      -275.8136
  10   2.0000     -10.133441      -275.7450
  11   2.0000      -8.108157      -220.6342
  12   2.0000      -6.131434      -166.8448
  13   2.0000      -6.130404      -166.8168
  14   2.0000      -6.129209      -166.7842
  15   2.0000      -1.283796       -34.9339
  16   2.0000      -1.175727       -31.9931
  17   2.0000      -1.121744       -30.5242
  18   2.0000      -1.117100       -30.3978
  19   2.0000      -1.009288       -27.4641
  20   2.0000      -0.966809       -26.3082
  21   2.0000      -0.912460       -24.8293
  22   2.0000      -0.857305       -23.3285
  23   2.0000      -0.799497       -21.7554
  24   2.0000      -0.755345       -20.5540
  25   2.0000      -0.744100       -20.2480
  26   2.0000      -0.728963       -19.8361
  27   2.0000      -0.690278       -18.7834
  28   2.0000      -0.658703       -17.9242
  29   2.0000      -0.643809       -17.5189
  30   2.0000      -0.635878       -17.3031
  31   2.0000      -0.621975       -16.9248
  32   2.0000      -0.596671       -16.2362
  33   2.0000      -0.590854       -16.0780
  34   2.0000      -0.580319       -15.7913
  35   2.0000      -0.564560       -15.3625
  36   2.0000      -0.560773       -15.2594
  37   2.0000      -0.524197       -14.2641
  38   2.0000      -0.511994       -13.9321
  39   2.0000      -0.508478       -13.8364
  40   2.0000      -0.480340       -13.0707
  41   2.0000      -0.472287       -12.8516
  42   2.0000      -0.467990       -12.7347
  43   2.0000      -0.458800       -12.4846
  44   2.0000      -0.454637       -12.3713
  45   2.0000      -0.419397       -11.4124
  46   2.0000      -0.411751       -11.2043
  47   2.0000      -0.397787       -10.8243
  48   2.0000      -0.379539       -10.3278
  49   0.0000       0.053235         1.4486
  50   0.0000       0.084254         2.2927
  51   0.0000       0.089425         2.4334
  52   0.0000       0.094134         2.5615
  53   0.0000       0.110043         2.9944

MULLIKEN ATOMIC CHARGES
-----------------------
   0 C :    0.517332
   1 N :   -0.497070
   2 C :    0.070241
   3 C :   -0.017062
   4 S :    1.236624
   5 H :    0.288451
   6 H :    0.326477
   7 H :    0.116411
   8 O :   -0.721243
   9 O :   -0.730583
  10 H :    0.221811
  11 H :   -0.246249
  12 O :   -0.783681
  13 C :    0.078282
  14 H :    0.058524
  15 H :    0.069960
  16 C :   -0.118499
  17 H :   -0.173246
  18 H :   -0.047342
  19 C :    0.270978
  20 H :    0.194114
  21 H :   -0.143473
  22 H :    0.046598
  23 H :   -0.153010
  24 H :    0.055327
  25 H :    0.080329
Sum of atomic charges:    0.0000000

LOEWDIN ATOMIC CHARGES
----------------------
   0 C :    0.071400
   1 N :    0.328121
   2 C :   -0.030558
   3 C :   -0.070715
   4 S :    0.952033
   5 H :   -0.006975
   6 H :    0.110395
   7 H :   -0.060837
   8 O :   -0.495526
   9 O :   -0.537802
  10 H :    0.045947
  11 H :    0.041342
  12 O :   -0.516658
  13 C :   -0.029078
  14 H :    0.042570
  15 H :    0.041133
  16 C :   -0.041361
  17 H :    0.043031
  18 H :   -0.007322
  19 C :   -0.045598
  20 H :    0.026660
  21 H :    0.024548
  22 H :   -0.004749
  23 H :    0.039334
  24 H :    0.038602
  25 H :    0.042061

  Mayer bond orders larger than 0.100000
B(  0-C ,  1-N ) :   0.7247 B(  0-C ,  2-C ) :   1.2248 B(  0-C , 10-H ) :   0.7439
B(  0-C , 11-H ) :   1.0384 B(  0-C , 14-H ) :   0.1123 B(  0-C , 15-H ) :   0.1109
B(  1-N ,  5-H ) :   0.7386 B(  1-N ,  6-H ) :   0.8544 B(  1-N ,  7-H ) :   1.1204
B(  2-C , 11-H ) :   0.1231 B(  2-C , 13-C ) :   1.2662 B(  2-C , 14-H ) :   0.8634
B(  2-C , 15-H ) :   0.7758 B(  3-C ,  4-S ) :   0.9353 B(  3-C ,  8-O ) :   0.1066
B(  3-C , 19-C ) :   1.2318 B(  3-C , 20-H ) :   0.8617 B(  3-C , 21-H ) :   0.9756
B(  3-C , 24-H ) :   0.1143 B(  3-C , 25-H ) :   0.1091 B(  4-S ,  8-O ) :   1.5630
B(  4-S ,  9-O ) :   1.1578 B(  4-S , 12-O ) :   1.1254 B(  5-H ,  9-O ) :   0.2005
B(  7-H , 12-O ) :   0.2179 B(  9-O , 12-O ) :   0.1428 B( 13-C , 14-H ) :   0.1076
B( 13-C , 15-H ) :   0.1840 B( 13-C , 16-C ) :   1.1814 B( 13-C , 17-H ) :   0.8830
B( 13-C , 18-H ) :   0.9001 B( 13-C , 23-H ) :   0.1547 B( 16-C , 17-H ) :   0.1600
B( 16-C , 18-H ) :   0.1400 B( 16-C , 19-C ) :   1.3054 B( 16-C , 22-H ) :   0.9003
B( 16-C , 23-H ) :   0.9137 B( 16-C , 24-H ) :   0.1117 B( 16-C , 25-H ) :   0.2189
B( 19-C , 21-H ) :   0.1553 B( 19-C , 24-H ) :   0.8180 B( 19-C , 25-H ) :   0.7256

FINAL SINGLE POINT ENERGY      -913.869137964939

DIPOLE MOMENT
-------------
                                X             Y             Z
Electronic contribution:    -13.40882      -2.93909      -3.65685
Nuclear contribution   :     16.18863       5.15617       4.97370
                        -----------------------------------------
Total Dipole Moment    :      2.77980       2.21708       1.31685
                        -----------------------------------------
Magnitude (a.u.)       :      3.79168
Magnitude (Debye)      :      9.63769

Rotational constants in cm-1:     0.048546     0.025588     0.020102
Rotational constants in MHz :  1455.374030   767.095631   602.645620

                             ****ORCA TERMINATED NORMALLY****
TOTAL RUN TIME: 0 days 0 hours 1 minutes 49 seconds 427 msec
