                         Program Version 5.0.0 -  RELEASE  -
|  1> !LC-PBE RIJCOSX def2-SVPD def2/J TightSCF
|  2> *xyz 0 1
|  3> C         -5.57236       -5.80780       -0.81644
|  4> S         -6.90318       -4.61903       -0.52846
|  5> F         -8.11485       -5.25093       -0.95701
|  6> O         -6.53271       -3.42684       -1.31485
|  7> O         -6.86563       -4.29496        0.91412
|  8> H         -5.55376       -6.07856       -1.85145
|  9> H         -5.73990       -6.68165       -0.22212
| 10> H         -4.63562       -5.36690       -0.54622
| 11> *
| 12> %MaxCore 64000
| 13>
| 14> %pal nprocs 4
| 15> end
| 16>
| 17> %scf
| 18>   MaxIter 150
| 19> end
| 20>
| 21>                          ****END OF INPUT****

CARTESIAN COORDINATES (ANGSTROEM)
---------------------------------
  C     -5.572360   -5.807800   -0.816440
  S     -6.903180   -4.619030   -0.528460
  F     -8.114850   -5.250930   -0.957010
  O     -6.532710   -3.426840   -1.314850
  O     -6.865630   -4.294960    0.914120
  H     -5.553760   -6.078560   -1.851450
  H     -5.739900   -6.681650   -0.222120
  H     -4.635620   -5.366900   -0.546220

 Total Charge           Charge          ....    0
 Multiplicity           Mult            ....    1
 Number of Electrons    NEL             ....   50
 Basis Dimension        Dim             ....  140

ORBITAL ENERGIES
----------------

  NO   OCC          E(Eh)            E(eV)
   0   2.0000     -88.585567     -2410.5358
   1   2.0000     -24.642808      -670.5649
   2   2.0000     -19.004878      -517.1490
   3   2.0000     -19.003904      -517.1225
   4   2.0000     -10.197215      -277.4803
   5   2.0000      -8.207688      -223.3425
   6   2.0000      -6.234904      -169.6604
   7   2.0000      -6.227236      -169.4517
   8   2.0000      -6.226534      -169.4326
   9   2.0000      -1.557522       -42.3823
  10   2.0000      -1.277025       -34.7496
  11   2.0000      -1.165052       -31.7027
  12   2.0000      -0.981274       -26.7018
  13   2.0000      -0.889117       -24.1941
  14   2.0000      -0.775848       -21.1119
  15   2.0000      -0.759822       -20.6758
  16   2.0000      -0.713410       -19.4129
  17   2.0000      -0.628510       -17.1026
  18   2.0000      -0.626449       -17.0465
  19   2.0000      -0.615387       -16.7455
  20   2.0000      -0.579800       -15.7772
  21   2.0000      -0.530918       -14.4470
  22   2.0000      -0.471573       -12.8322
  23   2.0000      -0.470005       -12.7895
  24   2.0000      -0.442800       -12.0492
  25   0.0000       0.056981         1.5505
  26   0.0000       0.088550         2.4096
  27   0.0000       0.093773         2.5517
  28   0.0000       0.097474         2.6524
  29   0.0000       0.114806         3.1240

MULLIKEN ATOMIC CHARGES
-----------------------
   0 C :    0.179504
   1 S :    1.145441
   2 F :   -0.319859
   3 O :   -0.613282
   4 O :   -0.614382
   5 H :    0.077441
   6 H :    0.073935
   7 H :    0.071202
Sum of atomic charges:   -0.0000000

LOEWDIN ATOMIC CHARGES
----------------------
   0 C :    0.097321
   1 S :    1.088591
   2 F :   -0.239050
   3 O :   -0.481269
   4 O :   -0.480004
   5 H :    0.000233
   6 H :   -0.000081
   7 H :    0.014259

  Mayer bond orders larger than 0.100000
B(  0-C ,  1-S ) :   1.0170 B(  0-C ,  5-H ) :   0.9241 B(  0-C ,  6-H ) :   0.9276
B(  0-C ,  7-H ) :   0.9339 B(  1-S ,  2-F ) :   0.7612 B(  1-S ,  3-O ) :   1.5546
B(  1-S ,  4-O ) :   1.5506 B(  1-S ,  7-H ) :   0.1022

FINAL SINGLE POINT ENERGY      -686.875021634957

DIPOLE MOMENT
-------------
                                X             Y             Z
Electronic contribution:     -5.19664       1.53409      -0.12096
Nuclear contribution   :      5.53040      -3.27628      -0.52239
                        -----------------------------------------
Total Dipole Moment    :      0.33376      -1.74219      -0.64335
                        -----------------------------------------
Magnitude (a.u.)       :      1.88694
Magnitude (Debye)      :      4.79621

Rotational constants in cm-1:     0.163239     0.153903     0.144751
Rotational constants in MHz :  4893.777363  4613.882823  4339.513182

                             ****ORCA TERMINATED NORMALLY****
TOTAL RUN TIME: 0 days 0 hours 0 minutes 11 seconds 747 msec
