                         Program Version 5.0.0 -  RELEASE  -
|  1> !LC-PBE RIJCOSX def2-SVPD def2/J TightSCF
|  2> *xyz 0 1
|  3> C         -4.38262       -1.67089        1.21620
|  4> C         -5.76354       -1.91517        0.70501
|  5> H         -5.84081       -2.11520       -0.30065
|  6> H         -6.40882       -1.14866        0.93612
|  7> H         -6.17478       -2.79061        1.05143
|  8> H         -4.01369       -0.74796        0.81997
|  9> H         -3.74223       -2.47168        0.91037
| 10> H         -4.40201       -1.61791        2.28471
| 11> *
| 12> %MaxCore 64000
| 13>
| 14> %pal nprocs 4
| 15> end
| 16>
| 17> %scf
| 18>   MaxIter 150
| 19> end
| 20>
| 21>                          ****END OF INPUT****

CARTESIAN COORDINATES (ANGSTROEM)
---------------------------------
  C     -4.382620   -1.670890    1.216200
  C     -5.763540   -1.915170    0.705010
  H     -5.840810   -2.115200   -0.300650
  H     -6.408820   -1.148660    0.936120
  H     -6.174780   -2.790610    1.051430
  H     -4.013690   -0.747960    0.819970
  H     -3.742230   -2.471680    0.910370
  H     -4.402010   -1.617910    2.284710

 Total Charge           Charge          ....    0
 Multiplicity           Mult            ....    1
 Number of Electrons    NEL             ....   18
 Basis Dimension        Dim             ....   88

ORBITAL ENERGIES
----------------

  NO   OCC          E(Eh)            E(eV)
   0   2.0000     -10.104831      -274.9664
   1   2.0000     -10.089972      -274.5621
   2   2.0000      -0.937953       -25.5230
   3   2.0000      -0.784982       -21.3604
   4   2.0000      -0.595710       -16.2101
   5   2.0000      -0.581933       -15.8352
   6   2.0000      -0.511722       -13.9247
   7   2.0000      -0.480278       -13.0690
   8   2.0000      -0.466364       -12.6904
   9   0.0000       0.096466         2.6250
  10   0.0000       0.124511         3.3881
  11   0.0000       0.179947         4.8966
  12   0.0000       0.183342         4.9890
  13   0.0000       0.202453         5.5090

MULLIKEN ATOMIC CHARGES
-----------------------
   0 C :    0.063149
   1 C :    0.267473
   2 H :   -0.135838
   3 H :   -0.105608
   4 H :   -0.126003
   5 H :    0.006066
   6 H :    0.016997
   7 H :    0.013764
Sum of atomic charges:    0.0000000

LOEWDIN ATOMIC CHARGES
----------------------
   0 C :    0.053163
   1 C :    0.044187
   2 H :   -0.027131
   3 H :   -0.022697
   4 H :   -0.028598
   5 H :   -0.006959
   6 H :   -0.006264
   7 H :   -0.005701

  Mayer bond orders larger than 0.100000
B(  0-C ,  1-C ) :   1.4037 B(  0-C ,  3-H ) :   0.1224 B(  0-C ,  4-H ) :   0.1083
B(  0-C ,  5-H ) :   0.9019 B(  0-C ,  6-H ) :   0.9066 B(  0-C ,  7-H ) :   0.8886
B(  1-C ,  2-H ) :   0.8352 B(  1-C ,  3-H ) :   0.8573 B(  1-C ,  4-H ) :   0.8275
B(  1-C ,  5-H ) :   0.1140 B(  1-C ,  6-H ) :   0.1126 B(  1-C ,  7-H ) :   0.1186
B(  2-H ,  4-H ) :   0.1993

FINAL SINGLE POINT ENERGY       -79.465146002890

DIPOLE MOMENT
-------------
                                X             Y             Z
Electronic contribution:      0.07594       0.07137       0.03054
Nuclear contribution   :     -0.10782      -0.10031      -0.04623
                        -----------------------------------------
Total Dipole Moment    :     -0.03188      -0.02894      -0.01569
                        -----------------------------------------
Magnitude (a.u.)       :      0.04583
Magnitude (Debye)      :      0.11648

Rotational constants in cm-1:     2.932831     0.705715     0.698218
Rotational constants in MHz : 87924.050302 21156.813368 20932.044240

                             ****ORCA TERMINATED NORMALLY****
TOTAL RUN TIME: 0 days 0 hours 0 minutes 4 seconds 580 msec
