                         Program Version 5.0.0 -  RELEASE  -
|  1> !LC-PBE RIJCOSX def2-SVPD def2/J TightSCF
|  2> *xyz 0 1
|  3> C         -5.57236       -5.80780       -0.81644
|  4> S         -6.90318       -4.61903       -0.52846
|  5> O         -8.11485       -5.25093       -0.95701
|  6> F         -6.53271       -3.42684       -1.31485
|  7> O         -6.86563       -4.29496        0.91412
|  8> H         -5.55376       -6.07856       -1.85145
|  9> H         -5.73990       -6.68165       -0.22212
| 10> H         -4.63562       -5.36690       -0.54622
| 11> *
| 12> %MaxCore 64000
| 13>
| 14> %pal nprocs 4
| 15> end
| 16>
| 17> %scf
| 18>   MaxIter 150
| 19> end
| 20>
| 21>                          ****END OF INPUT****

CARTESIAN COORDINATES (ANGSTROEM)
---------------------------------
  C     -5.572360   -5.807800   -0.816440
  S     -6.903180   -4.619030   -0.528460
  O     -8.114850   -5.250930   -0.957010
  F     -6.532710   -3.426840   -1.314850
  O     -6.865630   -4.294960    0.914120
  H     -5.553760   -6.078560   -1.851450
  H     -5.739900   -6.681650   -0.222120
  H     -4.635620   -5.366900   -0.546220

 Total Charge           Charge          ....    0
 Multiplicity           Mult            ....    1
 Number of Electrons    NEL             ....   50
 Basis Dimension        Dim             ....  140

ORBITAL ENERGIES
----------------

  NO   OCC          E(Eh)            E(eV)
   0   2.0000     -88.583389     -2410.4766
   1   2.0000     -24.621077      -669.9736
   2   2.0000     -19.018109      -517.5090
   3   2.0000     -19.004338      -517.1343
   4   2.0000     -10.196324      -277.4561
   5   2.0000      -8.205407      -223.2805
   6   2.0000      -6.232387      -169.5919
   7   2.0000      -6.225231      -169.3971
   8   2.0000      -6.224461      -169.3762
   9   2.0000      -1.521048       -41.3898
  10   2.0000      -1.292114       -35.1602
  11   2.0000      -1.181114       -32.1397
  12   2.0000      -0.979241       -26.6465
  13   2.0000      -0.870731       -23.6938
  14   2.0000      -0.757770       -20.6200
  15   2.0000      -0.733828       -19.9685
  16   2.0000      -0.710253       -19.3270
  17   2.0000      -0.631999       -17.1976
  18   2.0000      -0.628464       -17.1014
  19   2.0000      -0.613546       -16.6954
  20   2.0000      -0.587631       -15.9903
  21   2.0000      -0.539298       -14.6750
  22   2.0000      -0.485761       -13.2182
  23   2.0000      -0.472449       -12.8560
  24   2.0000      -0.455627       -12.3982
  25   0.0000       0.059350         1.6150
  26   0.0000       0.090105         2.4519
  27   0.0000       0.094887         2.5820
  28   0.0000       0.097027         2.6403
  29   0.0000       0.114162         3.1065

MULLIKEN ATOMIC CHARGES
-----------------------
   0 C :    0.177990
   1 S :    1.151946
   2 O :   -0.576424
   3 F :   -0.348189
   4 O :   -0.625593
   5 H :    0.077830
   6 H :    0.069164
   7 H :    0.073275
Sum of atomic charges:   -0.0000000

LOEWDIN ATOMIC CHARGES
----------------------
   0 C :    0.097710
   1 S :    1.085928
   2 O :   -0.458496
   3 F :   -0.258919
   4 O :   -0.480535
   5 H :    0.000478
   6 H :    0.012886
   7 H :    0.000948

  Mayer bond orders larger than 0.100000
B(  0-C ,  1-S ) :   1.0173 B(  0-C ,  5-H ) :   0.9263 B(  0-C ,  6-H ) :   0.9307
B(  0-C ,  7-H ) :   0.9301 B(  1-S ,  2-O ) :   1.5893 B(  1-S ,  3-F ) :   0.7148
B(  1-S ,  4-O ) :   1.5486

FINAL SINGLE POINT ENERGY      -686.893810949662

DIPOLE MOMENT
-------------
                                X             Y             Z
Electronic contribution:     -2.52117       4.62597      -0.74139
Nuclear contribution   :      3.94974      -5.09866      -0.16489
                        -----------------------------------------
Total Dipole Moment    :      1.42857      -0.47270      -0.90628
                        -----------------------------------------
Magnitude (a.u.)       :      1.75659
Magnitude (Debye)      :      4.46488

Rotational constants in cm-1:     0.163657     0.151977     0.145976
Rotational constants in MHz :  4906.325390  4556.144033  4376.262759

                             ****ORCA TERMINATED NORMALLY****
TOTAL RUN TIME: 0 days 0 hours 0 minutes 11 seconds 551 msec
