                         Program Version 5.0.0 -  RELEASE  -
|  1> !LC-PBE RIJCOSX def2-SVPD def2/J TightSCF
|  2> *xyz 0 1
|  3> C         -5.57236       -5.80780       -0.81644
|  4> S         -6.90318       -4.61903       -0.52846
|  5> O         -8.11485       -5.25093       -0.95701
|  6> O         -6.53271       -3.42684       -1.31485
|  7> F         -6.86563       -4.29496        0.91412
|  8> H         -5.55376       -6.07856       -1.85145
|  9> H         -5.73990       -6.68165       -0.22212
| 10> H         -4.63562       -5.36690       -0.54622
| 11> *
| 12> %MaxCore 64000
| 13>
| 14> %pal nprocs 4
| 15> end
| 16>
| 17> %scf
| 18>   MaxIter 150
| 19> end
| 20>
| 21>                          ****END OF INPUT****

CARTESIAN COORDINATES (ANGSTROEM)
---------------------------------
  C     -5.572360   -5.807800   -0.816440
  S     -6.903180   -4.619030   -0.528460
  O     -8.114850   -5.250930   -0.957010
  O     -6.532710   -3.426840   -1.314850
  F     -6.865630   -4.294960    0.914120
  H     -5.553760   -6.078560   -1.851450
  H     -5.739900   -6.681650   -0.222120
  H     -4.635620   -5.366900   -0.546220

 Total Charge           Charge          ....    0
 Multiplicity           Mult            ....    1
 Number of Electrons    NEL             ....   50
 Basis Dimension        Dim             ....  140

ORBITAL ENERGIES
----------------

  NO   OCC          E(Eh)            E(eV)
   0   2.0000     -88.583105     -2410.4688
   1   2.0000     -24.620948      -669.9701
   2   2.0000     -19.018171      -517.5107
   3   2.0000     -19.003453      -517.1102
   4   2.0000     -10.196288      -277.4551
   5   2.0000      -8.205155      -223.2736
   6   2.0000      -6.232095      -169.5839
   7   2.0000      -6.224973      -169.3901
   8   2.0000      -6.224244      -169.3703
   9   2.0000      -1.519152       -41.3382
  10   2.0000      -1.292867       -35.1807
  11   2.0000      -1.181872       -32.1604
  12   2.0000      -0.978445       -26.6248
  13   2.0000      -0.870422       -23.6854
  14   2.0000      -0.757076       -20.6011
  15   2.0000      -0.732572       -19.9343
  16   2.0000      -0.709735       -19.3129
  17   2.0000      -0.631325       -17.1792
  18   2.0000      -0.628749       -17.1091
  19   2.0000      -0.614426       -16.7194
  20   2.0000      -0.587765       -15.9939
  21   2.0000      -0.539345       -14.6763
  22   2.0000      -0.485884       -13.2216
  23   2.0000      -0.471709       -12.8359
  24   2.0000      -0.455685       -12.3998
  25   0.0000       0.058895         1.6026
  26   0.0000       0.090068         2.4509
  27   0.0000       0.094823         2.5803
  28   0.0000       0.096824         2.6347
  29   0.0000       0.112036         3.0486

MULLIKEN ATOMIC CHARGES
-----------------------
   0 C :    0.179469
   1 S :    1.151506
   2 O :   -0.576060
   3 O :   -0.624334
   4 F :   -0.350849
   5 H :    0.073256
   6 H :    0.072500
   7 H :    0.074512
Sum of atomic charges:    0.0000000

LOEWDIN ATOMIC CHARGES
----------------------
   0 C :    0.097864
   1 S :    1.086252
   2 O :   -0.458317
   3 O :   -0.481414
   4 F :   -0.258552
   5 H :    0.013353
   6 H :   -0.000502
   7 H :    0.001316

  Mayer bond orders larger than 0.100000
B(  0-C ,  1-S ) :   1.0175 B(  0-C ,  5-H ) :   0.9282 B(  0-C ,  6-H ) :   0.9278
B(  0-C ,  7-H ) :   0.9309 B(  1-S ,  2-O ) :   1.5889 B(  1-S ,  3-O ) :   1.5514
B(  1-S ,  4-F ) :   0.7101

FINAL SINGLE POINT ENERGY      -686.893436122619

DIPOLE MOMENT
-------------
                                X             Y             Z
Electronic contribution:     -3.08780       3.14393       3.05477
Nuclear contribution   :      4.28235      -4.23136      -2.39177
                        -----------------------------------------
Total Dipole Moment    :      1.19455      -1.08742       0.66300
                        -----------------------------------------
Magnitude (a.u.)       :      1.74614
Magnitude (Debye)      :      4.43833

Rotational constants in cm-1:     0.164456     0.151338     0.145749
Rotational constants in MHz :  4930.268698  4537.002642  4369.437533

                             ****ORCA TERMINATED NORMALLY****
TOTAL RUN TIME: 0 days 0 hours 0 minutes 12 seconds 310 msec
