                         Program Version 5.0.0 -  RELEASE  -
|  1> !LC-BLYP RIJCOSX def2-SVPD def2/J TightSCF
|  2> *xyz -1 1
|  3> C          1.22302        2.46987       -3.75691
|  4> O          2.35381        1.71203       -3.93448
|  5> H          1.26998        3.33359       -4.38673
|  6> H          1.15671        2.77738       -2.73420
|  7> H          0.36099        1.88932       -4.01140
|  8> *
|  9>
| 10> %MaxCore 64000
| 11>
| 12> %pal nprocs 4
| 13> end
| 14>
| 15> %scf
| 16>   MaxIter 150
| 17> end
| 18>
| 19>
| 20>                          ****END OF INPUT****

CARTESIAN COORDINATES (ANGSTROEM)
---------------------------------
  C      1.223020    2.469870   -3.756910
  O      2.353810    1.712030   -3.934480
  H      1.269980    3.333590   -4.386730
  H      1.156710    2.777380   -2.734200
  H      0.360990    1.889320   -4.011400

 Total Charge           Charge          ....   -1
 Multiplicity           Mult            ....    1
 Number of Electrons    NEL             ....   18
 Basis Dimension        Dim             ....   67

ORBITAL ENERGIES
----------------

  NO   OCC          E(Eh)            E(eV)
   0   2.0000     -18.602766      -506.2070
   1   2.0000      -9.872776      -268.6519
   2   2.0000      -0.744893       -20.2696
   3   2.0000      -0.497438       -13.5360
   4   2.0000      -0.302179        -8.2227
   5   2.0000      -0.302174        -8.2226
   6   2.0000      -0.199114        -5.4182
   7   2.0000      -0.047118        -1.2821
   8   2.0000      -0.047114        -1.2820
   9   0.0000       0.247490         6.7345
  10   0.0000       0.324379         8.8268
  11   0.0000       0.324380         8.8268
  12   0.0000       0.333050         9.0627
  13   0.0000       0.367929        10.0119

MULLIKEN ATOMIC CHARGES
-----------------------
   0 C :    0.921553
   1 O :   -0.970081
   2 H :   -0.317219
   3 H :   -0.317116
   4 H :   -0.317137
Sum of atomic charges:   -1.0000000

LOEWDIN ATOMIC CHARGES
----------------------
   0 C :   -0.137134
   1 O :   -0.645831
   2 H :   -0.072347
   3 H :   -0.072344
   4 H :   -0.072343

  Mayer bond orders larger than 0.100000
B(  0-C ,  1-O ) :   1.2736 B(  0-C ,  2-H ) :   0.8738 B(  0-C ,  3-H ) :   0.8740
B(  0-C ,  4-H ) :   0.8739

FINAL SINGLE POINT ENERGY      -114.757949345178

DIPOLE MOMENT
-------------
                                X             Y             Z
Electronic contribution:      1.44360      -0.96739      -0.22670
Nuclear contribution   :     -2.37854       1.59406       0.37350
                        -----------------------------------------
Total Dipole Moment    :     -0.93494       0.62667       0.14681
                        -----------------------------------------
Magnitude (a.u.)       :      1.13507
Magnitude (Debye)      :      2.88512

Rotational constants in cm-1:     5.477743     0.935515     0.935515
Rotational constants in MHz : 164218.600605 28046.042741 28046.034116

                             ****ORCA TERMINATED NORMALLY****
TOTAL RUN TIME: 0 days 0 hours 0 minutes 3 seconds 662 msec
