                         Program Version 5.0.0 -  RELEASE  -
|  1> !LC-BLYP RIJCOSX def2-SVPD def2/J TightSCF
|  2> *xyz 1 1
|  3> C          1.63556       -1.67040       -5.29211
|  4> N          2.48451       -0.50741       -5.14039
|  5> C          3.45115       -0.14953       -5.95259
|  6> N          3.92267        1.08956       -5.85071
|  7> N          3.96616       -1.00618       -6.86788
|  8> H          3.52139       -1.90647       -6.99527
|  9> H          4.44482       -0.62347       -7.67035
| 10> H          2.25200        0.24080       -4.49879
| 11> H          3.46428        1.64078       -5.13639
| 12> H          4.83447        1.31375       -6.22465
| 13> H          2.06372       -2.33262       -6.01532
| 14> H          0.66479       -1.36293       -5.62068
| 15> H          1.55078       -2.17513       -4.35245
| 16> *
| 17>
| 18> %MaxCore 64000
| 19>
| 20> %pal nprocs 4
| 21> end
| 22>
| 23> %scf
| 24>   MaxIter 150
| 25> end
| 26>
| 27>
| 28>                          ****END OF INPUT****

CARTESIAN COORDINATES (ANGSTROEM)
---------------------------------
  C      1.635560   -1.670400   -5.292110
  N      2.484510   -0.507410   -5.140390
  C      3.451150   -0.149530   -5.952590
  N      3.922670    1.089560   -5.850710
  N      3.966160   -1.006180   -6.867880
  H      3.521390   -1.906470   -6.995270
  H      4.444820   -0.623470   -7.670350
  H      2.252000    0.240800   -4.498790
  H      3.464280    1.640780   -5.136390
  H      4.834470    1.313750   -6.224650
  H      2.063720   -2.332620   -6.015320
  H      0.664790   -1.362930   -5.620680
  H      1.550780   -2.175130   -4.352450

 Total Charge           Charge          ....    1
 Multiplicity           Mult            ....    1
 Number of Electrons    NEL             ....   40
 Basis Dimension        Dim             ....  164

ORBITAL ENERGIES
----------------

  NO   OCC          E(Eh)            E(eV)
   0   2.0000     -14.425132      -392.5278
   1   2.0000     -14.416666      -392.2974
   2   2.0000     -14.413777      -392.2188
   3   2.0000     -10.428403      -283.7713
   4   2.0000     -10.295861      -280.1646
   5   2.0000      -1.320361       -35.9289
   6   2.0000      -1.206205       -32.8225
   7   2.0000      -1.192248       -32.4427
   8   2.0000      -1.019261       -27.7355
   9   2.0000      -0.934250       -25.4222
  10   2.0000      -0.895010       -24.3545
  11   2.0000      -0.866533       -23.5796
  12   2.0000      -0.798706       -21.7339
  13   2.0000      -0.795210       -21.6388
  14   2.0000      -0.771569       -20.9955
  15   2.0000      -0.753961       -20.5163
  16   2.0000      -0.701443       -19.0872
  17   2.0000      -0.689126       -18.7521
  18   2.0000      -0.583248       -15.8710
  19   2.0000      -0.559642       -15.2286
  20   0.0000      -0.100636        -2.7384
  21   0.0000      -0.097191        -2.6447
  22   0.0000      -0.067023        -1.8238
  23   0.0000      -0.054947        -1.4952
  24   0.0000      -0.022464        -0.6113

MULLIKEN ATOMIC CHARGES
-----------------------
   0 C :    1.503257
   1 N :   -0.440408
   2 C :    0.822229
   3 N :    0.201992
   4 N :    0.240352
   5 H :   -0.107522
   6 H :   -0.108578
   7 H :   -0.253363
   8 H :   -0.010169
   9 H :   -0.118219
  10 H :   -0.390867
  11 H :   -0.168986
  12 H :   -0.169719
Sum of atomic charges:    1.0000000

LOEWDIN ATOMIC CHARGES
----------------------
   0 C :    0.259532
   1 N :    0.029993
   2 C :   -0.061348
   3 N :    0.275056
   4 N :    0.288897
   5 H :    0.003720
   6 H :    0.038122
   7 H :    0.059375
   8 H :    0.034015
   9 H :    0.046058
  10 H :   -0.013656
  11 H :    0.019861
  12 H :    0.020376

  Mayer bond orders larger than 0.100000
B(  0-C ,  1-N ) :   1.0346 B(  0-C ,  7-H ) :  -0.1958 B(  0-C , 10-H ) :   0.7156
B(  0-C , 11-H ) :   0.6888 B(  0-C , 12-H ) :   0.6632 B(  1-N ,  2-C ) :   1.1115
B(  1-N ,  3-N ) :   0.2690 B(  1-N ,  4-N ) :   0.1619 B(  1-N ,  7-H ) :   1.3235
B(  1-N , 10-H ) :   0.2445 B(  1-N , 11-H ) :   0.1892 B(  1-N , 12-H ) :   0.2253
B(  2-C ,  3-N ) :   1.0515 B(  2-C ,  4-N ) :   1.1109 B(  2-C ,  5-H ) :  -0.1102
B(  2-C ,  6-H ) :  -0.1276 B(  2-C ,  7-H ) :  -0.2596 B(  2-C ,  9-H ) :  -0.1069
B(  3-N ,  4-N ) :   0.1470 B(  3-N ,  8-H ) :   1.0790 B(  3-N ,  9-H ) :   1.2023
B(  4-N ,  5-H ) :   1.0551 B(  4-N ,  6-H ) :   1.1920 B(  5-H ,  6-H ) :  -0.1668
B(  5-H , 10-H ) :   0.1118 B(  8-H ,  9-H ) :  -0.1537

FINAL SINGLE POINT ENERGY      -244.305116858966

DIPOLE MOMENT
-------------
                                X             Y             Z
Electronic contribution:      1.95654       1.91567      -0.25965
Nuclear contribution   :     -1.83770      -1.53167       0.12165
                        -----------------------------------------
Total Dipole Moment    :      0.11884       0.38401      -0.13799
                        -----------------------------------------
Magnitude (a.u.)       :      0.42500
Magnitude (Debye)      :      1.08026

Rotational constants in cm-1:     0.307545     0.135665     0.096412
Rotational constants in MHz :  9219.967860  4067.145400  2890.348280

                             ****ORCA TERMINATED NORMALLY****
TOTAL RUN TIME: 0 days 0 hours 0 minutes 15 seconds 252 msec
