                         Program Version 5.0.0 -  RELEASE  -
|  1> !LC-BLYP RIJCOSX def2-SVPD def2/J TightSCF
|  2> *xyz 0 1
|  3> C          1.22302        2.46987       -3.75691
|  4> F          2.35381        1.71203       -3.93448
|  5> H          1.26998        3.33359       -4.38673
|  6> H          1.15671        2.77738       -2.73420
|  7> H          0.36099        1.88932       -4.01140
|  8> *
|  9>
| 10> %MaxCore 64000
| 11>
| 12> %pal nprocs 4
| 13> end
| 14>
| 15> %scf
| 16>   MaxIter 150
| 17> end
| 18>
| 19>
| 20>                          ****END OF INPUT****

CARTESIAN COORDINATES (ANGSTROEM)
---------------------------------
  C      1.223020    2.469870   -3.756910
  F      2.353810    1.712030   -3.934480
  H      1.269980    3.333590   -4.386730
  H      1.156710    2.777380   -2.734200
  H      0.360990    1.889320   -4.011400

 Total Charge           Charge          ....    0
 Multiplicity           Mult            ....    1
 Number of Electrons    NEL             ....   18
 Basis Dimension        Dim             ....   67

ORBITAL ENERGIES
----------------

  NO   OCC          E(Eh)            E(eV)
   0   2.0000     -24.460128      -665.5939
   1   2.0000     -10.157042      -276.3872
   2   2.0000      -1.262650       -34.3585
   3   2.0000      -0.809614       -22.0307
   4   2.0000      -0.601897       -16.3785
   5   2.0000      -0.596849       -16.2411
   6   2.0000      -0.596845       -16.2410
   7   2.0000      -0.451168       -12.2769
   8   2.0000      -0.451167       -12.2769
   9   0.0000       0.075203         2.0464
  10   0.0000       0.123954         3.3730
  11   0.0000       0.157072         4.2741
  12   0.0000       0.157072         4.2742
  13   0.0000       0.195796         5.3279

MULLIKEN ATOMIC CHARGES
-----------------------
   0 C :    1.024971
   1 F :   -0.431874
   2 H :   -0.197703
   3 H :   -0.197621
   4 H :   -0.197774
Sum of atomic charges:   -0.0000000

LOEWDIN ATOMIC CHARGES
----------------------
   0 C :    0.239024
   1 F :   -0.235089
   2 H :   -0.001313
   3 H :   -0.001312
   4 H :   -0.001310

  Mayer bond orders larger than 0.100000
B(  0-C ,  1-F ) :   0.9318 B(  0-C ,  2-H ) :   0.9025 B(  0-C ,  3-H ) :   0.9024
B(  0-C ,  4-H ) :   0.9025

FINAL SINGLE POINT ENERGY      -139.368238545554

DIPOLE MOMENT
-------------
                                X             Y             Z
Electronic contribution:      2.39447      -1.60471      -0.37607
Nuclear contribution   :     -3.01708       2.02200       0.47377
                        -----------------------------------------
Total Dipole Moment    :     -0.62261       0.41729       0.09771
                        -----------------------------------------
Magnitude (a.u.)       :      0.75586
Magnitude (Debye)      :      1.92125

Rotational constants in cm-1:     5.477743     0.870792     0.870792
Rotational constants in MHz : 164218.600605 26105.683059 26105.675587

                             ****ORCA TERMINATED NORMALLY****
TOTAL RUN TIME: 0 days 0 hours 0 minutes 3 seconds 338 msec
