                         Program Version 5.0.0 -  RELEASE  -
|  1> !LC-BLYP RIJCOSX def2-SVPD def2/J TightSCF
|  2> *xyz 0 1
|  3> C          1.63556       -1.67040       -5.29211
|  4> C          2.48451       -0.50741       -5.14039
|  5> C          3.45115       -0.14953       -5.95259
|  6> N          3.92267        1.08956       -5.85071
|  7> N          3.96616       -1.00618       -6.86788
|  8> H          3.52139       -1.90647       -6.99527
|  9> H          4.44482       -0.62347       -7.67035
| 10> H          2.25200        0.24080       -4.49879
| 11> H          3.46428        1.64078       -5.13639
| 12> H          4.83447        1.31375       -6.22465
| 13> H          2.06372       -2.33262       -6.01532
| 14> H          0.66479       -1.36293       -5.62068
| 15> H          1.55078       -2.17513       -4.35245
| 16> *
| 17>
| 18> %MaxCore 64000
| 19>
| 20> %pal nprocs 4
| 21> end
| 22>
| 23> %scf
| 24>   MaxIter 150
| 25> end
| 26>
| 27>
| 28>                          ****END OF INPUT****

CARTESIAN COORDINATES (ANGSTROEM)
---------------------------------
  C      1.635560   -1.670400   -5.292110
  C      2.484510   -0.507410   -5.140390
  C      3.451150   -0.149530   -5.952590
  N      3.922670    1.089560   -5.850710
  N      3.966160   -1.006180   -6.867880
  H      3.521390   -1.906470   -6.995270
  H      4.444820   -0.623470   -7.670350
  H      2.252000    0.240800   -4.498790
  H      3.464280    1.640780   -5.136390
  H      4.834470    1.313750   -6.224650
  H      2.063720   -2.332620   -6.015320
  H      0.664790   -1.362930   -5.620680
  H      1.550780   -2.175130   -4.352450

 Total Charge           Charge          ....    0
 Multiplicity           Mult            ....    1
 Number of Electrons    NEL             ....   40
 Basis Dimension        Dim             ....  164

ORBITAL ENERGIES
----------------

  NO   OCC          E(Eh)            E(eV)
   0   2.0000     -14.185962      -386.0196
   1   2.0000     -14.183014      -385.9394
   2   2.0000     -10.125319      -275.5239
   3   2.0000     -10.054063      -273.5850
   4   2.0000     -10.011888      -272.4373
   5   2.0000      -1.050934       -28.5974
   6   2.0000      -0.961969       -26.1765
   7   2.0000      -0.859060       -23.3762
   8   2.0000      -0.760860       -20.7041
   9   2.0000      -0.688324       -18.7303
  10   2.0000      -0.644212       -17.5299
  11   2.0000      -0.612684       -16.6720
  12   2.0000      -0.567953       -15.4548
  13   2.0000      -0.530395       -14.4328
  14   2.0000      -0.516452       -14.0534
  15   2.0000      -0.485813       -13.2196
  16   2.0000      -0.463212       -12.6046
  17   2.0000      -0.445810       -12.1311
  18   2.0000      -0.364095        -9.9075
  19   2.0000      -0.255545        -6.9537
  20   0.0000       0.074132         2.0172
  21   0.0000       0.098499         2.6803
  22   0.0000       0.107786         2.9330
  23   0.0000       0.137250         3.7348
  24   0.0000       0.147589         4.0161

MULLIKEN ATOMIC CHARGES
-----------------------
   0 C :    1.206649
   1 C :   -0.597745
   2 C :    0.431665
   3 N :    0.231294
   4 N :    0.241064
   5 H :   -0.093839
   6 H :   -0.201469
   7 H :   -0.441591
   8 H :    0.018059
   9 H :   -0.219789
  10 H :   -0.454003
  11 H :   -0.102727
  12 H :   -0.017568
Sum of atomic charges:    0.0000000

LOEWDIN ATOMIC CHARGES
----------------------
   0 C :    0.099872
   1 C :   -0.073601
   2 C :   -0.250217
   3 N :    0.184886
   4 N :    0.207516
   5 H :   -0.029626
   6 H :   -0.013786
   7 H :   -0.048179
   8 H :   -0.001588
   9 H :   -0.008601
  10 H :   -0.042135
  11 H :   -0.011380
  12 H :   -0.013159

  Mayer bond orders larger than 0.100000
B(  0-C ,  1-C ) :   1.1614 B(  0-C ,  7-H ) :   0.1829 B(  0-C , 10-H ) :   0.6549
B(  0-C , 11-H ) :   0.7097 B(  0-C , 12-H ) :   0.4811 B(  1-C ,  2-C ) :   1.6594
B(  1-C ,  3-N ) :   0.3554 B(  1-C ,  4-N ) :   0.1908 B(  1-C ,  7-H ) :   0.9071
B(  1-C , 10-H ) :   0.4362 B(  1-C , 11-H ) :   0.1425 B(  1-C , 12-H ) :   0.3445
B(  2-C ,  3-N ) :   1.0559 B(  2-C ,  4-N ) :   1.1589 B(  2-C ,  7-H ) :   0.2987
B(  3-N ,  8-H ) :   1.0602 B(  3-N ,  9-H ) :   1.1860 B(  4-N ,  5-H ) :   1.0436
B(  4-N ,  6-H ) :   1.1556 B(  5-H ,  6-H ) :  -0.1413 B(  8-H ,  9-H ) :  -0.1526
B( 10-H , 11-H ) :   0.1258 B( 10-H , 12-H ) :   0.2631

FINAL SINGLE POINT ENERGY      -227.847751352998

DIPOLE MOMENT
-------------
                                X             Y             Z
Electronic contribution:      2.38472       1.85369      -0.76561
Nuclear contribution   :     -1.96139      -1.54412       0.26148
                        -----------------------------------------
Total Dipole Moment    :      0.42333       0.30957      -0.50413
                        -----------------------------------------
Magnitude (a.u.)       :      0.72745
Magnitude (Debye)      :      1.84904

Rotational constants in cm-1:     0.312277     0.136708     0.097371
Rotational constants in MHz :  9361.815989  4098.393303  2919.105491

                             ****ORCA TERMINATED NORMALLY****
TOTAL RUN TIME: 0 days 0 hours 0 minutes 17 seconds 304 msec
