                         Program Version 5.0.0 -  RELEASE  -
|  1> !LC-BLYP RIJCOSX def2-SVPD def2/J TightSCF
|  2> *xyz 0 1
|  3> C          1.63556       -1.67040       -5.29211
|  4> N          2.48451       -0.50741       -5.14039
|  5> C          3.45115       -0.14953       -5.95259
|  6> C          3.92267        1.08956       -5.85071
|  7> N          3.96616       -1.00618       -6.86788
|  8> H          3.52139       -1.90647       -6.99527
|  9> H          4.44482       -0.62347       -7.67035
| 10> H          2.25200        0.24080       -4.49879
| 11> H          3.46428        1.64078       -5.13639
| 12> H          4.83447        1.31375       -6.22465
| 13> H          2.06372       -2.33262       -6.01532
| 14> H          0.66479       -1.36293       -5.62068
| 15> H          1.55078       -2.17513       -4.35245
| 16> *
| 17>
| 18> %MaxCore 64000
| 19>
| 20> %pal nprocs 4
| 21> end
| 22>
| 23> %scf
| 24>   MaxIter 150
| 25> end
| 26>
| 27>
| 28>                          ****END OF INPUT****

CARTESIAN COORDINATES (ANGSTROEM)
---------------------------------
  C      1.635560   -1.670400   -5.292110
  N      2.484510   -0.507410   -5.140390
  C      3.451150   -0.149530   -5.952590
  C      3.922670    1.089560   -5.850710
  N      3.966160   -1.006180   -6.867880
  H      3.521390   -1.906470   -6.995270
  H      4.444820   -0.623470   -7.670350
  H      2.252000    0.240800   -4.498790
  H      3.464280    1.640780   -5.136390
  H      4.834470    1.313750   -6.224650
  H      2.063720   -2.332620   -6.015320
  H      0.664790   -1.362930   -5.620680
  H      1.550780   -2.175130   -4.352450

 Total Charge           Charge          ....    0
 Multiplicity           Mult            ....    1
 Number of Electrons    NEL             ....   40
 Basis Dimension        Dim             ....  164

ORBITAL ENERGIES
----------------

  NO   OCC          E(Eh)            E(eV)
   0   2.0000     -14.191051      -386.1581
   1   2.0000     -14.188715      -386.0946
   2   2.0000     -10.132826      -275.7282
   3   2.0000     -10.120543      -275.3940
   4   2.0000      -9.995866      -272.0013
   5   2.0000      -1.065958       -29.0062
   6   2.0000      -0.976244       -26.5649
   7   2.0000      -0.855265       -23.2730
   8   2.0000      -0.767929       -20.8964
   9   2.0000      -0.705300       -19.1922
  10   2.0000      -0.644376       -17.5344
  11   2.0000      -0.597551       -16.2602
  12   2.0000      -0.579968       -15.7817
  13   2.0000      -0.562768       -15.3137
  14   2.0000      -0.510690       -13.8966
  15   2.0000      -0.495070       -13.4715
  16   2.0000      -0.482681       -13.1344
  17   2.0000      -0.466958       -12.7066
  18   2.0000      -0.356395        -9.6980
  19   2.0000      -0.257510        -7.0072
  20   0.0000       0.065464         1.7814
  21   0.0000       0.100759         2.7418
  22   0.0000       0.103744         2.8230
  23   0.0000       0.141830         3.8594
  24   0.0000       0.142455         3.8764

MULLIKEN ATOMIC CHARGES
-----------------------
   0 C :    1.529219
   1 N :   -0.358586
   2 C :    0.312222
   3 C :    0.661395
   4 N :    0.292725
   5 H :   -0.235804
   6 H :   -0.109731
   7 H :   -0.281502
   8 H :   -0.341460
   9 H :   -0.567052
  10 H :   -0.440193
  11 H :   -0.223729
  12 H :   -0.237504
Sum of atomic charges:    0.0000000

LOEWDIN ATOMIC CHARGES
----------------------
   0 C :    0.206874
   1 N :   -0.032937
   2 C :   -0.253765
   3 C :    0.130429
   4 N :    0.210670
   5 H :   -0.042031
   6 H :    0.004204
   7 H :    0.031062
   8 H :   -0.103919
   9 H :   -0.097306
  10 H :   -0.032993
  11 H :   -0.010585
  12 H :   -0.009704

  Mayer bond orders larger than 0.100000
B(  0-C ,  1-N ) :   0.9851 B(  0-C ,  7-H ) :  -0.1998 B(  0-C , 10-H ) :   0.7042
B(  0-C , 11-H ) :   0.6925 B(  0-C , 12-H ) :   0.6501 B(  1-N ,  2-C ) :   1.1404
B(  1-N ,  3-C ) :   0.2697 B(  1-N ,  7-H ) :   1.2813 B(  1-N , 10-H ) :   0.2695
B(  1-N , 11-H ) :   0.1679 B(  1-N , 12-H ) :   0.2462 B(  2-C ,  3-C ) :   1.6055
B(  2-C ,  4-N ) :   1.0775 B(  2-C ,  6-H ) :  -0.1094 B(  2-C ,  7-H ) :  -0.2019
B(  2-C ,  8-H ) :   0.2402 B(  2-C ,  9-H ) :   0.2676 B(  3-C ,  4-N ) :   0.2411
B(  3-C ,  8-H ) :   0.7543 B(  3-C ,  9-H ) :   0.5708 B(  4-N ,  5-H ) :   1.0426
B(  4-N ,  6-H ) :   1.1673 B(  5-H ,  6-H ) :  -0.1628 B(  5-H , 10-H ) :   0.1149

FINAL SINGLE POINT ENERGY      -227.833074599114

DIPOLE MOMENT
-------------
                                X             Y             Z
Electronic contribution:      0.99262       0.28969      -0.22151
Nuclear contribution   :     -1.67010      -1.22066       0.11760
                        -----------------------------------------
Total Dipole Moment    :     -0.67748      -0.93097      -0.10391
                        -----------------------------------------
Magnitude (a.u.)       :      1.15606
Magnitude (Debye)      :      2.93848

Rotational constants in cm-1:     0.314526     0.141398     0.099973
Rotational constants in MHz :  9429.255015  4239.015262  2997.111162

                             ****ORCA TERMINATED NORMALLY****
TOTAL RUN TIME: 0 days 0 hours 0 minutes 16 seconds 990 msec
