                         Program Version 5.0.0 -  RELEASE  -
|  1> !LC-BLYP RIJCOSX def2-SVPD def2/J TightSCF
|  2> *xyz 0 1
|  3> C          1.63556       -1.67040       -5.29211
|  4> N          2.48451       -0.50741       -5.14039
|  5> C          3.45115       -0.14953       -5.95259
|  6> N          3.92267        1.08956       -5.85071
|  7> C          3.96616       -1.00618       -6.86788
|  8> H          3.52139       -1.90647       -6.99527
|  9> H          4.44482       -0.62347       -7.67035
| 10> H          2.25200        0.24080       -4.49879
| 11> H          3.46428        1.64078       -5.13639
| 12> H          4.83447        1.31375       -6.22465
| 13> H          2.06372       -2.33262       -6.01532
| 14> H          0.66479       -1.36293       -5.62068
| 15> H          1.55078       -2.17513       -4.35245
| 16> *
| 17>
| 18> %MaxCore 64000
| 19>
| 20> %pal nprocs 4
| 21> end
| 22>
| 23> %scf
| 24>   MaxIter 150
| 25> end
| 26>
| 27>
| 28>                          ****END OF INPUT****

CARTESIAN COORDINATES (ANGSTROEM)
---------------------------------
  C      1.635560   -1.670400   -5.292110
  N      2.484510   -0.507410   -5.140390
  C      3.451150   -0.149530   -5.952590
  N      3.922670    1.089560   -5.850710
  C      3.966160   -1.006180   -6.867880
  H      3.521390   -1.906470   -6.995270
  H      4.444820   -0.623470   -7.670350
  H      2.252000    0.240800   -4.498790
  H      3.464280    1.640780   -5.136390
  H      4.834470    1.313750   -6.224650
  H      2.063720   -2.332620   -6.015320
  H      0.664790   -1.362930   -5.620680
  H      1.550780   -2.175130   -4.352450

 Total Charge           Charge          ....    0
 Multiplicity           Mult            ....    1
 Number of Electrons    NEL             ....   40
 Basis Dimension        Dim             ....  164

ORBITAL ENERGIES
----------------

  NO   OCC          E(Eh)            E(eV)
   0   2.0000     -14.196254      -386.2997
   1   2.0000     -14.191495      -386.1702
   2   2.0000     -10.135357      -275.7971
   3   2.0000     -10.111362      -275.1442
   4   2.0000      -9.996567      -272.0204
   5   2.0000      -1.073845       -29.2208
   6   2.0000      -0.981299       -26.7025
   7   2.0000      -0.821873       -22.3643
   8   2.0000      -0.805598       -21.9214
   9   2.0000      -0.669820       -18.2267
  10   2.0000      -0.651689       -17.7334
  11   2.0000      -0.633899       -17.2493
  12   2.0000      -0.565383       -15.3848
  13   2.0000      -0.556210       -15.1352
  14   2.0000      -0.519458       -14.1352
  15   2.0000      -0.487893       -13.2762
  16   2.0000      -0.476184       -12.9576
  17   2.0000      -0.460734       -12.5372
  18   2.0000      -0.353347        -9.6151
  19   2.0000      -0.259156        -7.0520
  20   0.0000       0.067891         1.8474
  21   0.0000       0.091633         2.4935
  22   0.0000       0.107860         2.9350
  23   0.0000       0.140456         3.8220
  24   0.0000       0.142649         3.8817

MULLIKEN ATOMIC CHARGES
-----------------------
   0 C :    1.550531
   1 N :   -0.315771
   2 C :    0.278724
   3 N :    0.280271
   4 C :    0.615360
   5 H :   -0.465637
   6 H :   -0.410681
   7 H :   -0.388527
   8 H :   -0.166809
   9 H :   -0.115344
  10 H :   -0.431796
  11 H :   -0.221951
  12 H :   -0.208369
Sum of atomic charges:    0.0000000

LOEWDIN ATOMIC CHARGES
----------------------
   0 C :    0.215335
   1 N :   -0.036183
   2 C :   -0.259725
   3 N :    0.198487
   4 C :    0.148950
   5 H :   -0.132264
   6 H :   -0.104244
   7 H :    0.018124
   8 H :   -0.014443
   9 H :    0.011771
  10 H :   -0.029460
  11 H :   -0.007894
  12 H :   -0.008453

  Mayer bond orders larger than 0.100000
B(  0-C ,  1-N ) :   0.9939 B(  0-C ,  7-H ) :  -0.1774 B(  0-C , 10-H ) :   0.6926
B(  0-C , 11-H ) :   0.6570 B(  0-C , 12-H ) :   0.6276 B(  1-N ,  2-C ) :   1.1441
B(  1-N ,  3-N ) :   0.1667 B(  1-N ,  4-C ) :   0.2879 B(  1-N ,  7-H ) :   1.2904
B(  1-N , 10-H ) :   0.2359 B(  1-N , 11-H ) :   0.2039 B(  1-N , 12-H ) :   0.2427
B(  2-C ,  3-N ) :   1.0243 B(  2-C ,  4-C ) :   1.8264 B(  2-C ,  5-H ) :   0.2459
B(  2-C ,  6-H ) :   0.2660 B(  2-C ,  7-H ) :  -0.2237 B(  3-N ,  4-C ) :   0.2706
B(  3-N ,  8-H ) :   1.0829 B(  3-N ,  9-H ) :   1.1874 B(  4-C ,  5-H ) :   0.6180
B(  4-C ,  6-H ) :   0.6364 B(  5-H ,  6-H ) :   0.2709 B(  5-H , 10-H ) :   0.1791
B(  8-H ,  9-H ) :  -0.1460

FINAL SINGLE POINT ENERGY      -227.832417470081

DIPOLE MOMENT
-------------
                                X             Y             Z
Electronic contribution:      1.04396       2.33605       0.86080
Nuclear contribution   :     -1.66129      -1.64514      -0.08842
                        -----------------------------------------
Total Dipole Moment    :     -0.61733       0.69091       0.77238
                        -----------------------------------------
Magnitude (a.u.)       :      1.20624
Magnitude (Debye)      :      3.06602

Rotational constants in cm-1:     0.330436     0.136339     0.098902
Rotational constants in MHz :  9906.231858  4087.333233  2964.994979

                             ****ORCA TERMINATED NORMALLY****
TOTAL RUN TIME: 0 days 0 hours 0 minutes 16 seconds 933 msec
