                         Program Version 5.0.0 -  RELEASE  -
|  1> !LC-BLYP RIJCOSX def2-SVPD def2/J TightSCF xyzfile
|  2>
|  3> *xyzfile 0 1 D1.xyz
|  4>
|  5> %MaxCore 64000
|  6>
|  7> %pal nprocs 4
|  8> end
|  9>
| 10> %scf
| 11>   MaxIter 150
| 12> end
| 13>
| 14>
| 15>                          ****END OF INPUT****

CARTESIAN COORDINATES (ANGSTROEM)
---------------------------------
  C      1.635557   -1.670396   -5.292109
  C      0.338484   -1.500907   -4.505398
  C      2.484511   -0.507410   -5.140392
  C     -0.684873   -0.528026   -5.099889
  C     -0.290406    0.951335   -5.153423
  H      0.607991    1.070692   -5.764412
  C     -0.055168    1.619420   -3.788577
  H     -1.080912    1.483775   -5.689436
  H      0.045006    0.862302   -3.003015
  H     -0.922936    2.230329   -3.517028
  C      1.223022    2.469865   -3.756911
  H      1.114701    3.258074   -4.532999
  H      1.237732    3.011242   -2.792157
  F      2.353815    1.712032   -3.934477
  H      1.398337   -1.829239   -6.352591
  H      2.155864   -2.565398   -4.932091
  C      3.451149   -0.149530   -5.952589
  N      3.922667    1.089559   -5.850711
  N      3.966162   -1.006183   -6.867880
  H      3.521391   -1.906467   -6.995270
  H      4.444824   -0.623472   -7.670348
  H      2.251995    0.240804   -4.498792
  H      3.464277    1.640782   -5.136392
  H      4.834470    1.313745   -6.224653
  H     -0.937999   -0.869056   -6.110838
  H     -1.604638   -0.622496   -4.513132
  H      0.594887   -1.211578   -3.482312
  H     -0.126530   -2.487656   -4.434176

 Total Charge           Charge          ....    0
 Multiplicity           Mult            ....    1
 Number of Electrons    NEL             ....   88
 Basis Dimension        Dim             ....  359

ORBITAL ENERGIES
----------------

  NO   OCC          E(Eh)            E(eV)
   0   2.0000     -24.490877      -666.4306
   1   2.0000     -14.175142      -385.7252
   2   2.0000     -14.158288      -385.2666
   3   2.0000     -10.175134      -276.8795
   4   2.0000     -10.107374      -275.0356
   5   2.0000     -10.092247      -274.6240
   6   2.0000     -10.074334      -274.1366
   7   2.0000     -10.071327      -274.0547
   8   2.0000     -10.061798      -273.7955
   9   2.0000     -10.051328      -273.5105
  10   2.0000      -9.981022      -271.5974
  11   2.0000      -1.300304       -35.3831
  12   2.0000      -1.034391       -28.1472
  13   2.0000      -0.946619       -25.7588
  14   2.0000      -0.914628       -24.8883
  15   2.0000      -0.880049       -23.9473
  16   2.0000      -0.829561       -22.5735
  17   2.0000      -0.795576       -21.6487
  18   2.0000      -0.743631       -20.2352
  19   2.0000      -0.713058       -19.4033
  20   2.0000      -0.684053       -18.6140
  21   2.0000      -0.661049       -17.9881
  22   2.0000      -0.643025       -17.4976
  23   2.0000      -0.627740       -17.0817
  24   2.0000      -0.611589       -16.6422
  25   2.0000      -0.607826       -16.5398
  26   2.0000      -0.590376       -16.0650
  27   2.0000      -0.563795       -15.3416
  28   2.0000      -0.545626       -14.8472
  29   2.0000      -0.540706       -14.7133
  30   2.0000      -0.520741       -14.1701
  31   2.0000      -0.505350       -13.7513
  32   2.0000      -0.494144       -13.4463
  33   2.0000      -0.482942       -13.1415
  34   2.0000      -0.462473       -12.5845
  35   2.0000      -0.459288       -12.4979
  36   2.0000      -0.450152       -12.2493
  37   2.0000      -0.436547       -11.8791
  38   2.0000      -0.417425       -11.3587
  39   2.0000      -0.405548       -11.0355
  40   2.0000      -0.400432       -10.8963
  41   2.0000      -0.387574       -10.5464
  42   2.0000      -0.348254        -9.4765
  43   2.0000      -0.238389        -6.4869
  44   0.0000       0.071694         1.9509
  45   0.0000       0.083306         2.2669
  46   0.0000       0.088822         2.4170
  47   0.0000       0.098545         2.6815
  48   0.0000       0.110855         3.0165

MULLIKEN ATOMIC CHARGES
-----------------------
   0 C :    0.530323
   1 C :    0.589299
   2 C :    0.341629
   3 C :    0.359408
   4 C :    0.327530
   5 H :   -0.124590
   6 C :    0.255081
   7 H :   -0.344948
   8 H :   -0.115115
   9 H :   -0.343151
  10 C :    1.137750
  11 H :   -0.150264
  12 H :   -0.161990
  13 F :   -0.662146
  14 H :   -0.035936
  15 H :   -0.268857
  16 C :    0.166590
  17 N :    0.443389
  18 N :    0.109175
  19 H :   -0.059623
  20 H :   -0.184180
  21 H :   -0.837778
  22 H :   -0.094595
  23 H :   -0.320526
  24 H :    0.025926
  25 H :   -0.217270
  26 H :   -0.073470
  27 H :   -0.291666
Sum of atomic charges:    0.0000000

LOEWDIN ATOMIC CHARGES
----------------------
   0 C :   -0.067383
   1 C :   -0.048453
   2 C :   -0.028334
   3 C :   -0.034340
   4 C :   -0.031413
   5 H :    0.014293
   6 C :   -0.009711
   7 H :    0.022289
   8 H :    0.022215
   9 H :    0.033905
  10 C :    0.131217
  11 H :    0.051935
  12 H :    0.042005
  13 F :   -0.197574
  14 H :    0.022436
  15 H :    0.022912
  16 C :   -0.223057
  17 N :    0.207794
  18 N :    0.213246
  19 H :   -0.020699
  20 H :   -0.017067
  21 H :   -0.114840
  22 H :   -0.073570
  23 H :   -0.009843
  24 H :    0.028622
  25 H :    0.024063
  26 H :    0.018544
  27 H :    0.020807

  Mayer bond orders larger than 0.100000
B(  0-C ,  1-C ) :   1.1485 B(  0-C ,  2-C ) :   0.7466 B(  0-C , 14-H ) :   0.7155
B(  0-C , 15-H ) :   0.5161 B(  0-C , 21-H ) :   0.5923 B(  0-C , 26-H ) :   0.1690
B(  0-C , 27-H ) :   0.2710 B(  1-C ,  2-C ) :   0.3488 B(  1-C ,  3-C ) :   1.2025
B(  1-C ,  4-C ) :   0.1250 B(  1-C , 14-H ) :  -0.1013 B(  1-C , 21-H ) :  -0.2183
B(  1-C , 24-H ) :   0.1677 B(  1-C , 25-H ) :   0.2123 B(  1-C , 26-H ) :   0.6405
B(  1-C , 27-H ) :   0.6242 B(  2-C ,  5-H ) :  -0.1278 B(  2-C , 13-F ) :  -0.1413
B(  2-C , 14-H ) :   0.2263 B(  2-C , 15-H ) :   0.3663 B(  2-C , 16-C ) :   1.8981
B(  2-C , 17-N ) :   0.4537 B(  2-C , 18-N ) :   0.3027 B(  2-C , 19-H ) :  -0.1480
B(  2-C , 21-H ) :  -0.1569 B(  2-C , 27-H ) :   0.1116 B(  3-C ,  4-C ) :   1.2797
B(  3-C ,  5-H ) :   0.1809 B(  3-C ,  6-C ) :   0.1125 B(  3-C ,  7-H ) :   0.1498
B(  3-C , 24-H ) :   0.6154 B(  3-C , 25-H ) :   0.7644 B(  3-C , 26-H ) :   0.1827
B(  3-C , 27-H ) :   0.1609 B(  4-C ,  5-H ) :   0.7446 B(  4-C ,  6-C ) :   1.1897
B(  4-C ,  7-H ) :   0.7216 B(  4-C ,  8-H ) :   0.1376 B(  4-C ,  9-H ) :   0.1783
B(  4-C , 10-C ) :   0.1145 B(  4-C , 24-H ) :   0.2577 B(  4-C , 25-H ) :   0.1109
B(  5-H ,  6-C ) :   0.1050 B(  5-H ,  7-H ) :  -0.1370 B(  5-H , 21-H ) :   0.1444
B(  6-C ,  7-H ) :   0.1044 B(  6-C ,  8-H ) :   0.8033 B(  6-C ,  9-H ) :   0.8542
B(  6-C , 10-C ) :   1.1633 B(  6-C , 11-H ) :   0.1295 B(  6-C , 12-H ) :   0.2148
B(  6-C , 13-F ) :   0.1205 B(  7-H ,  9-H ) :  -0.1016 B(  7-H , 21-H ) :  -0.1296
B(  8-H ,  9-H ) :  -0.1209 B(  8-H , 26-H ) :   0.1146 B( 10-C , 11-H ) :   0.7435
B( 10-C , 12-H ) :   0.7192 B( 10-C , 13-F ) :   0.6898 B( 11-H , 13-F ) :   0.3154
B( 13-F , 21-H ) :   0.1322 B( 13-F , 22-H ) :   0.1193 B( 14-H , 21-H ) :   0.1960
B( 14-H , 25-H ) :  -0.1147 B( 16-C , 17-N ) :   0.8088 B( 16-C , 18-N ) :   1.0387
B( 16-C , 21-H ) :   0.2864 B( 16-C , 23-H ) :  -0.1523 B( 17-N , 22-H ) :   1.1164
B( 17-N , 23-H ) :   1.2475 B( 18-N , 19-H ) :   1.0925 B( 18-N , 20-H ) :   1.1959
B( 18-N , 21-H ) :  -0.1264 B( 19-H , 20-H ) :  -0.1472 B( 21-H , 22-H ) :  -0.1264
B( 21-H , 27-H ) :  -0.1642 B( 22-H , 23-H ) :  -0.1695 B( 24-H , 25-H ) :  -0.1288
B( 26-H , 27-H ) :  -0.1403

FINAL SINGLE POINT ENERGY      -522.703509947073

DIPOLE MOMENT
-------------
                                X             Y             Z
Electronic contribution:      7.78243       3.83662       1.16025
Nuclear contribution   :     -8.11591      -2.99033      -1.35383
                        -----------------------------------------
Total Dipole Moment    :     -0.33348       0.84630      -0.19358
                        -----------------------------------------
Magnitude (a.u.)       :      0.93000
Magnitude (Debye)      :      2.36387

Rotational constants in cm-1:     0.043530     0.028984     0.019589
Rotational constants in MHz :  1305.007140   868.923804   587.262638

                             ****ORCA TERMINATED NORMALLY****
TOTAL RUN TIME: 0 days 0 hours 2 minutes 0 seconds 453 msec
