                         Program Version 5.0.0 -  RELEASE  -
|  1> !LC-BLYP RIJCOSX def2-SVPD def2/J TightSCF xyzfile
|  2>
|  3> *xyzfile 0 1 D3.xyz
|  4>
|  5> %MaxCore 64000
|  6>
|  7> %pal nprocs 4
|  8> end
|  9>
| 10> %scf
| 11>   MaxIter 150
| 12> end
| 13>
| 14>
| 15>                          ****END OF INPUT****

CARTESIAN COORDINATES (ANGSTROEM)
---------------------------------
  C      1.635557   -1.670396   -5.292109
  C      0.338484   -1.500907   -4.505398
  N      2.484511   -0.507410   -5.140392
  C     -0.684873   -0.528026   -5.099889
  C     -0.290406    0.951335   -5.153423
  H      0.607991    1.070692   -5.764412
  C     -0.055168    1.619420   -3.788577
  H     -1.080912    1.483775   -5.689436
  H      0.045006    0.862302   -3.003015
  H     -0.922936    2.230329   -3.517028
  C      1.223022    2.469865   -3.756911
  H      1.114701    3.258074   -4.532999
  H      1.237732    3.011242   -2.792157
  F      2.353815    1.712032   -3.934477
  H      1.398337   -1.829239   -6.352591
  H      2.155864   -2.565398   -4.932091
  C      3.451149   -0.149530   -5.952589
  N      3.922667    1.089559   -5.850711
  C      3.966162   -1.006183   -6.867880
  H      3.521391   -1.906467   -6.995270
  H      4.444824   -0.623472   -7.670348
  H      2.251995    0.240804   -4.498792
  H      3.464277    1.640782   -5.136392
  H      4.834470    1.313745   -6.224653
  H     -0.937999   -0.869056   -6.110838
  H     -1.604638   -0.622496   -4.513132
  H      0.594887   -1.211578   -3.482312
  H     -0.126530   -2.487656   -4.434176

 Total Charge           Charge          ....    0
 Multiplicity           Mult            ....    1
 Number of Electrons    NEL             ....   88
 Basis Dimension        Dim             ....  359

ORBITAL ENERGIES
----------------

  NO   OCC          E(Eh)            E(eV)
   0   2.0000     -24.520577      -667.2388
   1   2.0000     -14.163916      -385.4198
   2   2.0000     -14.161397      -385.3512
   3   2.0000     -10.194016      -277.3933
   4   2.0000     -10.113863      -275.2122
   5   2.0000     -10.110656      -275.1249
   6   2.0000     -10.105662      -274.9891
   7   2.0000     -10.092817      -274.6395
   8   2.0000     -10.089564      -274.5510
   9   2.0000     -10.086562      -274.4693
  10   2.0000      -9.979647      -271.5600
  11   2.0000      -1.328328       -36.1457
  12   2.0000      -1.052274       -28.6338
  13   2.0000      -0.965221       -26.2650
  14   2.0000      -0.928310       -25.2606
  15   2.0000      -0.884589       -24.0709
  16   2.0000      -0.834273       -22.7017
  17   2.0000      -0.797864       -21.7110
  18   2.0000      -0.764385       -20.8000
  19   2.0000      -0.740592       -20.1525
  20   2.0000      -0.685683       -18.6584
  21   2.0000      -0.679050       -18.4779
  22   2.0000      -0.664002       -18.0684
  23   2.0000      -0.639739       -17.4082
  24   2.0000      -0.635098       -17.2819
  25   2.0000      -0.603331       -16.4175
  26   2.0000      -0.594959       -16.1897
  27   2.0000      -0.581465       -15.8225
  28   2.0000      -0.569118       -15.4865
  29   2.0000      -0.539442       -14.6790
  30   2.0000      -0.533058       -14.5052
  31   2.0000      -0.522167       -14.2089
  32   2.0000      -0.505225       -13.7479
  33   2.0000      -0.480254       -13.0684
  34   2.0000      -0.478375       -13.0172
  35   2.0000      -0.464502       -12.6398
  36   2.0000      -0.462551       -12.5867
  37   2.0000      -0.454010       -12.3543
  38   2.0000      -0.441986       -12.0271
  39   2.0000      -0.431695       -11.7470
  40   2.0000      -0.421876       -11.4798
  41   2.0000      -0.420021       -11.4294
  42   2.0000      -0.327698        -8.9171
  43   2.0000      -0.242955        -6.6111
  44   0.0000       0.060994         1.6597
  45   0.0000       0.077227         2.1015
  46   0.0000       0.084595         2.3019
  47   0.0000       0.090307         2.4574
  48   0.0000       0.103846         2.8258

MULLIKEN ATOMIC CHARGES
-----------------------
   0 C :    0.748186
   1 C :    0.388533
   2 N :    0.468524
   3 C :    0.359645
   4 C :    0.420998
   5 H :   -0.165086
   6 C :    0.217392
   7 H :   -0.364320
   8 H :   -0.145901
   9 H :   -0.263299
  10 C :    1.086079
  11 H :   -0.153715
  12 H :   -0.165014
  13 F :   -0.754304
  14 H :   -0.032312
  15 H :   -0.315560
  16 C :    0.104176
  17 N :    0.689351
  18 C :    0.620161
  19 H :   -0.169178
  20 H :   -0.516511
  21 H :   -0.854044
  22 H :   -0.343487
  23 H :   -0.241737
  24 H :    0.027847
  25 H :   -0.215139
  26 H :   -0.137304
  27 H :   -0.293981
Sum of atomic charges:   -0.0000000

LOEWDIN ATOMIC CHARGES
----------------------
   0 C :    0.038234
   1 C :   -0.035623
   2 N :    0.016595
   3 C :   -0.035537
   4 C :   -0.031194
   5 H :    0.014807
   6 C :   -0.009992
   7 H :    0.025749
   8 H :    0.021498
   9 H :    0.037779
  10 C :    0.133687
  11 H :    0.056158
  12 H :    0.046152
  13 F :   -0.185995
  14 H :    0.031549
  15 H :    0.031326
  16 C :   -0.242635
  17 N :    0.218803
  18 C :    0.148217
  19 H :   -0.126681
  20 H :   -0.110467
  21 H :   -0.070675
  22 H :   -0.084962
  23 H :    0.009648
  24 H :    0.031985
  25 H :    0.027123
  26 H :    0.016320
  27 H :    0.028132

  Mayer bond orders larger than 0.100000
B(  0-C ,  1-C ) :   1.1897 B(  0-C ,  2-N ) :   1.1262 B(  0-C , 14-H ) :   0.7075
B(  0-C , 15-H ) :   0.8084 B(  0-C , 18-C ) :   0.1040 B(  0-C , 21-H ) :  -0.2208
B(  0-C , 26-H ) :   0.1572 B(  0-C , 27-H ) :   0.2193 B(  1-C ,  2-N ) :   0.1227
B(  1-C ,  3-C ) :   1.2056 B(  1-C ,  4-C ) :   0.1314 B(  1-C , 24-H ) :   0.1758
B(  1-C , 25-H ) :   0.2299 B(  1-C , 26-H ) :   0.6948 B(  1-C , 27-H ) :   0.7106
B(  2-N , 13-F ) :  -0.1254 B(  2-N , 14-H ) :   0.3011 B(  2-N , 15-H ) :   0.1254
B(  2-N , 16-C ) :   1.4260 B(  2-N , 18-C ) :   0.1894 B(  2-N , 21-H ) :   0.6456
B(  3-C ,  4-C ) :   1.2854 B(  3-C ,  5-H ) :   0.1869 B(  3-C ,  6-C ) :   0.1016
B(  3-C ,  7-H ) :   0.1484 B(  3-C , 24-H ) :   0.6170 B(  3-C , 25-H ) :   0.7724
B(  3-C , 26-H ) :   0.1760 B(  3-C , 27-H ) :   0.1388 B(  4-C ,  5-H ) :   0.7489
B(  4-C ,  6-C ) :   1.1774 B(  4-C ,  7-H ) :   0.6732 B(  4-C ,  8-H ) :   0.1305
B(  4-C ,  9-H ) :   0.1910 B(  4-C , 10-C ) :   0.1194 B(  4-C , 24-H ) :   0.2674
B(  4-C , 25-H ) :   0.1091 B(  5-H ,  6-C ) :   0.1121 B(  6-C ,  7-H ) :   0.1015
B(  6-C ,  8-H ) :   0.8199 B(  6-C ,  9-H ) :   0.8479 B(  6-C , 10-C ) :   1.1599
B(  6-C , 11-H ) :   0.1245 B(  6-C , 12-H ) :   0.2094 B(  6-C , 13-F ) :   0.1030
B( 10-C , 11-H ) :   0.7704 B( 10-C , 12-H ) :   0.7474 B( 10-C , 13-F ) :   0.7104
B( 11-H , 13-F ) :   0.2666 B( 13-F , 21-H ) :   0.2672 B( 13-F , 22-H ) :   0.2144
B( 14-H , 15-H ) :  -0.1028 B( 14-H , 25-H ) :  -0.1184 B( 16-C , 17-N ) :   0.9179
B( 16-C , 18-C ) :   1.8410 B( 16-C , 19-H ) :   0.3502 B( 16-C , 20-H ) :   0.2897
B( 16-C , 21-H ) :  -0.4978 B( 16-C , 23-H ) :  -0.1445 B( 17-N , 18-C ) :   0.1994
B( 17-N , 22-H ) :   0.9663 B( 17-N , 23-H ) :   1.2541 B( 18-C , 19-H ) :   0.5652
B( 18-C , 20-H ) :   0.5792 B( 19-H , 20-H ) :   0.2226 B( 22-H , 23-H ) :  -0.1662
B( 24-H , 25-H ) :  -0.1343 B( 26-H , 27-H ) :  -0.1014

FINAL SINGLE POINT ENERGY      -522.706812796595

DIPOLE MOMENT
-------------
                                X             Y             Z
Electronic contribution:      6.22637       4.45540       2.81720
Nuclear contribution   :     -7.84660      -3.08098      -1.66782
                        -----------------------------------------
Total Dipole Moment    :     -1.62023       1.37441       1.14937
                        -----------------------------------------
Magnitude (a.u.)       :      2.41562
Magnitude (Debye)      :      6.14002

Rotational constants in cm-1:     0.043547     0.029898     0.020008
Rotational constants in MHz :  1305.520367   896.323854   599.829375

                             ****ORCA TERMINATED NORMALLY****
TOTAL RUN TIME: 0 days 0 hours 2 minutes 0 seconds 871 msec
