                         Program Version 5.0.0 -  RELEASE  -
|  1> !wB97X-D3 RIJCOSX def2-SVPD def2/J TightSCF
|  2> *xyz -1 1
|  3> C         -0.29041        0.95134       -5.15342
|  4> C         -0.05517        1.61942       -3.78858
|  5> H          0.04501        0.86230       -3.00301
|  6> H         -0.92294        2.23033       -3.51703
|  7> C          1.22302        2.46987       -3.75691
|  8> H          1.11470        3.25807       -4.53300
|  9> H          1.23773        3.01124       -2.79216
| 10> O          2.35381        1.71203       -3.93448
| 11> H         -0.38575        1.70447       -5.90748
| 12> H         -1.18723        0.36894       -5.11561
| 13> H          0.53806        0.31571       -5.38692
| 14> *
| 15>
| 16> %MaxCore 64000
| 17>
| 18> %pal nprocs 18
| 19> end
| 20>
| 21> %scf
| 22>   MaxIter 150
| 23> end
| 24>
| 25>
| 26>                          ****END OF INPUT****

CARTESIAN COORDINATES (ANGSTROEM)
---------------------------------
  C     -0.290410    0.951340   -5.153420
  C     -0.055170    1.619420   -3.788580
  H      0.045010    0.862300   -3.003010
  H     -0.922940    2.230330   -3.517030
  C      1.223020    2.469870   -3.756910
  H      1.114700    3.258070   -4.533000
  H      1.237730    3.011240   -2.792160
  O      2.353810    1.712030   -3.934480
  H     -0.385750    1.704470   -5.907480
  H     -1.187230    0.368940   -5.115610
  H      0.538060    0.315710   -5.386920

 Total Charge           Charge          ....   -1
 Multiplicity           Mult            ....    1
 Number of Electrons    NEL             ....   34
 Basis Dimension        Dim             ....  139

ORBITAL ENERGIES
----------------

  NO   OCC          E(Eh)            E(eV)
   0   2.0000     -18.910673      -514.5856
   1   2.0000     -10.108473      -275.0655
   2   2.0000     -10.104618      -274.9606
   3   2.0000     -10.098270      -274.7879
   4   2.0000      -0.787392       -21.4260
   5   2.0000      -0.691060       -18.8047
   6   2.0000      -0.574462       -15.6319
   7   2.0000      -0.469652       -12.7799
   8   2.0000      -0.374224       -10.1832
   9   2.0000      -0.367447        -9.9987
  10   2.0000      -0.318629        -8.6703
  11   2.0000      -0.283726        -7.7206
  12   2.0000      -0.255844        -6.9619
  13   2.0000      -0.247675        -6.7396
  14   2.0000      -0.205646        -5.5959
  15   2.0000      -0.063254        -1.7212
  16   2.0000      -0.060670        -1.6509
  17   0.0000       0.232847         6.3361
  18   0.0000       0.257705         7.0125
  19   0.0000       0.274229         7.4622
  20   0.0000       0.308181         8.3860
  21   0.0000       0.324204         8.8220

MULLIKEN ATOMIC CHARGES
-----------------------
   0 C :    0.568758
   1 C :   -0.487820
   2 H :   -0.064853
   3 H :   -0.089028
   4 C :    0.451298
   5 H :   -0.115798
   6 H :   -0.169466
   7 O :   -0.920125
   8 H :   -0.069892
   9 H :   -0.078862
  10 H :   -0.024213
Sum of atomic charges:   -1.0000000

LOEWDIN ATOMIC CHARGES
----------------------
   0 C :    0.089796
   1 C :   -0.114251
   2 H :    0.003344
   3 H :   -0.012626
   4 C :   -0.219482
   5 H :   -0.024858
   6 H :   -0.030444
   7 O :   -0.578061
   8 H :   -0.034423
   9 H :   -0.048113
  10 H :   -0.030883

  Mayer bond orders larger than 0.100000
B(  0-C ,  1-C ) :   1.2236 B(  0-C ,  8-H ) :   0.8390 B(  0-C ,  9-H ) :   0.8172
B(  0-C , 10-H ) :   0.8578 B(  1-C ,  2-H ) :   0.9870 B(  1-C ,  3-H ) :   1.0004
B(  1-C ,  4-C ) :   1.0419 B(  1-C ,  5-H ) :   0.1064 B(  1-C ,  6-H ) :   0.1294
B(  1-C ,  8-H ) :   0.1725 B(  1-C ,  9-H ) :   0.1747 B(  1-C , 10-H ) :   0.1906
B(  2-H ,  4-C ) :   0.1329 B(  4-C ,  5-H ) :   0.9539 B(  4-C ,  6-H ) :   0.9570
B(  4-C ,  7-O ) :   1.1783

Dispersion correction           -0.001942097
FINAL SINGLE POINT ENERGY      -193.554385003936

DIPOLE MOMENT
-------------
                                X             Y             Z
Electronic contribution:      2.81874      -0.02018       0.70962
Nuclear contribution   :     -4.97104      -0.06484      -1.04325
                        -----------------------------------------
Total Dipole Moment    :     -2.15230      -0.08502      -0.33363
                        -----------------------------------------
Magnitude (a.u.)       :      2.17967
Magnitude (Debye)      :      5.54027

Rotational constants in cm-1:     0.508668     0.174500     0.148765
Rotational constants in MHz : 15249.486055  5231.367342  4459.875680

                             ****ORCA TERMINATED NORMALLY****
TOTAL RUN TIME: 0 days 0 hours 0 minutes 6 seconds 675 msec
