                         Program Version 5.0.0 -  RELEASE  -
|  1> !wB97X-D3 RIJCOSX def2-SVPD def2/J TightSCF
|  2> *xyz 1 1
|  3> C          1.63556       -1.67040       -5.29211
|  4> C          0.33848       -1.50091       -4.50540
|  5> N          2.48451       -0.50741       -5.14039
|  6> C         -0.68487       -0.52803       -5.09989
|  7> H          1.39834       -1.82924       -6.35259
|  8> H          2.15586       -2.56540       -4.93209
|  9> C          3.45115       -0.14953       -5.95259
| 10> N          3.92267        1.08956       -5.85071
| 11> N          3.96616       -1.00618       -6.86788
| 12> H          3.52139       -1.90647       -6.99527
| 13> H          4.44482       -0.62347       -7.67035
| 14> H          2.25200        0.24080       -4.49879
| 15> H          3.46428        1.64078       -5.13639
| 16> H          4.83447        1.31375       -6.22465
| 17> H          0.59489       -1.21158       -3.48231
| 18> H         -0.12653       -2.48766       -4.43418
| 19> H         -0.92267       -0.82721       -6.09931
| 20> H         -0.27317        0.45953       -5.11162
| 21> H         -1.57350       -0.53693       -4.50394
| 22> *
| 23>
| 24> %MaxCore 64000
| 25>
| 26> %pal nprocs 18
| 27> end
| 28>
| 29> %scf
| 30>   MaxIter 150
| 31> end
| 32>
| 33>
| 34>                          ****END OF INPUT****

CARTESIAN COORDINATES (ANGSTROEM)
---------------------------------
  C      1.635560   -1.670400   -5.292110
  C      0.338480   -1.500910   -4.505400
  N      2.484510   -0.507410   -5.140390
  C     -0.684870   -0.528030   -5.099890
  H      1.398340   -1.829240   -6.352590
  H      2.155860   -2.565400   -4.932090
  C      3.451150   -0.149530   -5.952590
  N      3.922670    1.089560   -5.850710
  N      3.966160   -1.006180   -6.867880
  H      3.521390   -1.906470   -6.995270
  H      4.444820   -0.623470   -7.670350
  H      2.252000    0.240800   -4.498790
  H      3.464280    1.640780   -5.136390
  H      4.834470    1.313750   -6.224650
  H      0.594890   -1.211580   -3.482310
  H     -0.126530   -2.487660   -4.434180
  H     -0.922670   -0.827210   -6.099310
  H     -0.273170    0.459530   -5.111620
  H     -1.573500   -0.536930   -4.503940

 Total Charge           Charge          ....    1
 Multiplicity           Mult            ....    1
 Number of Electrons    NEL             ....   56
 Basis Dimension        Dim             ....  236

ORBITAL ENERGIES
----------------

  NO   OCC          E(Eh)            E(eV)
   0   2.0000     -14.663572      -399.0161
   1   2.0000     -14.660297      -398.9270
   2   2.0000     -14.658419      -398.8759
   3   2.0000     -10.625732      -289.1409
   4   2.0000     -10.495314      -285.5920
   5   2.0000     -10.435186      -283.9559
   6   2.0000     -10.404013      -283.1076
   7   2.0000      -1.330215       -36.1970
   8   2.0000      -1.214340       -33.0439
   9   2.0000      -1.200525       -32.6679
  10   2.0000      -1.054550       -28.6958
  11   2.0000      -0.968966       -26.3669
  12   2.0000      -0.930299       -25.3147
  13   2.0000      -0.886925       -24.1345
  14   2.0000      -0.871237       -23.7076
  15   2.0000      -0.835694       -22.7404
  16   2.0000      -0.790277       -21.5045
  17   2.0000      -0.783623       -21.3235
  18   2.0000      -0.759668       -20.6716
  19   2.0000      -0.744131       -20.2488
  20   2.0000      -0.696980       -18.9658
  21   2.0000      -0.674677       -18.3589
  22   2.0000      -0.652446       -17.7540
  23   2.0000      -0.597038       -16.2462
  24   2.0000      -0.580797       -15.8043
  25   2.0000      -0.578175       -15.7330
  26   2.0000      -0.571711       -15.5570
  27   2.0000      -0.542866       -14.7721
  28   0.0000      -0.089335        -2.4309
  29   0.0000      -0.076101        -2.0708
  30   0.0000      -0.046751        -1.2722
  31   0.0000      -0.028497        -0.7754
  32   0.0000      -0.011081        -0.3015

MULLIKEN ATOMIC CHARGES
-----------------------
   0 C :    0.453488
   1 C :   -0.313528
   2 N :   -0.482168
   3 C :    0.648775
   4 H :    0.007190
   5 H :   -0.110644
   6 C :    1.254134
   7 N :   -0.065228
   8 N :   -0.102696
   9 H :    0.014107
  10 H :   -0.048855
  11 H :   -0.123139
  12 H :    0.058197
  13 H :   -0.073072
  14 H :   -0.037961
  15 H :   -0.023893
  16 H :    0.009013
  17 H :   -0.051138
  18 H :   -0.012584
Sum of atomic charges:    1.0000000

LOEWDIN ATOMIC CHARGES
----------------------
   0 C :    0.058338
   1 C :   -0.055066
   2 N :    0.038759
   3 C :    0.139826
   4 H :    0.039516
   5 H :    0.043084
   6 C :   -0.023932
   7 N :    0.256483
   8 N :    0.274624
   9 H :    0.017458
  10 H :    0.037881
  11 H :    0.052744
  12 H :    0.035248
  13 H :    0.046670
  14 H :    0.030402
  15 H :    0.037470
  16 H :   -0.007192
  17 H :   -0.021985
  18 H :   -0.000327

  Mayer bond orders larger than 0.100000
B(  0-C ,  1-C ) :   1.1818 B(  0-C ,  2-N ) :   0.9034 B(  0-C ,  4-H ) :   0.8350
B(  0-C ,  5-H ) :   0.9412 B(  0-C , 11-H ) :  -0.1153 B(  0-C , 14-H ) :   0.1323
B(  0-C , 15-H ) :   0.1860 B(  1-C ,  2-N ) :   0.1002 B(  1-C ,  3-C ) :   1.2625
B(  1-C , 14-H ) :   0.8956 B(  1-C , 15-H ) :   0.8761 B(  1-C , 16-H ) :   0.1689
B(  1-C , 17-H ) :   0.2024 B(  1-C , 18-H ) :   0.2042 B(  2-N ,  4-H ) :   0.1574
B(  2-N ,  5-H ) :   0.1234 B(  2-N ,  6-C ) :   1.0748 B(  2-N ,  7-N ) :   0.2892
B(  2-N ,  8-N ) :   0.1901 B(  2-N , 11-H ) :   1.1817 B(  3-C , 16-H ) :   0.8270
B(  3-C , 17-H ) :   0.8267 B(  3-C , 18-H ) :   0.8038 B(  6-C ,  7-N ) :   0.9557
B(  6-C ,  8-N ) :   0.9262 B(  6-C , 10-H ) :  -0.1066 B(  6-C , 11-H ) :  -0.2322
B(  7-N ,  8-N ) :   0.1401 B(  7-N , 12-H ) :   1.0391 B(  7-N , 13-H ) :   1.2137
B(  8-N ,  9-H ) :   1.0255 B(  8-N , 10-H ) :   1.2020 B(  9-H , 10-H ) :  -0.1432
B( 12-H , 13-H ) :  -0.1349

Dispersion correction           -0.004931757
FINAL SINGLE POINT ENERGY      -323.414475909198

DIPOLE MOMENT
-------------
                                X             Y             Z
Electronic contribution:      7.35895       1.75144      -1.60458
Nuclear contribution   :     -5.91327      -1.13589       1.03073
                        -----------------------------------------
Total Dipole Moment    :      1.44568       0.61555      -0.57385
                        -----------------------------------------
Magnitude (a.u.)       :      1.67279
Magnitude (Debye)      :      4.25188

Rotational constants in cm-1:     0.176161     0.043658     0.038822
Rotational constants in MHz :  5281.161077  1308.843263  1163.840625

                             ****ORCA TERMINATED NORMALLY****
TOTAL RUN TIME: 0 days 0 hours 0 minutes 16 seconds 73 msec
