                         Program Version 5.0.0 -  RELEASE  -
|  1> !wB97X-D3 RIJCOSX def2-SVPD def2/J TightSCF
|  2> *xyz 0 1
|  3> C         -0.29041        0.95134       -5.15342
|  4> C         -0.05517        1.61942       -3.78858
|  5> H          0.04501        0.86230       -3.00301
|  6> H         -0.92294        2.23033       -3.51703
|  7> C          1.22302        2.46987       -3.75691
|  8> H          1.11470        3.25807       -4.53300
|  9> H          1.23773        3.01124       -2.79216
| 10> F          2.35381        1.71203       -3.93448
| 11> H         -0.38575        1.70447       -5.90748
| 12> H         -1.18723        0.36894       -5.11561
| 13> H          0.53806        0.31571       -5.38692
| 14> *
| 15>
| 16> %MaxCore 64000
| 17>
| 18> %pal nprocs 18
| 19> end
| 20>
| 21> %scf
| 22>   MaxIter 150
| 23> end
| 24>
| 25>
| 26>                          ****END OF INPUT****

CARTESIAN COORDINATES (ANGSTROEM)
---------------------------------
  C     -0.290410    0.951340   -5.153420
  C     -0.055170    1.619420   -3.788580
  H      0.045010    0.862300   -3.003010
  H     -0.922940    2.230330   -3.517030
  C      1.223020    2.469870   -3.756910
  H      1.114700    3.258070   -4.533000
  H      1.237730    3.011240   -2.792160
  F      2.353810    1.712030   -3.934480
  H     -0.385750    1.704470   -5.907480
  H     -1.187230    0.368940   -5.115610
  H      0.538060    0.315710   -5.386920

 Total Charge           Charge          ....    0
 Multiplicity           Mult            ....    1
 Number of Electrons    NEL             ....   34
 Basis Dimension        Dim             ....  139

ORBITAL ENERGIES
----------------

  NO   OCC          E(Eh)            E(eV)
   0   2.0000     -24.790167      -674.5748
   1   2.0000     -10.368880      -282.1516
   2   2.0000     -10.296903      -280.1930
   3   2.0000     -10.277343      -279.6607
   4   2.0000      -1.298973       -35.3469
   5   2.0000      -0.899780       -24.4843
   6   2.0000      -0.797985       -21.7143
   7   2.0000      -0.704360       -19.1666
   8   2.0000      -0.614621       -16.7247
   9   2.0000      -0.598640       -16.2898
  10   2.0000      -0.572194       -15.5702
  11   2.0000      -0.535816       -14.5803
  12   2.0000      -0.501089       -13.6353
  13   2.0000      -0.475129       -12.9289
  14   2.0000      -0.448504       -12.2044
  15   2.0000      -0.423856       -11.5337
  16   2.0000      -0.422017       -11.4837
  17   0.0000       0.093493         2.5441
  18   0.0000       0.118305         3.2192
  19   0.0000       0.127796         3.4775
  20   0.0000       0.146054         3.9743
  21   0.0000       0.170502         4.6396

MULLIKEN ATOMIC CHARGES
-----------------------
   0 C :    0.542894
   1 C :   -0.533416
   2 H :   -0.043982
   3 H :   -0.044297
   4 C :    0.692241
   5 H :   -0.008602
   6 H :   -0.049141
   7 F :   -0.462324
   8 H :   -0.040669
   9 H :   -0.034953
  10 H :   -0.017752
Sum of atomic charges:    0.0000000

LOEWDIN ATOMIC CHARGES
----------------------
   0 C :    0.121573
   1 C :   -0.067038
   2 H :    0.024078
   3 H :    0.025110
   4 C :    0.099369
   5 H :    0.035646
   6 H :    0.030723
   7 F :   -0.218306
   8 H :   -0.017240
   9 H :   -0.018862
  10 H :   -0.015054

  Mayer bond orders larger than 0.100000
B(  0-C ,  1-C ) :   1.2515 B(  0-C ,  8-H ) :   0.8443 B(  0-C ,  9-H ) :   0.8476
B(  0-C , 10-H ) :   0.8553 B(  1-C ,  2-H ) :   0.9879 B(  1-C ,  3-H ) :   0.9882
B(  1-C ,  4-C ) :   1.1572 B(  1-C ,  8-H ) :   0.1562 B(  1-C ,  9-H ) :   0.1612
B(  1-C , 10-H ) :   0.1679 B(  4-C ,  5-H ) :   0.9302 B(  4-C ,  6-H ) :   0.9338
B(  4-C ,  7-F ) :   0.7089

Dispersion correction           -0.001921977
FINAL SINGLE POINT ENERGY      -218.167092967212

DIPOLE MOMENT
-------------
                                X             Y             Z
Electronic contribution:      6.16492       0.39859       1.40391
Nuclear contribution   :     -6.82889      -0.09322      -1.32039
                        -----------------------------------------
Total Dipole Moment    :     -0.66397       0.30537       0.08352
                        -----------------------------------------
Magnitude (a.u.)       :      0.73558
Magnitude (Debye)      :      1.86970

Rotational constants in cm-1:     0.494282     0.164406     0.140369
Rotational constants in MHz : 14818.207649  4928.760399  4208.156468

                             ****ORCA TERMINATED NORMALLY****
TOTAL RUN TIME: 0 days 0 hours 0 minutes 6 seconds 283 msec
