                         Program Version 5.0.0 -  RELEASE  -
|  1> !wB97X-D3 RIJCOSX def2-SVPD def2/J TightSCF
|  2> *xyz 0 1
|  3> C          1.63556       -1.67040       -5.29211
|  4> C          0.33848       -1.50091       -4.50540
|  5> C          2.48451       -0.50741       -5.14039
|  6> C         -0.68487       -0.52803       -5.09989
|  7> H          1.39834       -1.82924       -6.35259
|  8> H          2.15586       -2.56540       -4.93209
|  9> C          3.45115       -0.14953       -5.95259
| 10> N          3.92267        1.08956       -5.85071
| 11> N          3.96616       -1.00618       -6.86788
| 12> H          3.52139       -1.90647       -6.99527
| 13> H          4.44482       -0.62347       -7.67035
| 14> H          2.25200        0.24080       -4.49879
| 15> H          3.46428        1.64078       -5.13639
| 16> H          4.83447        1.31375       -6.22465
| 17> H          0.59489       -1.21158       -3.48231
| 18> H         -0.12653       -2.48766       -4.43418
| 19> H         -0.92267       -0.82721       -6.09931
| 20> H         -0.27317        0.45953       -5.11162
| 21> H         -1.57350       -0.53693       -4.50394
| 22> *
| 23>
| 24> %MaxCore 64000
| 25>
| 26> %pal nprocs 18
| 27> end
| 28>
| 29> %scf
| 30>   MaxIter 150
| 31> end
| 32>
| 33>
| 34>                          ****END OF INPUT****

CARTESIAN COORDINATES (ANGSTROEM)
---------------------------------
  C      1.635560   -1.670400   -5.292110
  C      0.338480   -1.500910   -4.505400
  C      2.484510   -0.507410   -5.140390
  C     -0.684870   -0.528030   -5.099890
  H      1.398340   -1.829240   -6.352590
  H      2.155860   -2.565400   -4.932090
  C      3.451150   -0.149530   -5.952590
  N      3.922670    1.089560   -5.850710
  N      3.966160   -1.006180   -6.867880
  H      3.521390   -1.906470   -6.995270
  H      4.444820   -0.623470   -7.670350
  H      2.252000    0.240800   -4.498790
  H      3.464280    1.640780   -5.136390
  H      4.834470    1.313750   -6.224650
  H      0.594890   -1.211580   -3.482310
  H     -0.126530   -2.487660   -4.434180
  H     -0.922670   -0.827210   -6.099310
  H     -0.273170    0.459530   -5.111620
  H     -1.573500   -0.536930   -4.503940

 Total Charge           Charge          ....    0
 Multiplicity           Mult            ....    1
 Number of Electrons    NEL             ....   56
 Basis Dimension        Dim             ....  236

ORBITAL ENERGIES
----------------

  NO   OCC          E(Eh)            E(eV)
   0   2.0000     -14.439146      -392.9091
   1   2.0000     -14.433851      -392.7651
   2   2.0000     -10.330434      -281.1054
   3   2.0000     -10.270182      -279.4659
   4   2.0000     -10.266224      -279.3581
   5   2.0000     -10.260354      -279.1984
   6   2.0000     -10.211254      -277.8623
   7   2.0000      -1.068493       -29.0752
   8   2.0000      -0.977856       -26.6088
   9   2.0000      -0.899351       -24.4726
  10   2.0000      -0.833488       -22.6804
  11   2.0000      -0.767737       -20.8912
  12   2.0000      -0.697682       -18.9849
  13   2.0000      -0.676043       -18.3961
  14   2.0000      -0.637051       -17.3350
  15   2.0000      -0.616771       -16.7832
  16   2.0000      -0.566898       -15.4261
  17   2.0000      -0.545260       -14.8373
  18   2.0000      -0.538174       -14.6445
  19   2.0000      -0.513720       -13.9790
  20   2.0000      -0.486717       -13.2442
  21   2.0000      -0.473866       -12.8946
  22   2.0000      -0.460379       -12.5275
  23   2.0000      -0.422210       -11.4889
  24   2.0000      -0.411573       -11.1995
  25   2.0000      -0.406206       -11.0534
  26   2.0000      -0.360739        -9.8162
  27   2.0000      -0.250439        -6.8148
  28   0.0000       0.090386         2.4595
  29   0.0000       0.111430         3.0322
  30   0.0000       0.114663         3.1201
  31   0.0000       0.131090         3.5671
  32   0.0000       0.142322         3.8728

MULLIKEN ATOMIC CHARGES
-----------------------
   0 C :    0.183051
   1 C :   -0.147804
   2 C :   -0.051791
   3 C :    0.668029
   4 H :   -0.053323
   5 H :   -0.135715
   6 C :    0.582988
   7 N :   -0.017556
   8 N :   -0.125253
   9 H :    0.003536
  10 H :   -0.141241
  11 H :   -0.449999
  12 H :    0.087035
  13 H :   -0.193707
  14 H :   -0.018474
  15 H :   -0.079371
  16 H :   -0.021146
  17 H :   -0.053961
  18 H :   -0.035297
Sum of atomic charges:   -0.0000000

LOEWDIN ATOMIC CHARGES
----------------------
   0 C :   -0.078275
   1 C :   -0.086629
   2 C :   -0.038410
   3 C :    0.121809
   4 H :    0.019142
   5 H :    0.019852
   6 C :   -0.221972
   7 N :    0.168548
   8 N :    0.197697
   9 H :   -0.013258
  10 H :   -0.009747
  11 H :   -0.049921
  12 H :    0.003548
  13 H :   -0.004083
  14 H :    0.021071
  15 H :    0.013209
  16 H :   -0.018411
  17 H :   -0.023433
  18 H :   -0.020737

  Mayer bond orders larger than 0.100000
B(  0-C ,  1-C ) :   1.1958 B(  0-C ,  2-C ) :   0.8978 B(  0-C ,  4-H ) :   0.8223
B(  0-C ,  5-H ) :   0.7892 B(  0-C , 11-H ) :   0.2510 B(  0-C , 14-H ) :   0.1781
B(  0-C , 15-H ) :   0.2344 B(  1-C ,  2-C ) :   0.1443 B(  1-C ,  3-C ) :   1.2512
B(  1-C , 14-H ) :   0.8664 B(  1-C , 15-H ) :   0.8104 B(  1-C , 16-H ) :   0.1791
B(  1-C , 17-H ) :   0.2149 B(  1-C , 18-H ) :   0.2058 B(  2-C ,  4-H ) :   0.1491
B(  2-C ,  5-H ) :   0.2521 B(  2-C ,  6-C ) :   1.6688 B(  2-C ,  7-N ) :   0.3246
B(  2-C ,  8-N ) :   0.2103 B(  2-C ,  9-H ) :  -0.1199 B(  2-C , 11-H ) :   0.7855
B(  2-C , 12-H ) :  -0.1004 B(  3-C , 16-H ) :   0.8271 B(  3-C , 17-H ) :   0.8320
B(  3-C , 18-H ) :   0.7829 B(  6-C ,  7-N ) :   0.9420 B(  6-C ,  8-N ) :   0.9464
B(  7-N ,  8-N ) :   0.1060 B(  7-N , 12-H ) :   1.0183 B(  7-N , 13-H ) :   1.2268
B(  8-N ,  9-H ) :   1.0309 B(  8-N , 10-H ) :   1.2048 B(  9-H , 10-H ) :  -0.1239
B( 12-H , 13-H ) :  -0.1351

Dispersion correction           -0.004909907
FINAL SINGLE POINT ENERGY      -306.945164710230

DIPOLE MOMENT
-------------
                                X             Y             Z
Electronic contribution:      6.37292       1.42882      -1.65940
Nuclear contribution   :     -5.84539      -1.11717       1.11949
                        -----------------------------------------
Total Dipole Moment    :      0.52753       0.31166      -0.53991
                        -----------------------------------------
Magnitude (a.u.)       :      0.81665
Magnitude (Debye)      :      2.07576

Rotational constants in cm-1:     0.177055     0.043715     0.038831
Rotational constants in MHz :  5307.971484  1310.555422  1164.112547

                             ****ORCA TERMINATED NORMALLY****
TOTAL RUN TIME: 0 days 0 hours 0 minutes 17 seconds 175 msec
