                         Program Version 5.0.0 -  RELEASE  -
|  1> !wB97X-D3 RIJCOSX def2-SVPD def2/J TightSCF
|  2> *xyz 0 1
|  3> C          1.63556       -1.67040       -5.29211
|  4> C          0.33848       -1.50091       -4.50540
|  5> N          2.48451       -0.50741       -5.14039
|  6> C         -0.68487       -0.52803       -5.09989
|  7> H          1.39834       -1.82924       -6.35259
|  8> H          2.15586       -2.56540       -4.93209
|  9> C          3.45115       -0.14953       -5.95259
| 10> C          3.92267        1.08956       -5.85071
| 11> N          3.96616       -1.00618       -6.86788
| 12> H          3.52139       -1.90647       -6.99527
| 13> H          4.44482       -0.62347       -7.67035
| 14> H          2.25200        0.24080       -4.49879
| 15> H          3.46428        1.64078       -5.13639
| 16> H          4.83447        1.31375       -6.22465
| 17> H          0.59489       -1.21158       -3.48231
| 18> H         -0.12653       -2.48766       -4.43418
| 19> H         -0.92267       -0.82721       -6.09931
| 20> H         -0.27317        0.45953       -5.11162
| 21> H         -1.57350       -0.53693       -4.50394
| 22> *
| 23>
| 24> %MaxCore 64000
| 25>
| 26> %pal nprocs 18
| 27> end
| 28>
| 29> %scf
| 30>   MaxIter 150
| 31> end
| 32>
| 33>
| 34>                          ****END OF INPUT****

CARTESIAN COORDINATES (ANGSTROEM)
---------------------------------
  C      1.635560   -1.670400   -5.292110
  C      0.338480   -1.500910   -4.505400
  N      2.484510   -0.507410   -5.140390
  C     -0.684870   -0.528030   -5.099890
  H      1.398340   -1.829240   -6.352590
  H      2.155860   -2.565400   -4.932090
  C      3.451150   -0.149530   -5.952590
  C      3.922670    1.089560   -5.850710
  N      3.966160   -1.006180   -6.867880
  H      3.521390   -1.906470   -6.995270
  H      4.444820   -0.623470   -7.670350
  H      2.252000    0.240800   -4.498790
  H      3.464280    1.640780   -5.136390
  H      4.834470    1.313750   -6.224650
  H      0.594890   -1.211580   -3.482310
  H     -0.126530   -2.487660   -4.434180
  H     -0.922670   -0.827210   -6.099310
  H     -0.273170    0.459530   -5.111620
  H     -1.573500   -0.536930   -4.503940

 Total Charge           Charge          ....    0
 Multiplicity           Mult            ....    1
 Number of Electrons    NEL             ....   56
 Basis Dimension        Dim             ....  236

ORBITAL ENERGIES
----------------

  NO   OCC          E(Eh)            E(eV)
   0   2.0000     -14.437138      -392.8545
   1   2.0000     -14.437100      -392.8535
   2   2.0000     -10.334838      -281.2252
   3   2.0000     -10.330781      -281.1148
   4   2.0000     -10.300365      -280.2872
   5   2.0000     -10.282147      -279.7914
   6   2.0000     -10.197141      -277.4783
   7   2.0000      -1.080949       -29.4141
   8   2.0000      -0.991888       -26.9906
   9   2.0000      -0.906358       -24.6633
  10   2.0000      -0.837580       -22.7917
  11   2.0000      -0.778979       -21.1971
  12   2.0000      -0.711883       -19.3713
  13   2.0000      -0.697562       -18.9816
  14   2.0000      -0.639974       -17.4146
  15   2.0000      -0.602044       -16.3825
  16   2.0000      -0.575460       -15.6591
  17   2.0000      -0.567737       -15.4489
  18   2.0000      -0.546231       -14.8637
  19   2.0000      -0.516798       -14.0628
  20   2.0000      -0.492508       -13.4018
  21   2.0000      -0.481509       -13.1025
  22   2.0000      -0.471889       -12.8407
  23   2.0000      -0.450918       -12.2701
  24   2.0000      -0.445113       -12.1122
  25   2.0000      -0.437060       -11.8930
  26   2.0000      -0.352454        -9.5908
  27   2.0000      -0.248897        -6.7728
  28   0.0000       0.085131         2.3165
  29   0.0000       0.103574         2.8184
  30   0.0000       0.111072         3.0224
  31   0.0000       0.121762         3.3133
  32   0.0000       0.140041         3.8107

MULLIKEN ATOMIC CHARGES
-----------------------
   0 C :    0.480466
   1 C :   -0.282435
   2 N :   -0.396258
   3 C :    0.647248
   4 H :   -0.054227
   5 H :   -0.188013
   6 C :    0.557863
   7 C :    0.445194
   8 N :   -0.022360
   9 H :   -0.116670
  10 H :   -0.051105
  11 H :   -0.148396
  12 H :   -0.219662
  13 H :   -0.447842
  14 H :   -0.056485
  15 H :   -0.059932
  16 H :   -0.003058
  17 H :   -0.041511
  18 H :   -0.042817
Sum of atomic charges:    0.0000000

LOEWDIN ATOMIC CHARGES
----------------------
   0 C :    0.029586
   1 C :   -0.072378
   2 N :   -0.024194
   3 C :    0.125493
   4 H :    0.022849
   5 H :    0.021492
   6 C :   -0.228106
   7 C :    0.131580
   8 N :    0.194742
   9 H :   -0.025665
  10 H :    0.005964
  11 H :    0.028432
  12 H :   -0.103506
  13 H :   -0.097062
  14 H :    0.021879
  15 H :    0.020132
  16 H :   -0.015349
  17 H :   -0.019689
  18 H :   -0.016200

  Mayer bond orders larger than 0.100000
B(  0-C ,  1-C ) :   1.1729 B(  0-C ,  2-N ) :   0.8993 B(  0-C ,  4-H ) :   0.8485
B(  0-C ,  5-H ) :   0.9458 B(  0-C , 11-H ) :  -0.1309 B(  0-C , 14-H ) :   0.1513
B(  0-C , 15-H ) :   0.1979 B(  1-C ,  3-C ) :   1.2429 B(  1-C , 14-H ) :   0.8901
B(  1-C , 15-H ) :   0.8747 B(  1-C , 16-H ) :   0.1778 B(  1-C , 17-H ) :   0.2085
B(  1-C , 18-H ) :   0.2105 B(  2-N ,  4-H ) :   0.1559 B(  2-N ,  5-H ) :   0.1499
B(  2-N ,  6-C ) :   1.1115 B(  2-N ,  7-C ) :   0.2682 B(  2-N ,  8-N ) :   0.1088
B(  2-N , 11-H ) :   1.1284 B(  3-C , 16-H ) :   0.8272 B(  3-C , 17-H ) :   0.8304
B(  3-C , 18-H ) :   0.7955 B(  6-C ,  7-C ) :   1.7110 B(  6-C ,  8-N ) :   0.9010
B(  6-C , 11-H ) :  -0.1744 B(  6-C , 12-H ) :   0.2167 B(  6-C , 13-H ) :   0.2611
B(  7-C ,  8-N ) :   0.2273 B(  7-C , 12-H ) :   0.8292 B(  7-C , 13-H ) :   0.6793
B(  8-N ,  9-H ) :   1.0400 B(  8-N , 10-H ) :   1.1588 B(  9-H , 10-H ) :  -0.1338

Dispersion correction           -0.004971126
FINAL SINGLE POINT ENERGY      -306.933918221589

DIPOLE MOMENT
-------------
                                X             Y             Z
Electronic contribution:      4.76197      -0.15804      -1.04828
Nuclear contribution   :     -5.53036      -0.76734       0.96389
                        -----------------------------------------
Total Dipole Moment    :     -0.76839      -0.92539      -0.08439
                        -----------------------------------------
Magnitude (a.u.)       :      1.20577
Magnitude (Debye)      :      3.06482

Rotational constants in cm-1:     0.181901     0.044719     0.039941
Rotational constants in MHz :  5453.254735  1340.639344  1197.391002

                             ****ORCA TERMINATED NORMALLY****
TOTAL RUN TIME: 0 days 0 hours 0 minutes 18 seconds 253 msec
