                         Program Version 5.0.0 -  RELEASE  -
|  1> !wB97X-D3 RIJCOSX def2-SVPD def2/J TightSCF
|  2> *xyz 0 1
|  3> C          1.63556       -1.67040       -5.29211
|  4> C          0.33848       -1.50091       -4.50540
|  5> N          2.48451       -0.50741       -5.14039
|  6> C         -0.68487       -0.52803       -5.09989
|  7> H          1.39834       -1.82924       -6.35259
|  8> H          2.15586       -2.56540       -4.93209
|  9> C          3.45115       -0.14953       -5.95259
| 10> N          3.92267        1.08956       -5.85071
| 11> C          3.96616       -1.00618       -6.86788
| 12> H          3.52139       -1.90647       -6.99527
| 13> H          4.44482       -0.62347       -7.67035
| 14> H          2.25200        0.24080       -4.49879
| 15> H          3.46428        1.64078       -5.13639
| 16> H          4.83447        1.31375       -6.22465
| 17> H          0.59489       -1.21158       -3.48231
| 18> H         -0.12653       -2.48766       -4.43418
| 19> H         -0.92267       -0.82721       -6.09931
| 20> H         -0.27317        0.45953       -5.11162
| 21> H         -1.57350       -0.53693       -4.50394
| 22> *
| 23>
| 24> %MaxCore 64000
| 25>
| 26> %pal nprocs 18
| 27> end
| 28>
| 29> %scf
| 30>   MaxIter 150
| 31> end
| 32>
| 33>
| 34>                          ****END OF INPUT****

CARTESIAN COORDINATES (ANGSTROEM)
---------------------------------
  C      1.635560   -1.670400   -5.292110
  C      0.338480   -1.500910   -4.505400
  N      2.484510   -0.507410   -5.140390
  C     -0.684870   -0.528030   -5.099890
  H      1.398340   -1.829240   -6.352590
  H      2.155860   -2.565400   -4.932090
  C      3.451150   -0.149530   -5.952590
  N      3.922670    1.089560   -5.850710
  C      3.966160   -1.006180   -6.867880
  H      3.521390   -1.906470   -6.995270
  H      4.444820   -0.623470   -7.670350
  H      2.252000    0.240800   -4.498790
  H      3.464280    1.640780   -5.136390
  H      4.834470    1.313750   -6.224650
  H      0.594890   -1.211580   -3.482310
  H     -0.126530   -2.487660   -4.434180
  H     -0.922670   -0.827210   -6.099310
  H     -0.273170    0.459530   -5.111620
  H     -1.573500   -0.536930   -4.503940

 Total Charge           Charge          ....    0
 Multiplicity           Mult            ....    1
 Number of Electrons    NEL             ....   56
 Basis Dimension        Dim             ....  236

ORBITAL ENERGIES
----------------

  NO   OCC          E(Eh)            E(eV)
   0   2.0000     -14.443727      -393.0338
   1   2.0000     -14.439315      -392.9137
   2   2.0000     -10.336528      -281.2712
   3   2.0000     -10.324117      -280.9335
   4   2.0000     -10.296923      -280.1935
   5   2.0000     -10.280996      -279.7601
   6   2.0000     -10.199256      -277.5359
   7   2.0000      -1.089605       -29.6497
   8   2.0000      -0.997392       -27.1404
   9   2.0000      -0.898332       -24.4449
  10   2.0000      -0.817071       -22.2336
  11   2.0000      -0.804220       -21.8839
  12   2.0000      -0.715884       -19.4802
  13   2.0000      -0.672910       -18.3108
  14   2.0000      -0.640041       -17.4164
  15   2.0000      -0.627287       -17.0693
  16   2.0000      -0.576564       -15.6891
  17   2.0000      -0.570169       -15.5151
  18   2.0000      -0.534915       -14.5558
  19   2.0000      -0.519729       -14.1426
  20   2.0000      -0.486829       -13.2473
  21   2.0000      -0.483469       -13.1559
  22   2.0000      -0.463902       -12.6234
  23   2.0000      -0.449781       -12.2392
  24   2.0000      -0.441563       -12.0155
  25   2.0000      -0.436575       -11.8798
  26   2.0000      -0.345928        -9.4132
  27   2.0000      -0.253250        -6.8913
  28   0.0000       0.082455         2.2437
  29   0.0000       0.101802         2.7702
  30   0.0000       0.115025         3.1300
  31   0.0000       0.120962         3.2915
  32   0.0000       0.142255         3.8710

MULLIKEN ATOMIC CHARGES
-----------------------
   0 C :    0.486538
   1 C :   -0.275705
   2 N :   -0.408882
   3 C :    0.658670
   4 H :    0.001861
   5 H :   -0.161328
   6 C :    0.428613
   7 N :    0.049002
   8 C :    0.466838
   9 H :   -0.087677
  10 H :   -0.472570
  11 H :   -0.266917
  12 H :   -0.094250
  13 H :   -0.097573
  14 H :   -0.065488
  15 H :   -0.069359
  16 H :    0.000970
  17 H :   -0.052871
  18 H :   -0.039873
Sum of atomic charges:    0.0000000

LOEWDIN ATOMIC CHARGES
----------------------
   0 C :    0.041813
   1 C :   -0.073494
   2 N :   -0.024105
   3 C :    0.123261
   4 H :    0.030046
   5 H :    0.029392
   6 C :   -0.238270
   7 N :    0.180172
   8 C :    0.152748
   9 H :   -0.121793
  10 H :   -0.106136
  11 H :    0.017842
  12 H :   -0.010848
  13 H :    0.014601
  14 H :    0.018823
  15 H :    0.020965
  16 H :   -0.014290
  17 H :   -0.023722
  18 H :   -0.017004

  Mayer bond orders larger than 0.100000
B(  0-C ,  1-C ) :   1.1601 B(  0-C ,  2-N ) :   0.9519 B(  0-C ,  4-H ) :   0.8338
B(  0-C ,  5-H ) :   0.9443 B(  0-C , 11-H ) :  -0.1190 B(  0-C , 14-H ) :   0.1506
B(  0-C , 15-H ) :   0.1853 B(  1-C ,  3-C ) :   1.2459 B(  1-C , 14-H ) :   0.8827
B(  1-C , 15-H ) :   0.8863 B(  1-C , 16-H ) :   0.1785 B(  1-C , 17-H ) :   0.2111
B(  1-C , 18-H ) :   0.2126 B(  2-N ,  4-H ) :   0.1684 B(  2-N ,  5-H ) :   0.1246
B(  2-N ,  6-C ) :   1.0972 B(  2-N ,  7-N ) :   0.2001 B(  2-N ,  8-C ) :   0.2821
B(  2-N , 11-H ) :   1.2040 B(  3-C , 16-H ) :   0.8287 B(  3-C , 17-H ) :   0.8319
B(  3-C , 18-H ) :   0.7896 B(  6-C ,  7-N ) :   0.9382 B(  6-C ,  8-C ) :   1.8274
B(  6-C ,  9-H ) :   0.2964 B(  6-C , 10-H ) :   0.2188 B(  6-C , 11-H ) :  -0.2433
B(  7-N ,  8-C ) :   0.2345 B(  7-N , 12-H ) :   1.0609 B(  7-N , 13-H ) :   1.2012
B(  8-C ,  9-H ) :   0.6465 B(  8-C , 10-H ) :   0.7475 B(  9-H , 10-H ) :   0.1504
B( 12-H , 13-H ) :  -0.1251

Dispersion correction           -0.004948798
FINAL SINGLE POINT ENERGY      -306.934579550617

DIPOLE MOMENT
-------------
                                X             Y             Z
Electronic contribution:      4.82654       1.90420       0.03138
Nuclear contribution   :     -5.52083      -1.22643       0.74108
                        -----------------------------------------
Total Dipole Moment    :     -0.69429       0.67778       0.77246
                        -----------------------------------------
Magnitude (a.u.)       :      1.24020
Magnitude (Debye)      :      3.15235

Rotational constants in cm-1:     0.181479     0.044588     0.039739
Rotational constants in MHz :  5440.604457  1336.706831  1191.355312

                             ****ORCA TERMINATED NORMALLY****
TOTAL RUN TIME: 0 days 0 hours 0 minutes 17 seconds 526 msec
