                         Program Version 5.0.0 -  RELEASE  -
|  1> !wB97X-D3 RIJCOSX def2-SVPD def2/J TightSCF xyzfile
|  2>
|  3> *xyzfile 0 1 D1.xyz
|  4>
|  5> %MaxCore 64000
|  6>
|  7> %pal nprocs 18
|  8> end
|  9>
| 10> %scf
| 11>   MaxIter 150
| 12> end
| 13>
| 14>
| 15>                          ****END OF INPUT****

CARTESIAN COORDINATES (ANGSTROEM)
---------------------------------
  C      1.635557   -1.670396   -5.292109
  C      0.338484   -1.500907   -4.505398
  C      2.484511   -0.507410   -5.140392
  C     -0.684873   -0.528026   -5.099889
  C     -0.290406    0.951335   -5.153423
  H      0.607991    1.070692   -5.764412
  C     -0.055168    1.619420   -3.788577
  H     -1.080912    1.483775   -5.689436
  H      0.045006    0.862302   -3.003015
  H     -0.922936    2.230329   -3.517028
  C      1.223022    2.469865   -3.756911
  H      1.114701    3.258074   -4.532999
  H      1.237732    3.011242   -2.792157
  F      2.353815    1.712032   -3.934477
  H      1.398337   -1.829239   -6.352591
  H      2.155864   -2.565398   -4.932091
  C      3.451149   -0.149530   -5.952589
  N      3.922667    1.089559   -5.850711
  N      3.966162   -1.006183   -6.867880
  H      3.521391   -1.906467   -6.995270
  H      4.444824   -0.623472   -7.670348
  H      2.251995    0.240804   -4.498792
  H      3.464277    1.640782   -5.136392
  H      4.834470    1.313745   -6.224653
  H     -0.937999   -0.869056   -6.110838
  H     -1.604638   -0.622496   -4.513132
  H      0.594887   -1.211578   -3.482312
  H     -0.126530   -2.487656   -4.434176

 Total Charge           Charge          ....    0
 Multiplicity           Mult            ....    1
 Number of Electrons    NEL             ....   88
 Basis Dimension        Dim             ....  359

ORBITAL ENERGIES
----------------

  NO   OCC          E(Eh)            E(eV)
   0   2.0000     -24.817284      -675.3126
   1   2.0000     -14.424224      -392.5031
   2   2.0000     -14.407471      -392.0472
   3   2.0000     -10.381150      -282.4854
   4   2.0000     -10.311175      -280.5813
   5   2.0000     -10.296969      -280.1948
   6   2.0000     -10.279338      -279.7150
   7   2.0000     -10.276413      -279.6354
   8   2.0000     -10.266809      -279.3741
   9   2.0000     -10.256065      -279.0817
  10   2.0000     -10.182357      -277.0760
  11   2.0000      -1.335598       -36.3435
  12   2.0000      -1.049994       -28.5718
  13   2.0000      -0.960465       -26.1356
  14   2.0000      -0.921183       -25.0667
  15   2.0000      -0.886778       -24.1305
  16   2.0000      -0.836041       -22.7498
  17   2.0000      -0.800260       -21.7762
  18   2.0000      -0.747509       -20.3407
  19   2.0000      -0.714305       -19.4372
  20   2.0000      -0.683400       -18.5962
  21   2.0000      -0.660243       -17.9661
  22   2.0000      -0.641773       -17.4635
  23   2.0000      -0.625964       -17.0334
  24   2.0000      -0.610786       -16.6203
  25   2.0000      -0.606326       -16.4990
  26   2.0000      -0.588239       -16.0068
  27   2.0000      -0.559320       -15.2199
  28   2.0000      -0.541514       -14.7354
  29   2.0000      -0.538507       -14.6535
  30   2.0000      -0.517008       -14.0685
  31   2.0000      -0.501632       -13.6501
  32   2.0000      -0.490738       -13.3537
  33   2.0000      -0.477669       -12.9980
  34   2.0000      -0.458264       -12.4700
  35   2.0000      -0.455794       -12.4028
  36   2.0000      -0.445888       -12.1332
  37   2.0000      -0.432082       -11.7576
  38   2.0000      -0.413603       -11.2547
  39   2.0000      -0.401385       -10.9222
  40   2.0000      -0.395764       -10.7693
  41   2.0000      -0.383750       -10.4424
  42   2.0000      -0.343203        -9.3390
  43   2.0000      -0.231251        -6.2926
  44   0.0000       0.090446         2.4612
  45   0.0000       0.101337         2.7575
  46   0.0000       0.107464         2.9243
  47   0.0000       0.117222         3.1898
  48   0.0000       0.129092         3.5128

MULLIKEN ATOMIC CHARGES
-----------------------
   0 C :    0.318849
   1 C :    0.320793
   2 C :    0.091127
   3 C :    0.174879
   4 C :    0.064454
   5 H :    0.033555
   6 C :   -0.035395
   7 H :   -0.226201
   8 H :   -0.007773
   9 H :   -0.194868
  10 C :    0.981707
  11 H :   -0.038527
  12 H :   -0.046402
  13 F :   -0.748003
  14 H :    0.004569
  15 H :   -0.172103
  16 C :    0.538477
  17 N :    0.142945
  18 N :   -0.146464
  19 H :   -0.020904
  20 H :   -0.131317
  21 H :   -0.445701
  22 H :   -0.014636
  23 H :   -0.269948
  24 H :    0.105584
  25 H :   -0.109915
  26 H :    0.010244
  27 H :   -0.179025
Sum of atomic charges:    0.0000000

LOEWDIN ATOMIC CHARGES
----------------------
   0 C :   -0.059117
   1 C :   -0.039255
   2 C :   -0.025135
   3 C :   -0.025449
   4 C :   -0.022521
   5 H :    0.010511
   6 C :   -0.001355
   7 H :    0.017519
   8 H :    0.017903
   9 H :    0.029088
  10 C :    0.160688
  11 H :    0.047063
  12 H :    0.037118
  13 F :   -0.224542
  14 H :    0.017466
  15 H :    0.017739
  16 C :   -0.200465
  17 N :    0.190161
  18 N :    0.194414
  19 H :   -0.016836
  20 H :   -0.013598
  21 H :   -0.112371
  22 H :   -0.066013
  23 H :   -0.006242
  24 H :    0.023849
  25 H :    0.019290
  26 H :    0.014018
  27 H :    0.016071

  Mayer bond orders larger than 0.100000
B(  0-C ,  1-C ) :   1.1606 B(  0-C ,  2-C ) :   0.8077 B(  0-C , 14-H ) :   0.7769
B(  0-C , 15-H ) :   0.6665 B(  0-C , 21-H ) :   0.4257 B(  0-C , 26-H ) :   0.1568
B(  0-C , 27-H ) :   0.2097 B(  1-C ,  2-C ) :   0.2076 B(  1-C ,  3-C ) :   1.2179
B(  1-C , 21-H ) :  -0.1485 B(  1-C , 24-H ) :   0.1496 B(  1-C , 25-H ) :   0.1792
B(  1-C , 26-H ) :   0.7289 B(  1-C , 27-H ) :   0.7644 B(  2-C , 14-H ) :   0.1982
B(  2-C , 15-H ) :   0.3263 B(  2-C , 16-C ) :   1.8185 B(  2-C , 17-N ) :   0.3980
B(  2-C , 18-N ) :   0.2769 B(  2-C , 19-H ) :  -0.1573 B(  2-C , 21-H ) :   0.2788
B(  3-C ,  4-C ) :   1.2727 B(  3-C ,  5-H ) :   0.1400 B(  3-C ,  7-H ) :   0.1317
B(  3-C , 24-H ) :   0.6896 B(  3-C , 25-H ) :   0.8497 B(  3-C , 26-H ) :   0.1499
B(  3-C , 27-H ) :   0.1450 B(  4-C ,  5-H ) :   0.8247 B(  4-C ,  6-C ) :   1.1922
B(  4-C ,  7-H ) :   0.8548 B(  4-C ,  8-H ) :   0.1251 B(  4-C ,  9-H ) :   0.1513
B(  4-C , 24-H ) :   0.1983 B(  4-C , 25-H ) :   0.1134 B(  5-H , 21-H ) :   0.1391
B(  6-C ,  8-H ) :   0.8726 B(  6-C ,  9-H ) :   0.9562 B(  6-C , 10-C ) :   1.1492
B(  6-C , 11-H ) :   0.1077 B(  6-C , 12-H ) :   0.1623 B(  6-C , 13-F ) :   0.1461
B( 10-C , 11-H ) :   0.8272 B( 10-C , 12-H ) :   0.8062 B( 10-C , 13-F ) :   0.6347
B( 11-H , 13-F ) :   0.2500 B( 13-F , 22-H ) :   0.1216 B( 14-H , 21-H ) :   0.1149
B( 16-C , 17-N ) :   0.7400 B( 16-C , 18-N ) :   0.8937 B( 16-C , 21-H ) :   0.2376
B( 16-C , 23-H ) :  -0.1579 B( 17-N , 22-H ) :   1.0574 B( 17-N , 23-H ) :   1.3002
B( 18-N , 19-H ) :   1.0705 B( 18-N , 20-H ) :   1.2110 B( 18-N , 21-H ) :  -0.1246
B( 19-H , 20-H ) :  -0.1308 B( 21-H , 22-H ) :  -0.1014 B( 21-H , 27-H ) :  -0.1007
B( 22-H , 23-H ) :  -0.1685

Dispersion correction           -0.011718809
FINAL SINGLE POINT ENERGY      -523.892452688948

DIPOLE MOMENT
-------------
                                X             Y             Z
Electronic contribution:      7.81005       3.84866       1.14913
Nuclear contribution   :     -8.11591      -2.99033      -1.35383
                        -----------------------------------------
Total Dipole Moment    :     -0.30586       0.85833      -0.20471
                        -----------------------------------------
Magnitude (a.u.)       :      0.93391
Magnitude (Debye)      :      2.37380

Rotational constants in cm-1:     0.043530     0.028984     0.019589
Rotational constants in MHz :  1305.007140   868.923804   587.262638

                             ****ORCA TERMINATED NORMALLY****
TOTAL RUN TIME: 0 days 0 hours 1 minutes 4 seconds 728 msec
