                         Program Version 5.0.0 -  RELEASE  -
|  1> !LC-BLYP RIJCOSX def2-SVPD def2/J TightSCF
|  2> *xyz -1 1
|  3> C         -0.96015       -0.52236       -0.48987
|  4> O          0.26170       -0.58031        0.13861
|  5> H         -0.85050       -0.82220       -1.51113
|  6> H         -1.33436        0.47929       -0.45044
|  7> H         -1.64624       -1.17908        0.00297
|  8> *
|  9>
| 10> %MaxCore 64000
| 11>
| 12> %pal nprocs 4
| 13> end
| 14>
| 15> %scf
| 16>   MaxIter 150
| 17> end
| 18>
| 19>
| 20>                          ****END OF INPUT****

CARTESIAN COORDINATES (ANGSTROEM)
---------------------------------
  C     -0.960150   -0.522360   -0.489870
  O      0.261700   -0.580310    0.138610
  H     -0.850500   -0.822200   -1.511130
  H     -1.334360    0.479290   -0.450440
  H     -1.646240   -1.179080    0.002970

 Total Charge           Charge          ....   -1
 Multiplicity           Mult            ....    1
 Number of Electrons    NEL             ....   18
 Basis Dimension        Dim             ....   67

ORBITAL ENERGIES
----------------

  NO   OCC          E(Eh)            E(eV)
   0   2.0000     -18.602992      -506.2131
   1   2.0000      -9.872990      -268.6577
   2   2.0000      -0.744029       -20.2461
   3   2.0000      -0.497807       -13.5460
   4   2.0000      -0.302110        -8.2208
   5   2.0000      -0.302106        -8.2207
   6   2.0000      -0.198875        -5.4117
   7   2.0000      -0.047219        -1.2849
   8   2.0000      -0.047216        -1.2848
   9   0.0000       0.247404         6.7322
  10   0.0000       0.324431         8.8282
  11   0.0000       0.324435         8.8283
  12   0.0000       0.333063         9.0631
  13   0.0000       0.367847        10.0096

MULLIKEN ATOMIC CHARGES
-----------------------
   0 C :    0.922409
   1 O :   -0.972478
   2 H :   -0.316649
   3 H :   -0.316662
   4 H :   -0.316620
Sum of atomic charges:   -1.0000000

LOEWDIN ATOMIC CHARGES
----------------------
   0 C :   -0.135697
   1 O :   -0.647058
   2 H :   -0.072419
   3 H :   -0.072415
   4 H :   -0.072411

  Mayer bond orders larger than 0.100000
B(  0-C ,  1-O ) :   1.2712 B(  0-C ,  2-H ) :   0.8743 B(  0-C ,  3-H ) :   0.8743
B(  0-C ,  4-H ) :   0.8743

FINAL SINGLE POINT ENERGY      -114.758004486579

DIPOLE MOMENT
-------------
                                X             Y             Z
Electronic contribution:      1.55531      -0.07372       0.79994
Nuclear contribution   :     -2.56864       0.12183      -1.32123
                        -----------------------------------------
Total Dipole Moment    :     -1.01333       0.04811      -0.52129
                        -----------------------------------------
Magnitude (a.u.)       :      1.14057
Magnitude (Debye)      :      2.89909

Rotational constants in cm-1:     5.477744     0.932677     0.932677
Rotational constants in MHz : 164218.635293 27960.967920 27960.945417

                             ****ORCA TERMINATED NORMALLY****
TOTAL RUN TIME: 0 days 0 hours 0 minutes 3 seconds 684 msec
