                         Program Version 5.0.0 -  RELEASE  -
|  1> !LC-BLYP RIJCOSX def2-SVPD def2/J TightSCF
|  2> *xyz 1 1
|  3> C          4.36645       -0.13321       -1.41606
|  4> C          3.05650       -0.32080       -0.70738
|  5> N          2.38983        0.71129       -0.24391
|  6> N          2.51600       -1.50772       -0.55023
|  7> H          2.96768       -2.32291       -0.95631
|  8> H          1.54987       -1.49063       -0.24988
|  9> H          2.74307        1.64947       -0.41280
| 10> H          1.44036        0.50278        0.03703
| 11> H          4.74975       -1.08632       -1.71533
| 12> H          5.06373        0.34075       -0.75722
| 13> H          4.21960        0.47966       -2.28077
| 14> *
| 15>
| 16> %MaxCore 64000
| 17>
| 18> %pal nprocs 4
| 19> end
| 20>
| 21> %scf
| 22>   MaxIter 150
| 23> end
| 24>
| 25>
| 26>                          ****END OF INPUT****

CARTESIAN COORDINATES (ANGSTROEM)
---------------------------------
  C      4.366450   -0.133210   -1.416060
  C      3.056500   -0.320800   -0.707380
  N      2.389830    0.711290   -0.243910
  N      2.516000   -1.507720   -0.550230
  H      2.967680   -2.322910   -0.956310
  H      1.549870   -1.490630   -0.249880
  H      2.743070    1.649470   -0.412800
  H      1.440360    0.502780    0.037030
  H      4.749750   -1.086320   -1.715330
  H      5.063730    0.340750   -0.757220
  H      4.219600    0.479660   -2.280770

 Total Charge           Charge          ....    1
 Multiplicity           Mult            ....    1
 Number of Electrons    NEL             ....   32
 Basis Dimension        Dim             ....  136

ORBITAL ENERGIES
----------------

  NO   OCC          E(Eh)            E(eV)
   0   2.0000     -14.442810      -393.0088
   1   2.0000     -14.440444      -392.9444
   2   2.0000     -10.420952      -283.5685
   3   2.0000     -10.287521      -279.9377
   4   2.0000      -1.314579       -35.7715
   5   2.0000      -1.206648       -32.8346
   6   2.0000      -1.062749       -28.9189
   7   2.0000      -0.944172       -25.6922
   8   2.0000      -0.889340       -24.2002
   9   2.0000      -0.878074       -23.8936
  10   2.0000      -0.811768       -22.0893
  11   2.0000      -0.777264       -21.1504
  12   2.0000      -0.724552       -19.7160
  13   2.0000      -0.706193       -19.2165
  14   2.0000      -0.682814       -18.5803
  15   2.0000      -0.600663       -16.3449
  16   0.0000      -0.140134        -3.8132
  17   0.0000      -0.108180        -2.9437
  18   0.0000      -0.063893        -1.7386
  19   0.0000      -0.055702        -1.5157
  20   0.0000      -0.034608        -0.9417

MULLIKEN ATOMIC CHARGES
-----------------------
   0 C :    0.840258
   1 C :   -0.035617
   2 N :    0.309154
   3 N :    0.204492
   4 H :    0.002251
   5 H :   -0.072954
   6 H :   -0.013234
   7 H :   -0.126621
   8 H :   -0.014076
   9 H :   -0.036363
  10 H :   -0.057290
Sum of atomic charges:    1.0000000

LOEWDIN ATOMIC CHARGES
----------------------
   0 C :    0.227537
   1 C :   -0.090740
   2 N :    0.287388
   3 N :    0.291555
   4 H :    0.061613
   5 H :    0.045693
   6 H :    0.066038
   7 H :    0.044480
   8 H :    0.011874
   9 H :    0.027124
  10 H :    0.027437

  Mayer bond orders larger than 0.100000
B(  0-C ,  1-C ) :   1.3685 B(  0-C ,  8-H ) :   0.6928 B(  0-C ,  9-H ) :   0.6500
B(  0-C , 10-H ) :   0.7405 B(  1-C ,  2-N ) :   1.2889 B(  1-C ,  3-N ) :   1.1844
B(  1-C ,  5-H ) :  -0.1437 B(  1-C ,  7-H ) :  -0.1158 B(  1-C ,  8-H ) :   0.3307
B(  1-C ,  9-H ) :   0.2586 B(  1-C , 10-H ) :   0.1907 B(  2-N ,  3-N ) :   0.2073
B(  2-N ,  6-H ) :   1.1126 B(  2-N ,  7-H ) :   1.1851 B(  3-N ,  4-H ) :   1.1087
B(  3-N ,  5-H ) :   1.2079 B(  4-H ,  5-H ) :  -0.1599 B(  6-H ,  7-H ) :  -0.1483
B(  8-H ,  9-H ) :   0.1212 B(  8-H , 10-H ) :   0.1111

FINAL SINGLE POINT ENERGY      -189.091327205088

DIPOLE MOMENT
-------------
                                X             Y             Z
Electronic contribution:     -1.74235      -0.26539       1.10151
Nuclear contribution   :      1.22976       0.25273      -1.15956
                        -----------------------------------------
Total Dipole Moment    :     -0.51259      -0.01265      -0.05805
                        -----------------------------------------
Magnitude (a.u.)       :      0.51603
Magnitude (Debye)      :      1.31163

Rotational constants in cm-1:     0.347067     0.291236     0.163306
Rotational constants in MHz : 10404.811357  8731.035118  4895.793931

                             ****ORCA TERMINATED NORMALLY****
TOTAL RUN TIME: 0 days 0 hours 0 minutes 11 seconds 291 msec
