                         Program Version 5.0.0 -  RELEASE  -
|  1> !LC-BLYP RIJCOSX def2-SVPD def2/J TightSCF
|  2> *xyz 0 1
|  3> C         -0.96015       -0.52236       -0.48987
|  4> F          0.26170       -0.58031        0.13861
|  5> H         -0.85050       -0.82220       -1.51113
|  6> H         -1.33436        0.47929       -0.45044
|  7> H         -1.64624       -1.17908        0.00297
|  8> *
|  9>
| 10> %MaxCore 64000
| 11>
| 12> %pal nprocs 4
| 13> end
| 14>
| 15> %scf
| 16>   MaxIter 150
| 17> end
| 18>
| 19>
| 20>                          ****END OF INPUT****

CARTESIAN COORDINATES (ANGSTROEM)
---------------------------------
  C     -0.960150   -0.522360   -0.489870
  F      0.261700   -0.580310    0.138610
  H     -0.850500   -0.822200   -1.511130
  H     -1.334360    0.479290   -0.450440
  H     -1.646240   -1.179080    0.002970

 Total Charge           Charge          ....    0
 Multiplicity           Mult            ....    1
 Number of Electrons    NEL             ....   18
 Basis Dimension        Dim             ....   67

ORBITAL ENERGIES
----------------

  NO   OCC          E(Eh)            E(eV)
   0   2.0000     -24.459994      -665.5903
   1   2.0000     -10.157266      -276.3933
   2   2.0000      -1.261667       -34.3317
   3   2.0000      -0.809806       -22.0359
   4   2.0000      -0.601397       -16.3648
   5   2.0000      -0.596392       -16.2286
   6   2.0000      -0.596389       -16.2286
   7   2.0000      -0.451379       -12.2827
   8   2.0000      -0.451374       -12.2825
   9   0.0000       0.075163         2.0453
  10   0.0000       0.123563         3.3623
  11   0.0000       0.157104         4.2750
  12   0.0000       0.157105         4.2750
  13   0.0000       0.195781         5.3275

MULLIKEN ATOMIC CHARGES
-----------------------
   0 C :    1.025180
   1 F :   -0.433061
   2 H :   -0.197331
   3 H :   -0.197419
   4 H :   -0.197369
Sum of atomic charges:   -0.0000000

LOEWDIN ATOMIC CHARGES
----------------------
   0 C :    0.240144
   1 F :   -0.235772
   2 H :   -0.001458
   3 H :   -0.001457
   4 H :   -0.001457

  Mayer bond orders larger than 0.100000
B(  0-C ,  1-F ) :   0.9306 B(  0-C ,  2-H ) :   0.9028 B(  0-C ,  3-H ) :   0.9028
B(  0-C ,  4-H ) :   0.9027

FINAL SINGLE POINT ENERGY      -139.368281481676

DIPOLE MOMENT
-------------
                                X             Y             Z
Electronic contribution:      2.58315      -0.12249       1.32866
Nuclear contribution   :     -3.25854       0.15455      -1.67609
                        -----------------------------------------
Total Dipole Moment    :     -0.67539       0.03206      -0.34743
                        -----------------------------------------
Magnitude (a.u.)       :      0.76019
Magnitude (Debye)      :      1.93224

Rotational constants in cm-1:     5.477744     0.868130     0.868129
Rotational constants in MHz : 164218.635293 26025.869915 26025.850419

                             ****ORCA TERMINATED NORMALLY****
TOTAL RUN TIME: 0 days 0 hours 0 minutes 3 seconds 280 msec
