                         Program Version 5.0.0 -  RELEASE  -
|  1> !LC-BLYP RIJCOSX def2-SVPD def2/J TightSCF
|  2> *xyz 0 1
|  3> C          4.36645       -0.13321       -1.41606
|  4> C          3.05650       -0.32080       -0.70738
|  5> C          2.38983        0.71129       -0.24391
|  6> N          2.51600       -1.50772       -0.55023
|  7> H          2.96768       -2.32291       -0.95631
|  8> H          1.54987       -1.49063       -0.24988
|  9> H          2.74307        1.64947       -0.41280
| 10> H          1.44036        0.50278        0.03703
| 11> H          4.74975       -1.08632       -1.71533
| 12> H          5.06373        0.34075       -0.75722
| 13> H          4.21960        0.47966       -2.28077
| 14> *
| 15>
| 16> %MaxCore 64000
| 17>
| 18> %pal nprocs 4
| 19> end
| 20>
| 21> %scf
| 22>   MaxIter 150
| 23> end
| 24>
| 25>
| 26>                          ****END OF INPUT****

CARTESIAN COORDINATES (ANGSTROEM)
---------------------------------
  C      4.366450   -0.133210   -1.416060
  C      3.056500   -0.320800   -0.707380
  C      2.389830    0.711290   -0.243910
  N      2.516000   -1.507720   -0.550230
  H      2.967680   -2.322910   -0.956310
  H      1.549870   -1.490630   -0.249880
  H      2.743070    1.649470   -0.412800
  H      1.440360    0.502780    0.037030
  H      4.749750   -1.086320   -1.715330
  H      5.063730    0.340750   -0.757220
  H      4.219600    0.479660   -2.280770

 Total Charge           Charge          ....    0
 Multiplicity           Mult            ....    1
 Number of Electrons    NEL             ....   32
 Basis Dimension        Dim             ....  136

ORBITAL ENERGIES
----------------

  NO   OCC          E(Eh)            E(eV)
   0   2.0000     -14.188781      -386.0964
   1   2.0000     -10.107664      -275.0435
   2   2.0000     -10.078740      -274.2564
   3   2.0000     -10.014368      -272.5048
   4   2.0000      -1.028240       -27.9798
   5   2.0000      -0.857954       -23.3461
   6   2.0000      -0.796208       -21.6659
   7   2.0000      -0.668557       -18.1924
   8   2.0000      -0.637047       -17.3349
   9   2.0000      -0.573027       -15.5929
  10   2.0000      -0.539419       -14.6783
  11   2.0000      -0.501623       -13.6499
  12   2.0000      -0.491166       -13.3653
  13   2.0000      -0.459188       -12.4951
  14   2.0000      -0.440863       -11.9965
  15   2.0000      -0.283619        -7.7177
  16   0.0000       0.072484         1.9724
  17   0.0000       0.108198         2.9442
  18   0.0000       0.113078         3.0770
  19   0.0000       0.116439         3.1685
  20   0.0000       0.146964         3.9991

MULLIKEN ATOMIC CHARGES
-----------------------
   0 C :    1.015202
   1 C :   -0.591963
   2 C :    0.584261
   3 N :    0.350948
   4 H :   -0.141905
   5 H :   -0.079129
   6 H :   -0.337793
   7 H :   -0.483598
   8 H :   -0.162794
   9 H :   -0.056952
  10 H :   -0.096277
Sum of atomic charges:   -0.0000000

LOEWDIN ATOMIC CHARGES
----------------------
   0 C :    0.160612
   1 C :   -0.302922
   2 C :    0.151480
   3 N :    0.172278
   4 H :    0.001866
   5 H :    0.002966
   6 H :   -0.071464
   7 H :   -0.086498
   8 H :   -0.023065
   9 H :   -0.002523
  10 H :   -0.002731

  Mayer bond orders larger than 0.100000
B(  0-C ,  1-C ) :   1.1991 B(  0-C ,  2-C ) :   0.1002 B(  0-C ,  8-H ) :   0.5998
B(  0-C ,  9-H ) :   0.6527 B(  0-C , 10-H ) :   0.7270 B(  1-C ,  2-C ) :   1.8402
B(  1-C ,  3-N ) :   1.2077 B(  1-C ,  6-H ) :   0.1305 B(  1-C ,  7-H ) :   0.2683
B(  1-C ,  8-H ) :   0.3976 B(  1-C ,  9-H ) :   0.2519 B(  1-C , 10-H ) :   0.1901
B(  2-C ,  3-N ) :   0.2744 B(  2-C ,  6-H ) :   0.7772 B(  2-C ,  7-H ) :   0.6761
B(  3-N ,  4-H ) :   1.1326 B(  3-N ,  5-H ) :   1.1139 B(  4-H ,  5-H ) :  -0.1444
B(  8-H ,  9-H ) :   0.1024

FINAL SINGLE POINT ENERGY      -172.639113520510

DIPOLE MOMENT
-------------
                                X             Y             Z
Electronic contribution:     -1.00257      -1.14696       0.66282
Nuclear contribution   :      1.07959       0.48266      -1.05101
                        -----------------------------------------
Total Dipole Moment    :      0.07702      -0.66430      -0.38819
                        -----------------------------------------
Magnitude (a.u.)       :      0.77325
Magnitude (Debye)      :      1.96544

Rotational constants in cm-1:     0.369235     0.294626     0.169175
Rotational constants in MHz : 11069.394850  8832.653024  5071.734673

                             ****ORCA TERMINATED NORMALLY****
TOTAL RUN TIME: 0 days 0 hours 0 minutes 12 seconds 81 msec
