                         Program Version 5.0.0 -  RELEASE  -
|  1> !LC-BLYP RIJCOSX def2-SVPD def2/J TightSCF
|  2> *xyz 0 1
|  3> C          4.36645       -0.13321       -1.41606
|  4> C          3.05650       -0.32080       -0.70738
|  5> N          2.38983        0.71129       -0.24391
|  6> C          2.51600       -1.50772       -0.55023
|  7> H          2.96768       -2.32291       -0.95631
|  8> H          1.54987       -1.49063       -0.24988
|  9> H          2.74307        1.64947       -0.41280
| 10> H          1.44036        0.50278        0.03703
| 11> H          4.74975       -1.08632       -1.71533
| 12> H          5.06373        0.34075       -0.75722
| 13> H          4.21960        0.47966       -2.28077
| 14> *
| 15>
| 16> %MaxCore 64000
| 17>
| 18> %pal nprocs 4
| 19> end
| 20>
| 21> %scf
| 22>   MaxIter 150
| 23> end
| 24>
| 25>
| 26>                          ****END OF INPUT****

CARTESIAN COORDINATES (ANGSTROEM)
---------------------------------
  C      4.366450   -0.133210   -1.416060
  C      3.056500   -0.320800   -0.707380
  N      2.389830    0.711290   -0.243910
  C      2.516000   -1.507720   -0.550230
  H      2.967680   -2.322910   -0.956310
  H      1.549870   -1.490630   -0.249880
  H      2.743070    1.649470   -0.412800
  H      1.440360    0.502780    0.037030
  H      4.749750   -1.086320   -1.715330
  H      5.063730    0.340750   -0.757220
  H      4.219600    0.479660   -2.280770

 Total Charge           Charge          ....    0
 Multiplicity           Mult            ....    1
 Number of Electrons    NEL             ....   32
 Basis Dimension        Dim             ....  136

ORBITAL ENERGIES
----------------

  NO   OCC          E(Eh)            E(eV)
   0   2.0000     -14.187454      -386.0603
   1   2.0000     -10.108365      -275.0626
   2   2.0000     -10.078374      -274.2465
   3   2.0000     -10.018403      -272.6146
   4   2.0000      -1.028356       -27.9830
   5   2.0000      -0.857106       -23.3230
   6   2.0000      -0.797738       -21.7076
   7   2.0000      -0.668662       -18.1952
   8   2.0000      -0.637235       -17.3400
   9   2.0000      -0.573194       -15.5974
  10   2.0000      -0.541361       -14.7312
  11   2.0000      -0.499711       -13.5978
  12   2.0000      -0.493642       -13.4327
  13   2.0000      -0.459273       -12.4974
  14   2.0000      -0.439365       -11.9557
  15   2.0000      -0.286998        -7.8096
  16   0.0000       0.072534         1.9737
  17   0.0000       0.108864         2.9623
  18   0.0000       0.113831         3.0975
  19   0.0000       0.119821         3.2605
  20   0.0000       0.148913         4.0521

MULLIKEN ATOMIC CHARGES
-----------------------
   0 C :    1.066060
   1 C :   -0.729299
   2 N :    0.459783
   3 C :    0.565061
   4 H :   -0.275199
   5 H :   -0.502714
   6 H :   -0.181238
   7 H :   -0.139501
   8 H :   -0.017344
   9 H :   -0.113982
  10 H :   -0.131627
Sum of atomic charges:    0.0000000

LOEWDIN ATOMIC CHARGES
----------------------
   0 C :    0.159001
   1 C :   -0.310835
   2 N :    0.170238
   3 C :    0.161014
   4 H :   -0.076753
   5 H :   -0.084451
   6 H :    0.006449
   7 H :    0.001846
   8 H :   -0.009984
   9 H :   -0.009269
  10 H :   -0.007255

  Mayer bond orders larger than 0.100000
B(  0-C ,  1-C ) :   1.3772 B(  0-C ,  8-H ) :   0.7268 B(  0-C ,  9-H ) :   0.5707
B(  0-C , 10-H ) :   0.5830 B(  1-C ,  2-N ) :   1.2943 B(  1-C ,  3-C ) :   1.7658
B(  1-C ,  5-H ) :   0.2510 B(  1-C ,  8-H ) :   0.2979 B(  1-C ,  9-H ) :   0.3310
B(  1-C , 10-H ) :   0.3409 B(  2-N ,  3-C ) :   0.2735 B(  2-N ,  6-H ) :   1.1347
B(  2-N ,  7-H ) :   1.1029 B(  3-C ,  4-H ) :   0.9170 B(  3-C ,  5-H ) :   0.6443
B(  6-H ,  7-H ) :  -0.1214 B(  8-H ,  9-H ) :   0.1046 B(  8-H , 10-H ) :   0.1179

FINAL SINGLE POINT ENERGY      -172.642115432915

DIPOLE MOMENT
-------------
                                X             Y             Z
Electronic contribution:     -1.13392       0.75765       0.93960
Nuclear contribution   :      1.10788      -0.01499      -1.11971
                        -----------------------------------------
Total Dipole Moment    :     -0.02604       0.74266      -0.18011
                        -----------------------------------------
Magnitude (a.u.)       :      0.76463
Magnitude (Debye)      :      1.94353

Rotational constants in cm-1:     0.367851     0.295709     0.169239
Rotational constants in MHz : 11027.892768  8865.123922  5073.656136

                             ****ORCA TERMINATED NORMALLY****
TOTAL RUN TIME: 0 days 0 hours 0 minutes 12 seconds 127 msec
