                         Program Version 5.0.0 -  RELEASE  -
|  1> !PBE0 D3BJ RIJCOSX def2-SVPD def2/J TightSCF
|  2> *xyz -1 1
|  3> C          1.87218        0.42790       -2.07750
|  4> S          0.57902        0.14047       -3.29794
|  5> O          0.22886       -1.24687       -3.12787
|  6> O         -0.43927        1.11897       -3.01455
|  7> O          1.24788        0.40347       -4.59565
|  8> H          2.66832       -0.27048       -2.23022
|  9> H          1.46951        0.30034       -1.09440
| 10> H          2.24690        1.42458       -2.18288
| 11> *
| 12>
| 13> %MaxCore 64000
| 14>
| 15> %pal nprocs 8
| 16> end
| 17>
| 18> %scf
| 19>   MaxIter 150
| 20> end
| 21>
| 22>
| 23>                          ****END OF INPUT****

CARTESIAN COORDINATES (ANGSTROEM)
---------------------------------
  C      1.872180    0.427900   -2.077500
  S      0.579020    0.140470   -3.297940
  O      0.228860   -1.246870   -3.127870
  O     -0.439270    1.118970   -3.014550
  O      1.247880    0.403470   -4.595650
  H      2.668320   -0.270480   -2.230220
  H      1.469510    0.300340   -1.094400
  H      2.246900    1.424580   -2.182880

 Total Charge           Charge          ....   -1
 Multiplicity           Mult            ....    1
 Number of Electrons    NEL             ....   50
 Basis Dimension        Dim             ....  140

ORBITAL ENERGIES
----------------

  NO   OCC          E(Eh)            E(eV)
   0   2.0000     -89.037334     -2422.8290
   1   2.0000     -18.997353      -516.9443
   2   2.0000     -18.997246      -516.9413
   3   2.0000     -18.983531      -516.5681
   4   2.0000     -10.081226      -274.3241
   5   2.0000      -7.996772      -217.6032
   6   2.0000      -5.938990      -161.6081
   7   2.0000      -5.938842      -161.6041
   8   2.0000      -5.938594      -161.5974
   9   2.0000      -0.959181       -26.1006
  10   2.0000      -0.821283       -22.3482
  11   2.0000      -0.794009       -21.6061
  12   2.0000      -0.596269       -16.2253
  13   2.0000      -0.402367       -10.9490
  14   2.0000      -0.319776        -8.7015
  15   2.0000      -0.303025        -8.2457
  16   2.0000      -0.302207        -8.2235
  17   2.0000      -0.263677        -7.1750
  18   2.0000      -0.260953        -7.1009
  19   2.0000      -0.167373        -4.5545
  20   2.0000      -0.166176        -4.5219
  21   2.0000      -0.130951        -3.5633
  22   2.0000      -0.122727        -3.3396
  23   2.0000      -0.113224        -3.0810
  24   2.0000      -0.078117        -2.1257
  25   0.0000       0.158601         4.3158
  26   0.0000       0.190369         5.1802
  27   0.0000       0.190823         5.1926
  28   0.0000       0.193569         5.2673
  29   0.0000       0.220457         5.9989

MULLIKEN ATOMIC CHARGES
-----------------------
   0 C :    0.303095
   1 S :    1.183920
   2 O :   -0.792571
   3 O :   -0.789920
   4 O :   -0.833605
   5 H :   -0.021382
   6 H :   -0.025622
   7 H :   -0.023914
Sum of atomic charges:   -1.0000000

LOEWDIN ATOMIC CHARGES
----------------------
   0 C :    0.048964
   1 S :    0.840950
   2 O :   -0.584370
   3 O :   -0.583349
   4 O :   -0.606707
   5 H :   -0.037625
   6 H :   -0.039830
   7 H :   -0.038032

  Mayer bond orders larger than 0.100000
B(  0-C ,  1-S ) :   0.9544 B(  0-C ,  5-H ) :   0.9427 B(  0-C ,  6-H ) :   0.9416
B(  0-C ,  7-H ) :   0.9438 B(  1-S ,  2-O ) :   1.3151 B(  1-S ,  3-O ) :   1.3150
B(  1-S ,  4-O ) :   1.2838 B(  1-S ,  5-H ) :   0.1050 B(  1-S ,  7-H ) :   0.1054

Dispersion correction           -0.005347433
FINAL SINGLE POINT ENERGY      -663.076667290183

DIPOLE MOMENT
-------------
                                X             Y             Z
Electronic contribution:     -3.20019      -0.72161      -2.83834
Nuclear contribution   :      4.08143       0.90272       3.93680
                        -----------------------------------------
Total Dipole Moment    :      0.88124       0.18111       1.09847
                        -----------------------------------------
Magnitude (a.u.)       :      1.41986
Magnitude (Debye)      :      3.60900

Rotational constants in cm-1:     0.171796     0.158241     0.155560
Rotational constants in MHz :  5150.307583  4743.954688  4663.569252

                             ****ORCA TERMINATED NORMALLY****
TOTAL RUN TIME: 0 days 0 hours 0 minutes 6 seconds 910 msec
