                         Program Version 5.0.0 -  RELEASE  -
|  1> !PBE0 D3BJ RIJCOSX def2-SVPD def2/J TightSCF
|  2> *xyz 1 1
|  3> C          3.38093        2.08304       -3.35013
|  4> N          4.53592        1.18245       -3.42852
|  5> C          4.67196        0.12227       -4.22060
|  6> N          5.86602       -0.50785       -4.22428
|  7> N          3.69888       -0.31284       -4.98699
|  8> H          2.73141       -0.05009       -4.84900
|  9> H          3.89005       -1.05517       -5.64373
| 10> H          5.25193        1.30346       -2.72101
| 11> H          6.69516       -0.06232       -3.85160
| 12> H          5.97538       -1.39688       -4.69141
| 13> H          2.69962        1.85926       -4.14426
| 14> H          3.71221        3.09654       -3.43937
| 15> H          2.88835        1.95032       -2.40957
| 16> *
| 17>
| 18> %MaxCore 64000
| 19>
| 20> %pal nprocs 8
| 21> end
| 22>
| 23> %scf
| 24>   MaxIter 150
| 25> end
| 26>
| 27>
| 28>                          ****END OF INPUT****

CARTESIAN COORDINATES (ANGSTROEM)
---------------------------------
  C      3.380930    2.083040   -3.350130
  N      4.535920    1.182450   -3.428520
  C      4.671960    0.122270   -4.220600
  N      5.866020   -0.507850   -4.224280
  N      3.698880   -0.312840   -4.986990
  H      2.731410   -0.050090   -4.849000
  H      3.890050   -1.055170   -5.643730
  H      5.251930    1.303460   -2.721010
  H      6.695160   -0.062320   -3.851600
  H      5.975380   -1.396880   -4.691410
  H      2.699620    1.859260   -4.144260
  H      3.712210    3.096540   -3.439370
  H      2.888350    1.950320   -2.409570

 Total Charge           Charge          ....    1
 Multiplicity           Mult            ....    1
 Number of Electrons    NEL             ....   40
 Basis Dimension        Dim             ....  164

ORBITAL ENERGIES
----------------

  NO   OCC          E(Eh)            E(eV)
   0   2.0000     -14.627075      -398.0230
   1   2.0000     -14.626339      -398.0029
   2   2.0000     -14.618555      -397.7911
   3   2.0000     -10.572577      -287.6944
   4   2.0000     -10.438295      -284.0405
   5   2.0000      -1.237841       -33.6834
   6   2.0000      -1.126183       -30.6450
   7   2.0000      -1.110121       -30.2079
   8   2.0000      -0.924469       -25.1561
   9   2.0000      -0.849328       -23.1114
  10   2.0000      -0.808557       -22.0020
  11   2.0000      -0.771434       -20.9918
  12   2.0000      -0.716459       -19.4959
  13   2.0000      -0.713313       -19.4102
  14   2.0000      -0.666805       -18.1447
  15   2.0000      -0.652215       -17.7477
  16   2.0000      -0.606589       -16.5061
  17   2.0000      -0.596024       -16.2186
  18   2.0000      -0.495670       -13.4879
  19   2.0000      -0.468202       -12.7404
  20   0.0000      -0.166472        -4.5299
  21   0.0000      -0.147266        -4.0073
  22   0.0000      -0.113092        -3.0774
  23   0.0000      -0.105474        -2.8701
  24   0.0000      -0.085108        -2.3159

MULLIKEN ATOMIC CHARGES
-----------------------
   0 C :    1.052834
   1 N :   -0.723114
   2 C :    1.665826
   3 N :   -0.237608
   4 N :   -0.165373
   5 H :   -0.032590
   6 H :   -0.038428
   7 H :   -0.229160
   8 H :   -0.040289
   9 H :   -0.001105
  10 H :   -0.132256
  11 H :   -0.056918
  12 H :   -0.061819
Sum of atomic charges:    1.0000000

LOEWDIN ATOMIC CHARGES
----------------------
   0 C :    0.269252
   1 N :    0.008374
   2 C :   -0.026925
   3 N :    0.253510
   4 N :    0.271332
   5 H :    0.033531
   6 H :    0.044429
   7 H :    0.060148
   8 H :    0.038096
   9 H :    0.035032
  10 H :   -0.011407
  11 H :    0.012932
  12 H :    0.011695

  Mayer bond orders larger than 0.100000
B(  0-C ,  1-N ) :   0.8654 B(  0-C ,  7-H ) :  -0.1597 B(  0-C , 10-H ) :   0.8758
B(  0-C , 11-H ) :   0.8188 B(  0-C , 12-H ) :   0.8350 B(  1-N ,  2-C ) :   0.9163
B(  1-N ,  3-N ) :   0.2644 B(  1-N ,  4-N ) :   0.2587 B(  1-N ,  7-H ) :   1.3587
B(  1-N , 10-H ) :   0.1777 B(  1-N , 11-H ) :   0.1752 B(  1-N , 12-H ) :   0.1557
B(  2-C ,  3-N ) :   0.6948 B(  2-C ,  4-N ) :   0.8786 B(  2-C ,  5-H ) :  -0.1500
B(  2-C ,  6-H ) :  -0.1402 B(  2-C ,  7-H ) :  -0.2300 B(  2-C ,  8-H ) :  -0.1669
B(  2-C ,  9-H ) :  -0.1029 B(  3-N ,  4-N ) :   0.2009 B(  3-N ,  8-H ) :   1.2013
B(  3-N ,  9-H ) :   1.1658 B(  4-N ,  5-H ) :   1.1665 B(  4-N ,  6-H ) :   1.1936
B(  5-H ,  6-H ) :  -0.1724 B(  8-H ,  9-H ) :  -0.1574

Dispersion correction           -0.007523264
FINAL SINGLE POINT ENERGY      -244.647663686616

DIPOLE MOMENT
-------------
                                X             Y             Z
Electronic contribution:      1.69303      -1.97914      -0.72459
Nuclear contribution   :     -1.49827       1.51766       0.59175
                        -----------------------------------------
Total Dipole Moment    :      0.19476      -0.46148      -0.13283
                        -----------------------------------------
Magnitude (a.u.)       :      0.51821
Magnitude (Debye)      :      1.31717

Rotational constants in cm-1:     0.316446     0.130424     0.094259
Rotational constants in MHz :  9486.821695  3910.013387  2825.801764

                             ****ORCA TERMINATED NORMALLY****
TOTAL RUN TIME: 0 days 0 hours 0 minutes 8 seconds 567 msec
