                         Program Version 5.0.0 -  RELEASE  -
|  1> !PBE0 D3BJ RIJCOSX def2-SVPD def2/J TightSCF
|  2> *xyz 0 1
|  3> C          1.87218        0.42790       -2.07750
|  4> S          0.57902        0.14047       -3.29794
|  5> F          0.22886       -1.24687       -3.12787
|  6> O         -0.43927        1.11897       -3.01455
|  7> O          1.24788        0.40347       -4.59565
|  8> H          2.66832       -0.27048       -2.23022
|  9> H          1.46951        0.30034       -1.09440
| 10> H          2.24690        1.42458       -2.18288
| 11> *
| 12>
| 13> %MaxCore 64000
| 14>
| 15> %pal nprocs 8
| 16> end
| 17>
| 18> %scf
| 19>   MaxIter 150
| 20> end
| 21>
| 22>
| 23>                          ****END OF INPUT****

CARTESIAN COORDINATES (ANGSTROEM)
---------------------------------
  C      1.872180    0.427900   -2.077500
  S      0.579020    0.140470   -3.297940
  F      0.228860   -1.246870   -3.127870
  O     -0.439270    1.118970   -3.014550
  O      1.247880    0.403470   -4.595650
  H      2.668320   -0.270480   -2.230220
  H      1.469510    0.300340   -1.094400
  H      2.246900    1.424580   -2.182880

 Total Charge           Charge          ....    0
 Multiplicity           Mult            ....    1
 Number of Electrons    NEL             ....   50
 Basis Dimension        Dim             ....  140

ORBITAL ENERGIES
----------------

  NO   OCC          E(Eh)            E(eV)
   0   2.0000     -89.304815     -2430.1076
   1   2.0000     -24.910125      -677.8390
   2   2.0000     -19.237769      -523.4863
   3   2.0000     -19.223558      -523.0996
   4   2.0000     -10.292211      -280.0653
   5   2.0000      -8.264899      -224.8993
   6   2.0000      -6.211179      -169.0148
   7   2.0000      -6.204729      -168.8393
   8   2.0000      -6.203729      -168.8121
   9   2.0000      -1.417166       -38.5631
  10   2.0000      -1.143159       -31.1070
  11   2.0000      -1.035574       -28.1794
  12   2.0000      -0.822804       -22.3896
  13   2.0000      -0.745599       -20.2888
  14   2.0000      -0.629167       -17.1205
  15   2.0000      -0.615923       -16.7601
  16   2.0000      -0.578916       -15.7531
  17   2.0000      -0.498738       -13.5713
  18   2.0000      -0.495372       -13.4798
  19   2.0000      -0.482125       -13.1193
  20   2.0000      -0.458861       -12.4862
  21   2.0000      -0.408682       -11.1208
  22   2.0000      -0.358331        -9.7507
  23   2.0000      -0.344277        -9.3683
  24   2.0000      -0.326175        -8.8757
  25   0.0000      -0.003660        -0.0996
  26   0.0000       0.035511         0.9663
  27   0.0000       0.042516         1.1569
  28   0.0000       0.050362         1.3704
  29   0.0000       0.051513         1.4017

MULLIKEN ATOMIC CHARGES
-----------------------
   0 C :    0.284947
   1 S :    1.338538
   2 F :   -0.390164
   3 O :   -0.650331
   4 O :   -0.690381
   5 H :    0.040270
   6 H :    0.039463
   7 H :    0.027656
Sum of atomic charges:    0.0000000

LOEWDIN ATOMIC CHARGES
----------------------
   0 C :    0.118487
   1 S :    1.112732
   2 F :   -0.258227
   3 O :   -0.464343
   4 O :   -0.486112
   5 H :   -0.011651
   6 H :   -0.012890
   7 H :    0.002004

  Mayer bond orders larger than 0.100000
B(  0-C ,  1-S ) :   1.0139 B(  0-C ,  5-H ) :   0.9289 B(  0-C ,  6-H ) :   0.9276
B(  0-C ,  7-H ) :   0.9337 B(  1-S ,  2-F ) :   0.6828 B(  1-S ,  3-O ) :   1.5228
B(  1-S ,  4-O ) :   1.4922 B(  1-S ,  7-H ) :   0.1047

Dispersion correction           -0.005011089
FINAL SINGLE POINT ENERGY      -687.546368135382

DIPOLE MOMENT
-------------
                                X             Y             Z
Electronic contribution:     -3.78448      -3.02526      -2.51411
Nuclear contribution   :      4.52607       2.31146       3.82544
                        -----------------------------------------
Total Dipole Moment    :      0.74159      -0.71380       1.31134
                        -----------------------------------------
Magnitude (a.u.)       :      1.66705
Magnitude (Debye)      :      4.23731

Rotational constants in cm-1:     0.162724     0.156586     0.147157
Rotational constants in MHz :  4878.333818  4694.318771  4411.658495

                             ****ORCA TERMINATED NORMALLY****
TOTAL RUN TIME: 0 days 0 hours 0 minutes 7 seconds 366 msec
