                         Program Version 5.0.0 -  RELEASE  -
|  1> !PBE0 D3BJ RIJCOSX def2-SVPD def2/J TightSCF
|  2> *xyz 0 1
|  3> C          3.38093        2.08304       -3.35013
|  4> C          4.53592        1.18245       -3.42852
|  5> C          4.67196        0.12227       -4.22060
|  6> N          5.86602       -0.50785       -4.22428
|  7> N          3.69888       -0.31284       -4.98699
|  8> H          2.73141       -0.05009       -4.84900
|  9> H          3.89005       -1.05517       -5.64373
| 10> H          5.25193        1.30346       -2.72101
| 11> H          6.69516       -0.06232       -3.85160
| 12> H          5.97538       -1.39688       -4.69141
| 13> H          2.69962        1.85926       -4.14426
| 14> H          3.71221        3.09654       -3.43937
| 15> H          2.88835        1.95032       -2.40957
| 16> *
| 17>
| 18> %MaxCore 64000
| 19>
| 20> %pal nprocs 8
| 21> end
| 22>
| 23> %scf
| 24>   MaxIter 150
| 25> end
| 26>
| 27>
| 28>                          ****END OF INPUT****

CARTESIAN COORDINATES (ANGSTROEM)
---------------------------------
  C      3.380930    2.083040   -3.350130
  C      4.535920    1.182450   -3.428520
  C      4.671960    0.122270   -4.220600
  N      5.866020   -0.507850   -4.224280
  N      3.698880   -0.312840   -4.986990
  H      2.731410   -0.050090   -4.849000
  H      3.890050   -1.055170   -5.643730
  H      5.251930    1.303460   -2.721010
  H      6.695160   -0.062320   -3.851600
  H      5.975380   -1.396880   -4.691410
  H      2.699620    1.859260   -4.144260
  H      3.712210    3.096540   -3.439370
  H      2.888350    1.950320   -2.409570

 Total Charge           Charge          ....    0
 Multiplicity           Mult            ....    1
 Number of Electrons    NEL             ....   40
 Basis Dimension        Dim             ....  164

ORBITAL ENERGIES
----------------

  NO   OCC          E(Eh)            E(eV)
   0   2.0000     -14.397619      -391.7791
   1   2.0000     -14.390285      -391.5796
   2   2.0000     -10.272500      -279.5289
   3   2.0000     -10.196021      -277.4478
   4   2.0000     -10.155612      -276.3482
   5   2.0000      -0.977825       -26.6080
   6   2.0000      -0.883635       -24.0449
   7   2.0000      -0.764388       -20.8000
   8   2.0000      -0.671664       -18.2769
   9   2.0000      -0.601049       -16.3554
  10   2.0000      -0.558763       -15.2047
  11   2.0000      -0.519440       -14.1347
  12   2.0000      -0.493729       -13.4350
  13   2.0000      -0.440128       -11.9765
  14   2.0000      -0.415942       -11.3183
  15   2.0000      -0.385235       -10.4828
  16   2.0000      -0.372885       -10.1467
  17   2.0000      -0.350587        -9.5400
  18   2.0000      -0.275803        -7.5050
  19   2.0000      -0.165475        -4.5028
  20   0.0000       0.023253         0.6327
  21   0.0000       0.051082         1.3900
  22   0.0000       0.063323         1.7231
  23   0.0000       0.085221         2.3190
  24   0.0000       0.090709         2.4683

MULLIKEN ATOMIC CHARGES
-----------------------
   0 C :    0.769706
   1 C :   -0.781827
   2 C :    1.188650
   3 N :   -0.146234
   4 N :   -0.101656
   5 H :   -0.073260
   6 H :   -0.185507
   7 H :   -0.302470
   8 H :   -0.074425
   9 H :   -0.102564
  10 H :   -0.170952
  11 H :    0.007308
  12 H :   -0.026767
Sum of atomic charges:    0.0000000

LOEWDIN ATOMIC CHARGES
----------------------
   0 C :    0.095467
   1 C :   -0.069243
   2 C :   -0.226947
   3 N :    0.168621
   4 N :    0.183791
   5 H :    0.000412
   6 H :   -0.005726
   7 H :   -0.051127
   8 H :    0.003301
   9 H :   -0.016542
  10 H :   -0.040345
  11 H :   -0.021039
  12 H :   -0.020624

  Mayer bond orders larger than 0.100000
B(  0-C ,  1-C ) :   1.1250 B(  0-C ,  7-H ) :   0.1594 B(  0-C , 10-H ) :   0.8461
B(  0-C , 11-H ) :   0.7463 B(  0-C , 12-H ) :   0.7491 B(  1-C ,  2-C ) :   1.5684
B(  1-C ,  3-N ) :   0.4468 B(  1-C ,  4-N ) :   0.2884 B(  1-C ,  7-H ) :   0.9852
B(  1-C , 10-H ) :   0.3299 B(  1-C , 11-H ) :   0.1871 B(  1-C , 12-H ) :   0.1687
B(  2-C ,  3-N ) :   0.6625 B(  2-C ,  4-N ) :   0.9043 B(  2-C ,  6-H ) :  -0.1534
B(  2-C ,  7-H ) :   0.1346 B(  2-C ,  8-H ) :  -0.1337 B(  2-C , 10-H ) :  -0.1085
B(  3-N ,  4-N ) :   0.1393 B(  3-N ,  8-H ) :   1.2105 B(  3-N ,  9-H ) :   1.1577
B(  4-N ,  5-H ) :   1.1622 B(  4-N ,  6-H ) :   1.2886 B(  5-H ,  6-H ) :  -0.1644
B(  8-H ,  9-H ) :  -0.1503 B( 10-H , 11-H ) :   0.1310

Dispersion correction           -0.007877764
FINAL SINGLE POINT ENERGY      -228.192195020817

DIPOLE MOMENT
-------------
                                X             Y             Z
Electronic contribution:      1.57099      -2.46536      -1.22611
Nuclear contribution   :     -1.47697       1.65537       0.71722
                        -----------------------------------------
Total Dipole Moment    :      0.09402      -0.80999      -0.50889
                        -----------------------------------------
Magnitude (a.u.)       :      0.96120
Magnitude (Debye)      :      2.44317

Rotational constants in cm-1:     0.321284     0.131400     0.095192
Rotational constants in MHz :  9631.850868  3939.260061  2853.789421

                             ****ORCA TERMINATED NORMALLY****
TOTAL RUN TIME: 0 days 0 hours 0 minutes 8 seconds 620 msec
