                         Program Version 5.0.0 -  RELEASE  -
|  1> !PBE0 D3BJ RIJCOSX def2-SVPD def2/J TightSCF
|  2> *xyz 0 1
|  3> C          1.87218        0.42790       -2.07750
|  4> S          0.57902        0.14047       -3.29794
|  5> O          0.22886       -1.24687       -3.12787
|  6> F         -0.43927        1.11897       -3.01455
|  7> O          1.24788        0.40347       -4.59565
|  8> H          2.66832       -0.27048       -2.23022
|  9> H          1.46951        0.30034       -1.09440
| 10> H          2.24690        1.42458       -2.18288
| 11> *
| 12>
| 13> %MaxCore 64000
| 14>
| 15> %pal nprocs 8
| 16> end
| 17>
| 18> %scf
| 19>   MaxIter 150
| 20> end
| 21>
| 22>
| 23>                          ****END OF INPUT****

CARTESIAN COORDINATES (ANGSTROEM)
---------------------------------
  C      1.872180    0.427900   -2.077500
  S      0.579020    0.140470   -3.297940
  O      0.228860   -1.246870   -3.127870
  F     -0.439270    1.118970   -3.014550
  O      1.247880    0.403470   -4.595650
  H      2.668320   -0.270480   -2.230220
  H      1.469510    0.300340   -1.094400
  H      2.246900    1.424580   -2.182880

 Total Charge           Charge          ....    0
 Multiplicity           Mult            ....    1
 Number of Electrons    NEL             ....   50
 Basis Dimension        Dim             ....  140

ORBITAL ENERGIES
----------------

  NO   OCC          E(Eh)            E(eV)
   0   2.0000     -89.304951     -2430.1113
   1   2.0000     -24.910299      -677.8437
   2   2.0000     -19.237894      -523.4897
   3   2.0000     -19.223713      -523.1038
   4   2.0000     -10.292074      -280.0616
   5   2.0000      -8.265007      -224.9023
   6   2.0000      -6.211292      -169.0179
   7   2.0000      -6.204817      -168.8417
   8   2.0000      -6.203859      -168.8156
   9   2.0000      -1.417433       -38.5703
  10   2.0000      -1.142722       -31.0950
  11   2.0000      -1.036427       -28.2026
  12   2.0000      -0.821982       -22.3673
  13   2.0000      -0.745758       -20.2931
  14   2.0000      -0.629401       -17.1269
  15   2.0000      -0.615829       -16.7576
  16   2.0000      -0.579210       -15.7611
  17   2.0000      -0.498166       -13.5558
  18   2.0000      -0.495411       -13.4808
  19   2.0000      -0.482808       -13.1379
  20   2.0000      -0.458954       -12.4888
  21   2.0000      -0.408021       -11.1028
  22   2.0000      -0.357663        -9.7325
  23   2.0000      -0.344213        -9.3665
  24   2.0000      -0.327237        -8.9046
  25   0.0000      -0.003728        -0.1014
  26   0.0000       0.035625         0.9694
  27   0.0000       0.041252         1.1225
  28   0.0000       0.050494         1.3740
  29   0.0000       0.051373         1.3979

MULLIKEN ATOMIC CHARGES
-----------------------
   0 C :    0.285737
   1 S :    1.340342
   2 O :   -0.652845
   3 F :   -0.388508
   4 O :   -0.691969
   5 H :    0.030133
   6 H :    0.038442
   7 H :    0.038668
Sum of atomic charges:    0.0000000

LOEWDIN ATOMIC CHARGES
----------------------
   0 C :    0.118401
   1 S :    1.112977
   2 O :   -0.465401
   3 F :   -0.257073
   4 O :   -0.486195
   5 H :    0.002256
   6 H :   -0.013312
   7 H :   -0.011653

  Mayer bond orders larger than 0.100000
B(  0-C ,  1-S ) :   1.0147 B(  0-C ,  5-H ) :   0.9322 B(  0-C ,  6-H ) :   0.9270
B(  0-C ,  7-H ) :   0.9309 B(  1-S ,  2-O ) :   1.5235 B(  1-S ,  3-F ) :   0.6808
B(  1-S ,  4-O ) :   1.4913 B(  1-S ,  5-H ) :   0.1041

Dispersion correction           -0.005011781
FINAL SINGLE POINT ENERGY      -687.546366317705

DIPOLE MOMENT
-------------
                                X             Y             Z
Electronic contribution:     -4.89355       0.89810      -2.32345
Nuclear contribution   :      5.19357      -0.05217       3.71223
                        -----------------------------------------
Total Dipole Moment    :      0.30002       0.84592       1.38878
                        -----------------------------------------
Magnitude (a.u.)       :      1.65358
Magnitude (Debye)      :      4.20305

Rotational constants in cm-1:     0.163837     0.155047     0.147593
Rotational constants in MHz :  4911.724022  4648.196128  4424.713532

                             ****ORCA TERMINATED NORMALLY****
TOTAL RUN TIME: 0 days 0 hours 0 minutes 7 seconds 264 msec
