                         Program Version 5.0.0 -  RELEASE  -
|  1> !PBE0 D3BJ RIJCOSX def2-SVPD def2/J TightSCF
|  2> *xyz 0 1
|  3> C          3.38093        2.08304       -3.35013
|  4> N          4.53592        1.18245       -3.42852
|  5> C          4.67196        0.12227       -4.22060
|  6> C          5.86602       -0.50785       -4.22428
|  7> N          3.69888       -0.31284       -4.98699
|  8> H          2.73141       -0.05009       -4.84900
|  9> H          3.89005       -1.05517       -5.64373
| 10> H          5.25193        1.30346       -2.72101
| 11> H          6.69516       -0.06232       -3.85160
| 12> H          5.97538       -1.39688       -4.69141
| 13> H          2.69962        1.85926       -4.14426
| 14> H          3.71221        3.09654       -3.43937
| 15> H          2.88835        1.95032       -2.40957
| 16> *
| 17>
| 18> %MaxCore 64000
| 19>
| 20> %pal nprocs 8
| 21> end
| 22>
| 23> %scf
| 24>   MaxIter 150
| 25> end
| 26>
| 27>
| 28>                          ****END OF INPUT****

CARTESIAN COORDINATES (ANGSTROEM)
---------------------------------
  C      3.380930    2.083040   -3.350130
  N      4.535920    1.182450   -3.428520
  C      4.671960    0.122270   -4.220600
  C      5.866020   -0.507850   -4.224280
  N      3.698880   -0.312840   -4.986990
  H      2.731410   -0.050090   -4.849000
  H      3.890050   -1.055170   -5.643730
  H      5.251930    1.303460   -2.721010
  H      6.695160   -0.062320   -3.851600
  H      5.975380   -1.396880   -4.691410
  H      2.699620    1.859260   -4.144260
  H      3.712210    3.096540   -3.439370
  H      2.888350    1.950320   -2.409570

 Total Charge           Charge          ....    0
 Multiplicity           Mult            ....    1
 Number of Electrons    NEL             ....   40
 Basis Dimension        Dim             ....  164

ORBITAL ENERGIES
----------------

  NO   OCC          E(Eh)            E(eV)
   0   2.0000     -14.399133      -391.8203
   1   2.0000     -14.398589      -391.8055
   2   2.0000     -10.279110      -279.7088
   3   2.0000     -10.265053      -279.3263
   4   2.0000     -10.140242      -275.9300
   5   2.0000      -0.986783       -26.8517
   6   2.0000      -0.902825       -24.5671
   7   2.0000      -0.756506       -20.5856
   8   2.0000      -0.678309       -18.4577
   9   2.0000      -0.619193       -16.8491
  10   2.0000      -0.559704       -15.2303
  11   2.0000      -0.508819       -13.8457
  12   2.0000      -0.493256       -13.4222
  13   2.0000      -0.464894       -12.6504
  14   2.0000      -0.420803       -11.4506
  15   2.0000      -0.406884       -11.0719
  16   2.0000      -0.394155       -10.7255
  17   2.0000      -0.368668       -10.0320
  18   2.0000      -0.266647        -7.2558
  19   2.0000      -0.166736        -4.5371
  20   0.0000       0.019778         0.5382
  21   0.0000       0.053755         1.4628
  22   0.0000       0.054937         1.4949
  23   0.0000       0.077956         2.1213
  24   0.0000       0.096787         2.6337

MULLIKEN ATOMIC CHARGES
-----------------------
   0 C :    1.081805
   1 N :   -0.681393
   2 C :    0.893028
   3 C :    0.302598
   4 N :   -0.059777
   5 H :   -0.133900
   6 H :   -0.063864
   7 H :   -0.267903
   8 H :   -0.351051
   9 H :   -0.309144
  10 H :   -0.170531
  11 H :   -0.117777
  12 H :   -0.122092
Sum of atomic charges:   -0.0000000

LOEWDIN ATOMIC CHARGES
----------------------
   0 C :    0.216225
   1 N :   -0.050075
   2 C :   -0.237377
   3 C :    0.133282
   4 N :    0.184503
   5 H :   -0.013198
   6 H :    0.013273
   7 H :    0.034914
   8 H :   -0.106215
   9 H :   -0.109896
  10 H :   -0.029768
  11 H :   -0.017309
  12 H :   -0.018359

  Mayer bond orders larger than 0.100000
B(  0-C ,  1-N ) :   0.8612 B(  0-C ,  7-H ) :  -0.1607 B(  0-C , 10-H ) :   0.8755
B(  0-C , 11-H ) :   0.8179 B(  0-C , 12-H ) :   0.8336 B(  1-N ,  2-C ) :   0.9439
B(  1-N ,  3-C ) :   0.2495 B(  1-N ,  4-N ) :   0.2056 B(  1-N ,  7-H ) :   1.3191
B(  1-N , 10-H ) :   0.1966 B(  1-N , 11-H ) :   0.1804 B(  1-N , 12-H ) :   0.1731
B(  2-C ,  3-C ) :   1.4446 B(  2-C ,  4-N ) :   0.9722 B(  2-C ,  5-H ) :  -0.1032
B(  2-C ,  7-H ) :  -0.2079 B(  2-C ,  9-H ) :   0.1511 B(  3-C ,  4-N ) :   0.2096
B(  3-C ,  8-H ) :   0.9513 B(  3-C ,  9-H ) :   0.8459 B(  4-N ,  5-H ) :   1.1936
B(  4-N ,  6-H ) :   1.1711 B(  5-H ,  6-H ) :  -0.1668

Dispersion correction           -0.007827518
FINAL SINGLE POINT ENERGY      -228.176938363009

DIPOLE MOMENT
-------------
                                X             Y             Z
Electronic contribution:      0.15874      -0.81056      -0.46134
Nuclear contribution   :     -1.20756       1.31300       0.55604
                        -----------------------------------------
Total Dipole Moment    :     -1.04882       0.50244       0.09470
                        -----------------------------------------
Magnitude (a.u.)       :      1.16681
Magnitude (Debye)      :      2.96579

Rotational constants in cm-1:     0.323683     0.135884     0.097747
Rotational constants in MHz :  9703.770798  4073.695357  2930.389562

                             ****ORCA TERMINATED NORMALLY****
TOTAL RUN TIME: 0 days 0 hours 0 minutes 9 seconds 243 msec
