                         Program Version 5.0.0 -  RELEASE  -
|  1> !PBE0 D3BJ RIJCOSX def2-SVPD def2/J TightSCF
|  2> *xyz 0 1
|  3> C          1.87218        0.42790       -2.07750
|  4> S          0.57902        0.14047       -3.29794
|  5> O          0.22886       -1.24687       -3.12787
|  6> O         -0.43927        1.11897       -3.01455
|  7> F          1.24788        0.40347       -4.59565
|  8> H          2.66832       -0.27048       -2.23022
|  9> H          1.46951        0.30034       -1.09440
| 10> H          2.24690        1.42458       -2.18288
| 11> *
| 12>
| 13> %MaxCore 64000
| 14>
| 15> %pal nprocs 8
| 16> end
| 17>
| 18> %scf
| 19>   MaxIter 150
| 20> end
| 21>
| 22>
| 23>                          ****END OF INPUT****

CARTESIAN COORDINATES (ANGSTROEM)
---------------------------------
  C      1.872180    0.427900   -2.077500
  S      0.579020    0.140470   -3.297940
  O      0.228860   -1.246870   -3.127870
  O     -0.439270    1.118970   -3.014550
  F      1.247880    0.403470   -4.595650
  H      2.668320   -0.270480   -2.230220
  H      1.469510    0.300340   -1.094400
  H      2.246900    1.424580   -2.182880

 Total Charge           Charge          ....    0
 Multiplicity           Mult            ....    1
 Number of Electrons    NEL             ....   50
 Basis Dimension        Dim             ....  140

ORBITAL ENERGIES
----------------

  NO   OCC          E(Eh)            E(eV)
   0   2.0000     -89.302659     -2430.0489
   1   2.0000     -24.888806      -677.2588
   2   2.0000     -19.237393      -523.4761
   3   2.0000     -19.237364      -523.4753
   4   2.0000     -10.291072      -280.0343
   5   2.0000      -8.262679      -224.8389
   6   2.0000      -6.208688      -168.9470
   7   2.0000      -6.202744      -168.7853
   8   2.0000      -6.201761      -168.7585
   9   2.0000      -1.380862       -37.5752
  10   2.0000      -1.153135       -31.3784
  11   2.0000      -1.058113       -28.7927
  12   2.0000      -0.819255       -22.2931
  13   2.0000      -0.727522       -19.7969
  14   2.0000      -0.611725       -16.6459
  15   2.0000      -0.590559       -16.0699
  16   2.0000      -0.575976       -15.6731
  17   2.0000      -0.500559       -13.6209
  18   2.0000      -0.495827       -13.4921
  19   2.0000      -0.480884       -13.0855
  20   2.0000      -0.464944       -12.6518
  21   2.0000      -0.414309       -11.2739
  22   2.0000      -0.364039        -9.9060
  23   2.0000      -0.356208        -9.6929
  24   2.0000      -0.342564        -9.3216
  25   0.0000      -0.001014        -0.0276
  26   0.0000       0.037220         1.0128
  27   0.0000       0.040530         1.1029
  28   0.0000       0.051534         1.4023
  29   0.0000       0.052112         1.4180

MULLIKEN ATOMIC CHARGES
-----------------------
   0 C :    0.282919
   1 S :    1.350845
   2 O :   -0.665051
   3 O :   -0.663984
   4 F :   -0.409962
   5 H :    0.040817
   6 H :    0.027520
   7 H :    0.036895
Sum of atomic charges:   -0.0000000

LOEWDIN ATOMIC CHARGES
----------------------
   0 C :    0.118818
   1 S :    1.110375
   2 O :   -0.465841
   3 O :   -0.464954
   4 F :   -0.275635
   5 H :   -0.011333
   6 H :    0.000759
   7 H :   -0.012189

  Mayer bond orders larger than 0.100000
B(  0-C ,  1-S ) :   1.0143 B(  0-C ,  5-H ) :   0.9308 B(  0-C ,  6-H ) :   0.9300
B(  0-C ,  7-H ) :   0.9312 B(  1-S ,  2-O ) :   1.5202 B(  1-S ,  3-O ) :   1.5193
B(  1-S ,  4-F ) :   0.6365

Dispersion correction           -0.005011782
FINAL SINGLE POINT ENERGY      -687.564792115008

DIPOLE MOMENT
-------------
                                X             Y             Z
Electronic contribution:     -2.07775      -0.28461      -4.97100
Nuclear contribution   :      3.50800       0.66266       5.29185
                        -----------------------------------------
Total Dipole Moment    :      1.43025       0.37804       0.32085
                        -----------------------------------------
Magnitude (a.u.)       :      1.51377
Magnitude (Debye)      :      3.84769

Rotational constants in cm-1:     0.163942     0.153101     0.149133
Rotational constants in MHz :  4914.860621  4589.839477  4470.901507

                             ****ORCA TERMINATED NORMALLY****
TOTAL RUN TIME: 0 days 0 hours 0 minutes 6 seconds 763 msec
