                         Program Version 5.0.0 -  RELEASE  -
|  1> !PBE0 D3BJ RIJCOSX def2-SVPD def2/J TightSCF
|  2> *xyz 0 1
|  3> C          3.38093        2.08304       -3.35013
|  4> N          4.53592        1.18245       -3.42852
|  5> C          4.67196        0.12227       -4.22060
|  6> N          5.86602       -0.50785       -4.22428
|  7> C          3.69888       -0.31284       -4.98699
|  8> H          2.73141       -0.05009       -4.84900
|  9> H          3.89005       -1.05517       -5.64373
| 10> H          5.25193        1.30346       -2.72101
| 11> H          6.69516       -0.06232       -3.85160
| 12> H          5.97538       -1.39688       -4.69141
| 13> H          2.69962        1.85926       -4.14426
| 14> H          3.71221        3.09654       -3.43937
| 15> H          2.88835        1.95032       -2.40957
| 16> *
| 17>
| 18> %MaxCore 64000
| 19>
| 20> %pal nprocs 8
| 21> end
| 22>
| 23> %scf
| 24>   MaxIter 150
| 25> end
| 26>
| 27>
| 28>                          ****END OF INPUT****

CARTESIAN COORDINATES (ANGSTROEM)
---------------------------------
  C      3.380930    2.083040   -3.350130
  N      4.535920    1.182450   -3.428520
  C      4.671960    0.122270   -4.220600
  N      5.866020   -0.507850   -4.224280
  C      3.698880   -0.312840   -4.986990
  H      2.731410   -0.050090   -4.849000
  H      3.890050   -1.055170   -5.643730
  H      5.251930    1.303460   -2.721010
  H      6.695160   -0.062320   -3.851600
  H      5.975380   -1.396880   -4.691410
  H      2.699620    1.859260   -4.144260
  H      3.712210    3.096540   -3.439370
  H      2.888350    1.950320   -2.409570

 Total Charge           Charge          ....    0
 Multiplicity           Mult            ....    1
 Number of Electrons    NEL             ....   40
 Basis Dimension        Dim             ....  164

ORBITAL ENERGIES
----------------

  NO   OCC          E(Eh)            E(eV)
   0   2.0000     -14.399127      -391.8202
   1   2.0000     -14.392832      -391.6489
   2   2.0000     -10.276629      -279.6413
   3   2.0000     -10.256563      -279.0953
   4   2.0000     -10.144607      -276.0488
   5   2.0000      -0.980337       -26.6763
   6   2.0000      -0.893349       -24.3093
   7   2.0000      -0.739001       -20.1093
   8   2.0000      -0.711524       -19.3616
   9   2.0000      -0.582603       -15.8534
  10   2.0000      -0.561728       -15.2854
  11   2.0000      -0.530005       -14.4222
  12   2.0000      -0.468130       -12.7385
  13   2.0000      -0.453977       -12.3534
  14   2.0000      -0.432019       -11.7558
  15   2.0000      -0.398989       -10.8570
  16   2.0000      -0.394942       -10.7469
  17   2.0000      -0.367831       -10.0092
  18   2.0000      -0.259344        -7.0571
  19   2.0000      -0.179264        -4.8780
  20   0.0000       0.025653         0.6981
  21   0.0000       0.047208         1.2846
  22   0.0000       0.062257         1.6941
  23   0.0000       0.080752         2.1974
  24   0.0000       0.091717         2.4958

MULLIKEN ATOMIC CHARGES
-----------------------
   0 C :    1.048325
   1 N :   -0.642468
   2 C :    1.070545
   3 N :   -0.132576
   4 C :    0.008047
   5 H :   -0.168714
   6 H :   -0.320787
   7 H :   -0.345091
   8 H :   -0.161309
   9 H :   -0.014970
  10 H :   -0.110330
  11 H :   -0.101799
  12 H :   -0.128873
Sum of atomic charges:   -0.0000000

LOEWDIN ATOMIC CHARGES
----------------------
   0 C :    0.225473
   1 N :   -0.060018
   2 C :   -0.238078
   3 N :    0.173065
   4 C :    0.143389
   5 H :   -0.101982
   6 H :   -0.096081
   7 H :    0.018961
   8 H :   -0.012285
   9 H :    0.002549
  10 H :   -0.024303
  11 H :   -0.015905
  12 H :   -0.014784

  Mayer bond orders larger than 0.100000
B(  0-C ,  1-N ) :   0.8566 B(  0-C ,  7-H ) :  -0.1488 B(  0-C , 10-H ) :   0.8905
B(  0-C , 11-H ) :   0.8016 B(  0-C , 12-H ) :   0.8178 B(  1-N ,  2-C ) :   0.8499
B(  1-N ,  3-N ) :   0.1903 B(  1-N ,  4-C ) :   0.3279 B(  1-N ,  7-H ) :   1.3944
B(  1-N , 10-H ) :   0.1557 B(  1-N , 11-H ) :   0.1848 B(  1-N , 12-H ) :   0.1872
B(  2-C ,  3-N ) :   0.8015 B(  2-C ,  4-C ) :   1.5345 B(  2-C ,  6-H ) :   0.1234
B(  2-C ,  7-H ) :  -0.2384 B(  2-C ,  8-H ) :  -0.1253 B(  3-N ,  4-C ) :   0.2611
B(  3-N ,  8-H ) :   1.2427 B(  3-N ,  9-H ) :   1.1447 B(  4-C ,  5-H ) :   0.8104
B(  4-C ,  6-H ) :   0.9822 B(  8-H ,  9-H ) :  -0.1542

Dispersion correction           -0.007860468
FINAL SINGLE POINT ENERGY      -228.181288789893

DIPOLE MOMENT
-------------
                                X             Y             Z
Electronic contribution:      2.31549      -1.01638       0.23803
Nuclear contribution   :     -1.64651       1.35250       0.40156
                        -----------------------------------------
Total Dipole Moment    :      0.66898       0.33613       0.63959
                        -----------------------------------------
Magnitude (a.u.)       :      0.98468
Magnitude (Debye)      :      2.50285

Rotational constants in cm-1:     0.339624     0.131069     0.096565
Rotational constants in MHz : 10181.679558  3929.342810  2894.941560

                             ****ORCA TERMINATED NORMALLY****
TOTAL RUN TIME: 0 days 0 hours 0 minutes 9 seconds 166 msec
