                         Program Version 5.0.0 -  RELEASE  -
|  1> !PBE0 D3BJ RIJCOSX def2-SVPD def2/J TightSCF xyzfile
|  2>
|  3> *xyzfile 0 1 D2.xyz
|  4>
|  5> %MaxCore 64000
|  6>
|  7> %pal nprocs 4
|  8> end
|  9>
| 10> %scf
| 11>   MaxIter 150
| 12> end
| 13>
| 14>
| 15>                          ****END OF INPUT****

CARTESIAN COORDINATES (ANGSTROEM)
---------------------------------
  C      3.380928    2.083045   -3.350127
  N      4.535924    1.182447   -3.428518
  C      2.495557    1.816150   -2.136364
  C      1.872181    0.427903   -2.077497
  H      2.614270   -0.365825   -2.198894
  H      1.389953    0.273087   -1.112360
  S      0.579024    0.140472   -3.297943
  C      4.671956    0.122273   -4.220598
  C      5.866023   -0.507849   -4.224284
  N      3.698881   -0.312844   -4.986988
  H      2.731405   -0.050091   -4.849000
  H      3.890046   -1.055172   -5.643730
  H      5.251933    1.303459   -2.721014
  H      6.695165   -0.062322   -3.851596
  H      5.975383   -1.396884   -4.691414
  F      0.228860   -1.246868   -3.127871
  O     -0.439269    1.118966   -3.014550
  O      1.247881    0.403474   -4.595647
  H      1.697003    2.561969   -2.141109
  H      3.080787    1.987436   -1.225838
  H      2.806463    1.986511   -4.268484
  H      3.778714    3.098282   -3.307383

 Total Charge           Charge          ....    0
 Multiplicity           Mult            ....    1
 Number of Electrons    NEL             ....   96
 Basis Dimension        Dim             ....  324

ORBITAL ENERGIES
----------------

  NO   OCC          E(Eh)            E(eV)
   0   2.0000     -89.321575     -2430.5636
   1   2.0000     -24.924919      -678.2415
   2   2.0000     -19.254593      -523.9441
   3   2.0000     -19.249146      -523.7959
   4   2.0000     -14.399419      -391.8281
   5   2.0000     -14.370100      -391.0303
   6   2.0000     -10.307917      -280.4927
   7   2.0000     -10.277087      -279.6538
   8   2.0000     -10.272457      -279.5278
   9   2.0000     -10.272098      -279.5180
  10   2.0000     -10.134633      -275.7774
  11   2.0000      -8.281300      -225.3456
  12   2.0000      -6.227510      -169.4592
  13   2.0000      -6.221546      -169.2969
  14   2.0000      -6.219779      -169.2488
  15   2.0000      -1.431075       -38.9415
  16   2.0000      -1.163974       -31.6734
  17   2.0000      -1.063081       -28.9279
  18   2.0000      -0.981719       -26.7139
  19   2.0000      -0.898765       -24.4566
  20   2.0000      -0.857130       -23.3237
  21   2.0000      -0.793652       -21.5964
  22   2.0000      -0.748747       -20.3744
  23   2.0000      -0.706263       -19.2184
  24   2.0000      -0.656945       -17.8764
  25   2.0000      -0.632276       -17.2051
  26   2.0000      -0.617926       -16.8146
  27   2.0000      -0.614220       -16.7138
  28   2.0000      -0.601173       -16.3588
  29   2.0000      -0.563538       -15.3346
  30   2.0000      -0.525981       -14.3127
  31   2.0000      -0.511611       -13.9216
  32   2.0000      -0.506836       -13.7917
  33   2.0000      -0.497810       -13.5461
  34   2.0000      -0.483694       -13.1620
  35   2.0000      -0.463984       -12.6256
  36   2.0000      -0.432977       -11.7819
  37   2.0000      -0.426217       -11.5980
  38   2.0000      -0.422142       -11.4871
  39   2.0000      -0.402179       -10.9438
  40   2.0000      -0.397811       -10.8250
  41   2.0000      -0.384048       -10.4505
  42   2.0000      -0.372424       -10.1342
  43   2.0000      -0.361203        -9.8288
  44   2.0000      -0.354323        -9.6416
  45   2.0000      -0.341884        -9.3031
  46   2.0000      -0.260585        -7.0909
  47   2.0000      -0.162030        -4.4091
  48   0.0000      -0.009074        -0.2469
  49   0.0000       0.011381         0.3097
  50   0.0000       0.029439         0.8011
  51   0.0000       0.033979         0.9246
  52   0.0000       0.042102         1.1457

MULLIKEN ATOMIC CHARGES
-----------------------
   0 C :    0.847727
   1 N :   -0.522322
   2 C :    0.001689
   3 C :   -0.085555
   4 H :    0.230900
   5 H :   -0.052377
   6 S :    1.698324
   7 C :    0.681284
   8 C :    0.310716
   9 N :    0.416261
  10 H :   -0.347086
  11 H :   -0.172629
  12 H :   -0.252551
  13 H :   -0.315928
  14 H :   -0.218971
  15 F :   -0.442732
  16 O :   -0.731377
  17 O :   -0.895842
  18 H :    0.081734
  19 H :    0.030976
  20 H :    0.009314
  21 H :   -0.271556
Sum of atomic charges:   -0.0000000

LOEWDIN ATOMIC CHARGES
----------------------
   0 C :    0.076063
   1 N :   -0.013046
   2 C :   -0.012133
   3 C :   -0.042692
   4 H :    0.026052
   5 H :    0.023350
   6 S :    1.181198
   7 C :   -0.237749
   8 C :    0.131465
   9 N :    0.221773
  10 H :   -0.150261
  11 H :    0.017211
  12 H :    0.036261
  13 H :   -0.110059
  14 H :   -0.109931
  15 F :   -0.241566
  16 O :   -0.444355
  17 O :   -0.458480
  18 H :    0.034046
  19 H :    0.039124
  20 H :    0.007263
  21 H :    0.026465

  Mayer bond orders larger than 0.100000
B(  0-C ,  1-N ) :   0.8812 B(  0-C ,  2-C ) :   1.1299 B(  0-C , 12-H ) :  -0.1982
B(  0-C , 18-H ) :   0.1376 B(  0-C , 19-H ) :   0.1278 B(  0-C , 20-H ) :   0.7819
B(  0-C , 21-H ) :   0.8890 B(  1-N ,  7-C ) :   0.9185 B(  1-N ,  8-C ) :   0.2235
B(  1-N ,  9-N ) :   0.1435 B(  1-N , 12-H ) :   1.2984 B(  1-N , 20-H ) :   0.2242
B(  1-N , 21-H ) :   0.1487 B(  2-C ,  3-C ) :   1.3048 B(  2-C ,  4-H ) :   0.1325
B(  2-C ,  5-H ) :   0.1644 B(  2-C , 18-H ) :   0.8442 B(  2-C , 19-H ) :   0.8240
B(  2-C , 20-H ) :   0.1231 B(  3-C ,  4-H ) :   0.8655 B(  3-C ,  5-H ) :   0.8357
B(  3-C ,  6-S ) :   0.9655 B(  3-C , 17-O ) :   0.1576 B(  3-C , 18-H ) :   0.1226
B(  6-S , 15-F ) :   0.6080 B(  6-S , 16-O ) :   1.4865 B(  6-S , 17-O ) :   1.3323
B(  7-C ,  8-C ) :   1.5077 B(  7-C ,  9-N ) :   1.0223 B(  7-C , 10-H ) :  -0.1038
B(  7-C , 11-H ) :  -0.1191 B(  7-C , 12-H ) :  -0.2105 B(  7-C , 13-H ) :   0.1152
B(  7-C , 14-H ) :   0.1896 B(  8-C ,  9-N ) :   0.1556 B(  8-C , 13-H ) :   0.8197
B(  8-C , 14-H ) :   0.8213 B(  9-N , 10-H ) :   0.9971 B(  9-N , 11-H ) :   1.1999
B(  9-N , 20-H ) :   0.1150 B( 10-H , 11-H ) :  -0.2234 B( 13-H , 14-H ) :   0.1594
B( 20-H , 21-H ) :  -0.1213

Dispersion correction           -0.021893949
FINAL SINGLE POINT ENERGY      -953.788482129874

DIPOLE MOMENT
-------------
                                X             Y             Z
Electronic contribution:    -16.72172      -5.22997      -0.35692
Nuclear contribution   :     16.05479       5.17692       1.74190
                        -----------------------------------------
Total Dipole Moment    :     -0.66694      -0.05305       1.38498
                        -----------------------------------------
Magnitude (a.u.)       :      1.53811
Magnitude (Debye)      :      3.90956

Rotational constants in cm-1:     0.058652     0.021107     0.018077
Rotational constants in MHz :  1758.344290   632.763813   541.920558

                             ****ORCA TERMINATED NORMALLY****
TOTAL RUN TIME: 0 days 0 hours 1 minutes 19 seconds 301 msec
