                         Program Version 5.0.0 -  RELEASE  -
|  1> !PBE0 D3BJ RIJCOSX def2-SVPD def2/J TightSCF xyzfile
|  2>
|  3> *xyzfile 0 1 D8.xyz
|  4>
|  5> %MaxCore 64000
|  6>
|  7> %pal nprocs 4
|  8> end
|  9>
| 10> %scf
| 11>   MaxIter 150
| 12> end
| 13>
| 14>
| 15>                          ****END OF INPUT****

CARTESIAN COORDINATES (ANGSTROEM)
---------------------------------
  C      3.380928    2.083045   -3.350127
  N      4.535924    1.182447   -3.428518
  C      2.495557    1.816150   -2.136364
  C      1.872181    0.427903   -2.077497
  H      2.614270   -0.365825   -2.198894
  H      1.389953    0.273087   -1.112360
  S      0.579024    0.140472   -3.297943
  C      4.671956    0.122273   -4.220598
  C      5.866023   -0.507849   -4.224284
  N      3.698881   -0.312844   -4.986988
  H      2.731405   -0.050091   -4.849000
  H      3.890046   -1.055172   -5.643730
  H      5.251933    1.303459   -2.721014
  H      6.695165   -0.062322   -3.851596
  H      5.975383   -1.396884   -4.691414
  O      0.228860   -1.246868   -3.127871
  O     -0.439269    1.118966   -3.014550
  F      1.247881    0.403474   -4.595647
  H      1.697003    2.561969   -2.141109
  H      3.080787    1.987436   -1.225838
  H      2.806463    1.986511   -4.268484
  H      3.778714    3.098282   -3.307383

 Total Charge           Charge          ....    0
 Multiplicity           Mult            ....    1
 Number of Electrons    NEL             ....   96
 Basis Dimension        Dim             ....  324

ORBITAL ENERGIES
----------------

  NO   OCC          E(Eh)            E(eV)
   0   2.0000     -89.310763     -2430.2694
   1   2.0000     -24.913276      -677.9247
   2   2.0000     -19.248661      -523.7827
   3   2.0000     -19.247807      -523.7595
   4   2.0000     -14.412876      -392.1943
   5   2.0000     -14.399555      -391.8318
   6   2.0000     -10.303366      -280.3688
   7   2.0000     -10.292935      -280.0850
   8   2.0000     -10.288457      -279.9631
   9   2.0000     -10.273397      -279.5533
  10   2.0000     -10.149680      -276.1868
  11   2.0000      -8.270845      -225.0611
  12   2.0000      -6.217295      -169.1812
  13   2.0000      -6.210833      -169.0054
  14   2.0000      -6.209333      -168.9645
  15   2.0000      -1.408237       -38.3201
  16   2.0000      -1.164954       -31.7000
  17   2.0000      -1.068083       -29.0640
  18   2.0000      -1.000042       -27.2125
  19   2.0000      -0.918349       -24.9895
  20   2.0000      -0.859625       -23.3916
  21   2.0000      -0.794214       -21.6117
  22   2.0000      -0.749110       -20.3843
  23   2.0000      -0.721993       -19.6464
  24   2.0000      -0.662729       -18.0338
  25   2.0000      -0.634447       -17.2642
  26   2.0000      -0.629533       -17.1305
  27   2.0000      -0.615317       -16.7436
  28   2.0000      -0.584046       -15.8927
  29   2.0000      -0.556529       -15.1439
  30   2.0000      -0.535361       -14.5679
  31   2.0000      -0.515701       -14.0329
  32   2.0000      -0.510118       -13.8810
  33   2.0000      -0.503837       -13.7101
  34   2.0000      -0.490124       -13.3369
  35   2.0000      -0.477644       -12.9974
  36   2.0000      -0.445080       -12.1112
  37   2.0000      -0.425633       -11.5821
  38   2.0000      -0.424025       -11.5383
  39   2.0000      -0.408923       -11.1274
  40   2.0000      -0.402812       -10.9611
  41   2.0000      -0.395142       -10.7524
  42   2.0000      -0.376749       -10.2519
  43   2.0000      -0.371590       -10.1115
  44   2.0000      -0.357325        -9.7233
  45   2.0000      -0.351568        -9.5666
  46   2.0000      -0.278863        -7.5883
  47   2.0000      -0.177396        -4.8272
  48   0.0000      -0.005229        -0.1423
  49   0.0000       0.016077         0.4375
  50   0.0000       0.028641         0.7794
  51   0.0000       0.031586         0.8595
  52   0.0000       0.042786         1.1643

MULLIKEN ATOMIC CHARGES
-----------------------
   0 C :    0.842163
   1 N :   -0.514212
   2 C :    0.037374
   3 C :   -0.015207
   4 H :    0.206936
   5 H :   -0.066258
   6 S :    1.568996
   7 C :    0.726351
   8 C :    0.302215
   9 N :    0.386987
  10 H :   -0.321312
  11 H :   -0.154514
  12 H :   -0.249371
  13 H :   -0.310356
  14 H :   -0.208606
  15 O :   -0.710604
  16 O :   -0.745680
  17 F :   -0.572085
  18 H :    0.094039
  19 H :    0.028798
  20 H :   -0.052283
  21 H :   -0.273370
Sum of atomic charges:   -0.0000000

LOEWDIN ATOMIC CHARGES
----------------------
   0 C :    0.070725
   1 N :   -0.012172
   2 C :   -0.026912
   3 C :   -0.035065
   4 H :    0.026969
   5 H :    0.036762
   6 S :    1.137278
   7 C :   -0.233574
   8 C :    0.141293
   9 N :    0.220760
  10 H :   -0.104175
  11 H :    0.023042
  12 H :    0.040061
  13 H :   -0.103489
  14 H :   -0.104310
  15 O :   -0.447808
  16 O :   -0.448239
  17 F :   -0.283536
  18 H :    0.031132
  19 H :    0.036744
  20 H :    0.006582
  21 H :    0.027933

  Mayer bond orders larger than 0.100000
B(  0-C ,  1-N ) :   0.8836 B(  0-C ,  2-C ) :   1.1322 B(  0-C , 12-H ) :  -0.1985
B(  0-C , 18-H ) :   0.1313 B(  0-C , 19-H ) :   0.1331 B(  0-C , 20-H ) :   0.7870
B(  0-C , 21-H ) :   0.8947 B(  1-N ,  7-C ) :   0.9084 B(  1-N ,  8-C ) :   0.2259
B(  1-N ,  9-N ) :   0.1448 B(  1-N , 12-H ) :   1.2871 B(  1-N , 20-H ) :   0.2225
B(  1-N , 21-H ) :   0.1517 B(  2-C ,  3-C ) :   1.2619 B(  2-C ,  4-H ) :   0.1350
B(  2-C ,  5-H ) :   0.1532 B(  2-C , 18-H ) :   0.8454 B(  2-C , 19-H ) :   0.8157
B(  2-C , 20-H ) :   0.1179 B(  3-C ,  4-H ) :   0.8938 B(  3-C ,  5-H ) :   0.8290
B(  3-C ,  6-S ) :   1.0342 B(  3-C , 17-F ) :   0.1042 B(  3-C , 18-H ) :   0.1306
B(  3-C , 19-H ) :   0.1029 B(  6-S , 15-O ) :   1.4963 B(  6-S , 16-O ) :   1.4723
B(  6-S , 17-F ) :   0.6043 B(  7-C ,  8-C ) :   1.5003 B(  7-C ,  9-N ) :   0.9932
B(  7-C , 11-H ) :  -0.1280 B(  7-C , 12-H ) :  -0.2126 B(  7-C , 13-H ) :   0.1061
B(  7-C , 14-H ) :   0.1854 B(  8-C ,  9-N ) :   0.1661 B(  8-C , 13-H ) :   0.8273
B(  8-C , 14-H ) :   0.8166 B(  9-N , 10-H ) :   1.0199 B(  9-N , 11-H ) :   1.2056
B(  9-N , 20-H ) :   0.1082 B( 10-H , 11-H ) :  -0.1968 B( 13-H , 14-H ) :   0.1521
B( 20-H , 21-H ) :  -0.1254

Dispersion correction           -0.021677976
FINAL SINGLE POINT ENERGY      -953.794103451031

DIPOLE MOMENT
-------------
                                X             Y             Z
Electronic contribution:    -14.60650      -2.42003      -2.87780
Nuclear contribution   :     14.93782       3.36795       3.35075
                        -----------------------------------------
Total Dipole Moment    :      0.33132       0.94792       0.47295
                        -----------------------------------------
Magnitude (a.u.)       :      1.10996
Magnitude (Debye)      :      2.82129

Rotational constants in cm-1:     0.059219     0.021387     0.018380
Rotational constants in MHz :  1775.354399   641.172207   551.019443

                             ****ORCA TERMINATED NORMALLY****
TOTAL RUN TIME: 0 days 0 hours 1 minutes 18 seconds 190 msec
