                         Program Version 5.0.0 -  RELEASE  -
|  1> !BLYP D3BJ RIJCOSX def2-TZVPD def2/J TightSCF
|  2> *xyz -1 1
|  3> C         -7.33044       -2.67899       -3.20681
|  4> S         -6.01966       -2.92697       -4.41913
|  5> O         -5.64583       -1.58838       -4.91931
|  6> O         -4.88196       -3.50370       -3.66724
|  7> O         -6.54927       -3.80515       -5.42507
|  8> C         -7.46900       -1.24615       -2.71383
|  9> H         -7.11825       -3.37982       -2.39805
| 10> H         -8.24184       -3.00474       -3.70651
| 11> H         -7.67580       -0.60214       -3.54292
| 12> H         -6.55749       -0.94096       -2.24382
| 13> H         -8.27114       -1.18777       -2.00810
| 14> *
| 15> %MaxCore 64000
| 16>
| 17> %pal nprocs 4
| 18> end
| 19>
| 20> %scf
| 21>   MaxIter 150
| 22> end
| 23>
| 24>
| 25>                          ****END OF INPUT****

CARTESIAN COORDINATES (ANGSTROEM)
---------------------------------
  C     -7.330440   -2.678990   -3.206810
  S     -6.019660   -2.926970   -4.419130
  O     -5.645830   -1.588380   -4.919310
  O     -4.881960   -3.503700   -3.667240
  O     -6.549270   -3.805150   -5.425070
  C     -7.469000   -1.246150   -2.713830
  H     -7.118250   -3.379820   -2.398050
  H     -8.241840   -3.004740   -3.706510
  H     -7.675800   -0.602140   -3.542920
  H     -6.557490   -0.940960   -2.243820
  H     -8.271140   -1.187770   -2.008100

 Total Charge           Charge          ....   -1
 Multiplicity           Mult            ....    1
 Number of Electrons    NEL             ....   58
 Basis Dimension        Dim             ....  285

ORBITAL ENERGIES
----------------

  NO   OCC          E(Eh)            E(eV)
   0   2.0000     -88.079027     -2396.7522
   1   2.0000     -18.554802      -504.9018
   2   2.0000     -18.544806      -504.6298
   3   2.0000     -18.541575      -504.5419
   4   2.0000      -9.765382      -265.7295
   5   2.0000      -9.759121      -265.5592
   6   2.0000      -7.610051      -207.0800
   7   2.0000      -5.638544      -153.4326
   8   2.0000      -5.637803      -153.4124
   9   2.0000      -5.637555      -153.4057
  10   2.0000      -0.822344       -22.3771
  11   2.0000      -0.696842       -18.9620
  12   2.0000      -0.675656       -18.3855
  13   2.0000      -0.554984       -15.1019
  14   2.0000      -0.437655       -11.9092
  15   2.0000      -0.319152        -8.6846
  16   2.0000      -0.266807        -7.2602
  17   2.0000      -0.254905        -6.9363
  18   2.0000      -0.219958        -5.9854
  19   2.0000      -0.200956        -5.4683
  20   2.0000      -0.198729        -5.4077
  21   2.0000      -0.179028        -4.8716
  22   2.0000      -0.172042        -4.6815
  23   2.0000      -0.097534        -2.6540
  24   2.0000      -0.094780        -2.5791
  25   2.0000      -0.067718        -1.8427
  26   2.0000      -0.059598        -1.6217
  27   2.0000      -0.049236        -1.3398
  28   2.0000      -0.013612        -0.3704
  29   0.0000       0.108008         2.9390
  30   0.0000       0.134077         3.6484
  31   0.0000       0.142927         3.8892
  32   0.0000       0.152682         4.1547
  33   0.0000       0.168997         4.5986

MULLIKEN ATOMIC CHARGES
-----------------------
   0 C :   -0.441737
   1 S :    1.240349
   2 O :   -0.732877
   3 O :   -0.741522
   4 O :   -0.694623
   5 C :   -1.066024
   6 H :    0.266423
   7 H :    0.262729
   8 H :    0.285004
   9 H :    0.285983
  10 H :    0.336295
Sum of atomic charges:   -1.0000000

LOEWDIN ATOMIC CHARGES
----------------------
   0 C :   -0.321578
   1 S :    0.337778
   2 O :   -0.392867
   3 O :   -0.407106
   4 O :   -0.373878
   5 C :   -0.148318
   6 H :    0.075394
   7 H :    0.071120
   8 H :    0.053935
   9 H :    0.060552
  10 H :    0.044967

  Mayer bond orders larger than 0.100000
B(  0-C ,  1-S ) :   0.9127 B(  0-C ,  2-O ) :   0.1053 B(  0-C ,  3-O ) :   0.1415
B(  0-C ,  4-O ) :   0.1490 B(  0-C ,  5-C ) :   0.5392 B(  0-C ,  6-H ) :   0.9595
B(  0-C ,  7-H ) :   0.9603 B(  1-S ,  2-O ) :   1.4361 B(  1-S ,  3-O ) :   1.4518
B(  1-S ,  4-O ) :   1.4748 B(  5-C ,  8-H ) :   0.9945 B(  5-C ,  9-H ) :   0.9812
B(  5-C , 10-H ) :   0.9087

Dispersion correction           -0.020460062
FINAL SINGLE POINT ENERGY      -703.245996852064

DIPOLE MOMENT
-------------
                                X             Y             Z
Electronic contribution:      4.74813      -3.52710      -5.15603
Nuclear contribution   :     -6.18165       4.01759       6.33106
                        -----------------------------------------
Total Dipole Moment    :     -1.43352       0.49050       1.17503
                        -----------------------------------------
Magnitude (a.u.)       :      1.91736
Magnitude (Debye)      :      4.87353

Rotational constants in cm-1:     0.161711     0.082788     0.081165
Rotational constants in MHz :  4847.971521  2481.906910  2433.276832

                             ****ORCA TERMINATED NORMALLY****
TOTAL RUN TIME: 0 days 0 hours 0 minutes 17 seconds 786 msec
