                         Program Version 5.0.0 -  RELEASE  -
|  1> !BLYP D3BJ RIJCOSX def2-TZVPD def2/J TightSCF
|  2> *xyz 1 1
|  3> C         -2.16038       -1.36949       -3.46710
|  4> N         -3.03011       -1.91086       -4.54107
|  5> C         -2.04772        0.14658       -3.51177
|  6> H         -3.47744       -2.79151       -4.25710
|  7> H         -2.53801       -2.01786       -5.43808
|  8> H         -3.89159       -1.37604       -4.71437
|  9> H         -1.18444       -1.84400       -3.56639
| 10> H         -2.59819       -1.70838       -2.52848
| 11> H         -1.61525        0.44478       -4.44395
| 12> H         -1.42718        0.48198       -2.70720
| 13> H         -3.02145        0.57958       -3.41560
| 14> *
| 15> %MaxCore 64000
| 16>
| 17> %pal nprocs 4
| 18> end
| 19>
| 20> %scf
| 21>   MaxIter 150
| 22> end
| 23>
| 24>
| 25>                          ****END OF INPUT****

CARTESIAN COORDINATES (ANGSTROEM)
---------------------------------
  C     -2.160380   -1.369490   -3.467100
  N     -3.030110   -1.910860   -4.541070
  C     -2.047720    0.146580   -3.511770
  H     -3.477440   -2.791510   -4.257100
  H     -2.538010   -2.017860   -5.438080
  H     -3.891590   -1.376040   -4.714370
  H     -1.184440   -1.844000   -3.566390
  H     -2.598190   -1.708380   -2.528480
  H     -1.615250    0.444780   -4.443950
  H     -1.427180    0.481980   -2.707200
  H     -3.021450    0.579580   -3.415600

 Total Charge           Charge          ....    1
 Multiplicity           Mult            ....    1
 Number of Electrons    NEL             ....   26
 Basis Dimension        Dim             ....  183

ORBITAL ENERGIES
----------------

  NO   OCC          E(Eh)            E(eV)
   0   2.0000     -14.338803      -390.1787
   1   2.0000     -10.157859      -276.4094
   2   2.0000     -10.078515      -274.2503
   3   2.0000      -1.130675       -30.7672
   4   2.0000      -0.892275       -24.2800
   5   2.0000      -0.781481       -21.2652
   6   2.0000      -0.753714       -20.5096
   7   2.0000      -0.714771       -19.4499
   8   2.0000      -0.648957       -17.6590
   9   2.0000      -0.592701       -16.1282
  10   2.0000      -0.536129       -14.5888
  11   2.0000      -0.522702       -14.2234
  12   2.0000      -0.505912       -13.7666
  13   0.0000      -0.227178        -6.1818
  14   0.0000      -0.169304        -4.6070
  15   0.0000      -0.167968        -4.5707
  16   0.0000      -0.153433        -4.1751
  17   0.0000      -0.123579        -3.3627

MULLIKEN ATOMIC CHARGES
-----------------------
   0 C :   -0.255497
   1 N :   -0.246774
   2 C :   -1.127696
   3 H :    0.323463
   4 H :    0.323019
   5 H :    0.309010
   6 H :    0.306333
   7 H :    0.299544
   8 H :    0.360323
   9 H :    0.336346
  10 H :    0.371929
Sum of atomic charges:    1.0000000

LOEWDIN ATOMIC CHARGES
----------------------
   0 C :   -0.194872
   1 N :    0.184548
   2 C :   -0.043550
   3 H :    0.176881
   4 H :    0.182194
   5 H :    0.176015
   6 H :    0.135101
   7 H :    0.132413
   8 H :    0.080726
   9 H :    0.090678
  10 H :    0.079866

  Mayer bond orders larger than 0.100000
B(  0-C ,  1-N ) :   0.9288 B(  0-C ,  2-C ) :   0.6099 B(  0-C ,  6-H ) :   0.9258
B(  0-C ,  7-H ) :   0.8960 B(  1-N ,  3-H ) :   0.8834 B(  1-N ,  4-H ) :   0.8768
B(  1-N ,  5-H ) :   0.8856 B(  2-C ,  8-H ) :   0.9427 B(  2-C ,  9-H ) :   0.9600
B(  2-C , 10-H ) :   0.9040

Dispersion correction           -0.012374211
FINAL SINGLE POINT ENERGY      -135.516778814591

DIPOLE MOMENT
-------------
                                X             Y             Z
Electronic contribution:     -0.62684      -1.46326      -0.75458
Nuclear contribution   :     -0.15215       0.37393      -0.04773
                        -----------------------------------------
Total Dipole Moment    :     -0.77898      -1.08933      -0.80231
                        -----------------------------------------
Magnitude (a.u.)       :      1.56113
Magnitude (Debye)      :      3.96809

Rotational constants in cm-1:     1.020762     0.277172     0.247319
Rotational constants in MHz : 30601.664035  8309.399682  7414.438136

                             ****ORCA TERMINATED NORMALLY****
TOTAL RUN TIME: 0 days 0 hours 0 minutes 9 seconds 210 msec
