                         Program Version 5.0.0 -  RELEASE  -
|  1> !BLYP D3BJ RIJCOSX def2-TZVPD def2/J TightSCF xyzfile
|  2>
|  3> *xyzfile 0 1 B.xyz
|  4>
|  5> %MaxCore 64000
|  6>
|  7> %pal nprocs 4
|  8> end
|  9>
| 10> %scf
| 11>   MaxIter 150
| 12> end
| 13>
| 14>
| 15>                          ****END OF INPUT****

CARTESIAN COORDINATES (ANGSTROEM)
---------------------------------
  C     -2.160376   -1.369486   -3.467104
  N     -3.030108   -1.910857   -4.541074
  C     -2.047717    0.146583   -3.511774
  C     -7.330440   -2.678991   -3.206811
  S     -6.019659   -2.926965   -4.419128
  H     -3.477443   -2.791513   -4.257096
  H     -2.538013   -2.017860   -5.438075
  H     -3.891589   -1.376039   -4.714365
  O     -5.645830   -1.588384   -4.919307
  O     -4.881961   -3.503697   -3.667235
  H     -1.184438   -1.843997   -3.566393
  H     -2.598195   -1.708376   -2.528477
  O     -6.549267   -3.805150   -5.425071
  C     -3.328755    0.875037   -3.103669
  H     -1.740034    0.452343   -4.517126
  H     -1.232611    0.434938   -2.842208
  C     -3.628487    0.771601   -1.609363
  H     -4.175106    0.490791   -3.682203
  H     -3.237812    1.928663   -3.381480
  C     -4.975718    1.361432   -1.190644
  H     -2.830700    1.276234   -1.054766
  H     -3.594312   -0.275838   -1.294603
  C     -6.184720    0.784347   -1.926464
  H     -4.956292    2.445725   -1.342200
  H     -5.097256    1.205252   -0.114136
  C     -6.286921   -0.735882   -1.893531
  H     -6.163994    1.100199   -2.974250
  H     -7.094530    1.223459   -1.504509
  C     -7.468999   -1.246153   -2.713833
  H     -6.360641   -1.090347   -0.859176
  H     -5.369848   -1.171853   -2.295982
  H     -7.601914   -0.601349   -3.585329
  H     -8.389791   -1.173436   -2.126922
  H     -7.118254   -3.379818   -2.398055
  H     -8.241838   -3.004745   -3.706513

 Total Charge           Charge          ....    0
 Multiplicity           Mult            ....    1
 Number of Electrons    NEL             ....  122
 Basis Dimension        Dim             ....  725

ORBITAL ENERGIES
----------------

  NO   OCC          E(Eh)            E(eV)
   0   2.0000     -88.246638     -2401.3131
   1   2.0000     -18.724353      -509.5155
   2   2.0000     -18.724318      -509.5146
   3   2.0000     -18.710483      -509.1381
   4   2.0000     -14.105237      -383.8230
   5   2.0000      -9.985605      -271.7221
   6   2.0000      -9.939725      -270.4737
   7   2.0000      -9.919929      -269.9350
   8   2.0000      -9.911791      -269.7135
   9   2.0000      -9.904033      -269.5024
  10   2.0000      -9.903635      -269.4916
  11   2.0000      -9.896467      -269.2966
  12   2.0000      -9.895240      -269.2632
  13   2.0000      -9.892574      -269.1906
  14   2.0000      -7.778614      -211.6668
  15   2.0000      -5.807463      -158.0291
  16   2.0000      -5.806289      -157.9972
  17   2.0000      -5.805556      -157.9772
  18   2.0000      -0.996915       -27.1274
  19   2.0000      -0.917031       -24.9537
  20   2.0000      -0.864366       -23.5206
  21   2.0000      -0.862001       -23.4562
  22   2.0000      -0.755452       -20.5569
  23   2.0000      -0.727291       -19.7906
  24   2.0000      -0.703182       -19.1346
  25   2.0000      -0.663674       -18.0595
  26   2.0000      -0.633460       -17.2373
  27   2.0000      -0.593177       -16.1412
  28   2.0000      -0.558915       -15.2088
  29   2.0000      -0.547557       -14.8998
  30   2.0000      -0.532046       -14.4777
  31   2.0000      -0.511801       -13.9268
  32   2.0000      -0.500095       -13.6083
  33   2.0000      -0.475189       -12.9306
  34   2.0000      -0.461111       -12.5475
  35   2.0000      -0.435455       -11.8493
  36   2.0000      -0.433063       -11.7842
  37   2.0000      -0.417367       -11.3571
  38   2.0000      -0.404515       -11.0074
  39   2.0000      -0.391664       -10.6577
  40   2.0000      -0.388705       -10.5772
  41   2.0000      -0.379831       -10.3357
  42   2.0000      -0.379323       -10.3219
  43   2.0000      -0.364942        -9.9306
  44   2.0000      -0.356180        -9.6921
  45   2.0000      -0.351606        -9.5677
  46   2.0000      -0.340328        -9.2608
  47   2.0000      -0.330543        -8.9945
  48   2.0000      -0.323807        -8.8112
  49   2.0000      -0.310598        -8.4518
  50   2.0000      -0.302714        -8.2373
  51   2.0000      -0.292699        -7.9647
  52   2.0000      -0.280738        -7.6393
  53   2.0000      -0.278603        -7.5812
  54   2.0000      -0.274284        -7.4636
  55   2.0000      -0.267741        -7.2856
  56   2.0000      -0.265616        -7.2278
  57   2.0000      -0.233924        -6.3654
  58   2.0000      -0.230511        -6.2725
  59   2.0000      -0.220183        -5.9915
  60   2.0000      -0.192956        -5.2506
  61   0.0000      -0.044996        -1.2244
  62   0.0000      -0.016085        -0.4377
  63   0.0000      -0.010084        -0.2744
  64   0.0000      -0.003777        -0.1028
  65   0.0000       0.007386         0.2010

MULLIKEN ATOMIC CHARGES
-----------------------
   0 C :   -0.579406
   1 N :   -0.085370
   2 C :   -0.503799
   3 C :   -0.924847
   4 S :    1.407825
   5 H :    0.393854
   6 H :    0.280000
   7 H :    0.263432
   8 O :   -0.878401
   9 O :   -0.871899
  10 H :    0.314845
  11 H :    0.289152
  12 O :   -0.658883
  13 C :   -0.296243
  14 H :    0.255231
  15 H :    0.298868
  16 C :   -0.419267
  17 H :    0.166529
  18 H :    0.258419
  19 C :   -0.754015
  20 H :    0.296330
  21 H :    0.224239
  22 C :   -0.668625
  23 H :    0.249810
  24 H :    0.277259
  25 C :   -0.069245
  26 H :    0.290431
  27 H :    0.280855
  28 C :   -0.521428
  29 H :    0.292521
  30 H :    0.169852
  31 H :    0.264747
  32 H :    0.337633
  33 H :    0.332075
  34 H :    0.287519
Sum of atomic charges:   -0.0000000

LOEWDIN ATOMIC CHARGES
----------------------
   0 C :   -0.156819
   1 N :    0.151736
   2 C :   -0.180294
   3 C :   -0.232487
   4 S :    0.440783
   5 H :    0.070425
   6 H :    0.170359
   7 H :    0.077468
   8 O :   -0.357467
   9 O :   -0.362818
  10 H :    0.123272
  11 H :    0.119772
  12 O :   -0.301881
  13 C :   -0.196324
  14 H :    0.112249
  15 H :    0.114958
  16 C :   -0.210157
  17 H :    0.094765
  18 H :    0.119112
  19 C :   -0.201164
  20 H :    0.112344
  21 H :    0.097281
  22 C :   -0.209608
  23 H :    0.106947
  24 H :    0.107688
  25 C :   -0.212010
  26 H :    0.107025
  27 H :    0.113436
  28 C :   -0.231450
  29 H :    0.122723
  30 H :    0.081486
  31 H :    0.105062
  32 H :    0.112872
  33 H :    0.097915
  34 H :    0.092801

  Mayer bond orders larger than 0.100000
B(  0-C ,  1-N ) :   0.8787 B(  0-C ,  2-C ) :   0.8064 B(  0-C , 10-H ) :   0.8443
B(  0-C , 11-H ) :   0.8804 B(  0-C , 16-C ) :   0.1005 B(  1-N ,  5-H ) :   0.7738
B(  1-N ,  6-H ) :   0.8457 B(  1-N ,  7-H ) :   0.9240 B(  2-C , 13-C ) :   0.7969
B(  2-C , 14-H ) :   0.9508 B(  2-C , 15-H ) :   0.9185 B(  2-C , 16-C ) :   0.1406
B(  3-C ,  4-S ) :   0.9817 B(  3-C ,  9-O ) :   0.1485 B(  3-C , 12-O ) :   0.1913
B(  3-C , 25-C ) :   0.1143 B(  3-C , 28-C ) :   0.7019 B(  3-C , 33-H ) :   0.8619
B(  3-C , 34-H ) :   1.0219 B(  4-S ,  8-O ) :   1.3524 B(  4-S ,  9-O ) :   1.2740
B(  4-S , 12-O ) :   1.2841 B(  8-O ,  9-O ) :   0.1284 B( 13-C , 16-C ) :   0.2374
B( 13-C , 17-H ) :   1.1127 B( 13-C , 18-H ) :   0.9241 B( 13-C , 19-C ) :   0.1226
B( 13-C , 20-H ) :  -0.1061 B( 13-C , 21-H ) :  -0.1506 B( 13-C , 22-C ) :   0.1373
B( 16-C , 19-C ) :   0.8907 B( 16-C , 20-H ) :   0.9239 B( 16-C , 21-H ) :   1.0347
B( 16-C , 25-C ) :   0.1502 B( 19-C , 22-C ) :   0.8410 B( 19-C , 23-H ) :   0.9898
B( 19-C , 24-H ) :   0.9358 B( 22-C , 25-C ) :   0.3214 B( 22-C , 26-H ) :   0.9702
B( 22-C , 27-H ) :   0.9084 B( 22-C , 28-C ) :   0.4638 B( 22-C , 30-H ) :  -0.1028
B( 25-C , 26-H ) :  -0.1123 B( 25-C , 28-C ) :   0.4524 B( 25-C , 29-H ) :   0.7749
B( 25-C , 30-H ) :   1.4296 B( 28-C , 29-H ) :  -0.1303 B( 28-C , 31-H ) :   0.8860
B( 28-C , 32-H ) :   0.9359 B( 28-C , 34-H ) :  -0.1068 B( 29-H , 30-H ) :   0.1423

Dispersion correction           -0.083587264
FINAL SINGLE POINT ENERGY     -1034.297694141371

DIPOLE MOMENT
-------------
                                X             Y             Z
Electronic contribution:     -6.01049     -15.25058     -11.45843
Nuclear contribution   :      8.59301      16.99497      12.41069
                        -----------------------------------------
Total Dipole Moment    :      2.58252       1.74439       0.95226
                        -----------------------------------------
Magnitude (a.u.)       :      3.25870
Magnitude (Debye)      :      8.28295

Rotational constants in cm-1:     0.025617     0.015295     0.010641
Rotational constants in MHz :   767.991150   458.522408   319.013093

                             ****ORCA TERMINATED NORMALLY****
TOTAL RUN TIME: 0 days 0 hours 1 minutes 43 seconds 187 msec
