                         Program Version 5.0.0 -  RELEASE  -
|  1> !BLYP D3BJ RIJCOSX def2-TZVPD def2/J TightSCF
|  2> *xyz 0 1
|  3> C         -7.33044       -2.67899       -3.20681
|  4> S         -6.01966       -2.92697       -4.41913
|  5> F         -5.64583       -1.58838       -4.91931
|  6> O         -4.88196       -3.50370       -3.66724
|  7> O         -6.54927       -3.80515       -5.42507
|  8> C         -7.46900       -1.24615       -2.71383
|  9> H         -7.11825       -3.37982       -2.39805
| 10> H         -8.24184       -3.00474       -3.70651
| 11> H         -7.67580       -0.60214       -3.54292
| 12> H         -6.55749       -0.94096       -2.24382
| 13> H         -8.27114       -1.18777       -2.00810
| 14> *
| 15> %MaxCore 64000
| 16>
| 17> %pal nprocs 4
| 18> end
| 19>
| 20> %scf
| 21>   MaxIter 150
| 22> end
| 23>
| 24>
| 25>                          ****END OF INPUT****

CARTESIAN COORDINATES (ANGSTROEM)
---------------------------------
  C     -7.330440   -2.678990   -3.206810
  S     -6.019660   -2.926970   -4.419130
  F     -5.645830   -1.588380   -4.919310
  O     -4.881960   -3.503700   -3.667240
  O     -6.549270   -3.805150   -5.425070
  C     -7.469000   -1.246150   -2.713830
  H     -7.118250   -3.379820   -2.398050
  H     -8.241840   -3.004740   -3.706510
  H     -7.675800   -0.602140   -3.542920
  H     -6.557490   -0.940960   -2.243820
  H     -8.271140   -1.187770   -2.008100

 Total Charge           Charge          ....    0
 Multiplicity           Mult            ....    1
 Number of Electrons    NEL             ....   58
 Basis Dimension        Dim             ....  285

ORBITAL ENERGIES
----------------

  NO   OCC          E(Eh)            E(eV)
   0   2.0000     -88.334722     -2403.7100
   1   2.0000     -24.384604      -663.5388
   2   2.0000     -18.786797      -511.2147
   3   2.0000     -18.773127      -510.8428
   4   2.0000      -9.965161      -271.1658
   5   2.0000      -9.930036      -270.2100
   6   2.0000      -7.866376      -214.0550
   7   2.0000      -5.898722      -160.5124
   8   2.0000      -5.891845      -160.3252
   9   2.0000      -5.891717      -160.3218
  10   2.0000      -1.243517       -33.8378
  11   2.0000      -1.010646       -27.5011
  12   2.0000      -0.916192       -24.9308
  13   2.0000      -0.748813       -20.3762
  14   2.0000      -0.651568       -17.7301
  15   2.0000      -0.607370       -16.5274
  16   2.0000      -0.519853       -14.1459
  17   2.0000      -0.497822       -13.5464
  18   2.0000      -0.480295       -13.0695
  19   2.0000      -0.445391       -12.1197
  20   2.0000      -0.417506       -11.3609
  21   2.0000      -0.397535       -10.8175
  22   2.0000      -0.389656       -10.6031
  23   2.0000      -0.367847       -10.0096
  24   2.0000      -0.352514        -9.5924
  25   2.0000      -0.334217        -9.0945
  26   2.0000      -0.289273        -7.8715
  27   2.0000      -0.274581        -7.4717
  28   2.0000      -0.260995        -7.1020
  29   0.0000      -0.038911        -1.0588
  30   0.0000      -0.001285        -0.0350
  31   0.0000       0.006452         0.1756
  32   0.0000       0.011126         0.3028
  33   0.0000       0.018131         0.4934

MULLIKEN ATOMIC CHARGES
-----------------------
   0 C :   -0.342897
   1 S :    1.196483
   2 F :   -0.179232
   3 O :   -0.589354
   4 O :   -0.551243
   5 C :   -1.159680
   6 H :    0.308391
   7 H :    0.306934
   8 H :    0.341187
   9 H :    0.344416
  10 H :    0.324996
Sum of atomic charges:    0.0000000

LOEWDIN ATOMIC CHARGES
----------------------
   0 C :   -0.269742
   1 S :    0.581213
   2 F :   -0.070280
   3 O :   -0.286754
   4 O :   -0.255594
   5 C :   -0.109505
   6 H :    0.103483
   7 H :    0.095152
   8 H :    0.066715
   9 H :    0.072975
  10 H :    0.072336

  Mayer bond orders larger than 0.100000
B(  0-C ,  1-S ) :   0.8807 B(  0-C ,  3-O ) :   0.1057 B(  0-C ,  4-O ) :   0.1193
B(  0-C ,  5-C ) :   0.5483 B(  0-C ,  6-H ) :   0.9247 B(  0-C ,  7-H ) :   0.9274
B(  1-S ,  2-F ) :   0.9937 B(  1-S ,  3-O ) :   1.6410 B(  1-S ,  4-O ) :   1.6732
B(  3-O ,  4-O ) :   0.1154 B(  5-C ,  8-H ) :   0.9306 B(  5-C ,  9-H ) :   0.9415
B(  5-C , 10-H ) :   0.9411

Dispersion correction           -0.019416574
FINAL SINGLE POINT ENERGY      -727.783155429682

DIPOLE MOMENT
-------------
                                X             Y             Z
Electronic contribution:      5.69027      -1.76192      -6.40603
Nuclear contribution   :     -6.81251       2.87933       7.15058
                        -----------------------------------------
Total Dipole Moment    :     -1.12224       1.11741       0.74454
                        -----------------------------------------
Magnitude (a.u.)       :      1.74997
Magnitude (Debye)      :      4.44806

Rotational constants in cm-1:     0.152543     0.082494     0.078987
Rotational constants in MHz :  4573.135887  2473.116216  2367.980829

                             ****ORCA TERMINATED NORMALLY****
TOTAL RUN TIME: 0 days 0 hours 0 minutes 17 seconds 153 msec
