                         Program Version 5.0.0 -  RELEASE  -
|  1> !BLYP D3BJ RIJCOSX def2-TZVPD def2/J TightSCF
|  2> *xyz 0 1
|  3> C         -2.16038       -1.36949       -3.46710
|  4> C         -3.03011       -1.91086       -4.54107
|  5> C         -2.04772        0.14658       -3.51177
|  6> H         -3.47744       -2.79151       -4.25710
|  7> H         -2.53801       -2.01786       -5.43808
|  8> H         -3.89159       -1.37604       -4.71437
|  9> H         -1.18444       -1.84400       -3.56639
| 10> H         -2.59819       -1.70838       -2.52848
| 11> H         -1.61525        0.44478       -4.44395
| 12> H         -1.42718        0.48198       -2.70720
| 13> H         -3.02145        0.57958       -3.41560
| 14> *
| 15> %MaxCore 64000
| 16>
| 17> %pal nprocs 4
| 18> end
| 19>
| 20> %scf
| 21>   MaxIter 150
| 22> end
| 23>
| 24>
| 25>                          ****END OF INPUT****

CARTESIAN COORDINATES (ANGSTROEM)
---------------------------------
  C     -2.160380   -1.369490   -3.467100
  C     -3.030110   -1.910860   -4.541070
  C     -2.047720    0.146580   -3.511770
  H     -3.477440   -2.791510   -4.257100
  H     -2.538010   -2.017860   -5.438080
  H     -3.891590   -1.376040   -4.714370
  H     -1.184440   -1.844000   -3.566390
  H     -2.598190   -1.708380   -2.528480
  H     -1.615250    0.444780   -4.443950
  H     -1.427180    0.481980   -2.707200
  H     -3.021450    0.579580   -3.415600

 Total Charge           Charge          ....    0
 Multiplicity           Mult            ....    1
 Number of Electrons    NEL             ....   26
 Basis Dimension        Dim             ....  183

ORBITAL ENERGIES
----------------

  NO   OCC          E(Eh)            E(eV)
   0   2.0000      -9.890446      -269.1327
   1   2.0000      -9.881312      -268.8842
   2   2.0000      -9.863543      -268.4006
   3   2.0000      -0.710198       -19.3255
   4   2.0000      -0.618491       -16.8300
   5   2.0000      -0.523437       -14.2434
   6   2.0000      -0.415924       -11.3179
   7   2.0000      -0.387488       -10.5441
   8   2.0000      -0.352628        -9.5955
   9   2.0000      -0.345416        -9.3992
  10   2.0000      -0.295493        -8.0408
  11   2.0000      -0.284230        -7.7343
  12   2.0000      -0.283265        -7.7080
  13   0.0000      -0.002926        -0.0796
  14   0.0000       0.022306         0.6070
  15   0.0000       0.025687         0.6990
  16   0.0000       0.041692         1.1345
  17   0.0000       0.065759         1.7894

MULLIKEN ATOMIC CHARGES
-----------------------
   0 C :    0.040849
   1 C :   -1.393256
   2 C :   -1.133881
   3 H :    0.391040
   4 H :    0.346615
   5 H :    0.387938
   6 H :    0.214660
   7 H :    0.223255
   8 H :    0.307939
   9 H :    0.306389
  10 H :    0.308451
Sum of atomic charges:   -0.0000000

LOEWDIN ATOMIC CHARGES
----------------------
   0 C :   -0.307298
   1 C :   -0.124725
   2 C :   -0.106245
   3 H :    0.048501
   4 H :    0.054387
   5 H :    0.050740
   6 H :    0.101108
   7 H :    0.099420
   8 H :    0.063888
   9 H :    0.057336
  10 H :    0.062887

  Mayer bond orders larger than 0.100000
B(  0-C ,  1-C ) :   0.5791 B(  0-C ,  2-C ) :   0.5830 B(  0-C ,  6-H ) :   0.9830
B(  0-C ,  7-H ) :   0.9857 B(  1-C ,  2-C ) :   0.1003 B(  1-C ,  3-H ) :   0.8883
B(  1-C ,  4-H ) :   0.9317 B(  1-C ,  5-H ) :   0.9117 B(  2-C ,  8-H ) :   0.9725
B(  2-C ,  9-H ) :   0.9727 B(  2-C , 10-H ) :   0.9675

Dispersion correction           -0.012458250
FINAL SINGLE POINT ENERGY      -119.094340683489

DIPOLE MOMENT
-------------
                                X             Y             Z
Electronic contribution:      0.32034      -0.13121       0.27657
Nuclear contribution   :     -0.34625       0.09603      -0.26933
                        -----------------------------------------
Total Dipole Moment    :     -0.02591      -0.03518       0.00724
                        -----------------------------------------
Magnitude (a.u.)       :      0.04428
Magnitude (Debye)      :      0.11256

Rotational constants in cm-1:     1.028617     0.291238     0.258956
Rotational constants in MHz : 30837.159054  8731.095379  7763.318586

                             ****ORCA TERMINATED NORMALLY****
TOTAL RUN TIME: 0 days 0 hours 0 minutes 9 seconds 8 msec
