                         Program Version 5.0.0 -  RELEASE  -
|  1> !BLYP D3BJ RIJCOSX def2-TZVPD def2/J TightSCF
|  2> *xyz 0 1
|  3> C         -7.33044       -2.67899       -3.20681
|  4> S         -6.01966       -2.92697       -4.41913
|  5> O         -5.64583       -1.58838       -4.91931
|  6> F         -4.88196       -3.50370       -3.66724
|  7> O         -6.54927       -3.80515       -5.42507
|  8> C         -7.46900       -1.24615       -2.71383
|  9> H         -7.11825       -3.37982       -2.39805
| 10> H         -8.24184       -3.00474       -3.70651
| 11> H         -7.67580       -0.60214       -3.54292
| 12> H         -6.55749       -0.94096       -2.24382
| 13> H         -8.27114       -1.18777       -2.00810
| 14> *
| 15> %MaxCore 64000
| 16>
| 17> %pal nprocs 4
| 18> end
| 19>
| 20> %scf
| 21>   MaxIter 150
| 22> end
| 23>
| 24>
| 25>                          ****END OF INPUT****

CARTESIAN COORDINATES (ANGSTROEM)
---------------------------------
  C     -7.330440   -2.678990   -3.206810
  S     -6.019660   -2.926970   -4.419130
  O     -5.645830   -1.588380   -4.919310
  F     -4.881960   -3.503700   -3.667240
  O     -6.549270   -3.805150   -5.425070
  C     -7.469000   -1.246150   -2.713830
  H     -7.118250   -3.379820   -2.398050
  H     -8.241840   -3.004740   -3.706510
  H     -7.675800   -0.602140   -3.542920
  H     -6.557490   -0.940960   -2.243820
  H     -8.271140   -1.187770   -2.008100

 Total Charge           Charge          ....    0
 Multiplicity           Mult            ....    1
 Number of Electrons    NEL             ....   58
 Basis Dimension        Dim             ....  285

ORBITAL ENERGIES
----------------

  NO   OCC          E(Eh)            E(eV)
   0   2.0000     -88.334631     -2403.7075
   1   2.0000     -24.381840      -663.4636
   2   2.0000     -18.786735      -511.2131
   3   2.0000     -18.776075      -510.9230
   4   2.0000      -9.965427      -271.1731
   5   2.0000      -9.921688      -269.9828
   6   2.0000      -7.866298      -214.0528
   7   2.0000      -5.898582      -160.5086
   8   2.0000      -5.891898      -160.3267
   9   2.0000      -5.891567      -160.3177
  10   2.0000      -1.239876       -33.7387
  11   2.0000      -1.011551       -27.5257
  12   2.0000      -0.919392       -25.0179
  13   2.0000      -0.744707       -20.2645
  14   2.0000      -0.652223       -17.7479
  15   2.0000      -0.600966       -16.3531
  16   2.0000      -0.511350       -13.9146
  17   2.0000      -0.493907       -13.4399
  18   2.0000      -0.487392       -13.2626
  19   2.0000      -0.440506       -11.9868
  20   2.0000      -0.424316       -11.5462
  21   2.0000      -0.398666       -10.8483
  22   2.0000      -0.378756       -10.3065
  23   2.0000      -0.357292        -9.7224
  24   2.0000      -0.350302        -9.5322
  25   2.0000      -0.333725        -9.0811
  26   2.0000      -0.288966        -7.8632
  27   2.0000      -0.280143        -7.6231
  28   2.0000      -0.263666        -7.1747
  29   0.0000      -0.030894        -0.8407
  30   0.0000      -0.012645        -0.3441
  31   0.0000       0.003380         0.0920
  32   0.0000       0.011612         0.3160
  33   0.0000       0.021811         0.5935

MULLIKEN ATOMIC CHARGES
-----------------------
   0 C :   -0.442328
   1 S :    1.191635
   2 O :   -0.583700
   3 F :   -0.169692
   4 O :   -0.555996
   5 C :   -1.059774
   6 H :    0.343345
   7 H :    0.299880
   8 H :    0.318682
   9 H :    0.319601
  10 H :    0.338347
Sum of atomic charges:    0.0000000

LOEWDIN ATOMIC CHARGES
----------------------
   0 C :   -0.273119
   1 S :    0.583981
   2 O :   -0.277753
   3 F :   -0.075869
   4 O :   -0.256192
   5 C :   -0.107710
   6 H :    0.093825
   7 H :    0.098480
   8 H :    0.070736
   9 H :    0.072028
  10 H :    0.071594

  Mayer bond orders larger than 0.100000
B(  0-C ,  1-S ) :   0.9006 B(  0-C ,  4-O ) :   0.1286 B(  0-C ,  5-C ) :   0.5994
B(  0-C ,  6-H ) :   0.8706 B(  0-C ,  7-H ) :   0.9415 B(  1-S ,  2-O ) :   1.6288
B(  1-S ,  3-F ) :   0.9906 B(  1-S ,  4-O ) :   1.6712 B(  2-O ,  4-O ) :   0.1222
B(  5-C ,  8-H ) :   0.9778 B(  5-C ,  9-H ) :   0.9426 B(  5-C , 10-H ) :   0.9177

Dispersion correction           -0.019521601
FINAL SINGLE POINT ENERGY      -727.786192919430

DIPOLE MOMENT
-------------
                                X             Y             Z
Electronic contribution:      7.00514      -4.95972      -4.33679
Nuclear contribution   :     -7.60849       4.87515       5.84588
                        -----------------------------------------
Total Dipole Moment    :     -0.60335      -0.08457       1.50909
                        -----------------------------------------
Magnitude (a.u.)       :      1.62744
Magnitude (Debye)      :      4.13661

Rotational constants in cm-1:     0.153704     0.080342     0.079431
Rotational constants in MHz :  4607.928650  2408.599360  2381.267225

                             ****ORCA TERMINATED NORMALLY****
TOTAL RUN TIME: 0 days 0 hours 0 minutes 15 seconds 570 msec
