                         Program Version 5.0.0 -  RELEASE  -
|  1> !BLYP D3BJ RIJCOSX def2-TZVPD def2/J TightSCF
|  2> *xyz 0 1
|  3> C         -7.33044       -2.67899       -3.20681
|  4> S         -6.01966       -2.92697       -4.41913
|  5> O         -5.64583       -1.58838       -4.91931
|  6> O         -4.88196       -3.50370       -3.66724
|  7> F         -6.54927       -3.80515       -5.42507
|  8> C         -7.46900       -1.24615       -2.71383
|  9> H         -7.11825       -3.37982       -2.39805
| 10> H         -8.24184       -3.00474       -3.70651
| 11> H         -7.67580       -0.60214       -3.54292
| 12> H         -6.55749       -0.94096       -2.24382
| 13> H         -8.27114       -1.18777       -2.00810
| 14> *
| 15> %MaxCore 64000
| 16>
| 17> %pal nprocs 4
| 18> end
| 19>
| 20> %scf
| 21>   MaxIter 150
| 22> end
| 23>
| 24>
| 25>                          ****END OF INPUT****

CARTESIAN COORDINATES (ANGSTROEM)
---------------------------------
  C     -7.330440   -2.678990   -3.206810
  S     -6.019660   -2.926970   -4.419130
  O     -5.645830   -1.588380   -4.919310
  O     -4.881960   -3.503700   -3.667240
  F     -6.549270   -3.805150   -5.425070
  C     -7.469000   -1.246150   -2.713830
  H     -7.118250   -3.379820   -2.398050
  H     -8.241840   -3.004740   -3.706510
  H     -7.675800   -0.602140   -3.542920
  H     -6.557490   -0.940960   -2.243820
  H     -8.271140   -1.187770   -2.008100

 Total Charge           Charge          ....    0
 Multiplicity           Mult            ....    1
 Number of Electrons    NEL             ....   58
 Basis Dimension        Dim             ....  285

ORBITAL ENERGIES
----------------

  NO   OCC          E(Eh)            E(eV)
   0   2.0000     -88.337229     -2403.7782
   1   2.0000     -24.403404      -664.0504
   2   2.0000     -18.776442      -510.9330
   3   2.0000     -18.773667      -510.8575
   4   2.0000      -9.966146      -271.1926
   5   2.0000      -9.922004      -269.9914
   6   2.0000      -7.868763      -214.1199
   7   2.0000      -5.900971      -160.5736
   8   2.0000      -5.894358      -160.3936
   9   2.0000      -5.894007      -160.3841
  10   2.0000      -1.275564       -34.7099
  11   2.0000      -0.996449       -27.1148
  12   2.0000      -0.903333       -24.5809
  13   2.0000      -0.745056       -20.2740
  14   2.0000      -0.665605       -18.1120
  15   2.0000      -0.608022       -16.5451
  16   2.0000      -0.523754       -14.2521
  17   2.0000      -0.519464       -14.1353
  18   2.0000      -0.493876       -13.4390
  19   2.0000      -0.442046       -12.0287
  20   2.0000      -0.423863       -11.5339
  21   2.0000      -0.391205       -10.6452
  22   2.0000      -0.376091       -10.2339
  23   2.0000      -0.359303        -9.7771
  24   2.0000      -0.344919        -9.3857
  25   2.0000      -0.327054        -8.8996
  26   2.0000      -0.281291        -7.6543
  27   2.0000      -0.271958        -7.4003
  28   2.0000      -0.250657        -6.8207
  29   0.0000      -0.030670        -0.8346
  30   0.0000      -0.015237        -0.4146
  31   0.0000       0.003012         0.0820
  32   0.0000       0.012047         0.3278
  33   0.0000       0.021214         0.5773

MULLIKEN ATOMIC CHARGES
-----------------------
   0 C :   -0.435116
   1 S :    1.182712
   2 O :   -0.581079
   3 O :   -0.582251
   4 F :   -0.124380
   5 C :   -1.087043
   6 H :    0.311053
   7 H :    0.330517
   8 H :    0.317569
   9 H :    0.330133
  10 H :    0.337886
Sum of atomic charges:    0.0000000

LOEWDIN ATOMIC CHARGES
----------------------
   0 C :   -0.278255
   1 S :    0.582192
   2 O :   -0.278760
   3 O :   -0.285656
   4 F :   -0.042822
   5 C :   -0.102543
   6 H :    0.097670
   7 H :    0.089216
   8 H :    0.069081
   9 H :    0.077030
  10 H :    0.072848

  Mayer bond orders larger than 0.100000
B(  0-C ,  1-S ) :   0.8999 B(  0-C ,  2-O ) :   0.1002 B(  0-C ,  3-O ) :   0.1141
B(  0-C ,  5-C ) :   0.6194 B(  0-C ,  6-H ) :   0.9416 B(  0-C ,  7-H ) :   0.8690
B(  1-S ,  2-O ) :   1.6358 B(  1-S ,  3-O ) :   1.6487 B(  1-S ,  4-F ) :   1.0292
B(  2-O ,  3-O ) :   0.1180 B(  5-C ,  8-H ) :   0.9617 B(  5-C ,  9-H ) :   0.9509
B(  5-C , 10-H ) :   0.9084

Dispersion correction           -0.019550833
FINAL SINGLE POINT ENERGY      -727.768613558674

DIPOLE MOMENT
-------------
                                X             Y             Z
Electronic contribution:      4.21676      -5.44545      -7.27757
Nuclear contribution   :     -5.87110       5.18927       7.67759
                        -----------------------------------------
Total Dipole Moment    :     -1.65434      -0.25618       0.40003
                        -----------------------------------------
Magnitude (a.u.)       :      1.72118
Magnitude (Debye)      :      4.37490

Rotational constants in cm-1:     0.155988     0.080452     0.078187
Rotational constants in MHz :  4676.405251  2411.902056  2343.983816

                             ****ORCA TERMINATED NORMALLY****
TOTAL RUN TIME: 0 days 0 hours 0 minutes 15 seconds 535 msec
