                         Program Version 5.0.0 -  RELEASE  -
|  1> !BLYP D3BJ RIJCOSX def2-TZVPD def2/J TightSCF xyzfile
|  2>
|  3> *xyzfile 0 1 D1.xyz
|  4>
|  5> %MaxCore 64000
|  6>
|  7> %pal nprocs 4
|  8> end
|  9>
| 10> %scf
| 11>   MaxIter 150
| 12> end
| 13>
| 14>
| 15>                          ****END OF INPUT****

CARTESIAN COORDINATES (ANGSTROEM)
---------------------------------
  C     -2.160376   -1.369486   -3.467104
  C     -3.030108   -1.910857   -4.541074
  C     -2.047717    0.146583   -3.511774
  C     -7.330440   -2.678991   -3.206811
  S     -6.019659   -2.926965   -4.419128
  H     -3.477443   -2.791513   -4.257096
  H     -2.538013   -2.017860   -5.438075
  H     -3.891589   -1.376039   -4.714365
  F     -5.645830   -1.588384   -4.919307
  O     -4.881961   -3.503697   -3.667235
  H     -1.184438   -1.843997   -3.566393
  H     -2.598195   -1.708376   -2.528477
  O     -6.549267   -3.805150   -5.425071
  C     -3.328755    0.875037   -3.103669
  H     -1.740034    0.452343   -4.517126
  H     -1.232611    0.434938   -2.842208
  C     -3.628487    0.771601   -1.609363
  H     -4.175106    0.490791   -3.682203
  H     -3.237812    1.928663   -3.381480
  C     -4.975718    1.361432   -1.190644
  H     -2.830700    1.276234   -1.054766
  H     -3.594312   -0.275838   -1.294603
  C     -6.184720    0.784347   -1.926464
  H     -4.956292    2.445725   -1.342200
  H     -5.097256    1.205252   -0.114136
  C     -6.286921   -0.735882   -1.893531
  H     -6.163994    1.100199   -2.974250
  H     -7.094530    1.223459   -1.504509
  C     -7.468999   -1.246153   -2.713833
  H     -6.360641   -1.090347   -0.859176
  H     -5.369848   -1.171853   -2.295982
  H     -7.601914   -0.601349   -3.585329
  H     -8.389791   -1.173436   -2.126922
  H     -7.118254   -3.379818   -2.398055
  H     -8.241838   -3.004745   -3.706513

 Total Charge           Charge          ....    0
 Multiplicity           Mult            ....    1
 Number of Electrons    NEL             ....  122
 Basis Dimension        Dim             ....  725

ORBITAL ENERGIES
----------------

  NO   OCC          E(Eh)            E(eV)
   0   2.0000     -88.338472     -2403.8120
   1   2.0000     -24.388200      -663.6367
   2   2.0000     -18.790575      -511.3175
   3   2.0000     -18.776145      -510.9249
   4   2.0000      -9.964032      -271.1351
   5   2.0000      -9.935525      -270.3594
   6   2.0000      -9.915342      -269.8102
   7   2.0000      -9.908134      -269.6140
   8   2.0000      -9.901569      -269.4354
   9   2.0000      -9.894925      -269.2546
  10   2.0000      -9.892629      -269.1921
  11   2.0000      -9.885486      -268.9977
  12   2.0000      -9.875773      -268.7334
  13   2.0000      -9.829797      -267.4824
  14   2.0000      -7.870551      -214.1686
  15   2.0000      -5.902825      -160.6240
  16   2.0000      -5.896106      -160.4412
  17   2.0000      -5.895740      -160.4312
  18   2.0000      -1.251241       -34.0480
  19   2.0000      -1.016327       -27.6557
  20   2.0000      -0.924879       -25.1672
  21   2.0000      -0.764190       -20.7947
  22   2.0000      -0.734268       -19.9805
  23   2.0000      -0.707829       -19.2610
  24   2.0000      -0.683101       -18.5881
  25   2.0000      -0.647582       -17.6216
  26   2.0000      -0.633668       -17.2430
  27   2.0000      -0.600184       -16.3318
  28   2.0000      -0.568919       -15.4811
  29   2.0000      -0.553545       -15.0627
  30   2.0000      -0.524580       -14.2745
  31   2.0000      -0.514748       -14.0070
  32   2.0000      -0.501934       -13.6583
  33   2.0000      -0.488998       -13.3063
  34   2.0000      -0.484074       -13.1723
  35   2.0000      -0.441782       -12.0215
  36   2.0000      -0.435595       -11.8532
  37   2.0000      -0.421155       -11.4602
  38   2.0000      -0.414568       -11.2810
  39   2.0000      -0.407585       -11.0909
  40   2.0000      -0.397564       -10.8183
  41   2.0000      -0.386711       -10.5229
  42   2.0000      -0.381353       -10.3771
  43   2.0000      -0.376566       -10.2469
  44   2.0000      -0.360407        -9.8072
  45   2.0000      -0.347234        -9.4487
  46   2.0000      -0.343438        -9.3454
  47   2.0000      -0.337406        -9.1813
  48   2.0000      -0.329834        -8.9752
  49   2.0000      -0.320832        -8.7303
  50   2.0000      -0.311137        -8.4665
  51   2.0000      -0.306537        -8.3413
  52   2.0000      -0.294842        -8.0230
  53   2.0000      -0.290747        -7.9116
  54   2.0000      -0.286473        -7.7953
  55   2.0000      -0.280526        -7.6335
  56   2.0000      -0.273138        -7.4325
  57   2.0000      -0.266897        -7.2626
  58   2.0000      -0.262612        -7.1460
  59   2.0000      -0.260545        -7.0898
  60   2.0000      -0.234049        -6.3688
  61   0.0000      -0.038072        -1.0360
  62   0.0000      -0.009881        -0.2689
  63   0.0000      -0.006324        -0.1721
  64   0.0000      -0.001928        -0.0525
  65   0.0000       0.006537         0.1779

MULLIKEN ATOMIC CHARGES
-----------------------
   0 C :   -0.144979
   1 C :   -2.148746
   2 C :   -0.562798
   3 C :   -0.767401
   4 S :    1.319149
   5 H :    0.702090
   6 H :    0.523485
   7 H :    0.670646
   8 F :   -0.249257
   9 O :   -0.647530
  10 H :    0.227167
  11 H :    0.261068
  12 O :   -0.577995
  13 C :   -0.296561
  14 H :    0.271950
  15 H :    0.232272
  16 C :   -0.401077
  17 H :    0.127184
  18 H :    0.258668
  19 C :   -0.762692
  20 H :    0.311013
  21 H :    0.168311
  22 C :   -0.627438
  23 H :    0.251990
  24 H :    0.273842
  25 C :   -0.141148
  26 H :    0.308403
  27 H :    0.273651
  28 C :   -0.618299
  29 H :    0.297949
  30 H :    0.241853
  31 H :    0.251567
  32 H :    0.342800
  33 H :    0.339420
  34 H :    0.291447
Sum of atomic charges:    0.0000000

LOEWDIN ATOMIC CHARGES
----------------------
   0 C :   -0.231033
   1 C :   -0.126842
   2 C :   -0.203314
   3 C :   -0.208261
   4 S :    0.621191
   5 H :   -0.000267
   6 H :    0.070135
   7 H :    0.016139
   8 F :   -0.083953
   9 O :   -0.280751
  10 H :    0.108559
  11 H :    0.099190
  12 O :   -0.235906
  13 C :   -0.202402
  14 H :    0.109975
  15 H :    0.103648
  16 C :   -0.209988
  17 H :    0.088684
  18 H :    0.113303
  19 C :   -0.202279
  20 H :    0.112834
  21 H :    0.097142
  22 C :   -0.210996
  23 H :    0.107295
  24 H :    0.106540
  25 C :   -0.206839
  26 H :    0.104885
  27 H :    0.112987
  28 C :   -0.225854
  29 H :    0.127406
  30 H :    0.088873
  31 H :    0.107389
  32 H :    0.120130
  33 H :    0.112076
  34 H :    0.100305

  Mayer bond orders larger than 0.100000
B(  0-C ,  1-C ) :   0.2528 B(  0-C ,  2-C ) :   0.7413 B(  0-C , 10-H ) :   0.9542
B(  0-C , 11-H ) :   0.9618 B(  0-C , 16-C ) :   0.1058 B(  1-C ,  2-C ) :   0.1519
B(  1-C ,  5-H ) :   0.6018 B(  1-C ,  6-H ) :   0.6262 B(  1-C ,  7-H ) :   0.7389
B(  1-C ,  8-F ) :   0.2246 B(  1-C ,  9-O ) :   0.1178 B(  2-C , 13-C ) :   0.8810
B(  2-C , 14-H ) :   0.9322 B(  2-C , 15-H ) :   0.9502 B(  2-C , 16-C ) :   0.1666
B(  3-C ,  4-S ) :   0.9436 B(  3-C ,  9-O ) :   0.1213 B(  3-C , 12-O ) :   0.1740
B(  3-C , 28-C ) :   0.7359 B(  3-C , 33-H ) :   0.8561 B(  3-C , 34-H ) :   1.0407
B(  4-S ,  8-F ) :   1.0641 B(  4-S ,  9-O ) :   1.5600 B(  4-S , 12-O ) :   1.3678
B(  5-H ,  6-H ) :   0.1080 B(  5-H ,  9-O ) :  -0.1789 B(  7-H ,  8-F ) :  -0.2588
B( 13-C , 16-C ) :   0.2455 B( 13-C , 17-H ) :   1.1273 B( 13-C , 18-H ) :   0.9010
B( 13-C , 19-C ) :   0.1204 B( 13-C , 21-H ) :  -0.1548 B( 13-C , 22-C ) :   0.1539
B( 16-C , 19-C ) :   0.8582 B( 16-C , 20-H ) :   0.8836 B( 16-C , 21-H ) :   1.0893
B( 16-C , 25-C ) :   0.1232 B( 19-C , 22-C ) :   0.8860 B( 19-C , 23-H ) :   0.9915
B( 19-C , 24-H ) :   0.9476 B( 19-C , 25-C ) :   0.1031 B( 22-C , 25-C ) :   0.3168
B( 22-C , 26-H ) :   0.9589 B( 22-C , 27-H ) :   0.9154 B( 22-C , 28-C ) :   0.4226
B( 25-C , 26-H ) :  -0.1195 B( 25-C , 28-C ) :   0.3030 B( 25-C , 29-H ) :   0.7904
B( 25-C , 30-H ) :   1.3518 B( 28-C , 29-H ) :  -0.1299 B( 28-C , 31-H ) :   0.9495
B( 28-C , 32-H ) :   0.9247 B( 28-C , 34-H ) :  -0.1115 B( 29-H , 30-H ) :   0.1594

Dispersion correction           -0.082031633
FINAL SINGLE POINT ENERGY     -1042.187339696738

DIPOLE MOMENT
-------------
                                X             Y             Z
Electronic contribution:    -10.79839     -16.24360     -13.20696
Nuclear contribution   :      9.63012      17.20461      14.03552
                        -----------------------------------------
Total Dipole Moment    :     -1.16827       0.96101       0.82856
                        -----------------------------------------
Magnitude (a.u.)       :      1.72479
Magnitude (Debye)      :      4.38407

Rotational constants in cm-1:     0.025899     0.015189     0.010690
Rotational constants in MHz :   776.424978   455.369614   320.488876

                             ****ORCA TERMINATED NORMALLY****
TOTAL RUN TIME: 0 days 0 hours 1 minutes 48 seconds 103 msec
