                         Program Version 5.0.0 -  RELEASE  -
|  1> !BLYP D3BJ RIJCOSX def2-TZVPD def2/J TightSCF xyzfile
|  2>
|  3> *xyzfile 0 1 D2.xyz
|  4>
|  5> %MaxCore 64000
|  6>
|  7> %pal nprocs 4
|  8> end
|  9>
| 10> %scf
| 11>   MaxIter 150
| 12> end
| 13>
| 14>
| 15>                          ****END OF INPUT****

CARTESIAN COORDINATES (ANGSTROEM)
---------------------------------
  C     -2.160376   -1.369486   -3.467104
  C     -3.030108   -1.910857   -4.541074
  C     -2.047717    0.146583   -3.511774
  C     -7.330440   -2.678991   -3.206811
  S     -6.019659   -2.926965   -4.419128
  H     -3.477443   -2.791513   -4.257096
  H     -2.538013   -2.017860   -5.438075
  H     -3.891589   -1.376039   -4.714365
  O     -5.645830   -1.588384   -4.919307
  F     -4.881961   -3.503697   -3.667235
  H     -1.184438   -1.843997   -3.566393
  H     -2.598195   -1.708376   -2.528477
  O     -6.549267   -3.805150   -5.425071
  C     -3.328755    0.875037   -3.103669
  H     -1.740034    0.452343   -4.517126
  H     -1.232611    0.434938   -2.842208
  C     -3.628487    0.771601   -1.609363
  H     -4.175106    0.490791   -3.682203
  H     -3.237812    1.928663   -3.381480
  C     -4.975718    1.361432   -1.190644
  H     -2.830700    1.276234   -1.054766
  H     -3.594312   -0.275838   -1.294603
  C     -6.184720    0.784347   -1.926464
  H     -4.956292    2.445725   -1.342200
  H     -5.097256    1.205252   -0.114136
  C     -6.286921   -0.735882   -1.893531
  H     -6.163994    1.100199   -2.974250
  H     -7.094530    1.223459   -1.504509
  C     -7.468999   -1.246153   -2.713833
  H     -6.360641   -1.090347   -0.859176
  H     -5.369848   -1.171853   -2.295982
  H     -7.601914   -0.601349   -3.585329
  H     -8.389791   -1.173436   -2.126922
  H     -7.118254   -3.379818   -2.398055
  H     -8.241838   -3.004745   -3.706513

 Total Charge           Charge          ....    0
 Multiplicity           Mult            ....    1
 Number of Electrons    NEL             ....  122
 Basis Dimension        Dim             ....  725

ORBITAL ENERGIES
----------------

  NO   OCC          E(Eh)            E(eV)
   0   2.0000     -88.338544     -2403.8140
   1   2.0000     -24.385826      -663.5721
   2   2.0000     -18.790658      -511.3198
   3   2.0000     -18.779167      -511.0071
   4   2.0000      -9.964696      -271.1532
   5   2.0000      -9.929077      -270.1839
   6   2.0000      -9.912327      -269.7281
   7   2.0000      -9.902929      -269.4724
   8   2.0000      -9.898135      -269.3419
   9   2.0000      -9.892397      -269.1858
  10   2.0000      -9.887217      -269.0449
  11   2.0000      -9.884482      -268.9704
  12   2.0000      -9.878257      -268.8010
  13   2.0000      -9.832736      -267.5623
  14   2.0000      -7.870614      -214.1703
  15   2.0000      -5.902841      -160.6245
  16   2.0000      -5.896193      -160.4436
  17   2.0000      -5.895828      -160.4336
  18   2.0000      -1.249062       -33.9887
  19   2.0000      -1.017169       -27.6786
  20   2.0000      -0.927124       -25.2283
  21   2.0000      -0.759651       -20.6712
  22   2.0000      -0.731651       -19.9092
  23   2.0000      -0.706787       -19.2326
  24   2.0000      -0.683483       -18.5985
  25   2.0000      -0.646900       -17.6030
  26   2.0000      -0.632980       -17.2243
  27   2.0000      -0.596849       -16.2411
  28   2.0000      -0.565904       -15.3990
  29   2.0000      -0.552115       -15.0238
  30   2.0000      -0.514724       -14.0063
  31   2.0000      -0.509633       -13.8678
  32   2.0000      -0.505761       -13.7624
  33   2.0000      -0.493870       -13.4389
  34   2.0000      -0.481971       -13.1151
  35   2.0000      -0.445080       -12.1112
  36   2.0000      -0.431515       -11.7421
  37   2.0000      -0.419924       -11.4267
  38   2.0000      -0.415441       -11.3047
  39   2.0000      -0.407800       -11.0968
  40   2.0000      -0.392168       -10.6714
  41   2.0000      -0.381549       -10.3825
  42   2.0000      -0.379636       -10.3304
  43   2.0000      -0.375887       -10.2284
  44   2.0000      -0.356398        -9.6981
  45   2.0000      -0.346740        -9.4353
  46   2.0000      -0.339989        -9.2516
  47   2.0000      -0.334242        -9.0952
  48   2.0000      -0.326338        -8.8801
  49   2.0000      -0.317461        -8.6386
  50   2.0000      -0.311501        -8.4764
  51   2.0000      -0.300060        -8.1650
  52   2.0000      -0.293652        -7.9907
  53   2.0000      -0.287722        -7.8293
  54   2.0000      -0.286019        -7.7830
  55   2.0000      -0.277167        -7.5421
  56   2.0000      -0.275287        -7.4910
  57   2.0000      -0.269741        -7.3400
  58   2.0000      -0.259761        -7.0685
  59   2.0000      -0.258483        -7.0337
  60   2.0000      -0.242698        -6.6042
  61   0.0000      -0.028953        -0.7879
  62   0.0000      -0.015570        -0.4237
  63   0.0000      -0.005874        -0.1598
  64   0.0000      -0.002772        -0.0754
  65   0.0000       0.009069         0.2468

MULLIKEN ATOMIC CHARGES
-----------------------
   0 C :   -0.112742
   1 C :   -2.207494
   2 C :   -0.571479
   3 C :   -0.940155
   4 S :    1.326233
   5 H :    0.574859
   6 H :    0.511500
   7 H :    0.842449
   8 O :   -0.666183
   9 F :   -0.215512
  10 H :    0.217191
  11 H :    0.259861
  12 O :   -0.577723
  13 C :   -0.323549
  14 H :    0.274030
  15 H :    0.235807
  16 C :   -0.431738
  17 H :    0.198612
  18 H :    0.240796
  19 C :   -0.740134
  20 H :    0.309120
  21 H :    0.171514
  22 C :   -0.727958
  23 H :    0.250693
  24 H :    0.272000
  25 C :   -0.054882
  26 H :    0.327207
  27 H :    0.283216
  28 C :   -0.433786
  29 H :    0.307980
  30 H :    0.095879
  31 H :    0.274992
  32 H :    0.356010
  33 H :    0.389276
  34 H :    0.284111
Sum of atomic charges:    0.0000000

LOEWDIN ATOMIC CHARGES
----------------------
   0 C :   -0.235533
   1 C :   -0.121839
   2 C :   -0.200944
   3 C :   -0.211883
   4 S :    0.621643
   5 H :    0.017059
   6 H :    0.071861
   7 H :    0.004035
   8 O :   -0.273967
   9 F :   -0.094351
  10 H :    0.106092
  11 H :    0.095572
  12 O :   -0.236778
  13 C :   -0.198945
  14 H :    0.111259
  15 H :    0.103237
  16 C :   -0.211681
  17 H :    0.093541
  18 H :    0.113640
  19 C :   -0.202743
  20 H :    0.111867
  21 H :    0.094629
  22 C :   -0.207229
  23 H :    0.107264
  24 H :    0.105434
  25 C :   -0.208939
  26 H :    0.108738
  27 H :    0.113074
  28 C :   -0.222661
  29 H :    0.123956
  30 H :    0.086777
  31 H :    0.110811
  32 H :    0.120472
  33 H :    0.103082
  34 H :    0.103452

  Mayer bond orders larger than 0.100000
B(  0-C ,  1-C ) :   0.1510 B(  0-C ,  2-C ) :   0.7876 B(  0-C , 10-H ) :   0.9829
B(  0-C , 11-H ) :   0.9496 B(  0-C , 16-C ) :   0.1069 B(  1-C ,  2-C ) :   0.1577
B(  1-C ,  5-H ) :   0.7277 B(  1-C ,  6-H ) :   0.6515 B(  1-C ,  7-H ) :   0.4738
B(  1-C ,  8-O ) :   0.2448 B(  1-C ,  9-F ) :   0.1404 B(  2-C , 13-C ) :   0.8584
B(  2-C , 14-H ) :   0.9258 B(  2-C , 15-H ) :   0.9565 B(  2-C , 16-C ) :   0.1752
B(  3-C ,  4-S ) :   0.9619 B(  3-C , 12-O ) :   0.1808 B(  3-C , 25-C ) :   0.1578
B(  3-C , 28-C ) :   0.6401 B(  3-C , 33-H ) :   0.8059 B(  3-C , 34-H ) :   1.0377
B(  4-S ,  8-O ) :   1.6692 B(  4-S ,  9-F ) :   0.9192 B(  4-S , 12-O ) :   1.3998
B(  5-H ,  9-F ) :  -0.1089 B(  7-H ,  8-O ) :  -0.2877 B( 13-C , 16-C ) :   0.2366
B( 13-C , 17-H ) :   1.0982 B( 13-C , 18-H ) :   0.9163 B( 13-C , 19-C ) :   0.1022
B( 13-C , 21-H ) :  -0.1572 B( 13-C , 22-C ) :   0.1714 B( 16-C , 19-C ) :   0.8525
B( 16-C , 20-H ) :   0.8894 B( 16-C , 21-H ) :   1.0847 B( 16-C , 25-C ) :   0.1494
B( 19-C , 22-C ) :   0.8717 B( 19-C , 23-H ) :   0.9887 B( 19-C , 24-H ) :   0.9472
B( 22-C , 25-C ) :   0.3861 B( 22-C , 26-H ) :   0.9383 B( 22-C , 27-H ) :   0.9095
B( 22-C , 28-C ) :   0.4538 B( 25-C , 26-H ) :  -0.1087 B( 25-C , 28-C ) :   0.4001
B( 25-C , 29-H ) :   0.7960 B( 25-C , 30-H ) :   1.3762 B( 28-C , 29-H ) :  -0.1315
B( 28-C , 30-H ) :  -0.1083 B( 28-C , 31-H ) :   0.8959 B( 28-C , 32-H ) :   0.9137
B( 29-H , 30-H ) :   0.1112

Dispersion correction           -0.082274701
FINAL SINGLE POINT ENERGY     -1042.190667000549

DIPOLE MOMENT
-------------
                                X             Y             Z
Electronic contribution:     -9.49226     -19.49537     -11.16056
Nuclear contribution   :      8.71934      19.48829      12.54264
                        -----------------------------------------
Total Dipole Moment    :     -0.77292      -0.00708       1.38208
                        -----------------------------------------
Magnitude (a.u.)       :      1.58354
Magnitude (Debye)      :      4.02503

Rotational constants in cm-1:     0.025810     0.015137     0.010647
Rotational constants in MHz :   773.773140   453.802427   319.195213

                             ****ORCA TERMINATED NORMALLY****
TOTAL RUN TIME: 0 days 0 hours 1 minutes 52 seconds 222 msec
