                         Program Version 5.0.0 -  RELEASE  -
|  1> !BLYP D3BJ RIJCOSX def2-TZVPD def2/J TightSCF xyzfile
|  2>
|  3> *xyzfile 0 1 D3.xyz
|  4>
|  5> %MaxCore 64000
|  6>
|  7> %pal nprocs 4
|  8> end
|  9>
| 10> %scf
| 11>   MaxIter 150
| 12> end
| 13>
| 14>
| 15>                          ****END OF INPUT****

CARTESIAN COORDINATES (ANGSTROEM)
---------------------------------
  C     -2.160376   -1.369486   -3.467104
  C     -3.030108   -1.910857   -4.541074
  C     -2.047717    0.146583   -3.511774
  C     -7.330440   -2.678991   -3.206811
  S     -6.019659   -2.926965   -4.419128
  H     -3.477443   -2.791513   -4.257096
  H     -2.538013   -2.017860   -5.438075
  H     -3.891589   -1.376039   -4.714365
  O     -5.645830   -1.588384   -4.919307
  O     -4.881961   -3.503697   -3.667235
  H     -1.184438   -1.843997   -3.566393
  H     -2.598195   -1.708376   -2.528477
  F     -6.549267   -3.805150   -5.425071
  C     -3.328755    0.875037   -3.103669
  H     -1.740034    0.452343   -4.517126
  H     -1.232611    0.434938   -2.842208
  C     -3.628487    0.771601   -1.609363
  H     -4.175106    0.490791   -3.682203
  H     -3.237812    1.928663   -3.381480
  C     -4.975718    1.361432   -1.190644
  H     -2.830700    1.276234   -1.054766
  H     -3.594312   -0.275838   -1.294603
  C     -6.184720    0.784347   -1.926464
  H     -4.956292    2.445725   -1.342200
  H     -5.097256    1.205252   -0.114136
  C     -6.286921   -0.735882   -1.893531
  H     -6.163994    1.100199   -2.974250
  H     -7.094530    1.223459   -1.504509
  C     -7.468999   -1.246153   -2.713833
  H     -6.360641   -1.090347   -0.859176
  H     -5.369848   -1.171853   -2.295982
  H     -7.601914   -0.601349   -3.585329
  H     -8.389791   -1.173436   -2.126922
  H     -7.118254   -3.379818   -2.398055
  H     -8.241838   -3.004745   -3.706513

 Total Charge           Charge          ....    0
 Multiplicity           Mult            ....    1
 Number of Electrons    NEL             ....  122
 Basis Dimension        Dim             ....  725

ORBITAL ENERGIES
----------------

  NO   OCC          E(Eh)            E(eV)
   0   2.0000     -88.344407     -2403.9735
   1   2.0000     -24.409336      -664.2118
   2   2.0000     -18.783882      -511.1354
   3   2.0000     -18.781069      -511.0589
   4   2.0000      -9.966212      -271.1944
   5   2.0000      -9.929559      -270.1970
   6   2.0000      -9.905044      -269.5300
   7   2.0000      -9.897804      -269.3329
   8   2.0000      -9.892331      -269.1840
   9   2.0000      -9.884623      -268.9743
  10   2.0000      -9.879111      -268.8243
  11   2.0000      -9.873658      -268.6759
  12   2.0000      -9.862847      -268.3817
  13   2.0000      -9.809786      -266.9378
  14   2.0000      -7.876317      -214.3255
  15   2.0000      -5.908611      -160.7815
  16   2.0000      -5.901899      -160.5988
  17   2.0000      -5.901417      -160.5857
  18   2.0000      -1.281633       -34.8750
  19   2.0000      -1.009562       -27.4716
  20   2.0000      -0.916471       -24.9385
  21   2.0000      -0.758592       -20.6423
  22   2.0000      -0.725739       -19.7484
  23   2.0000      -0.698864       -19.0170
  24   2.0000      -0.680830       -18.5263
  25   2.0000      -0.650235       -17.6938
  26   2.0000      -0.625694       -17.0260
  27   2.0000      -0.592843       -16.1321
  28   2.0000      -0.560376       -15.2486
  29   2.0000      -0.542309       -14.7570
  30   2.0000      -0.528224       -14.3737
  31   2.0000      -0.522616       -14.2211
  32   2.0000      -0.502691       -13.6789
  33   2.0000      -0.497071       -13.5260
  34   2.0000      -0.472112       -12.8468
  35   2.0000      -0.442495       -12.0409
  36   2.0000      -0.433421       -11.7940
  37   2.0000      -0.416167       -11.3245
  38   2.0000      -0.412730       -11.2309
  39   2.0000      -0.405747       -11.0409
  40   2.0000      -0.392207       -10.6725
  41   2.0000      -0.381286       -10.3753
  42   2.0000      -0.370787       -10.0896
  43   2.0000      -0.366316        -9.9680
  44   2.0000      -0.352866        -9.6020
  45   2.0000      -0.338870        -9.2211
  46   2.0000      -0.332892        -9.0584
  47   2.0000      -0.330351        -8.9893
  48   2.0000      -0.319311        -8.6889
  49   2.0000      -0.307032        -8.3548
  50   2.0000      -0.301772        -8.2116
  51   2.0000      -0.293461        -7.9855
  52   2.0000      -0.288476        -7.8498
  53   2.0000      -0.284015        -7.7284
  54   2.0000      -0.277503        -7.5512
  55   2.0000      -0.269185        -7.3249
  56   2.0000      -0.265455        -7.2234
  57   2.0000      -0.261712        -7.1215
  58   2.0000      -0.248551        -6.7634
  59   2.0000      -0.238202        -6.4818
  60   2.0000      -0.223642        -6.0856
  61   0.0000      -0.033212        -0.9038
  62   0.0000      -0.019660        -0.5350
  63   0.0000      -0.001073        -0.0292
  64   0.0000       0.000643         0.0175
  65   0.0000       0.004083         0.1111

MULLIKEN ATOMIC CHARGES
-----------------------
   0 C :   -0.142159
   1 C :   -2.164742
   2 C :   -0.558523
   3 C :   -0.944793
   4 S :    1.274092
   5 H :    0.588899
   6 H :    0.519040
   7 H :    0.812044
   8 O :   -0.669364
   9 O :   -0.637831
  10 H :    0.221586
  11 H :    0.257821
  12 F :   -0.096535
  13 C :   -0.317105
  14 H :    0.268075
  15 H :    0.234869
  16 C :   -0.424104
  17 H :    0.179371
  18 H :    0.246115
  19 C :   -0.750812
  20 H :    0.310019
  21 H :    0.171948
  22 C :   -0.688838
  23 H :    0.249889
  24 H :    0.271215
  25 C :   -0.123099
  26 H :    0.321927
  27 H :    0.280254
  28 C :   -0.484746
  29 H :    0.300871
  30 H :    0.200015
  31 H :    0.251324
  32 H :    0.347366
  33 H :    0.330736
  34 H :    0.365175
Sum of atomic charges:   -0.0000000

LOEWDIN ATOMIC CHARGES
----------------------
   0 C :   -0.234515
   1 C :   -0.131059
   2 C :   -0.203885
   3 C :   -0.216581
   4 S :    0.639984
   5 H :   -0.001475
   6 H :    0.067445
   7 H :    0.004530
   8 O :   -0.273710
   9 O :   -0.278794
  10 H :    0.105074
  11 H :    0.097539
  12 F :   -0.026806
  13 C :   -0.200167
  14 H :    0.109376
  15 H :    0.101570
  16 C :   -0.211094
  17 H :    0.092879
  18 H :    0.112153
  19 C :   -0.203477
  20 H :    0.111306
  21 H :    0.096424
  22 C :   -0.208972
  23 H :    0.106428
  24 H :    0.104988
  25 C :   -0.204700
  26 H :    0.107731
  27 H :    0.111444
  28 C :   -0.220329
  29 H :    0.124902
  30 H :    0.091469
  31 H :    0.108753
  32 H :    0.120594
  33 H :    0.106414
  34 H :    0.094563

  Mayer bond orders larger than 0.100000
B(  0-C ,  1-C ) :   0.1994 B(  0-C ,  2-C ) :   0.7632 B(  0-C , 10-H ) :   0.9633
B(  0-C , 11-H ) :   0.9540 B(  0-C , 16-C ) :   0.1061 B(  1-C ,  2-C ) :   0.1444
B(  1-C ,  5-H ) :   0.7595 B(  1-C ,  6-H ) :   0.6576 B(  1-C ,  7-H ) :   0.5398
B(  1-C ,  8-O ) :   0.2028 B(  2-C , 13-C ) :   0.8595 B(  2-C , 14-H ) :   0.9327
B(  2-C , 15-H ) :   0.9530 B(  2-C , 16-C ) :   0.1751 B(  3-C ,  4-S ) :   0.9266
B(  3-C ,  9-O ) :   0.1387 B(  3-C , 12-F ) :   0.1112 B(  3-C , 25-C ) :   0.1118
B(  3-C , 28-C ) :   0.7287 B(  3-C , 33-H ) :   0.8846 B(  3-C , 34-H ) :   0.9101
B(  4-S ,  8-O ) :   1.6923 B(  4-S ,  9-O ) :   1.6233 B(  4-S , 12-F ) :   0.8526
B(  5-H ,  6-H ) :   0.1022 B(  5-H ,  9-O ) :  -0.1650 B(  7-H ,  8-O ) :  -0.3200
B(  8-O ,  9-O ) :   0.1782 B( 13-C , 16-C ) :   0.2453 B( 13-C , 17-H ) :   1.1120
B( 13-C , 18-H ) :   0.9087 B( 13-C , 19-C ) :   0.1023 B( 13-C , 21-H ) :  -0.1543
B( 13-C , 22-C ) :   0.1711 B( 16-C , 19-C ) :   0.8484 B( 16-C , 20-H ) :   0.8874
B( 16-C , 21-H ) :   1.0880 B( 16-C , 25-C ) :   0.1411 B( 19-C , 22-C ) :   0.8777
B( 19-C , 23-H ) :   0.9926 B( 19-C , 24-H ) :   0.9469 B( 22-C , 25-C ) :   0.3333
B( 22-C , 26-H ) :   0.9489 B( 22-C , 27-H ) :   0.9094 B( 22-C , 28-C ) :   0.4478
B( 25-C , 26-H ) :  -0.1162 B( 25-C , 28-C ) :   0.4175 B( 25-C , 29-H ) :   0.7907
B( 25-C , 30-H ) :   1.3628 B( 28-C , 29-H ) :  -0.1383 B( 28-C , 31-H ) :   0.8978
B( 28-C , 32-H ) :   0.9160 B( 29-H , 30-H ) :   0.1366

Dispersion correction           -0.082824075
FINAL SINGLE POINT ENERGY     -1042.173550560015

DIPOLE MOMENT
-------------
                                X             Y             Z
Electronic contribution:    -12.55344     -20.25556     -14.32528
Nuclear contribution   :     10.70731      19.84772      14.63855
                        -----------------------------------------
Total Dipole Moment    :     -1.84613      -0.40784       0.31327
                        -----------------------------------------
Magnitude (a.u.)       :      1.91642
Magnitude (Debye)      :      4.87116

Rotational constants in cm-1:     0.026014     0.014812     0.010477
Rotational constants in MHz :   779.874765   444.063394   314.081855

                             ****ORCA TERMINATED NORMALLY****
TOTAL RUN TIME: 0 days 0 hours 1 minutes 27 seconds 84 msec
