                         Program Version 5.0.0 -  RELEASE  -
|  1> !wB97X-D3 RIJCOSX def2-SVPD def2/J TightSCF
|  2> *xyz -1 1
|  3> C          1.69499        1.54179       -5.57045
|  4> S          1.78029       -0.03313       -6.42874
|  5> O          2.56929        0.21366       -7.60736
|  6> O          0.41688       -0.46297       -6.61859
|  7> O          2.50513       -0.93326       -5.48257
|  8> H          1.18489        2.25500       -6.18367
|  9> H          2.68564        1.89081       -5.36624
| 10> H          1.16361        1.41804       -4.65000
| 11> *
| 12> %MaxCore 64000
| 13>
| 14> %pal nprocs 8
| 15> end
| 16>
| 17> %scf
| 18>   MaxIter 150
| 19> end
| 20>
| 21>
| 22>                          ****END OF INPUT****

CARTESIAN COORDINATES (ANGSTROEM)
---------------------------------
  C      1.694990    1.541790   -5.570450
  S      1.780290   -0.033130   -6.428740
  O      2.569290    0.213660   -7.607360
  O      0.416880   -0.462970   -6.618590
  O      2.505130   -0.933260   -5.482570
  H      1.184890    2.255000   -6.183670
  H      2.685640    1.890810   -5.366240
  H      1.163610    1.418040   -4.650000

 Total Charge           Charge          ....   -1
 Multiplicity           Mult            ....    1
 Number of Electrons    NEL             ....   50
 Basis Dimension        Dim             ....  140

ORBITAL ENERGIES
----------------

  NO   OCC          E(Eh)            E(eV)
   0   2.0000     -88.977254     -2421.1942
   1   2.0000     -19.026979      -517.7504
   2   2.0000     -19.025790      -517.7181
   3   2.0000     -19.008296      -517.2420
   4   2.0000     -10.143373      -276.0152
   5   2.0000      -8.050750      -219.0720
   6   2.0000      -6.010228      -163.5466
   7   2.0000      -6.010162      -163.5448
   8   2.0000      -6.009961      -163.5394
   9   2.0000      -1.047802       -28.5121
  10   2.0000      -0.909442       -24.7472
  11   2.0000      -0.875370       -23.8200
  12   2.0000      -0.695792       -18.9335
  13   2.0000      -0.494567       -13.4578
  14   2.0000      -0.407976       -11.1016
  15   2.0000      -0.393293       -10.7021
  16   2.0000      -0.392200       -10.6723
  17   2.0000      -0.349749        -9.5171
  18   2.0000      -0.346739        -9.4352
  19   2.0000      -0.251275        -6.8375
  20   2.0000      -0.248819        -6.7707
  21   2.0000      -0.213397        -5.8068
  22   2.0000      -0.205728        -5.5981
  23   2.0000      -0.191955        -5.2234
  24   2.0000      -0.157223        -4.2783
  25   0.0000       0.213945         5.8217
  26   0.0000       0.236860         6.4453
  27   0.0000       0.237431         6.4608
  28   0.0000       0.241639         6.5753
  29   0.0000       0.275276         7.4906

MULLIKEN ATOMIC CHARGES
-----------------------
   0 C :    0.407888
   1 S :    1.109802
   2 O :   -0.763698
   3 O :   -0.765664
   4 O :   -0.821963
   5 H :   -0.058895
   6 H :   -0.051236
   7 H :   -0.056232
Sum of atomic charges:   -1.0000000

LOEWDIN ATOMIC CHARGES
----------------------
   0 C :    0.050374
   1 S :    0.839482
   2 O :   -0.585074
   3 O :   -0.584297
   4 O :   -0.614180
   5 H :   -0.037127
   6 H :   -0.034307
   7 H :   -0.034872

  Mayer bond orders larger than 0.100000
B(  0-C ,  1-S ) :   0.9448 B(  0-C ,  5-H ) :   0.9257 B(  0-C ,  6-H ) :   0.9277
B(  0-C ,  7-H ) :   0.9300 B(  1-S ,  2-O ) :   1.3564 B(  1-S ,  3-O ) :   1.3531
B(  1-S ,  4-O ) :   1.3083 B(  1-S ,  5-H ) :   0.1052 B(  1-S ,  6-H ) :   0.1165
B(  1-S ,  7-H ) :   0.1161

Dispersion correction           -0.001521635
FINAL SINGLE POINT ENERGY      -663.412784272615

DIPOLE MOMENT
-------------
                                X             Y             Z
Electronic contribution:      0.11333      -3.63713      -2.15675
Nuclear contribution   :     -0.31747       5.08000       2.69095
                        -----------------------------------------
Total Dipole Moment    :     -0.20415       1.44286       0.53420
                        -----------------------------------------
Magnitude (a.u.)       :      1.55206
Magnitude (Debye)      :      3.94504

Rotational constants in cm-1:     0.172246     0.157831     0.154490
Rotational constants in MHz :  5163.797750  4731.657963  4631.481993

                             ****ORCA TERMINATED NORMALLY****
TOTAL RUN TIME: 0 days 0 hours 0 minutes 10 seconds 578 msec
