                         Program Version 5.0.0 -  RELEASE  -
|  1> !wB97X-D3 RIJCOSX def2-SVPD def2/J TightSCF
|  2> *xyz 1 1
|  3> C          1.96337       -1.74915       -1.89689
|  4> N          2.73849       -2.01517       -3.09711
|  5> C          4.04974       -2.15472       -3.15204
|  6> N          4.65821       -1.98629       -4.31866
|  7> N          4.76423       -2.45444       -2.05049
|  8> H          4.28736       -2.77626       -1.21750
|  9> H          5.75082       -2.65835       -2.12599
| 10> H          2.34518       -1.69027       -3.97145
| 11> H          4.10900       -1.59268       -5.07176
| 12> H          5.64910       -2.15646       -4.42724
| 13> H          0.92556       -1.68522       -2.14942
| 14> H          2.28268       -0.82430       -1.46378
| 15> H          2.11118       -2.54207       -1.19381
| 16> *
| 17> %MaxCore 64000
| 18>
| 19> %pal nprocs 8
| 20> end
| 21>
| 22> %scf
| 23>   MaxIter 150
| 24> end
| 25>
| 26>
| 27>                          ****END OF INPUT****

CARTESIAN COORDINATES (ANGSTROEM)
---------------------------------
  C      1.963370   -1.749150   -1.896890
  N      2.738490   -2.015170   -3.097110
  C      4.049740   -2.154720   -3.152040
  N      4.658210   -1.986290   -4.318660
  N      4.764230   -2.454440   -2.050490
  H      4.287360   -2.776260   -1.217500
  H      5.750820   -2.658350   -2.125990
  H      2.345180   -1.690270   -3.971450
  H      4.109000   -1.592680   -5.071760
  H      5.649100   -2.156460   -4.427240
  H      0.925560   -1.685220   -2.149420
  H      2.282680   -0.824300   -1.463780
  H      2.111180   -2.542070   -1.193810

 Total Charge           Charge          ....    1
 Multiplicity           Mult            ....    1
 Number of Electrons    NEL             ....   40
 Basis Dimension        Dim             ....  164

ORBITAL ENERGIES
----------------

  NO   OCC          E(Eh)            E(eV)
   0   2.0000     -14.668559      -399.1518
   1   2.0000     -14.667078      -399.1115
   2   2.0000     -14.665875      -399.0787
   3   2.0000     -10.634312      -289.3743
   4   2.0000     -10.495558      -285.5987
   5   2.0000      -1.334537       -36.3146
   6   2.0000      -1.219278       -33.1782
   7   2.0000      -1.206097       -32.8196
   8   2.0000      -1.019342       -27.7377
   9   2.0000      -0.937217       -25.5030
  10   2.0000      -0.894509       -24.3408
  11   2.0000      -0.864910       -23.5354
  12   2.0000      -0.800145       -21.7731
  13   2.0000      -0.792518       -21.5655
  14   2.0000      -0.762686       -20.7537
  15   2.0000      -0.747986       -20.3537
  16   2.0000      -0.694015       -18.8851
  17   2.0000      -0.677693       -18.4410
  18   2.0000      -0.578573       -15.7438
  19   2.0000      -0.553515       -15.0619
  20   0.0000      -0.093240        -2.5372
  21   0.0000      -0.081810        -2.2262
  22   0.0000      -0.041961        -1.1418
  23   0.0000      -0.038423        -1.0455
  24   0.0000      -0.009087        -0.2473

MULLIKEN ATOMIC CHARGES
-----------------------
   0 C :    0.961640
   1 N :   -0.565064
   2 C :    1.349592
   3 N :   -0.148257
   4 N :   -0.080592
   5 H :   -0.027580
   6 H :   -0.072449
   7 H :   -0.141591
   8 H :    0.032533
   9 H :   -0.052417
  10 H :   -0.183726
  11 H :   -0.012750
  12 H :   -0.059338
Sum of atomic charges:    1.0000000

LOEWDIN ATOMIC CHARGES
----------------------
   0 C :    0.254514
   1 N :    0.006728
   2 C :   -0.026503
   3 N :    0.256161
   4 N :    0.273425
   5 H :    0.026390
   6 H :    0.039705
   7 H :    0.054745
   8 H :    0.041357
   9 H :    0.046789
  10 H :    0.016044
  11 H :    0.011453
  12 H :   -0.000810

  Mayer bond orders larger than 0.100000
B(  0-C ,  1-N ) :   0.9028 B(  0-C , 10-H ) :   0.8593 B(  0-C , 11-H ) :   0.8591
B(  0-C , 12-H ) :   0.8569 B(  1-N ,  2-C ) :   1.0626 B(  1-N ,  3-N ) :   0.2491
B(  1-N ,  4-N ) :   0.1976 B(  1-N ,  7-H ) :   1.2278 B(  1-N , 10-H ) :   0.1669
B(  1-N , 11-H ) :   0.1027 B(  1-N , 12-H ) :   0.1458 B(  2-C ,  3-N ) :   0.8353
B(  2-C ,  4-N ) :   0.9607 B(  2-C ,  5-H ) :  -0.1279 B(  2-C ,  6-H ) :  -0.1208
B(  2-C ,  7-H ) :  -0.1706 B(  2-C ,  8-H ) :  -0.1110 B(  2-C ,  9-H ) :  -0.1440
B(  3-N ,  4-N ) :   0.1501 B(  3-N ,  8-H ) :   1.1210 B(  3-N ,  9-H ) :   1.2526
B(  4-N ,  5-H ) :   1.1077 B(  4-N ,  6-H ) :   1.2151 B(  5-H ,  6-H ) :  -0.1782
B(  8-H ,  9-H ) :  -0.1640

Dispersion correction           -0.002387251
FINAL SINGLE POINT ENERGY      -244.854937380734

DIPOLE MOMENT
-------------
                                X             Y             Z
Electronic contribution:      2.05327      -0.55610      -1.80750
Nuclear contribution   :     -1.59972       0.59064       1.48941
                        -----------------------------------------
Total Dipole Moment    :      0.45354       0.03454      -0.31809
                        -----------------------------------------
Magnitude (a.u.)       :      0.55505
Magnitude (Debye)      :      1.41082

Rotational constants in cm-1:     0.309236     0.134358     0.096189
Rotational constants in MHz :  9270.657746  4027.948155  2883.671905

                             ****ORCA TERMINATED NORMALLY****
TOTAL RUN TIME: 0 days 0 hours 0 minutes 13 seconds 764 msec
