                         Program Version 5.0.0 -  RELEASE  -
|  1> !wB97X-D3 RIJCOSX def2-SVPD def2/J TightSCF
|  2> *xyz 0 1
|  3> C          1.69499        1.54179       -5.57045
|  4> S          1.78029       -0.03313       -6.42874
|  5> F          2.56929        0.21366       -7.60736
|  6> O          0.41688       -0.46297       -6.61859
|  7> O          2.50513       -0.93326       -5.48257
|  8> H          1.18489        2.25500       -6.18367
|  9> H          2.68564        1.89081       -5.36624
| 10> H          1.16361        1.41804       -4.65000
| 11> *
| 12> %MaxCore 64000
| 13>
| 14> %pal nprocs 8
| 15> end
| 16>
| 17> %scf
| 18>   MaxIter 150
| 19> end
| 20>
| 21>
| 22>                          ****END OF INPUT****

CARTESIAN COORDINATES (ANGSTROEM)
---------------------------------
  C      1.694990    1.541790   -5.570450
  S      1.780290   -0.033130   -6.428740
  F      2.569290    0.213660   -7.607360
  O      0.416880   -0.462970   -6.618590
  O      2.505130   -0.933260   -5.482570
  H      1.184890    2.255000   -6.183670
  H      2.685640    1.890810   -5.366240
  H      1.163610    1.418040   -4.650000

 Total Charge           Charge          ....    0
 Multiplicity           Mult            ....    1
 Number of Electrons    NEL             ....   50
 Basis Dimension        Dim             ....  140

ORBITAL ENERGIES
----------------

  NO   OCC          E(Eh)            E(eV)
   0   2.0000     -89.244513     -2428.4667
   1   2.0000     -24.929079      -678.3547
   2   2.0000     -19.266854      -524.2778
   3   2.0000     -19.247616      -523.7543
   4   2.0000     -10.353658      -281.7374
   5   2.0000      -8.318604      -226.3607
   6   2.0000      -6.282395      -170.9527
   7   2.0000      -6.275680      -170.7699
   8   2.0000      -6.274747      -170.7445
   9   2.0000      -1.503391       -40.9093
  10   2.0000      -1.229109       -33.4457
  11   2.0000      -1.117905       -30.4197
  12   2.0000      -0.920374       -25.0447
  13   2.0000      -0.835022       -22.7221
  14   2.0000      -0.719305       -19.5733
  15   2.0000      -0.704060       -19.1584
  16   2.0000      -0.667080       -18.1522
  17   2.0000      -0.584765       -15.9123
  18   2.0000      -0.583391       -15.8749
  19   2.0000      -0.571060       -15.5393
  20   2.0000      -0.540815       -14.7163
  21   2.0000      -0.490704       -13.3527
  22   2.0000      -0.440806       -11.9949
  23   2.0000      -0.423002       -11.5105
  24   2.0000      -0.404937       -11.0189
  25   0.0000       0.059332         1.6145
  26   0.0000       0.092926         2.5286
  27   0.0000       0.099405         2.7050
  28   0.0000       0.101004         2.7484
  29   0.0000       0.113756         3.0955

MULLIKEN ATOMIC CHARGES
-----------------------
   0 C :    0.323268
   1 S :    1.283473
   2 F :   -0.371190
   3 O :   -0.627639
   4 O :   -0.681562
   5 H :    0.024933
   6 H :    0.028897
   7 H :    0.019821
Sum of atomic charges:   -0.0000000

LOEWDIN ATOMIC CHARGES
----------------------
   0 C :    0.118872
   1 S :    1.115039
   2 F :   -0.256252
   3 O :   -0.466604
   4 O :   -0.495009
   5 H :   -0.011113
   6 H :   -0.008950
   7 H :    0.004019

  Mayer bond orders larger than 0.100000
B(  0-C ,  1-S ) :   1.0026 B(  0-C ,  5-H ) :   0.9246 B(  0-C ,  6-H ) :   0.9266
B(  0-C ,  7-H ) :   0.9323 B(  1-S ,  2-F ) :   0.7080 B(  1-S ,  3-O ) :   1.5579
B(  1-S ,  4-O ) :   1.5141 B(  1-S ,  7-H ) :   0.1119

Dispersion correction           -0.001531723
FINAL SINGLE POINT ENERGY      -687.893621876098

DIPOLE MOMENT
-------------
                                X             Y             Z
Electronic contribution:      1.40526      -3.18261      -4.14897
Nuclear contribution   :     -1.09446       4.91008       3.93848
                        -----------------------------------------
Total Dipole Moment    :      0.31080       1.72747      -0.21050
                        -----------------------------------------
Magnitude (a.u.)       :      1.76778
Magnitude (Debye)      :      4.49335

Rotational constants in cm-1:     0.163326     0.155515     0.146672
Rotational constants in MHz :  4896.387829  4662.220576  4397.127261

                             ****ORCA TERMINATED NORMALLY****
TOTAL RUN TIME: 0 days 0 hours 0 minutes 10 seconds 547 msec
