                         Program Version 5.0.0 -  RELEASE  -
|  1> !wB97X-D3 RIJCOSX def2-SVPD def2/J TightSCF
|  2> *xyz 0 1
|  3> C          1.96337       -1.74915       -1.89689
|  4> C          2.73849       -2.01517       -3.09711
|  5> C          4.04974       -2.15472       -3.15204
|  6> N          4.65821       -1.98629       -4.31866
|  7> N          4.76423       -2.45444       -2.05049
|  8> H          4.28736       -2.77626       -1.21750
|  9> H          5.75082       -2.65835       -2.12599
| 10> H          2.34518       -1.69027       -3.97145
| 11> H          4.10900       -1.59268       -5.07176
| 12> H          5.64910       -2.15646       -4.42724
| 13> H          0.92556       -1.68522       -2.14942
| 14> H          2.28268       -0.82430       -1.46378
| 15> H          2.11118       -2.54207       -1.19381
| 16> *
| 17> %MaxCore 64000
| 18>
| 19> %pal nprocs 8
| 20> end
| 21>
| 22> %scf
| 23>   MaxIter 150
| 24> end
| 25>
| 26>
| 27>                          ****END OF INPUT****

CARTESIAN COORDINATES (ANGSTROEM)
---------------------------------
  C      1.963370   -1.749150   -1.896890
  C      2.738490   -2.015170   -3.097110
  C      4.049740   -2.154720   -3.152040
  N      4.658210   -1.986290   -4.318660
  N      4.764230   -2.454440   -2.050490
  H      4.287360   -2.776260   -1.217500
  H      5.750820   -2.658350   -2.125990
  H      2.345180   -1.690270   -3.971450
  H      4.109000   -1.592680   -5.071760
  H      5.649100   -2.156460   -4.427240
  H      0.925560   -1.685220   -2.149420
  H      2.282680   -0.824300   -1.463780
  H      2.111180   -2.542070   -1.193810

 Total Charge           Charge          ....    0
 Multiplicity           Mult            ....    1
 Number of Electrons    NEL             ....   40
 Basis Dimension        Dim             ....  164

ORBITAL ENERGIES
----------------

  NO   OCC          E(Eh)            E(eV)
   0   2.0000     -14.439509      -392.9190
   1   2.0000     -14.435288      -392.8042
   2   2.0000     -10.332114      -281.1511
   3   2.0000     -10.252322      -278.9799
   4   2.0000     -10.207546      -277.7614
   5   2.0000      -1.069226       -29.0951
   6   2.0000      -0.977283       -26.5932
   7   2.0000      -0.862641       -23.4736
   8   2.0000      -0.763838       -20.7851
   9   2.0000      -0.689954       -18.7746
  10   2.0000      -0.645355       -17.5610
  11   2.0000      -0.611549       -16.6411
  12   2.0000      -0.572129       -15.5684
  13   2.0000      -0.523316       -14.2401
  14   2.0000      -0.513195       -13.9647
  15   2.0000      -0.477325       -12.9887
  16   2.0000      -0.454742       -12.3742
  17   2.0000      -0.431281       -11.7358
  18   2.0000      -0.361215        -9.8291
  19   2.0000      -0.244462        -6.6521
  20   0.0000       0.088937         2.4201
  21   0.0000       0.116170         3.1611
  22   0.0000       0.128189         3.4882
  23   0.0000       0.149584         4.0704
  24   0.0000       0.154919         4.2156

MULLIKEN ATOMIC CHARGES
-----------------------
   0 C :    0.792047
   1 C :   -0.573607
   2 C :    0.849304
   3 N :   -0.037913
   4 N :   -0.081550
   5 H :   -0.043102
   6 H :   -0.231944
   7 H :   -0.314331
   8 H :    0.009846
   9 H :   -0.173632
  10 H :   -0.043282
  11 H :   -0.095050
  12 H :   -0.056787
Sum of atomic charges:   -0.0000000

LOEWDIN ATOMIC CHARGES
----------------------
   0 C :    0.083227
   1 C :   -0.080837
   2 C :   -0.226220
   3 N :    0.168036
   4 N :    0.193254
   5 H :   -0.005602
   6 H :   -0.009985
   7 H :   -0.056933
   8 H :    0.007178
   9 H :   -0.004584
  10 H :   -0.017804
  11 H :   -0.017927
  12 H :   -0.031804

  Mayer bond orders larger than 0.100000
B(  0-C ,  1-C ) :   1.1668 B(  0-C ,  7-H ) :   0.1715 B(  0-C , 10-H ) :   0.7661
B(  0-C , 11-H ) :   0.7883 B(  0-C , 12-H ) :   0.7278 B(  1-C ,  2-C ) :   1.7116
B(  1-C ,  3-N ) :   0.2880 B(  1-C ,  4-N ) :   0.2459 B(  1-C ,  7-H ) :   0.9661
B(  1-C , 10-H ) :   0.2579 B(  1-C , 11-H ) :   0.1263 B(  1-C , 12-H ) :   0.2700
B(  2-C ,  3-N ) :   0.9056 B(  2-C ,  4-N ) :   0.8881 B(  2-C ,  6-H ) :  -0.1669
B(  2-C ,  7-H ) :   0.1974 B(  3-N ,  8-H ) :   1.1207 B(  3-N ,  9-H ) :   1.2569
B(  4-N ,  5-H ) :   1.0786 B(  4-N ,  6-H ) :   1.3227 B(  5-H ,  6-H ) :  -0.1778
B(  8-H ,  9-H ) :  -0.1599

Dispersion correction           -0.002389699
FINAL SINGLE POINT ENERGY      -228.386801466687

DIPOLE MOMENT
-------------
                                X             Y             Z
Electronic contribution:      2.73512      -0.66102      -1.58199
Nuclear contribution   :     -1.78367       0.60166       1.44982
                        -----------------------------------------
Total Dipole Moment    :      0.95145      -0.05936      -0.13217
                        -----------------------------------------
Magnitude (a.u.)       :      0.96242
Magnitude (Debye)      :      2.44628

Rotational constants in cm-1:     0.313991     0.135452     0.097139
Rotational constants in MHz :  9413.212964  4060.745953  2912.144668

                             ****ORCA TERMINATED NORMALLY****
TOTAL RUN TIME: 0 days 0 hours 0 minutes 13 seconds 640 msec
