                         Program Version 5.0.0 -  RELEASE  -
|  1> !wB97X-D3 RIJCOSX def2-SVPD def2/J TightSCF
|  2> *xyz 0 1
|  3> C          1.69499        1.54179       -5.57045
|  4> S          1.78029       -0.03313       -6.42874
|  5> O          2.56929        0.21366       -7.60736
|  6> F          0.41688       -0.46297       -6.61859
|  7> O          2.50513       -0.93326       -5.48257
|  8> H          1.18489        2.25500       -6.18367
|  9> H          2.68564        1.89081       -5.36624
| 10> H          1.16361        1.41804       -4.65000
| 11> *
| 12> %MaxCore 64000
| 13>
| 14> %pal nprocs 8
| 15> end
| 16>
| 17> %scf
| 18>   MaxIter 150
| 19> end
| 20>
| 21>
| 22>                          ****END OF INPUT****

CARTESIAN COORDINATES (ANGSTROEM)
---------------------------------
  C      1.694990    1.541790   -5.570450
  S      1.780290   -0.033130   -6.428740
  O      2.569290    0.213660   -7.607360
  F      0.416880   -0.462970   -6.618590
  O      2.505130   -0.933260   -5.482570
  H      1.184890    2.255000   -6.183670
  H      2.685640    1.890810   -5.366240
  H      1.163610    1.418040   -4.650000

 Total Charge           Charge          ....    0
 Multiplicity           Mult            ....    1
 Number of Electrons    NEL             ....   50
 Basis Dimension        Dim             ....  140

ORBITAL ENERGIES
----------------

  NO   OCC          E(Eh)            E(eV)
   0   2.0000     -89.244247     -2428.4594
   1   2.0000     -24.929394      -678.3633
   2   2.0000     -19.265718      -524.2469
   3   2.0000     -19.247658      -523.7554
   4   2.0000     -10.353691      -281.7383
   5   2.0000      -8.318383      -226.3547
   6   2.0000      -6.282146      -170.9459
   7   2.0000      -6.275466      -170.7641
   8   2.0000      -6.274528      -170.7386
   9   2.0000      -1.502219       -40.8775
  10   2.0000      -1.230101       -33.4728
  11   2.0000      -1.117579       -30.4109
  12   2.0000      -0.919945       -25.0330
  13   2.0000      -0.835078       -22.7236
  14   2.0000      -0.718905       -19.5624
  15   2.0000      -0.703492       -19.1430
  16   2.0000      -0.666672       -18.1411
  17   2.0000      -0.584886       -15.9156
  18   2.0000      -0.583177       -15.8691
  19   2.0000      -0.571629       -15.5548
  20   2.0000      -0.540672       -14.7124
  21   2.0000      -0.490908       -13.3583
  22   2.0000      -0.440097       -11.9756
  23   2.0000      -0.422964       -11.5094
  24   2.0000      -0.404425       -11.0050
  25   0.0000       0.058908         1.6030
  26   0.0000       0.092849         2.5265
  27   0.0000       0.099273         2.7014
  28   0.0000       0.100794         2.7427
  29   0.0000       0.112495         3.0611

MULLIKEN ATOMIC CHARGES
-----------------------
   0 C :    0.324587
   1 S :    1.282353
   2 O :   -0.625864
   3 F :   -0.374012
   4 O :   -0.680580
   5 H :    0.024802
   6 H :    0.024175
   7 H :    0.024541
Sum of atomic charges:    0.0000000

LOEWDIN ATOMIC CHARGES
----------------------
   0 C :    0.119019
   1 S :    1.115271
   2 O :   -0.467560
   3 F :   -0.255901
   4 O :   -0.494721
   5 H :   -0.011126
   6 H :    0.004411
   7 H :   -0.009394

  Mayer bond orders larger than 0.100000
B(  0-C ,  1-S ) :   1.0023 B(  0-C ,  5-H ) :   0.9243 B(  0-C ,  6-H ) :   0.9298
B(  0-C ,  7-H ) :   0.9292 B(  1-S ,  2-O ) :   1.5607 B(  1-S ,  3-F ) :   0.7041
B(  1-S ,  4-O ) :   1.5134 B(  1-S ,  6-H ) :   0.1119

Dispersion correction           -0.001531061
FINAL SINGLE POINT ENERGY      -687.892913350517

DIPOLE MOMENT
-------------
                                X             Y             Z
Electronic contribution:     -2.19113      -4.31304      -2.49327
Nuclear contribution   :      1.05593       5.58608       2.95063
                        -----------------------------------------
Total Dipole Moment    :     -1.13519       1.27303       0.45737
                        -----------------------------------------
Magnitude (a.u.)       :      1.76592
Magnitude (Debye)      :      4.48861

Rotational constants in cm-1:     0.163930     0.155251     0.146268
Rotational constants in MHz :  4914.487830  4654.318941  4385.000376

                             ****ORCA TERMINATED NORMALLY****
TOTAL RUN TIME: 0 days 0 hours 0 minutes 9 seconds 902 msec
