                         Program Version 5.0.0 -  RELEASE  -
|  1> !wB97X-D3 RIJCOSX def2-SVPD def2/J TightSCF
|  2> *xyz 0 1
|  3> C          1.96337       -1.74915       -1.89689
|  4> N          2.73849       -2.01517       -3.09711
|  5> C          4.04974       -2.15472       -3.15204
|  6> C          4.65821       -1.98629       -4.31866
|  7> N          4.76423       -2.45444       -2.05049
|  8> H          4.28736       -2.77626       -1.21750
|  9> H          5.75082       -2.65835       -2.12599
| 10> H          2.34518       -1.69027       -3.97145
| 11> H          4.10900       -1.59268       -5.07176
| 12> H          5.64910       -2.15646       -4.42724
| 13> H          0.92556       -1.68522       -2.14942
| 14> H          2.28268       -0.82430       -1.46378
| 15> H          2.11118       -2.54207       -1.19381
| 16> *
| 17> %MaxCore 64000
| 18>
| 19> %pal nprocs 8
| 20> end
| 21>
| 22> %scf
| 23>   MaxIter 150
| 24> end
| 25>
| 26>
| 27>                          ****END OF INPUT****

CARTESIAN COORDINATES (ANGSTROEM)
---------------------------------
  C      1.963370   -1.749150   -1.896890
  N      2.738490   -2.015170   -3.097110
  C      4.049740   -2.154720   -3.152040
  C      4.658210   -1.986290   -4.318660
  N      4.764230   -2.454440   -2.050490
  H      4.287360   -2.776260   -1.217500
  H      5.750820   -2.658350   -2.125990
  H      2.345180   -1.690270   -3.971450
  H      4.109000   -1.592680   -5.071760
  H      5.649100   -2.156460   -4.427240
  H      0.925560   -1.685220   -2.149420
  H      2.282680   -0.824300   -1.463780
  H      2.111180   -2.542070   -1.193810

 Total Charge           Charge          ....    0
 Multiplicity           Mult            ....    1
 Number of Electrons    NEL             ....   40
 Basis Dimension        Dim             ....  164

ORBITAL ENERGIES
----------------

  NO   OCC          E(Eh)            E(eV)
   0   2.0000     -14.438248      -392.8847
   1   2.0000     -14.437370      -392.8608
   2   2.0000     -10.336266      -281.2641
   3   2.0000     -10.321566      -280.8641
   4   2.0000     -10.199564      -277.5442
   5   2.0000      -1.078731       -29.3538
   6   2.0000      -0.990035       -26.9402
   7   2.0000      -0.855205       -23.2713
   8   2.0000      -0.773817       -21.0566
   9   2.0000      -0.705525       -19.1983
  10   2.0000      -0.638362       -17.3707
  11   2.0000      -0.595076       -16.1928
  12   2.0000      -0.576041       -15.6749
  13   2.0000      -0.558537       -15.1986
  14   2.0000      -0.501748       -13.6533
  15   2.0000      -0.487827       -13.2745
  16   2.0000      -0.485481       -13.2106
  17   2.0000      -0.460312       -12.5257
  18   2.0000      -0.350884        -9.5480
  19   2.0000      -0.250254        -6.8098
  20   0.0000       0.084604         2.3022
  21   0.0000       0.118179         3.2158
  22   0.0000       0.125238         3.4079
  23   0.0000       0.148415         4.0386
  24   0.0000       0.154928         4.2158

MULLIKEN ATOMIC CHARGES
-----------------------
   0 C :    0.994556
   1 N :   -0.531223
   2 C :    0.679266
   3 C :    0.309101
   4 N :    0.030987
   5 H :   -0.138821
   6 H :   -0.100680
   7 H :   -0.172125
   8 H :   -0.254544
   9 H :   -0.397804
  10 H :   -0.245244
  11 H :   -0.051915
  12 H :   -0.121555
Sum of atomic charges:    0.0000000

LOEWDIN ATOMIC CHARGES
----------------------
   0 C :    0.200809
   1 N :   -0.056561
   2 C :   -0.238723
   3 C :    0.133497
   4 N :    0.190683
   5 H :   -0.019485
   6 H :    0.006978
   7 H :    0.028081
   8 H :   -0.099726
   9 H :   -0.097932
  10 H :   -0.009983
  11 H :   -0.014172
  12 H :   -0.023468

  Mayer bond orders larger than 0.100000
B(  0-C ,  1-N ) :   0.9050 B(  0-C , 10-H ) :   0.8457 B(  0-C , 11-H ) :   0.8532
B(  0-C , 12-H ) :   0.8492 B(  1-N ,  2-C ) :   1.0753 B(  1-N ,  3-C ) :   0.2228
B(  1-N ,  4-N ) :   0.1371 B(  1-N ,  7-H ) :   1.1854 B(  1-N , 10-H ) :   0.1632
B(  1-N , 11-H ) :   0.1113 B(  1-N , 12-H ) :   0.1631 B(  2-C ,  3-C ) :   1.5011
B(  2-C ,  4-N ) :   0.9606 B(  2-C ,  7-H ) :  -0.1193 B(  2-C ,  9-H ) :   0.1104
B(  3-C ,  4-N ) :   0.1911 B(  3-C ,  8-H ) :   0.8806 B(  3-C ,  9-H ) :   0.8700
B(  4-N ,  5-H ) :   1.1097 B(  4-N ,  6-H ) :   1.1860 B(  5-H ,  6-H ) :  -0.1790

Dispersion correction           -0.002400261
FINAL SINGLE POINT ENERGY      -228.379017341946

DIPOLE MOMENT
-------------
                                X             Y             Z
Electronic contribution:      0.85998      -0.64100      -0.31972
Nuclear contribution   :     -1.39484       0.60751       1.20240
                        -----------------------------------------
Total Dipole Moment    :     -0.53486      -0.03350       0.88268
                        -----------------------------------------
Magnitude (a.u.)       :      1.03263
Magnitude (Debye)      :      2.62473

Rotational constants in cm-1:     0.316419     0.139940     0.099730
Rotational constants in MHz :  9485.991536  4195.289338  2989.818216

                             ****ORCA TERMINATED NORMALLY****
TOTAL RUN TIME: 0 days 0 hours 0 minutes 13 seconds 785 msec
