                         Program Version 5.0.0 -  RELEASE  -
|  1> !wB97X-D3 RIJCOSX def2-SVPD def2/J TightSCF
|  2> *xyz 0 1
|  3> C          1.69499        1.54179       -5.57045
|  4> S          1.78029       -0.03313       -6.42874
|  5> O          2.56929        0.21366       -7.60736
|  6> O          0.41688       -0.46297       -6.61859
|  7> F          2.50513       -0.93326       -5.48257
|  8> H          1.18489        2.25500       -6.18367
|  9> H          2.68564        1.89081       -5.36624
| 10> H          1.16361        1.41804       -4.65000
| 11> *
| 12> %MaxCore 64000
| 13>
| 14> %pal nprocs 8
| 15> end
| 16>
| 17> %scf
| 18>   MaxIter 150
| 19> end
| 20>
| 21>
| 22>                          ****END OF INPUT****

CARTESIAN COORDINATES (ANGSTROEM)
---------------------------------
  C      1.694990    1.541790   -5.570450
  S      1.780290   -0.033130   -6.428740
  O      2.569290    0.213660   -7.607360
  O      0.416880   -0.462970   -6.618590
  F      2.505130   -0.933260   -5.482570
  H      1.184890    2.255000   -6.183670
  H      2.685640    1.890810   -5.366240
  H      1.163610    1.418040   -4.650000

 Total Charge           Charge          ....    0
 Multiplicity           Mult            ....    1
 Number of Electrons    NEL             ....   50
 Basis Dimension        Dim             ....  140

ORBITAL ENERGIES
----------------

  NO   OCC          E(Eh)            E(eV)
   0   2.0000     -89.241823     -2428.3935
   1   2.0000     -24.902429      -677.6295
   2   2.0000     -19.266232      -524.2608
   3   2.0000     -19.265060      -524.2289
   4   2.0000     -10.352314      -281.7008
   5   2.0000      -8.315768      -226.2836
   6   2.0000      -6.279276      -170.8678
   7   2.0000      -6.273093      -170.6995
   8   2.0000      -6.272222      -170.6758
   9   2.0000      -1.458144       -39.6781
  10   2.0000      -1.241118       -33.7726
  11   2.0000      -1.145680       -31.1755
  12   2.0000      -0.917079       -24.9550
  13   2.0000      -0.812408       -22.1068
  14   2.0000      -0.698846       -19.0166
  15   2.0000      -0.672796       -18.3077
  16   2.0000      -0.661909       -18.0115
  17   2.0000      -0.586273       -15.9533
  18   2.0000      -0.584266       -15.8987
  19   2.0000      -0.568748       -15.4764
  20   2.0000      -0.548950       -14.9377
  21   2.0000      -0.497837       -13.5468
  22   2.0000      -0.446344       -12.1456
  23   2.0000      -0.440368       -11.9830
  24   2.0000      -0.424731       -11.5575
  25   0.0000       0.062700         1.7062
  26   0.0000       0.095042         2.5862
  27   0.0000       0.100849         2.7442
  28   0.0000       0.100953         2.7471
  29   0.0000       0.111413         3.0317

MULLIKEN ATOMIC CHARGES
-----------------------
   0 C :    0.321480
   1 S :    1.293743
   2 O :   -0.642765
   3 O :   -0.643738
   4 F :   -0.399396
   5 H :    0.019256
   6 H :    0.028039
   7 H :    0.023380
Sum of atomic charges:   -0.0000000

LOEWDIN ATOMIC CHARGES
----------------------
   0 C :    0.119222
   1 S :    1.111742
   2 O :   -0.468517
   3 O :   -0.467362
   4 F :   -0.278832
   5 H :    0.002383
   6 H :   -0.009028
   7 H :   -0.009609

  Mayer bond orders larger than 0.100000
B(  0-C ,  1-S ) :   1.0025 B(  0-C ,  5-H ) :   0.9264 B(  0-C ,  6-H ) :   0.9281
B(  0-C ,  7-H ) :   0.9307 B(  1-S ,  2-O ) :   1.5564 B(  1-S ,  3-O ) :   1.5533
B(  1-S ,  4-F ) :   0.6496 B(  1-S ,  5-H ) :   0.1045

Dispersion correction           -0.001529323
FINAL SINGLE POINT ENERGY      -687.916684697370

DIPOLE MOMENT
-------------
                                X             Y             Z
Electronic contribution:      1.31614      -5.12013      -0.56572
Nuclear contribution   :     -1.03036       6.05593       1.81567
                        -----------------------------------------
Total Dipole Moment    :      0.28578       0.93580       1.24995
                        -----------------------------------------
Magnitude (a.u.)       :      1.58738
Magnitude (Debye)      :      4.03480

Rotational constants in cm-1:     0.164224     0.152173     0.148737
Rotational constants in MHz :  4923.310232  4562.031098  4459.033187

                             ****ORCA TERMINATED NORMALLY****
TOTAL RUN TIME: 0 days 0 hours 0 minutes 9 seconds 729 msec
