                         Program Version 5.0.0 -  RELEASE  -
|  1> !wB97X-D3 RIJCOSX def2-SVPD def2/J TightSCF
|  2> *xyz 0 1
|  3> C          1.96337       -1.74915       -1.89689
|  4> N          2.73849       -2.01517       -3.09711
|  5> C          4.04974       -2.15472       -3.15204
|  6> N          4.65821       -1.98629       -4.31866
|  7> C          4.76423       -2.45444       -2.05049
|  8> H          4.28736       -2.77626       -1.21750
|  9> H          5.75082       -2.65835       -2.12599
| 10> H          2.34518       -1.69027       -3.97145
| 11> H          4.10900       -1.59268       -5.07176
| 12> H          5.64910       -2.15646       -4.42724
| 13> H          0.92556       -1.68522       -2.14942
| 14> H          2.28268       -0.82430       -1.46378
| 15> H          2.11118       -2.54207       -1.19381
| 16> *
| 17> %MaxCore 64000
| 18>
| 19> %pal nprocs 8
| 20> end
| 21>
| 22> %scf
| 23>   MaxIter 150
| 24> end
| 25>
| 26>
| 27>                          ****END OF INPUT****

CARTESIAN COORDINATES (ANGSTROEM)
---------------------------------
  C      1.963370   -1.749150   -1.896890
  N      2.738490   -2.015170   -3.097110
  C      4.049740   -2.154720   -3.152040
  N      4.658210   -1.986290   -4.318660
  C      4.764230   -2.454440   -2.050490
  H      4.287360   -2.776260   -1.217500
  H      5.750820   -2.658350   -2.125990
  H      2.345180   -1.690270   -3.971450
  H      4.109000   -1.592680   -5.071760
  H      5.649100   -2.156460   -4.427240
  H      0.925560   -1.685220   -2.149420
  H      2.282680   -0.824300   -1.463780
  H      2.111180   -2.542070   -1.193810

 Total Charge           Charge          ....    0
 Multiplicity           Mult            ....    1
 Number of Electrons    NEL             ....   40
 Basis Dimension        Dim             ....  164

ORBITAL ENERGIES
----------------

  NO   OCC          E(Eh)            E(eV)
   0   2.0000     -14.442399      -392.9977
   1   2.0000     -14.439648      -392.9228
   2   2.0000     -10.337856      -281.3074
   3   2.0000     -10.314933      -280.6836
   4   2.0000     -10.201305      -277.5916
   5   2.0000      -1.084767       -29.5180
   6   2.0000      -0.993787       -27.0423
   7   2.0000      -0.829032       -22.5591
   8   2.0000      -0.804806       -21.8999
   9   2.0000      -0.673296       -18.3213
  10   2.0000      -0.651058       -17.7162
  11   2.0000      -0.628186       -17.0938
  12   2.0000      -0.554554       -15.0902
  13   2.0000      -0.549321       -14.9478
  14   2.0000      -0.515200       -14.0193
  15   2.0000      -0.480816       -13.0837
  16   2.0000      -0.471430       -12.8283
  17   2.0000      -0.464330       -12.6351
  18   2.0000      -0.346368        -9.4251
  19   2.0000      -0.253622        -6.9014
  20   0.0000       0.087028         2.3682
  21   0.0000       0.109721         2.9857
  22   0.0000       0.124767         3.3951
  23   0.0000       0.149858         4.0778
  24   0.0000       0.158289         4.3073

MULLIKEN ATOMIC CHARGES
-----------------------
   0 C :    1.004812
   1 N :   -0.497311
   2 C :    0.615904
   3 N :    0.017652
   4 C :    0.359830
   5 H :   -0.127689
   6 H :   -0.555550
   7 H :   -0.293964
   8 H :   -0.108704
   9 H :   -0.089355
  10 H :   -0.265718
  11 H :   -0.073322
  12 H :    0.013415
Sum of atomic charges:   -0.0000000

LOEWDIN ATOMIC CHARGES
----------------------
   0 C :    0.208783
   1 N :   -0.059389
   2 C :   -0.244611
   3 N :    0.175285
   4 C :    0.152390
   5 H :   -0.112637
   6 H :   -0.105436
   7 H :    0.014706
   8 H :   -0.006950
   9 H :    0.013899
  10 H :   -0.011379
  11 H :   -0.009418
  12 H :   -0.015243

  Mayer bond orders larger than 0.100000
B(  0-C ,  1-N ) :   0.8995 B(  0-C ,  7-H ) :  -0.1020 B(  0-C , 10-H ) :   0.8659
B(  0-C , 11-H ) :   0.8469 B(  0-C , 12-H ) :   0.8464 B(  1-N ,  2-C ) :   0.9991
B(  1-N ,  3-N ) :   0.1510 B(  1-N ,  4-C ) :   0.3120 B(  1-N ,  7-H ) :   1.2720
B(  1-N , 10-H ) :   0.1542 B(  1-N , 11-H ) :   0.1407 B(  2-C ,  3-N ) :   0.9089
B(  2-C ,  4-C ) :   1.7298 B(  2-C ,  5-H ) :   0.2160 B(  2-C ,  6-H ) :   0.1105
B(  2-C ,  7-H ) :  -0.1466 B(  3-N ,  4-C ) :   0.2111 B(  3-N ,  8-H ) :   1.1459
B(  3-N ,  9-H ) :   1.2309 B(  4-C ,  5-H ) :   0.7213 B(  4-C ,  6-H ) :   0.9498
B(  8-H ,  9-H ) :  -0.1560

Dispersion correction           -0.002385497
FINAL SINGLE POINT ENERGY      -228.379730765500

DIPOLE MOMENT
-------------
                                X             Y             Z
Electronic contribution:      0.78168      -0.12493      -2.54825
Nuclear contribution   :     -1.37336       0.51269       1.66180
                        -----------------------------------------
Total Dipole Moment    :     -0.59169       0.38776      -0.88645
                        -----------------------------------------
Magnitude (a.u.)       :      1.13413
Magnitude (Debye)      :      2.88272

Rotational constants in cm-1:     0.331915     0.135033     0.098638
Rotational constants in MHz :  9950.555862  4048.179255  2957.099162

                             ****ORCA TERMINATED NORMALLY****
TOTAL RUN TIME: 0 days 0 hours 0 minutes 14 seconds 92 msec
