                         Program Version 5.0.0 -  RELEASE  -
|  1> !wB97X-D3 RIJCOSX def2-SVPD def2/J TightSCF xyzfile
|  2>
|  3> *xyzfile 0 1 D4.xyz
|  4>
|  5> %MaxCore 64000
|  6>
|  7> %pal nprocs 18
|  8> end
|  9>
| 10> %scf
| 11>   MaxIter 150
| 12> end
| 13>
| 14>
| 15>                          ****END OF INPUT****

CARTESIAN COORDINATES (ANGSTROEM)
---------------------------------
  C      1.963365   -1.749150   -1.896887
  C      2.738490   -2.015170   -3.097113
  C      0.611877    1.657634   -4.500288
  C      1.694991    1.541794   -5.570447
  H      2.697326    1.734659   -5.183996
  H      1.506656    2.272239   -6.358076
  S      1.780287   -0.033128   -6.428739
  C      4.049736   -2.154717   -3.152044
  N      4.658206   -1.986293   -4.318655
  N      4.764231   -2.454435   -2.050491
  H      4.287363   -2.776259   -1.217496
  H      5.750825   -2.658351   -2.125988
  H      2.345176   -1.690274   -3.971447
  H      4.109004   -1.592677   -5.071760
  H      5.649095   -2.156462   -4.427237
  O      2.569287    0.213657   -7.607360
  F      0.416880   -0.462969   -6.618595
  C      2.088520   -0.300912   -1.415204
  H      2.231272   -2.451616   -1.102643
  H      0.930249   -1.977801   -2.155438
  C      0.680356    0.655418   -3.348038
  H     -0.356865    1.549231   -4.991128
  H      0.650228    2.675438   -4.096000
  C      1.968993    0.733582   -2.535654
  H      3.051356   -0.168602   -0.911868
  H      1.316501   -0.136231   -0.657252
  O      2.505129   -0.933263   -5.482570
  H      2.824195    0.624726   -3.208464
  H      2.058919    1.730331   -2.093112
  H      0.542252   -0.344731   -3.766662
  H     -0.174219    0.829692   -2.685182

 Total Charge           Charge          ....    0
 Multiplicity           Mult            ....    1
 Number of Electrons    NEL             ....  120
 Basis Dimension        Dim             ....  432

ORBITAL ENERGIES
----------------

  NO   OCC          E(Eh)            E(eV)
   0   2.0000     -89.248675     -2428.5799
   1   2.0000     -24.933771      -678.4824
   2   2.0000     -19.271555      -524.4057
   3   2.0000     -19.256006      -523.9826
   4   2.0000     -14.422143      -392.4465
   5   2.0000     -14.405032      -391.9808
   6   2.0000     -10.357841      -281.8512
   7   2.0000     -10.321900      -280.8732
   8   2.0000     -10.311812      -280.5987
   9   2.0000     -10.293223      -280.0928
  10   2.0000     -10.277378      -279.6617
  11   2.0000     -10.265284      -279.3326
  12   2.0000     -10.252902      -278.9957
  13   2.0000     -10.175452      -276.8881
  14   2.0000      -8.322008      -226.4533
  15   2.0000      -6.285833      -171.0462
  16   2.0000      -6.279522      -170.8745
  17   2.0000      -6.277712      -170.8252
  18   2.0000      -1.505557       -40.9683
  19   2.0000      -1.237606       -33.6770
  20   2.0000      -1.130545       -30.7637
  21   2.0000      -1.047648       -28.5079
  22   2.0000      -0.958616       -26.0853
  23   2.0000      -0.954684       -25.9783
  24   2.0000      -0.906659       -24.6714
  25   2.0000      -0.866544       -23.5799
  26   2.0000      -0.838797       -22.8248
  27   2.0000      -0.806122       -21.9357
  28   2.0000      -0.763432       -20.7740
  29   2.0000      -0.732867       -19.9423
  30   2.0000      -0.712979       -19.4011
  31   2.0000      -0.707913       -19.2633
  32   2.0000      -0.691052       -18.8045
  33   2.0000      -0.659654       -17.9501
  34   2.0000      -0.650938       -17.7129
  35   2.0000      -0.626944       -17.0600
  36   2.0000      -0.602350       -16.3908
  37   2.0000      -0.600794       -16.3484
  38   2.0000      -0.581417       -15.8212
  39   2.0000      -0.578215       -15.7340
  40   2.0000      -0.570764       -15.5313
  41   2.0000      -0.546139       -14.8612
  42   2.0000      -0.539845       -14.6899
  43   2.0000      -0.533531       -14.5181
  44   2.0000      -0.520085       -14.1522
  45   2.0000      -0.495774       -13.4907
  46   2.0000      -0.486159       -13.2291
  47   2.0000      -0.478716       -13.0265
  48   2.0000      -0.471695       -12.8355
  49   2.0000      -0.464868       -12.6497
  50   2.0000      -0.450335       -12.2542
  51   2.0000      -0.437283       -11.8991
  52   2.0000      -0.433346       -11.7919
  53   2.0000      -0.424715       -11.5571
  54   2.0000      -0.413762       -11.2590
  55   2.0000      -0.408347       -11.1117
  56   2.0000      -0.395007       -10.7487
  57   2.0000      -0.372922       -10.1477
  58   2.0000      -0.339190        -9.2298
  59   2.0000      -0.224211        -6.1011
  60   0.0000       0.059449         1.6177
  61   0.0000       0.083746         2.2788
  62   0.0000       0.088206         2.4002
  63   0.0000       0.095990         2.6120
  64   0.0000       0.104244         2.8366

MULLIKEN ATOMIC CHARGES
-----------------------
   0 C :    0.250369
   1 C :    0.078313
   2 C :    0.409490
   3 C :    0.030763
   4 H :    0.132867
   5 H :   -0.035884
   6 S :    1.573151
   7 C :    0.731469
   8 N :    0.101662
   9 N :   -0.075410
  10 H :   -0.016834
  11 H :   -0.245196
  12 H :   -0.415396
  13 H :   -0.158643
  14 H :   -0.247559
  15 O :   -0.675956
  16 F :   -0.462977
  17 C :    0.551191
  18 H :   -0.339013
  19 H :    0.112497
  20 C :    0.021408
  21 H :   -0.009215
  22 H :   -0.020237
  23 C :   -0.155436
  24 H :   -0.016391
  25 H :    0.038234
  26 O :   -0.745213
  27 H :    0.038151
  28 H :   -0.195255
  29 H :   -0.085974
  30 H :   -0.168976
Sum of atomic charges:    0.0000000

LOEWDIN ATOMIC CHARGES
----------------------
   0 C :   -0.051191
   1 C :   -0.034823
   2 C :   -0.036600
   3 C :   -0.032648
   4 H :    0.035727
   5 H :    0.023884
   6 S :    1.193678
   7 C :   -0.194475
   8 N :    0.198842
   9 N :    0.190522
  10 H :   -0.010413
  11 H :   -0.013224
  12 H :   -0.136110
  13 H :   -0.072413
  14 H :   -0.004985
  15 O :   -0.449765
  16 F :   -0.237904
  17 C :   -0.022480
  18 H :    0.000713
  19 H :    0.009032
  20 C :   -0.023483
  21 H :    0.024203
  22 H :    0.036980
  23 C :   -0.026854
  24 H :    0.018800
  25 H :    0.015511
  26 O :   -0.476615
  27 H :    0.010558
  28 H :    0.023589
  29 H :    0.007443
  30 H :    0.034498

  Mayer bond orders larger than 0.100000
B(  0-C ,  1-C ) :   1.0717 B(  0-C ,  7-C ) :   0.1168 B(  0-C , 12-H ) :   0.3936
B(  0-C , 17-C ) :   1.1074 B(  0-C , 18-H ) :   0.8452 B(  0-C , 19-H ) :   0.6829
B(  0-C , 24-H ) :   0.1307 B(  0-C , 25-H ) :   0.1844 B(  1-C ,  7-C ) :   1.7656
B(  1-C ,  8-N ) :   0.2369 B(  1-C ,  9-N ) :   0.2387 B(  1-C , 10-H ) :  -0.1052
B(  1-C , 12-H ) :   0.1237 B(  1-C , 18-H ) :   0.2238 B(  1-C , 19-H ) :   0.2735
B(  1-C , 26-O ) :  -0.1183 B(  2-C ,  3-C ) :   1.2373 B(  2-C ,  5-H ) :   0.1679
B(  2-C , 20-C ) :   1.2295 B(  2-C , 21-H ) :   0.6923 B(  2-C , 22-H ) :   0.8036
B(  3-C ,  4-H ) :   0.8921 B(  3-C ,  5-H ) :   0.8858 B(  3-C ,  6-S ) :   1.0736
B(  3-C , 21-H ) :   0.1073 B(  3-C , 22-H ) :   0.1165 B(  6-S , 15-O ) :   1.5765
B(  6-S , 16-F ) :   0.5477 B(  6-S , 26-O ) :   1.3379 B(  7-C ,  8-N ) :   0.7708
B(  7-C ,  9-N ) :   0.8712 B(  7-C , 11-H ) :  -0.1736 B(  7-C , 12-H ) :   0.5772
B(  7-C , 14-H ) :  -0.2413 B(  8-N , 12-H ) :   0.1003 B(  8-N , 13-H ) :   1.1633
B(  8-N , 14-H ) :   1.3723 B(  9-N , 10-H ) :   1.0544 B(  9-N , 11-H ) :   1.3588
B( 10-H , 11-H ) :  -0.2070 B( 12-H , 23-C ) :   0.1035 B( 12-H , 26-O ) :   0.1574
B( 12-H , 28-H ) :  -0.1160 B( 13-H , 14-H ) :  -0.1986 B( 13-H , 26-O ) :   0.1141
B( 16-F , 26-O ) :   0.1395 B( 17-C , 23-C ) :   1.2353 B( 17-C , 24-H ) :   0.7552
B( 17-C , 25-H ) :   0.6906 B( 20-C , 21-H ) :   0.2564 B( 20-C , 23-C ) :   1.1853
B( 20-C , 27-H ) :   0.1006 B( 20-C , 28-H ) :   0.1553 B( 20-C , 29-H ) :   0.9346
B( 20-C , 30-H ) :   0.8711 B( 23-C , 24-H ) :   0.2416 B( 23-C , 25-H ) :   0.1469
B( 23-C , 27-H ) :   0.9124 B( 23-C , 28-H ) :   0.9006 B( 23-C , 29-H ) :   0.1129
B( 23-C , 30-H ) :   0.1536

Dispersion correction           -0.016327615
FINAL SINGLE POINT ENERGY     -1072.195666430074

DIPOLE MOMENT
-------------
                                X             Y             Z
Electronic contribution:     -3.03847      -2.10271     -21.71283
Nuclear contribution   :      2.64598       3.36033      21.85869
                        -----------------------------------------
Total Dipole Moment    :     -0.39248       1.25763       0.14586
                        -----------------------------------------
Magnitude (a.u.)       :      1.32550
Magnitude (Debye)      :      3.36915

Rotational constants in cm-1:     0.028973     0.014435     0.011026
Rotational constants in MHz :   868.588266   432.748309   330.548534

                             ****ORCA TERMINATED NORMALLY****
TOTAL RUN TIME: 0 days 0 hours 1 minutes 34 seconds 775 msec
