                         Program Version 5.0.0 -  RELEASE  -
|  1> !wB97X-D3 RIJCOSX def2-SVPD def2/J TightSCF xyzfile
|  2>
|  3> *xyzfile 0 1 D5.xyz
|  4>
|  5> %MaxCore 64000
|  6>
|  7> %pal nprocs 18
|  8> end
|  9>
| 10> %scf
| 11>   MaxIter 150
| 12> end
| 13>
| 14>
| 15>                          ****END OF INPUT****

CARTESIAN COORDINATES (ANGSTROEM)
---------------------------------
  C      1.963365   -1.749150   -1.896887
  N      2.738490   -2.015170   -3.097113
  C      0.611877    1.657634   -4.500288
  C      1.694991    1.541794   -5.570447
  H      2.697326    1.734659   -5.183996
  H      1.506656    2.272239   -6.358076
  S      1.780287   -0.033128   -6.428739
  C      4.049736   -2.154717   -3.152044
  C      4.658206   -1.986293   -4.318655
  N      4.764231   -2.454435   -2.050491
  H      4.287363   -2.776259   -1.217496
  H      5.750825   -2.658351   -2.125988
  H      2.345176   -1.690274   -3.971447
  H      4.109004   -1.592677   -5.071760
  H      5.649095   -2.156462   -4.427237
  O      2.569287    0.213657   -7.607360
  F      0.416880   -0.462969   -6.618595
  C      2.088520   -0.300912   -1.415204
  H      2.231272   -2.451616   -1.102643
  H      0.930249   -1.977801   -2.155438
  C      0.680356    0.655418   -3.348038
  H     -0.356865    1.549231   -4.991128
  H      0.650228    2.675438   -4.096000
  C      1.968993    0.733582   -2.535654
  H      3.051356   -0.168602   -0.911868
  H      1.316501   -0.136231   -0.657252
  O      2.505129   -0.933263   -5.482570
  H      2.824195    0.624726   -3.208464
  H      2.058919    1.730331   -2.093112
  H      0.542252   -0.344731   -3.766662
  H     -0.174219    0.829692   -2.685182

 Total Charge           Charge          ....    0
 Multiplicity           Mult            ....    1
 Number of Electrons    NEL             ....  120
 Basis Dimension        Dim             ....  432

ORBITAL ENERGIES
----------------

  NO   OCC          E(Eh)            E(eV)
   0   2.0000     -89.249702     -2428.6079
   1   2.0000     -24.934934      -678.5140
   2   2.0000     -19.272536      -524.4324
   3   2.0000     -19.258345      -524.0462
   4   2.0000     -14.418927      -392.3589
   5   2.0000     -14.402735      -391.9184
   6   2.0000     -10.360583      -281.9258
   7   2.0000     -10.329462      -281.0790
   8   2.0000     -10.316076      -280.7147
   9   2.0000     -10.311247      -280.5833
  10   2.0000     -10.306892      -280.4648
  11   2.0000     -10.292671      -280.0778
  12   2.0000     -10.285943      -279.8947
  13   2.0000     -10.168503      -276.6990
  14   2.0000      -8.322973      -226.4796
  15   2.0000      -6.286912      -171.0756
  16   2.0000      -6.280296      -170.8955
  17   2.0000      -6.278800      -170.8548
  18   2.0000      -1.506981       -41.0070
  19   2.0000      -1.238331       -33.6967
  20   2.0000      -1.131930       -30.8014
  21   2.0000      -1.056412       -28.7464
  22   2.0000      -0.973447       -26.4889
  23   2.0000      -0.963040       -26.2056
  24   2.0000      -0.908576       -24.7236
  25   2.0000      -0.871661       -23.7191
  26   2.0000      -0.837294       -22.7839
  27   2.0000      -0.811284       -22.0762
  28   2.0000      -0.770430       -20.9645
  29   2.0000      -0.739805       -20.1311
  30   2.0000      -0.715210       -19.4618
  31   2.0000      -0.713478       -19.4147
  32   2.0000      -0.697840       -18.9892
  33   2.0000      -0.676571       -18.4104
  34   2.0000      -0.655051       -17.8248
  35   2.0000      -0.622011       -16.9258
  36   2.0000      -0.608907       -16.5692
  37   2.0000      -0.600522       -16.3410
  38   2.0000      -0.585169       -15.9233
  39   2.0000      -0.577719       -15.7205
  40   2.0000      -0.572280       -15.5725
  41   2.0000      -0.561168       -15.2702
  42   2.0000      -0.547110       -14.8876
  43   2.0000      -0.532621       -14.4934
  44   2.0000      -0.525394       -14.2967
  45   2.0000      -0.499887       -13.6026
  46   2.0000      -0.495958       -13.4957
  47   2.0000      -0.486028       -13.2255
  48   2.0000      -0.475972       -12.9519
  49   2.0000      -0.463638       -12.6162
  50   2.0000      -0.458326       -12.4717
  51   2.0000      -0.448463       -12.2033
  52   2.0000      -0.436524       -11.8784
  53   2.0000      -0.429245       -11.6803
  54   2.0000      -0.426055       -11.5935
  55   2.0000      -0.420844       -11.4517
  56   2.0000      -0.414464       -11.2781
  57   2.0000      -0.405351       -11.0302
  58   2.0000      -0.326785        -8.8923
  59   2.0000      -0.226199        -6.1552
  60   0.0000       0.057336         1.5602
  61   0.0000       0.081391         2.2148
  62   0.0000       0.087302         2.3756
  63   0.0000       0.091755         2.4968
  64   0.0000       0.101637         2.7657

MULLIKEN ATOMIC CHARGES
-----------------------
   0 C :    0.959460
   1 N :   -0.037621
   2 C :    0.411528
   3 C :    0.023577
   4 H :    0.141507
   5 H :   -0.031493
   6 S :    1.576583
   7 C :    0.698304
   8 C :    0.642531
   9 N :    0.108711
  10 H :   -0.058971
  11 H :   -0.178277
  12 H :   -0.649309
  13 H :   -0.251270
  14 H :   -0.652561
  15 O :   -0.668223
  16 F :   -0.463424
  17 C :    0.358623
  18 H :   -0.389823
  19 H :   -0.151829
  20 C :    0.020657
  21 H :    0.001484
  22 H :   -0.014551
  23 C :   -0.027701
  24 H :   -0.016487
  25 H :   -0.074539
  26 O :   -0.836584
  27 H :    0.104687
  28 H :   -0.308107
  29 H :   -0.073383
  30 H :   -0.163497
Sum of atomic charges:   -0.0000000

LOEWDIN ATOMIC CHARGES
----------------------
   0 C :    0.058444
   1 N :    0.001651
   2 C :   -0.034936
   3 C :   -0.031901
   4 H :    0.037492
   5 H :    0.024641
   6 S :    1.194230
   7 C :   -0.218261
   8 C :    0.163923
   9 N :    0.188317
  10 H :   -0.025645
  11 H :    0.002916
  12 H :   -0.079804
  13 H :   -0.158363
  14 H :   -0.096601
  15 O :   -0.439594
  16 F :   -0.242502
  17 C :   -0.016841
  18 H :    0.007632
  19 H :    0.015482
  20 C :   -0.028444
  21 H :    0.025188
  22 H :    0.038093
  23 C :   -0.024250
  24 H :    0.019590
  25 H :    0.018759
  26 O :   -0.475891
  27 H :    0.012490
  28 H :    0.026578
  29 H :    0.002917
  30 H :    0.034691

  Mayer bond orders larger than 0.100000
B(  0-C ,  1-N ) :   0.8852 B(  0-C , 12-H ) :  -0.3333 B(  0-C , 17-C ) :   1.0597
B(  0-C , 18-H ) :   0.8993 B(  0-C , 19-H ) :   0.6772 B(  0-C , 25-H ) :   0.1165
B(  1-N ,  7-C ) :   1.0401 B(  1-N ,  8-C ) :   0.2171 B(  1-N ,  9-N ) :   0.2093
B(  1-N , 12-H ) :   1.1116 B(  1-N , 19-H ) :   0.1350 B(  2-C ,  3-C ) :   1.2368
B(  2-C ,  5-H ) :   0.1623 B(  2-C , 20-C ) :   1.2389 B(  2-C , 21-H ) :   0.6870
B(  2-C , 22-H ) :   0.8042 B(  3-C ,  4-H ) :   0.8939 B(  3-C ,  5-H ) :   0.8905
B(  3-C ,  6-S ) :   1.0670 B(  3-C , 21-H ) :   0.1087 B(  3-C , 22-H ) :   0.1232
B(  6-S , 15-O ) :   1.5861 B(  6-S , 16-F ) :   0.5395 B(  6-S , 26-O ) :   1.3537
B(  7-C ,  8-C ) :   1.4960 B(  7-C ,  9-N ) :   0.9344 B(  7-C , 11-H ) :  -0.1190
B(  7-C , 12-H ) :  -0.3212 B(  7-C , 13-H ) :   0.1446 B(  7-C , 14-H ) :   0.1944
B(  8-C ,  9-N ) :   0.2606 B(  8-C , 13-H ) :   0.5926 B(  8-C , 14-H ) :   0.7290
B(  9-N , 10-H ) :   0.9636 B(  9-N , 11-H ) :   1.2541 B( 10-H , 11-H ) :  -0.2006
B( 12-H , 19-H ) :   0.1763 B( 12-H , 24-H ) :   0.1309 B( 12-H , 26-O ) :   0.1201
B( 12-H , 27-H ) :   0.1027 B( 13-H , 14-H ) :  -0.1877 B( 13-H , 26-O ) :   0.2414
B( 16-F , 26-O ) :   0.1471 B( 17-C , 18-H ) :   0.1236 B( 17-C , 19-H ) :   0.1027
B( 17-C , 23-C ) :   1.2594 B( 17-C , 24-H ) :   0.7694 B( 17-C , 25-H ) :   0.8902
B( 18-H , 19-H ) :  -0.1312 B( 20-C , 21-H ) :   0.2574 B( 20-C , 23-C ) :   1.1609
B( 20-C , 28-H ) :   0.1322 B( 20-C , 29-H ) :   0.9453 B( 20-C , 30-H ) :   0.8766
B( 23-C , 24-H ) :   0.2033 B( 23-C , 25-H ) :   0.1195 B( 23-C , 27-H ) :   0.8725
B( 23-C , 28-H ) :   0.9557 B( 23-C , 30-H ) :   0.1341

Dispersion correction           -0.016430318
FINAL SINGLE POINT ENERGY     -1072.190829931952

DIPOLE MOMENT
-------------
                                X             Y             Z
Electronic contribution:     -4.65553      -1.93064     -20.68540
Nuclear contribution   :      2.89225       3.36404      21.70199
                        -----------------------------------------
Total Dipole Moment    :     -1.76328       1.43340       1.01659
                        -----------------------------------------
Magnitude (a.u.)       :      2.48943
Magnitude (Debye)      :      6.32762

Rotational constants in cm-1:     0.029431     0.014408     0.011084
Rotational constants in MHz :   882.306106   431.946714   332.288152

                             ****ORCA TERMINATED NORMALLY****
TOTAL RUN TIME: 0 days 0 hours 1 minutes 36 seconds 628 msec
