                         Program Version 5.0.0 -  RELEASE  -
|  1> !wB97X-D3 RIJCOSX def2-SVPD def2/J TightSCF xyzfile
|  2>
|  3> *xyzfile 0 1 D9.xyz
|  4>
|  5> %MaxCore 64000
|  6>
|  7> %pal nprocs 18
|  8> end
|  9>
| 10> %scf
| 11>   MaxIter 150
| 12> end
| 13>
| 14>
| 15>                          ****END OF INPUT****

CARTESIAN COORDINATES (ANGSTROEM)
---------------------------------
  C      1.963365   -1.749150   -1.896887
  N      2.738490   -2.015170   -3.097113
  C      0.611877    1.657634   -4.500288
  C      1.694991    1.541794   -5.570447
  H      2.697326    1.734659   -5.183996
  H      1.506656    2.272239   -6.358076
  S      1.780287   -0.033128   -6.428739
  C      4.049736   -2.154717   -3.152044
  N      4.658206   -1.986293   -4.318655
  C      4.764231   -2.454435   -2.050491
  H      4.287363   -2.776259   -1.217496
  H      5.750825   -2.658351   -2.125988
  H      2.345176   -1.690274   -3.971447
  H      4.109004   -1.592677   -5.071760
  H      5.649095   -2.156462   -4.427237
  O      2.569287    0.213657   -7.607360
  O      0.416880   -0.462969   -6.618595
  C      2.088520   -0.300912   -1.415204
  H      2.231272   -2.451616   -1.102643
  H      0.930249   -1.977801   -2.155438
  C      0.680356    0.655418   -3.348038
  H     -0.356865    1.549231   -4.991128
  H      0.650228    2.675438   -4.096000
  C      1.968993    0.733582   -2.535654
  H      3.051356   -0.168602   -0.911868
  H      1.316501   -0.136231   -0.657252
  F      2.505129   -0.933263   -5.482570
  H      2.824195    0.624726   -3.208464
  H      2.058919    1.730331   -2.093112
  H      0.542252   -0.344731   -3.766662
  H     -0.174219    0.829692   -2.685182

 Total Charge           Charge          ....    0
 Multiplicity           Mult            ....    1
 Number of Electrons    NEL             ....  120
 Basis Dimension        Dim             ....  432

ORBITAL ENERGIES
----------------

  NO   OCC          E(Eh)            E(eV)
   0   2.0000     -89.253597     -2428.7139
   1   2.0000     -24.932150      -678.4383
   2   2.0000     -19.280130      -524.6390
   3   2.0000     -19.279894      -524.6326
   4   2.0000     -14.435601      -392.8127
   5   2.0000     -14.434811      -392.7912
   6   2.0000     -10.365345      -282.0554
   7   2.0000     -10.337139      -281.2879
   8   2.0000     -10.328131      -281.0427
   9   2.0000     -10.324912      -280.9551
  10   2.0000     -10.311636      -280.5939
  11   2.0000     -10.302338      -280.3409
  12   2.0000     -10.291437      -280.0442
  13   2.0000     -10.199431      -277.5406
  14   2.0000      -8.327160      -226.5935
  15   2.0000      -6.291174      -171.1915
  16   2.0000      -6.284405      -171.0073
  17   2.0000      -6.283012      -170.9694
  18   2.0000      -1.490047       -40.5462
  19   2.0000      -1.256946       -34.2032
  20   2.0000      -1.159265       -31.5452
  21   2.0000      -1.085565       -29.5397
  22   2.0000      -0.997157       -27.1340
  23   2.0000      -0.966249       -26.2930
  24   2.0000      -0.915525       -24.9127
  25   2.0000      -0.877589       -23.8804
  26   2.0000      -0.847800       -23.0698
  27   2.0000      -0.809115       -22.0171
  28   2.0000      -0.805088       -21.9076
  29   2.0000      -0.751622       -20.4527
  30   2.0000      -0.718117       -19.5410
  31   2.0000      -0.712046       -19.3758
  32   2.0000      -0.694434       -18.8965
  33   2.0000      -0.675190       -18.3728
  34   2.0000      -0.654076       -17.7983
  35   2.0000      -0.646999       -17.6057
  36   2.0000      -0.624596       -16.9961
  37   2.0000      -0.615025       -16.7357
  38   2.0000      -0.607317       -16.5259
  39   2.0000      -0.590593       -16.0708
  40   2.0000      -0.578802       -15.7500
  41   2.0000      -0.567445       -15.4410
  42   2.0000      -0.550304       -14.9745
  43   2.0000      -0.541585       -14.7373
  44   2.0000      -0.530217       -14.4279
  45   2.0000      -0.514687       -14.0053
  46   2.0000      -0.502675       -13.6785
  47   2.0000      -0.500762       -13.6264
  48   2.0000      -0.481360       -13.0985
  49   2.0000      -0.472687       -12.8625
  50   2.0000      -0.470107       -12.7923
  51   2.0000      -0.463826       -12.6214
  52   2.0000      -0.457725       -12.4553
  53   2.0000      -0.445659       -12.1270
  54   2.0000      -0.439505       -11.9595
  55   2.0000      -0.436884       -11.8882
  56   2.0000      -0.433124       -11.7859
  57   2.0000      -0.422830       -11.5058
  58   2.0000      -0.344592        -9.3768
  59   2.0000      -0.251768        -6.8510
  60   0.0000       0.061390         1.6705
  61   0.0000       0.080744         2.1971
  62   0.0000       0.081555         2.2192
  63   0.0000       0.089240         2.4283
  64   0.0000       0.102804         2.7974

MULLIKEN ATOMIC CHARGES
-----------------------
   0 C :    0.911888
   1 N :    0.078439
   2 C :    0.428610
   3 C :    0.020997
   4 H :    0.171616
   5 H :   -0.091056
   6 S :    1.559135
   7 C :    0.724363
   8 N :    0.362186
   9 C :    0.410941
  10 H :    0.002196
  11 H :   -0.641206
  12 H :   -0.847258
  13 H :   -0.332463
  14 H :   -0.185291
  15 O :   -0.688850
  16 O :   -0.717103
  17 C :    0.399603
  18 H :   -0.268290
  19 H :   -0.153255
  20 C :   -0.014098
  21 H :    0.017835
  22 H :   -0.005239
  23 C :   -0.023201
  24 H :   -0.085051
  25 H :   -0.024422
  26 F :   -0.530479
  27 H :    0.046878
  28 H :   -0.271213
  29 H :   -0.129422
  30 H :   -0.126788
Sum of atomic charges:   -0.0000000

LOEWDIN ATOMIC CHARGES
----------------------
   0 C :    0.070719
   1 N :   -0.001766
   2 C :   -0.029383
   3 C :   -0.036367
   4 H :    0.023159
   5 H :    0.035537
   6 S :    1.148065
   7 C :   -0.220474
   8 N :    0.201509
   9 C :    0.153480
  10 H :   -0.111256
  11 H :   -0.103783
  12 H :   -0.056872
  13 H :   -0.061073
  14 H :    0.019031
  15 O :   -0.447462
  16 O :   -0.444226
  17 C :   -0.009338
  18 H :    0.018683
  19 H :    0.019359
  20 C :   -0.026526
  21 H :    0.031097
  22 H :    0.038727
  23 C :   -0.031158
  24 H :    0.020422
  25 H :    0.023857
  26 F :   -0.299367
  27 H :    0.005189
  28 H :    0.028714
  29 H :    0.003401
  30 H :    0.038102

  Mayer bond orders larger than 0.100000
B(  0-C ,  1-N ) :   0.9024 B(  0-C , 12-H ) :  -0.3624 B(  0-C , 17-C ) :   1.0318
B(  0-C , 18-H ) :   0.9185 B(  0-C , 19-H ) :   0.7446 B(  1-N ,  7-C ) :   0.9359
B(  1-N ,  9-C ) :   0.4414 B(  1-N , 12-H ) :   1.0128 B(  1-N , 19-H ) :   0.1536
B(  2-C ,  3-C ) :   1.2390 B(  2-C ,  4-H ) :   0.1118 B(  2-C ,  5-H ) :   0.1644
B(  2-C , 20-C ) :   1.2441 B(  2-C , 21-H ) :   0.6938 B(  2-C , 22-H ) :   0.7905
B(  3-C ,  4-H ) :   0.8778 B(  3-C ,  5-H ) :   0.8504 B(  3-C ,  6-S ) :   1.0801
B(  3-C , 21-H ) :   0.1232 B(  3-C , 22-H ) :   0.1152 B(  6-S , 15-O ) :   1.5292
B(  6-S , 16-O ) :   1.4692 B(  6-S , 26-F ) :   0.5781 B(  7-C ,  8-N ) :   0.8132
B(  7-C ,  9-C ) :   1.6083 B(  7-C , 10-H ) :   0.3145 B(  7-C , 11-H ) :   0.2122
B(  7-C , 12-H ) :  -0.3705 B(  7-C , 14-H ) :  -0.1676 B(  8-N ,  9-C ) :   0.2371
B(  8-N , 13-H ) :   1.0428 B(  8-N , 14-H ) :   1.2907 B(  9-C , 10-H ) :   0.5731
B(  9-C , 11-H ) :   0.8153 B(  9-C , 12-H ) :  -0.1040 B( 10-H , 18-H ) :   0.1469
B( 12-H , 19-H ) :   0.1000 B( 13-H , 14-H ) :  -0.1723 B( 13-H , 26-F ) :   0.2397
B( 17-C , 23-C ) :   1.2451 B( 17-C , 24-H ) :   0.8147 B( 17-C , 25-H ) :   0.8514
B( 18-H , 19-H ) :  -0.1734 B( 20-C , 21-H ) :   0.2613 B( 20-C , 23-C ) :   1.1623
B( 20-C , 28-H ) :   0.1553 B( 20-C , 29-H ) :   0.9713 B( 20-C , 30-H ) :   0.8584
B( 23-C , 24-H ) :   0.2177 B( 23-C , 25-H ) :   0.1232 B( 23-C , 27-H ) :   0.8634
B( 23-C , 28-H ) :   0.9442 B( 23-C , 30-H ) :   0.1503

Dispersion correction           -0.016329189
FINAL SINGLE POINT ENERGY     -1072.212938308791

DIPOLE MOMENT
-------------
                                X             Y             Z
Electronic contribution:     -1.06098      -2.33385     -20.29968
Nuclear contribution   :      0.52036       3.84122      20.69523
                        -----------------------------------------
Total Dipole Moment    :     -0.54062       1.50737       0.39554
                        -----------------------------------------
Magnitude (a.u.)       :      1.64951
Magnitude (Debye)      :      4.19273

Rotational constants in cm-1:     0.029184     0.014996     0.011314
Rotational constants in MHz :   874.907122   449.569665   339.178205

                             ****ORCA TERMINATED NORMALLY****
TOTAL RUN TIME: 0 days 0 hours 1 minutes 21 seconds 142 msec
