                         Program Version 5.0.0 -  RELEASE  -
|  1> !B3LYP D3BJ RIJCOSX def2-SVPD def2/J TightSCF
|  2> *xyz -1 1
|  3> C          4.12921        0.89839       -3.41895
|  4> C          5.01734        1.31521       -2.22130
|  5> O          4.73706        0.85411       -1.12283
|  6> O          5.92815        2.16811       -2.49136
|  7> H          4.48610        1.37210       -4.30953
|  8> H          3.11885        1.19903       -3.23540
|  9> H          4.16886       -0.16404       -3.53966
| 10> *
| 11> %MaxCore 64000
| 12>
| 13> %pal nprocs 4
| 14> end
| 15>
| 16> %scf
| 17>   MaxIter 150
| 18> end
| 19>
| 20>
| 21>                          ****END OF INPUT****

CARTESIAN COORDINATES (ANGSTROEM)
---------------------------------
  C      4.129210    0.898390   -3.418950
  C      5.017340    1.315210   -2.221300
  O      4.737060    0.854110   -1.122830
  O      5.928150    2.168110   -2.491360
  H      4.486100    1.372100   -4.309530
  H      3.118850    1.199030   -3.235400
  H      4.168860   -0.164040   -3.539660

 Total Charge           Charge          ....   -1
 Multiplicity           Mult            ....    1
 Number of Electrons    NEL             ....   32
 Basis Dimension        Dim             ....  110

ORBITAL ENERGIES
----------------

  NO   OCC          E(Eh)            E(eV)
   0   2.0000     -18.880902      -513.7755
   1   2.0000     -18.871246      -513.5127
   2   2.0000     -10.068855      -273.9875
   3   2.0000      -9.993816      -271.9456
   4   2.0000      -0.814635       -22.1673
   5   2.0000      -0.718676       -19.5562
   6   2.0000      -0.532199       -14.4819
   7   2.0000      -0.297670        -8.1000
   8   2.0000      -0.257601        -7.0097
   9   2.0000      -0.242380        -6.5955
  10   2.0000      -0.225983        -6.1493
  11   2.0000      -0.188135        -5.1194
  12   2.0000      -0.169253        -4.6056
  13   2.0000      -0.050680        -1.3791
  14   2.0000      -0.041693        -1.1345
  15   2.0000      -0.028269        -0.7692
  16   0.0000       0.171288         4.6610
  17   0.0000       0.213730         5.8159
  18   0.0000       0.223489         6.0814
  19   0.0000       0.240880         6.5547
  20   0.0000       0.264099         7.1865

MULLIKEN ATOMIC CHARGES
-----------------------
   0 C :    0.680421
   1 C :    0.027128
   2 O :   -0.594445
   3 O :   -0.680509
   4 H :   -0.162414
   5 H :   -0.136072
   6 H :   -0.134109
Sum of atomic charges:   -1.0000000

LOEWDIN ATOMIC CHARGES
----------------------
   0 C :    0.153301
   1 C :   -0.336829
   2 O :   -0.314553
   3 O :   -0.357479
   4 H :   -0.052136
   5 H :   -0.045013
   6 H :   -0.047291

  Mayer bond orders larger than 0.100000
B(  0-C ,  1-C ) :   1.1898 B(  0-C ,  4-H ) :   0.8457 B(  0-C ,  5-H ) :   0.7997
B(  0-C ,  6-H ) :   0.7910 B(  1-C ,  2-O ) :   1.5557 B(  1-C ,  3-O ) :   1.4427
B(  1-C ,  4-H ) :   0.2651 B(  1-C ,  5-H ) :   0.1758 B(  1-C ,  6-H ) :   0.1831

Dispersion correction           -0.006229324
FINAL SINGLE POINT ENERGY      -228.261784277709

DIPOLE MOMENT
-------------
                                X             Y             Z
Electronic contribution:      2.04456       0.94598       2.90215
Nuclear contribution   :     -2.87913      -1.42371      -3.86600
                        -----------------------------------------
Total Dipole Moment    :     -0.83457      -0.47773      -0.96385
                        -----------------------------------------
Magnitude (a.u.)       :      1.36152
Magnitude (Debye)      :      3.46070

Rotational constants in cm-1:     0.390018     0.334370     0.186171
Rotational constants in MHz : 11692.450907 10024.149143  5581.251544

                             ****ORCA TERMINATED NORMALLY****
TOTAL RUN TIME: 0 days 0 hours 0 minutes 7 seconds 779 msec
