                         Program Version 5.0.0 -  RELEASE  -
|  1> !B3LYP D3BJ RIJCOSX def2-SVPD def2/J TightSCF
|  2> *xyz 1 1
|  3> C          3.34350        3.35457       -3.59200
|  4> C          4.25587        3.70385       -4.72605
|  5> N          3.73403        4.29378       -5.80077
|  6> N          5.51504        3.40725       -4.63718
|  7> H          6.14919        3.60120       -5.39905
|  8> H          5.81358        2.89950       -3.80879
|  9> H          2.74138        4.51311       -5.82470
| 10> H          4.28755        4.52126       -6.61434
| 11> H          2.34726        3.66659       -3.82664
| 12> H          3.67283        3.85124       -2.70331
| 13> H          3.35820        2.29620       -3.43538
| 14> *
| 15> %MaxCore 64000
| 16>
| 17> %pal nprocs 4
| 18> end
| 19>
| 20> %scf
| 21>   MaxIter 150
| 22> end
| 23>
| 24>
| 25>                          ****END OF INPUT****

CARTESIAN COORDINATES (ANGSTROEM)
---------------------------------
  C      3.343500    3.354570   -3.592000
  C      4.255870    3.703850   -4.726050
  N      3.734030    4.293780   -5.800770
  N      5.515040    3.407250   -4.637180
  H      6.149190    3.601200   -5.399050
  H      5.813580    2.899500   -3.808790
  H      2.741380    4.513110   -5.824700
  H      4.287550    4.521260   -6.614340
  H      2.347260    3.666590   -3.826640
  H      3.672830    3.851240   -2.703310
  H      3.358200    2.296200   -3.435380

 Total Charge           Charge          ....    1
 Multiplicity           Mult            ....    1
 Number of Electrons    NEL             ....   32
 Basis Dimension        Dim             ....  136

ORBITAL ENERGIES
----------------

  NO   OCC          E(Eh)            E(eV)
   0   2.0000     -14.585340      -396.8873
   1   2.0000     -14.581799      -396.7909
   2   2.0000     -10.515543      -286.1425
   3   2.0000     -10.383501      -282.5494
   4   2.0000      -1.203341       -32.7446
   5   2.0000      -1.108912       -30.1750
   6   2.0000      -0.950429       -25.8625
   7   2.0000      -0.842343       -22.9213
   8   2.0000      -0.787053       -21.4168
   9   2.0000      -0.771918       -21.0050
  10   2.0000      -0.711540       -19.3620
  11   2.0000      -0.662992       -18.0409
  12   2.0000      -0.620668       -16.8892
  13   2.0000      -0.603988       -16.4354
  14   2.0000      -0.579467       -15.7681
  15   2.0000      -0.502251       -13.6669
  16   0.0000      -0.218079        -5.9342
  17   0.0000      -0.167635        -4.5616
  18   0.0000      -0.120909        -3.2901
  19   0.0000      -0.119836        -3.2609
  20   0.0000      -0.096926        -2.6375

MULLIKEN ATOMIC CHARGES
-----------------------
   0 C :    0.811008
   1 C :    0.307911
   2 N :    0.078521
   3 N :    0.300416
   4 H :   -0.196857
   5 H :    0.019797
   6 H :    0.022939
   7 H :   -0.171734
   8 H :   -0.067385
   9 H :   -0.047548
  10 H :   -0.057068
Sum of atomic charges:    1.0000000

LOEWDIN ATOMIC CHARGES
----------------------
   0 C :    0.241268
   1 C :   -0.067515
   2 N :    0.286153
   3 N :    0.285939
   4 H :    0.052126
   5 H :    0.063087
   6 H :    0.050029
   7 H :    0.043282
   8 H :    0.003421
   9 H :    0.021130
  10 H :    0.021079

  Mayer bond orders larger than 0.100000
B(  0-C ,  1-C ) :   1.2546 B(  0-C ,  8-H ) :   0.7427 B(  0-C ,  9-H ) :   0.7123
B(  0-C , 10-H ) :   0.7375 B(  1-C ,  2-N ) :   1.0158 B(  1-C ,  3-N ) :   1.2760
B(  1-C ,  4-H ) :  -0.1534 B(  1-C ,  7-H ) :  -0.2567 B(  1-C ,  8-H ) :   0.2891
B(  1-C ,  9-H ) :   0.1969 B(  1-C , 10-H ) :   0.1736 B(  2-N ,  3-N ) :   0.1533
B(  2-N ,  6-H ) :   1.0835 B(  2-N ,  7-H ) :   1.3609 B(  3-N ,  4-H ) :   1.2497
B(  3-N ,  5-H ) :   1.0893 B(  4-H ,  5-H ) :  -0.1533 B(  6-H ,  7-H ) :  -0.1850
B(  9-H , 10-H ) :   0.1095

Dispersion correction           -0.011430324
FINAL SINGLE POINT ENERGY      -189.487079453101

DIPOLE MOMENT
-------------
                                X             Y             Z
Electronic contribution:      1.41916       0.50557      -1.60448
Nuclear contribution   :     -1.09951      -0.46604       1.22975
                        -----------------------------------------
Total Dipole Moment    :      0.31965       0.03953      -0.37473
                        -----------------------------------------
Magnitude (a.u.)       :      0.49413
Magnitude (Debye)      :      1.25598

Rotational constants in cm-1:     0.329035     0.303839     0.162676
Rotational constants in MHz :  9864.215808  9108.853745  4876.907929

                             ****ORCA TERMINATED NORMALLY****
TOTAL RUN TIME: 0 days 0 hours 0 minutes 9 seconds 405 msec
