                         Program Version 5.0.0 -  RELEASE  -
|  1> !B3LYP D3BJ RIJCOSX def2-SVPD def2/J TightSCF
|  2> *xyz 0 1
|  3> C          4.12921        0.89839       -3.41895
|  4> C          5.01734        1.31521       -2.22130
|  5> F          4.73706        0.85411       -1.12283
|  6> O          5.92815        2.16811       -2.49136
|  7> H          4.48610        1.37210       -4.30953
|  8> H          3.11885        1.19903       -3.23540
|  9> H          4.16886       -0.16404       -3.53966
| 10> *
| 11> %MaxCore 64000
| 12>
| 13> %pal nprocs 4
| 14> end
| 15>
| 16> %scf
| 17>   MaxIter 150
| 18> end
| 19>
| 20>
| 21>                          ****END OF INPUT****

CARTESIAN COORDINATES (ANGSTROEM)
---------------------------------
  C      4.129210    0.898390   -3.418950
  C      5.017340    1.315210   -2.221300
  F      4.737060    0.854110   -1.122830
  O      5.928150    2.168110   -2.491360
  H      4.486100    1.372100   -4.309530
  H      3.118850    1.199030   -3.235400
  H      4.168860   -0.164040   -3.539660

 Total Charge           Charge          ....    0
 Multiplicity           Mult            ....    1
 Number of Electrons    NEL             ....   32
 Basis Dimension        Dim             ....  110

ORBITAL ENERGIES
----------------

  NO   OCC          E(Eh)            E(eV)
   0   2.0000     -24.786047      -674.4626
   1   2.0000     -19.148902      -521.0681
   2   2.0000     -10.375632      -282.3353
   3   2.0000     -10.211466      -277.8681
   4   2.0000      -1.336493       -36.3678
   5   2.0000      -1.016478       -27.6598
   6   2.0000      -0.764704       -20.8086
   7   2.0000      -0.676700       -18.4139
   8   2.0000      -0.570743       -15.5307
   9   2.0000      -0.562144       -15.2967
  10   2.0000      -0.503666       -13.7055
  11   2.0000      -0.446964       -12.1625
  12   2.0000      -0.434957       -11.8358
  13   2.0000      -0.402876       -10.9628
  14   2.0000      -0.355106        -9.6629
  15   2.0000      -0.293157        -7.9772
  16   0.0000      -0.036690        -0.9984
  17   0.0000       0.009585         0.2608
  18   0.0000       0.055414         1.5079
  19   0.0000       0.081377         2.2144
  20   0.0000       0.091172         2.4809

MULLIKEN ATOMIC CHARGES
-----------------------
   0 C :    0.630006
   1 C :    0.414278
   2 F :   -0.323206
   3 O :   -0.467798
   4 H :   -0.136859
   5 H :   -0.056648
   6 H :   -0.059772
Sum of atomic charges:   -0.0000000

LOEWDIN ATOMIC CHARGES
----------------------
   0 C :    0.225208
   1 C :   -0.038154
   2 F :   -0.010228
   3 O :   -0.151853
   4 H :   -0.006953
   5 H :   -0.007740
   6 H :   -0.010281

  Mayer bond orders larger than 0.100000
B(  0-C ,  1-C ) :   1.2037 B(  0-C ,  4-H ) :   0.8627 B(  0-C ,  5-H ) :   0.7921
B(  0-C ,  6-H ) :   0.7865 B(  1-C ,  2-F ) :   0.8205 B(  1-C ,  3-O ) :   1.8150
B(  1-C ,  4-H ) :   0.2300 B(  1-C ,  5-H ) :   0.1332 B(  1-C ,  6-H ) :   0.1379
B(  2-F ,  3-O ) :   0.1049

Dispersion correction           -0.005730088
FINAL SINGLE POINT ENERGY      -252.783600560568

DIPOLE MOMENT
-------------
                                X             Y             Z
Electronic contribution:      1.71571       0.21745       4.84446
Nuclear contribution   :     -2.65749      -0.95231      -5.09883
                        -----------------------------------------
Total Dipole Moment    :     -0.94178      -0.73486      -0.25437
                        -----------------------------------------
Magnitude (a.u.)       :      1.22134
Magnitude (Debye)      :      3.10441

Rotational constants in cm-1:     0.365278     0.322469     0.176821
Rotational constants in MHz : 10950.755781  9667.377070  5300.957073

                             ****ORCA TERMINATED NORMALLY****
TOTAL RUN TIME: 0 days 0 hours 0 minutes 7 seconds 221 msec
