                         Program Version 5.0.0 -  RELEASE  -
|  1> !B3LYP D3BJ RIJCOSX def2-SVPD def2/J TightSCF
|  2> *xyz 0 1
|  3> C          3.34350        3.35457       -3.59200
|  4> C          4.25587        3.70385       -4.72605
|  5> C          3.73403        4.29378       -5.80077
|  6> N          5.51504        3.40725       -4.63718
|  7> H          6.14919        3.60120       -5.39905
|  8> H          5.81358        2.89950       -3.80879
|  9> H          2.74138        4.51311       -5.82470
| 10> H          4.28755        4.52126       -6.61434
| 11> H          2.34726        3.66659       -3.82664
| 12> H          3.67283        3.85124       -2.70331
| 13> H          3.35820        2.29620       -3.43538
| 14> *
| 15> %MaxCore 64000
| 16>
| 17> %pal nprocs 4
| 18> end
| 19>
| 20> %scf
| 21>   MaxIter 150
| 22> end
| 23>
| 24>
| 25>                          ****END OF INPUT****

CARTESIAN COORDINATES (ANGSTROEM)
---------------------------------
  C      3.343500    3.354570   -3.592000
  C      4.255870    3.703850   -4.726050
  C      3.734030    4.293780   -5.800770
  N      5.515040    3.407250   -4.637180
  H      6.149190    3.601200   -5.399050
  H      5.813580    2.899500   -3.808790
  H      2.741380    4.513110   -5.824700
  H      4.287550    4.521260   -6.614340
  H      2.347260    3.666590   -3.826640
  H      3.672830    3.851240   -2.703310
  H      3.358200    2.296200   -3.435380

 Total Charge           Charge          ....    0
 Multiplicity           Mult            ....    1
 Number of Electrons    NEL             ....   32
 Basis Dimension        Dim             ....  136

ORBITAL ENERGIES
----------------

  NO   OCC          E(Eh)            E(eV)
   0   2.0000     -14.334752      -390.0684
   1   2.0000     -10.204161      -277.6693
   2   2.0000     -10.173524      -276.8357
   3   2.0000     -10.115484      -275.2563
   4   2.0000      -0.929070       -25.2813
   5   2.0000      -0.748881       -20.3781
   6   2.0000      -0.680179       -18.5086
   7   2.0000      -0.573974       -15.6186
   8   2.0000      -0.532979       -14.5031
   9   2.0000      -0.472898       -12.8682
  10   2.0000      -0.433176       -11.7873
  11   2.0000      -0.397673       -10.8212
  12   2.0000      -0.392482       -10.6800
  13   2.0000      -0.352290        -9.5863
  14   2.0000      -0.339242        -9.2312
  15   2.0000      -0.188563        -5.1311
  16   0.0000       0.015863         0.4316
  17   0.0000       0.047737         1.2990
  18   0.0000       0.052672         1.4333
  19   0.0000       0.061578         1.6756
  20   0.0000       0.087226         2.3735

MULLIKEN ATOMIC CHARGES
-----------------------
   0 C :    1.079722
   1 C :   -0.559190
   2 C :    0.592729
   3 N :    0.448618
   4 H :   -0.248662
   5 H :   -0.180552
   6 H :   -0.214101
   7 H :   -0.590527
   8 H :   -0.072572
   9 H :   -0.126487
  10 H :   -0.128977
Sum of atomic charges:    0.0000000

LOEWDIN ATOMIC CHARGES
----------------------
   0 C :    0.170267
   1 C :   -0.298780
   2 C :    0.179121
   3 N :    0.169155
   4 H :    0.010536
   5 H :    0.006191
   6 H :   -0.091424
   7 H :   -0.096601
   8 H :   -0.017745
   9 H :   -0.015584
  10 H :   -0.015136

  Mayer bond orders larger than 0.100000
B(  0-C ,  1-C ) :   1.2391 B(  0-C ,  8-H ) :   0.7533 B(  0-C ,  9-H ) :   0.5914
B(  0-C , 10-H ) :   0.6118 B(  1-C ,  2-C ) :   1.6209 B(  1-C ,  3-N ) :   1.2863
B(  1-C ,  7-H ) :   0.1382 B(  1-C ,  8-H ) :   0.2760 B(  1-C ,  9-H ) :   0.3157
B(  1-C , 10-H ) :   0.3003 B(  2-C ,  3-N ) :   0.2580 B(  2-C ,  6-H ) :   0.9315
B(  2-C ,  7-H ) :   0.7007 B(  3-N ,  4-H ) :   1.1972 B(  3-N ,  5-H ) :   1.1091
B(  4-H ,  5-H ) :  -0.1209 B(  8-H , 10-H ) :   0.1001

Dispersion correction           -0.012071406
FINAL SINGLE POINT ENERGY      -173.033286427575

DIPOLE MOMENT
-------------
                                X             Y             Z
Electronic contribution:      1.77745      -0.04217      -0.56119
Nuclear contribution   :     -1.20871      -0.33119       0.98382
                        -----------------------------------------
Total Dipole Moment    :      0.56874      -0.37337       0.42262
                        -----------------------------------------
Magnitude (a.u.)       :      0.80093
Magnitude (Debye)      :      2.03580

Rotational constants in cm-1:     0.348453     0.308655     0.168735
Rotational constants in MHz : 10446.369928  9253.232733  5058.539653

                             ****ORCA TERMINATED NORMALLY****
TOTAL RUN TIME: 0 days 0 hours 0 minutes 9 seconds 915 msec
