                         Program Version 5.0.0 -  RELEASE  -
|  1> !B3LYP D3BJ RIJCOSX def2-SVPD def2/J TightSCF
|  2> *xyz 0 1
|  3> C          4.12921        0.89839       -3.41895
|  4> C          5.01734        1.31521       -2.22130
|  5> O          4.73706        0.85411       -1.12283
|  6> F          5.92815        2.16811       -2.49136
|  7> H          4.48610        1.37210       -4.30953
|  8> H          3.11885        1.19903       -3.23540
|  9> H          4.16886       -0.16404       -3.53966
| 10> *
| 11> %MaxCore 64000
| 12>
| 13> %pal nprocs 4
| 14> end
| 15>
| 16> %scf
| 17>   MaxIter 150
| 18> end
| 19>
| 20>
| 21>                          ****END OF INPUT****

CARTESIAN COORDINATES (ANGSTROEM)
---------------------------------
  C      4.129210    0.898390   -3.418950
  C      5.017340    1.315210   -2.221300
  O      4.737060    0.854110   -1.122830
  F      5.928150    2.168110   -2.491360
  H      4.486100    1.372100   -4.309530
  H      3.118850    1.199030   -3.235400
  H      4.168860   -0.164040   -3.539660

 Total Charge           Charge          ....    0
 Multiplicity           Mult            ....    1
 Number of Electrons    NEL             ....   32
 Basis Dimension        Dim             ....  110

ORBITAL ENERGIES
----------------

  NO   OCC          E(Eh)            E(eV)
   0   2.0000     -24.765229      -673.8961
   1   2.0000     -19.158217      -521.3216
   2   2.0000     -10.371726      -282.2290
   3   2.0000     -10.211478      -277.8684
   4   2.0000      -1.295697       -35.2577
   5   2.0000      -1.050172       -28.5766
   6   2.0000      -0.763081       -20.7645
   7   2.0000      -0.654866       -17.8198
   8   2.0000      -0.546622       -14.8743
   9   2.0000      -0.543500       -14.7894
  10   2.0000      -0.506192       -13.7742
  11   2.0000      -0.446983       -12.1630
  12   2.0000      -0.436830       -11.8868
  13   2.0000      -0.410274       -11.1641
  14   2.0000      -0.371362       -10.1053
  15   2.0000      -0.306799        -8.3484
  16   0.0000      -0.034419        -0.9366
  17   0.0000       0.010165         0.2766
  18   0.0000       0.056797         1.5455
  19   0.0000       0.085595         2.3292
  20   0.0000       0.085818         2.3352

MULLIKEN ATOMIC CHARGES
-----------------------
   0 C :    0.615641
   1 C :    0.383008
   2 O :   -0.407999
   3 F :   -0.362538
   4 H :   -0.119074
   5 H :   -0.052659
   6 H :   -0.056379
Sum of atomic charges:   -0.0000000

LOEWDIN ATOMIC CHARGES
----------------------
   0 C :    0.227762
   1 C :   -0.034793
   2 O :   -0.115797
   3 F :   -0.052099
   4 H :   -0.020316
   5 H :   -0.001765
   6 H :   -0.002992

  Mayer bond orders larger than 0.100000
B(  0-C ,  1-C ) :   1.2150 B(  0-C ,  4-H ) :   0.8608 B(  0-C ,  5-H ) :   0.7949
B(  0-C ,  6-H ) :   0.7853 B(  1-C ,  2-O ) :   1.8701 B(  1-C ,  3-F ) :   0.7842
B(  1-C ,  4-H ) :   0.1699 B(  1-C ,  5-H ) :   0.1484 B(  1-C ,  6-H ) :   0.1595

Dispersion correction           -0.005732468
FINAL SINGLE POINT ENERGY      -252.799105501383

DIPOLE MOMENT
-------------
                                X             Y             Z
Electronic contribution:      3.64998       2.35016       2.61705
Nuclear contribution   :     -3.88824      -2.31007      -3.68473
                        -----------------------------------------
Total Dipole Moment    :     -0.23826       0.04009      -1.06768
                        -----------------------------------------
Magnitude (a.u.)       :      1.09468
Magnitude (Debye)      :      2.78244

Rotational constants in cm-1:     0.367620     0.319924     0.176595
Rotational constants in MHz : 11020.955969  9591.092757  5294.190719

                             ****ORCA TERMINATED NORMALLY****
TOTAL RUN TIME: 0 days 0 hours 0 minutes 6 seconds 395 msec
