                         Program Version 5.0.0 -  RELEASE  -
|  1> !B3LYP D3BJ RIJCOSX def2-SVPD def2/J TightSCF
|  2> *xyz 0 1
|  3> C          3.34350        3.35457       -3.59200
|  4> C          4.25587        3.70385       -4.72605
|  5> N          3.73403        4.29378       -5.80077
|  6> C          5.51504        3.40725       -4.63718
|  7> H          6.14919        3.60120       -5.39905
|  8> H          5.81358        2.89950       -3.80879
|  9> H          2.74138        4.51311       -5.82470
| 10> H          4.28755        4.52126       -6.61434
| 11> H          2.34726        3.66659       -3.82664
| 12> H          3.67283        3.85124       -2.70331
| 13> H          3.35820        2.29620       -3.43538
| 14> *
| 15> %MaxCore 64000
| 16>
| 17> %pal nprocs 4
| 18> end
| 19>
| 20> %scf
| 21>   MaxIter 150
| 22> end
| 23>
| 24>
| 25>                          ****END OF INPUT****

CARTESIAN COORDINATES (ANGSTROEM)
---------------------------------
  C      3.343500    3.354570   -3.592000
  C      4.255870    3.703850   -4.726050
  N      3.734030    4.293780   -5.800770
  C      5.515040    3.407250   -4.637180
  H      6.149190    3.601200   -5.399050
  H      5.813580    2.899500   -3.808790
  H      2.741380    4.513110   -5.824700
  H      4.287550    4.521260   -6.614340
  H      2.347260    3.666590   -3.826640
  H      3.672830    3.851240   -2.703310
  H      3.358200    2.296200   -3.435380

 Total Charge           Charge          ....    0
 Multiplicity           Mult            ....    1
 Number of Electrons    NEL             ....   32
 Basis Dimension        Dim             ....  136

ORBITAL ENERGIES
----------------

  NO   OCC          E(Eh)            E(eV)
   0   2.0000     -14.331368      -389.9764
   1   2.0000     -10.201310      -277.5918
   2   2.0000     -10.173498      -276.8350
   3   2.0000     -10.112292      -275.1695
   4   2.0000      -0.914695       -24.8901
   5   2.0000      -0.753718       -20.5097
   6   2.0000      -0.683763       -18.6061
   7   2.0000      -0.568639       -15.4735
   8   2.0000      -0.522710       -14.2237
   9   2.0000      -0.474248       -12.9049
  10   2.0000      -0.429962       -11.6998
  11   2.0000      -0.398129       -10.8336
  12   2.0000      -0.393766       -10.7149
  13   2.0000      -0.356046        -9.6885
  14   2.0000      -0.333939        -9.0869
  15   2.0000      -0.191425        -5.2089
  16   0.0000       0.016852         0.4586
  17   0.0000       0.046268         1.2590
  18   0.0000       0.052922         1.4401
  19   0.0000       0.061251         1.6667
  20   0.0000       0.086874         2.3640

MULLIKEN ATOMIC CHARGES
-----------------------
   0 C :    1.027431
   1 C :   -0.294079
   2 N :    0.220343
   3 C :    0.510944
   4 H :   -0.493829
   5 H :   -0.232770
   6 H :   -0.139363
   7 H :   -0.232050
   8 H :   -0.231718
   9 H :   -0.063345
  10 H :   -0.071564
Sum of atomic charges:   -0.0000000

LOEWDIN ATOMIC CHARGES
----------------------
   0 C :    0.172215
   1 C :   -0.286601
   2 N :    0.171427
   3 C :    0.162409
   4 H :   -0.086862
   5 H :   -0.075199
   6 H :   -0.008316
   7 H :    0.000200
   8 H :   -0.031800
   9 H :   -0.008698
  10 H :   -0.008776

  Mayer bond orders larger than 0.100000
B(  0-C ,  1-C ) :   1.0615 B(  0-C ,  2-N ) :   0.1188 B(  0-C ,  3-C ) :   0.1208
B(  0-C ,  8-H ) :   0.6517 B(  0-C ,  9-H ) :   0.6876 B(  0-C , 10-H ) :   0.6996
B(  1-C ,  2-N ) :   1.0475 B(  1-C ,  3-C ) :   1.7806 B(  1-C ,  4-H ) :   0.2515
B(  1-C ,  5-H ) :   0.1612 B(  1-C ,  7-H ) :  -0.1667 B(  1-C ,  8-H ) :   0.3124
B(  1-C ,  9-H ) :   0.2099 B(  1-C , 10-H ) :   0.1950 B(  2-N ,  3-C ) :   0.2581
B(  2-N ,  6-H ) :   1.1161 B(  2-N ,  7-H ) :   1.3164 B(  3-C ,  4-H ) :   0.6725
B(  3-C ,  5-H ) :   0.7397 B(  6-H ,  7-H ) :  -0.1670

Dispersion correction           -0.012071202
FINAL SINGLE POINT ENERGY      -173.032048443404

DIPOLE MOMENT
-------------
                                X             Y             Z
Electronic contribution:      0.19348       0.74721      -1.56080
Nuclear contribution   :     -0.80929      -0.53001       1.24477
                        -----------------------------------------
Total Dipole Moment    :     -0.61580       0.21719      -0.31603
                        -----------------------------------------
Magnitude (a.u.)       :      0.72544
Magnitude (Debye)      :      1.84392

Rotational constants in cm-1:     0.352070     0.305406     0.168593
Rotational constants in MHz : 10554.792117  9155.853997  5054.288053

                             ****ORCA TERMINATED NORMALLY****
TOTAL RUN TIME: 0 days 0 hours 0 minutes 10 seconds 523 msec
