                         Program Version 5.0.0 -  RELEASE  -
|  1> !B3LYP D3BJ RIJCOSX def2-SVPD def2/J TightSCF xyzfile
|  2>
|  3> *xyzfile 0 1 D2.xyz
|  4>
|  5> %MaxCore 64000
|  6>
|  7> %pal nprocs 4
|  8> end
|  9>
| 10> %scf
| 11>   MaxIter 150
| 12> end
| 13>
| 14>
| 15>                          ****END OF INPUT****

CARTESIAN COORDINATES (ANGSTROEM)
---------------------------------
  C      3.343500    3.354571   -3.591998
  C      2.952633    1.863077   -3.574849
  C      4.129209    0.898394   -3.418950
  H      3.733687   -0.100605   -3.237633
  H      4.719095    0.862556   -4.339005
  C      5.017344    1.315212   -2.221305
  C      4.255868    3.703851   -4.726054
  N      3.734032    4.293783   -5.800770
  C      5.515039    3.407255   -4.637185
  H      6.149187    3.601203   -5.399053
  H      5.813584    2.899504   -3.808785
  H      2.741380    4.513109   -5.824701
  H      4.287548    4.521260   -6.614341
  H      2.278938    1.735250   -2.725496
  H      2.377466    1.625787   -4.475869
  F      4.737055    0.854112   -1.122825
  O      5.928146    2.168108   -2.491365
  H      3.861246    3.597252   -2.662979
  H      2.446493    3.973461   -3.656556

 Total Charge           Charge          ....    0
 Multiplicity           Mult            ....    1
 Number of Electrons    NEL             ....   70
 Basis Dimension        Dim             ....  266

ORBITAL ENERGIES
----------------

  NO   OCC          E(Eh)            E(eV)
   0   2.0000     -24.787667      -674.5067
   1   2.0000     -19.147921      -521.0414
   2   2.0000     -14.321565      -389.7096
   3   2.0000     -10.375123      -282.3215
   4   2.0000     -10.211639      -277.8728
   5   2.0000     -10.203050      -277.6391
   6   2.0000     -10.186481      -277.1882
   7   2.0000     -10.184285      -277.1285
   8   2.0000     -10.083025      -274.3731
   9   2.0000      -1.337140       -36.3854
  10   2.0000      -1.027024       -27.9467
  11   2.0000      -0.906104       -24.6563
  12   2.0000      -0.810881       -22.0652
  13   2.0000      -0.743474       -20.2309
  14   2.0000      -0.696567       -18.9545
  15   2.0000      -0.678267       -18.4566
  16   2.0000      -0.618848       -16.8397
  17   2.0000      -0.575924       -15.6717
  18   2.0000      -0.565301       -15.3826
  19   2.0000      -0.545937       -14.8557
  20   2.0000      -0.529221       -14.4008
  21   2.0000      -0.498089       -13.5537
  22   2.0000      -0.477963       -13.0060
  23   2.0000      -0.465407       -12.6644
  24   2.0000      -0.450125       -12.2485
  25   2.0000      -0.418682       -11.3929
  26   2.0000      -0.393089       -10.6965
  27   2.0000      -0.391526       -10.6540
  28   2.0000      -0.365091        -9.9346
  29   2.0000      -0.357506        -9.7282
  30   2.0000      -0.352673        -9.5967
  31   2.0000      -0.327584        -8.9140
  32   2.0000      -0.320711        -8.7270
  33   2.0000      -0.270127        -7.3505
  34   2.0000      -0.179357        -4.8805
  35   0.0000      -0.043997        -1.1972
  36   0.0000       0.010128         0.2756
  37   0.0000       0.029428         0.8008
  38   0.0000       0.038165         1.0385
  39   0.0000       0.046278         1.2593

MULLIKEN ATOMIC CHARGES
-----------------------
   0 C :    0.479269
   1 C :    0.172784
   2 C :    0.286638
   3 H :   -0.292421
   4 H :    0.128201
   5 C :    0.827782
   6 C :    0.097626
   7 N :    0.155435
   8 C :    1.000217
   9 H :   -0.774250
  10 H :   -0.300072
  11 H :   -0.170223
  12 H :   -0.234623
  13 H :   -0.067549
  14 H :   -0.241909
  15 F :   -0.369378
  16 O :   -0.496962
  17 H :    0.141762
  18 H :   -0.342329
Sum of atomic charges:    0.0000000

LOEWDIN ATOMIC CHARGES
----------------------
   0 C :    0.026273
   1 C :    0.002720
   2 C :    0.069441
   3 H :    0.018363
   4 H :    0.029970
   5 C :    0.041547
   6 C :   -0.233032
   7 N :    0.168443
   8 C :    0.207068
   9 H :   -0.075500
  10 H :   -0.192630
  11 H :   -0.012211
  12 H :   -0.002136
  13 H :    0.019246
  14 H :    0.026660
  15 F :    0.005871
  16 O :   -0.132482
  17 H :    0.019541
  18 H :    0.012850

  Mayer bond orders larger than 0.100000
B(  0-C ,  1-C ) :   1.1434 B(  0-C ,  6-C ) :   1.0659 B(  0-C ,  7-N ) :   0.1355
B(  0-C ,  8-C ) :   0.2173 B(  0-C , 13-H ) :   0.1310 B(  0-C , 14-H ) :   0.1429
B(  0-C , 17-H ) :   0.7047 B(  0-C , 18-H ) :   0.7921 B(  1-C ,  2-C ) :   1.2463
B(  1-C ,  3-H ) :   0.2137 B(  1-C ,  4-H ) :   0.1678 B(  1-C , 13-H ) :   0.7650
B(  1-C , 14-H ) :   0.8865 B(  1-C , 17-H ) :   0.1692 B(  1-C , 18-H ) :   0.1950
B(  2-C ,  3-H ) :   0.7968 B(  2-C ,  4-H ) :   0.8047 B(  2-C ,  5-C ) :   1.0422
B(  2-C , 10-H ) :   0.1086 B(  2-C , 13-H ) :   0.1514 B(  2-C , 16-O ) :   0.1052
B(  3-H ,  5-C ) :   0.1113 B(  3-H , 10-H ) :  -0.1182 B(  4-H , 10-H ) :   0.1097
B(  5-C , 15-F ) :   0.7209 B(  5-C , 16-O ) :   1.6306 B(  6-C ,  7-N ) :   1.0196
B(  6-C ,  8-C ) :   1.8411 B(  6-C ,  9-H ) :   0.3088 B(  6-C , 10-H ) :   0.3235
B(  6-C , 12-H ) :  -0.1316 B(  6-C , 17-H ) :   0.1265 B(  6-C , 18-H ) :   0.1447
B(  7-N ,  8-C ) :   0.3157 B(  7-N , 11-H ) :   1.1744 B(  7-N , 12-H ) :   1.3304
B(  8-C ,  9-H ) :   0.5474 B(  8-C , 10-H ) :   0.5000 B(  9-H , 10-H ) :  -0.2524
B( 10-H , 16-O ) :   0.1406 B( 11-H , 12-H ) :  -0.1639 B( 15-F , 16-O ) :   0.1193

Dispersion correction           -0.031530930
FINAL SINGLE POINT ENERGY      -463.860177439959

DIPOLE MOMENT
-------------
                                X             Y             Z
Electronic contribution:      4.30347      -5.13183       9.54281
Nuclear contribution   :     -5.64491       4.57111      -9.93176
                        -----------------------------------------
Total Dipole Moment    :     -1.34143      -0.56072      -0.38896
                        -----------------------------------------
Magnitude (a.u.)       :      1.50504
Magnitude (Debye)      :      3.82550

Rotational constants in cm-1:     0.109825     0.034347     0.029470
Rotational constants in MHz :  3292.465653  1029.684117   883.494260

                             ****ORCA TERMINATED NORMALLY****
TOTAL RUN TIME: 0 days 0 hours 0 minutes 53 seconds 212 msec
