                         Program Version 5.0.0 -  RELEASE  -
|  1> !BLYP D3BJ RIJCOSX def2-SVPD def2/J TightSCF
|  2> *xyz -1 1
|  3> C         -0.25875        1.00432       -5.40983
|  4> C          0.39596       -0.37070       -5.33994
|  5> O         -0.32633       -1.39040       -5.49128
|  6> O          1.61941       -0.40073       -5.03683
|  7> H         -1.28979        0.89539       -5.67439
|  8> H          0.23798        1.59877       -6.14792
|  9> H         -0.18395        1.48386       -4.45623
| 10> *
| 11> %MaxCore 64000
| 12>
| 13> %pal nprocs 4
| 14> end
| 15>
| 16> %scf
| 17>   MaxIter 150
| 18> end
| 19>
| 20>
| 21>                          ****END OF INPUT****

CARTESIAN COORDINATES (ANGSTROEM)
---------------------------------
  C     -0.258750    1.004320   -5.409830
  C      0.395960   -0.370700   -5.339940
  O     -0.326330   -1.390400   -5.491280
  O      1.619410   -0.400730   -5.036830
  H     -1.289790    0.895390   -5.674390
  H      0.237980    1.598770   -6.147920
  H     -0.183950    1.483860   -4.456230

 Total Charge           Charge          ....   -1
 Multiplicity           Mult            ....    1
 Number of Electrons    NEL             ....   32
 Basis Dimension        Dim             ....  110

ORBITAL ENERGIES
----------------

  NO   OCC          E(Eh)            E(eV)
   0   2.0000     -18.529559      -504.2149
   1   2.0000     -18.527081      -504.1475
   2   2.0000      -9.802207      -266.7316
   3   2.0000      -9.736544      -264.9448
   4   2.0000      -0.713005       -19.4018
   5   2.0000      -0.624443       -16.9920
   6   2.0000      -0.464053       -12.6275
   7   2.0000      -0.242008        -6.5854
   8   2.0000      -0.209518        -5.7013
   9   2.0000      -0.193985        -5.2786
  10   2.0000      -0.165397        -4.5007
  11   2.0000      -0.129822        -3.5326
  12   2.0000      -0.116583        -3.1724
  13   2.0000      -0.006405        -0.1743
  14   2.0000       0.004151         0.1130
  15   2.0000       0.024777         0.6742
  16   0.0000       0.155006         4.2179
  17   0.0000       0.197123         5.3640
  18   0.0000       0.200725         5.4620
  19   0.0000       0.223605         6.0846
  20   0.0000       0.241877         6.5818

MULLIKEN ATOMIC CHARGES
-----------------------
   0 C :    0.858730
   1 C :   -0.142484
   2 O :   -0.549452
   3 O :   -0.584043
   4 H :   -0.214317
   5 H :   -0.182488
   6 H :   -0.185946
Sum of atomic charges:   -1.0000000

LOEWDIN ATOMIC CHARGES
----------------------
   0 C :    0.155220
   1 C :   -0.358361
   2 O :   -0.322221
   3 O :   -0.328524
   4 H :   -0.053985
   5 H :   -0.047576
   6 H :   -0.044554

  Mayer bond orders larger than 0.100000
B(  0-C ,  1-C ) :   1.2159 B(  0-C ,  4-H ) :   0.7904 B(  0-C ,  5-H ) :   0.7331
B(  0-C ,  6-H ) :   0.7475 B(  1-C ,  2-O ) :   1.5533 B(  1-C ,  3-O ) :   1.5774
B(  1-C ,  4-H ) :   0.3158 B(  1-C ,  5-H ) :   0.2305 B(  1-C ,  6-H ) :   0.2168

Dispersion correction           -0.007714545
FINAL SINGLE POINT ENERGY      -228.325441303108

DIPOLE MOMENT
-------------
                                X             Y             Z
Electronic contribution:      1.55660      -3.29963       0.19345
Nuclear contribution   :     -2.15615       4.52621      -0.30445
                        -----------------------------------------
Total Dipole Moment    :     -0.59954       1.22658      -0.11099
                        -----------------------------------------
Magnitude (a.u.)       :      1.36977
Magnitude (Debye)      :      3.48168

Rotational constants in cm-1:     0.393591     0.332639     0.186460
Rotational constants in MHz : 11799.557437  9972.275109  5589.926304

                             ****ORCA TERMINATED NORMALLY****
TOTAL RUN TIME: 0 days 0 hours 0 minutes 3 seconds 939 msec
