                         Program Version 5.0.0 -  RELEASE  -
|  1> !BLYP D3BJ RIJCOSX def2-SVPD def2/J TightSCF
|  2> *xyz 1 1
|  3> C          0.81607       -2.10149       -2.18655
|  4> N          1.10055       -2.46749       -3.59927
|  5> H          1.70061       -1.75723       -4.07838
|  6> H          0.29386       -2.35977       -4.25632
|  7> H          1.50132       -3.42848       -3.69491
|  8> H          0.40947       -1.11246       -2.14929
|  9> H          1.72290       -2.13590       -1.61965
| 10> H          0.11112       -2.79271       -1.77405
| 11> *
| 12> %MaxCore 64000
| 13>
| 14> %pal nprocs 4
| 15> end
| 16>
| 17> %scf
| 18>   MaxIter 150
| 19> end
| 20>
| 21>
| 22>                          ****END OF INPUT****

CARTESIAN COORDINATES (ANGSTROEM)
---------------------------------
  C      0.816070   -2.101490   -2.186550
  N      1.100550   -2.467490   -3.599270
  H      1.700610   -1.757230   -4.078380
  H      0.293860   -2.359770   -4.256320
  H      1.501320   -3.428480   -3.694910
  H      0.409470   -1.112460   -2.149290
  H      1.722900   -2.135900   -1.619650
  H      0.111120   -2.792710   -1.774050

 Total Charge           Charge          ....    1
 Multiplicity           Mult            ....    1
 Number of Electrons    NEL             ....   18
 Basis Dimension        Dim             ....   88

ORBITAL ENERGIES
----------------

  NO   OCC          E(Eh)            E(eV)
   0   2.0000     -14.374564      -391.1518
   1   2.0000     -10.182290      -277.0742
   2   2.0000      -1.126443       -30.6521
   3   2.0000      -0.866421       -23.5765
   4   2.0000      -0.760883       -20.7047
   5   2.0000      -0.727069       -19.7845
   6   2.0000      -0.668532       -18.1917
   7   2.0000      -0.580451       -15.7949
   8   2.0000      -0.575480       -15.6596
   9   0.0000      -0.235847        -6.4177
  10   0.0000      -0.174898        -4.7592
  11   0.0000      -0.168984        -4.5983
  12   0.0000      -0.155896        -4.2422
  13   0.0000      -0.109637        -2.9834

MULLIKEN ATOMIC CHARGES
-----------------------
   0 C :    1.368802
   1 N :   -0.781380
   2 H :    0.331751
   3 H :    0.315873
   4 H :    0.351214
   5 H :   -0.200517
   6 H :   -0.187931
   7 H :   -0.197812
Sum of atomic charges:    1.0000000

LOEWDIN ATOMIC CHARGES
----------------------
   0 C :    0.290183
   1 N :    0.303068
   2 H :    0.112439
   3 H :    0.113130
   4 H :    0.119151
   5 H :    0.020627
   6 H :    0.021212
   7 H :    0.020189

  Mayer bond orders larger than 0.100000
B(  0-C ,  1-N ) :   0.7792 B(  0-C ,  5-H ) :   0.8077 B(  0-C ,  6-H ) :   0.8038
B(  0-C ,  7-H ) :   0.8134 B(  1-N ,  2-H ) :   0.7881 B(  1-N ,  3-H ) :   0.8075
B(  1-N ,  4-H ) :   0.7369 B(  1-N ,  5-H ) :   0.1246 B(  1-N ,  6-H ) :   0.1260
B(  1-N ,  7-H ) :   0.1182

Dispersion correction           -0.006766552
FINAL SINGLE POINT ENERGY       -96.095749969897

DIPOLE MOMENT
-------------
                                X             Y             Z
Electronic contribution:      0.21178      -0.31123      -0.95836
Nuclear contribution   :     -0.05716       0.15480       0.08012
                        -----------------------------------------
Total Dipole Moment    :      0.15462      -0.15643      -0.87824
                        -----------------------------------------
Magnitude (a.u.)       :      0.90537
Magnitude (Debye)      :      2.30126

Rotational constants in cm-1:     2.875975     0.681325     0.670600
Rotational constants in MHz : 86219.567947 20425.600745 20104.086440

                             ****ORCA TERMINATED NORMALLY****
TOTAL RUN TIME: 0 days 0 hours 0 minutes 3 seconds 48 msec
