                         Program Version 5.0.0 -  RELEASE  -
|  1> !BLYP D3BJ RIJCOSX def2-SVPD def2/J TightSCF
|  2> *xyz 0 1
|  3> C         -0.25875        1.00432       -5.40983
|  4> C          0.39596       -0.37070       -5.33994
|  5> F         -0.32633       -1.39040       -5.49128
|  6> O          1.61941       -0.40073       -5.03683
|  7> H         -1.28979        0.89539       -5.67439
|  8> H          0.23798        1.59877       -6.14792
|  9> H         -0.18395        1.48386       -4.45623
| 10> *
| 11> %MaxCore 64000
| 12>
| 13> %pal nprocs 4
| 14> end
| 15>
| 16> %scf
| 17>   MaxIter 150
| 18> end
| 19>
| 20>
| 21>                          ****END OF INPUT****

CARTESIAN COORDINATES (ANGSTROEM)
---------------------------------
  C     -0.258750    1.004320   -5.409830
  C      0.395960   -0.370700   -5.339940
  F     -0.326330   -1.390400   -5.491280
  O      1.619410   -0.400730   -5.036830
  H     -1.289790    0.895390   -5.674390
  H      0.237980    1.598770   -6.147920
  H     -0.183950    1.483860   -4.456230

 Total Charge           Charge          ....    0
 Multiplicity           Mult            ....    1
 Number of Electrons    NEL             ....   32
 Basis Dimension        Dim             ....  110

ORBITAL ENERGIES
----------------

  NO   OCC          E(Eh)            E(eV)
   0   2.0000     -24.377964      -663.3581
   1   2.0000     -18.800298      -511.5821
   2   2.0000     -10.102784      -274.9107
   3   2.0000      -9.952498      -270.8212
   4   2.0000      -1.198565       -32.6146
   5   2.0000      -0.931228       -25.3400
   6   2.0000      -0.692743       -18.8505
   7   2.0000      -0.590769       -16.0756
   8   2.0000      -0.488706       -13.2984
   9   2.0000      -0.482708       -13.1351
  10   2.0000      -0.442810       -12.0495
  11   2.0000      -0.398235       -10.8365
  12   2.0000      -0.385310       -10.4848
  13   2.0000      -0.350864        -9.5475
  14   2.0000      -0.311427        -8.4744
  15   2.0000      -0.245764        -6.6876
  16   0.0000      -0.072772        -1.9802
  17   0.0000      -0.007619        -0.2073
  18   0.0000       0.040723         1.1081
  19   0.0000       0.064232         1.7478
  20   0.0000       0.068495         1.8638

MULLIKEN ATOMIC CHARGES
-----------------------
   0 C :    0.815695
   1 C :    0.243547
   2 F :   -0.280199
   3 O :   -0.382260
   4 H :   -0.179739
   5 H :   -0.110790
   6 H :   -0.106254
Sum of atomic charges:    0.0000000

LOEWDIN ATOMIC CHARGES
----------------------
   0 C :    0.227688
   1 C :   -0.064144
   2 F :   -0.019060
   3 O :   -0.122077
   4 H :   -0.020488
   5 H :   -0.001750
   6 H :   -0.000169

  Mayer bond orders larger than 0.100000
B(  0-C ,  1-C ) :   1.2452 B(  0-C ,  4-H ) :   0.8067 B(  0-C ,  5-H ) :   0.7215
B(  0-C ,  6-H ) :   0.7393 B(  1-C ,  2-F ) :   0.8831 B(  1-C ,  3-O ) :   1.8792
B(  1-C ,  4-H ) :   0.2092 B(  1-C ,  5-H ) :   0.2066 B(  1-C ,  6-H ) :   0.1874
B(  2-F ,  3-O ) :   0.1038

Dispersion correction           -0.007105005
FINAL SINGLE POINT ENERGY      -252.861822169323

DIPOLE MOMENT
-------------
                                X             Y             Z
Electronic contribution:      0.47091      -5.06531      -0.08793
Nuclear contribution   :     -1.44986       5.66477      -0.12483
                        -----------------------------------------
Total Dipole Moment    :     -0.97894       0.59946      -0.21276
                        -----------------------------------------
Magnitude (a.u.)       :      1.16745
Magnitude (Debye)      :      2.96743

Rotational constants in cm-1:     0.371735     0.317798     0.176902
Rotational constants in MHz : 11144.324945  9527.341239  5303.391856

                             ****ORCA TERMINATED NORMALLY****
TOTAL RUN TIME: 0 days 0 hours 0 minutes 3 seconds 835 msec
