                         Program Version 5.0.0 -  RELEASE  -
|  1> !BLYP D3BJ RIJCOSX def2-SVPD def2/J TightSCF
|  2> *xyz 0 1
|  3> C          0.81607       -2.10149       -2.18655
|  4> C          1.10055       -2.46749       -3.59927
|  5> H          1.70061       -1.75723       -4.07838
|  6> H          0.29386       -2.35977       -4.25632
|  7> H          1.50132       -3.42848       -3.69491
|  8> H          0.40947       -1.11246       -2.14929
|  9> H          1.72290       -2.13590       -1.61965
| 10> H          0.11112       -2.79271       -1.77405
| 11> *
| 12> %MaxCore 64000
| 13>
| 14> %pal nprocs 4
| 15> end
| 16>
| 17> %scf
| 18>   MaxIter 150
| 19> end
| 20>
| 21>
| 22>                          ****END OF INPUT****

CARTESIAN COORDINATES (ANGSTROEM)
---------------------------------
  C      0.816070   -2.101490   -2.186550
  C      1.100550   -2.467490   -3.599270
  H      1.700610   -1.757230   -4.078380
  H      0.293860   -2.359770   -4.256320
  H      1.501320   -3.428480   -3.694910
  H      0.409470   -1.112460   -2.149290
  H      1.722900   -2.135900   -1.619650
  H      0.111120   -2.792710   -1.774050

 Total Charge           Charge          ....    0
 Multiplicity           Mult            ....    1
 Number of Electrons    NEL             ....   18
 Basis Dimension        Dim             ....   88

ORBITAL ENERGIES
----------------

  NO   OCC          E(Eh)            E(eV)
   0   2.0000      -9.903518      -269.4884
   1   2.0000      -9.894744      -269.2497
   2   2.0000      -0.682588       -18.5742
   3   2.0000      -0.551149       -14.9975
   4   2.0000      -0.401072       -10.9137
   5   2.0000      -0.383550       -10.4369
   6   2.0000      -0.328990        -8.9523
   7   2.0000      -0.306356        -8.3364
   8   2.0000      -0.286609        -7.7990
   9   0.0000       0.009518         0.2590
  10   0.0000       0.040462         1.1010
  11   0.0000       0.077320         2.1040
  12   0.0000       0.082005         2.2315
  13   0.0000       0.100609         2.7377

MULLIKEN ATOMIC CHARGES
-----------------------
   0 C :    0.698421
   1 C :    0.777278
   2 H :   -0.304032
   3 H :   -0.319978
   4 H :   -0.288694
   5 H :   -0.178661
   6 H :   -0.188783
   7 H :   -0.195551
Sum of atomic charges:    0.0000000

LOEWDIN ATOMIC CHARGES
----------------------
   0 C :    0.092775
   1 C :    0.081096
   2 H :   -0.037927
   3 H :   -0.038311
   4 H :   -0.029778
   5 H :   -0.021981
   6 H :   -0.022233
   7 H :   -0.023641

  Mayer bond orders larger than 0.100000
B(  0-C ,  1-C ) :   1.4337 B(  0-C ,  2-H ) :   0.1862 B(  0-C ,  3-H ) :   0.1684
B(  0-C ,  4-H ) :   0.1958 B(  0-C ,  5-H ) :   0.7751 B(  0-C ,  6-H ) :   0.7453
B(  0-C ,  7-H ) :   0.7637 B(  1-C ,  2-H ) :   0.6493 B(  1-C ,  3-H ) :   0.6509
B(  1-C ,  4-H ) :   0.7177 B(  1-C ,  5-H ) :   0.2175 B(  1-C ,  6-H ) :   0.2139
B(  1-C ,  7-H ) :   0.2066 B(  2-H ,  3-H ) :   0.3062

Dispersion correction           -0.006811495
FINAL SINGLE POINT ENERGY       -79.701371767213

DIPOLE MOMENT
-------------
                                X             Y             Z
Electronic contribution:      0.00509      -0.07224       0.12830
Nuclear contribution   :     -0.00793       0.09023      -0.16124
                        -----------------------------------------
Total Dipole Moment    :     -0.00284       0.01799      -0.03295
                        -----------------------------------------
Magnitude (a.u.)       :      0.03764
Magnitude (Debye)      :      0.09568

Rotational constants in cm-1:     2.876169     0.710562     0.698917
Rotational constants in MHz : 86225.370734 21302.115394 20952.991121

                             ****ORCA TERMINATED NORMALLY****
TOTAL RUN TIME: 0 days 0 hours 0 minutes 2 seconds 910 msec
