                         Program Version 5.0.0 -  RELEASE  -
|  1> !BLYP D3BJ RIJCOSX def2-SVPD def2/J TightSCF
|  2> *xyz 0 1
|  3> C         -0.25875        1.00432       -5.40983
|  4> C          0.39596       -0.37070       -5.33994
|  5> O         -0.32633       -1.39040       -5.49128
|  6> F          1.61941       -0.40073       -5.03683
|  7> H         -1.28979        0.89539       -5.67439
|  8> H          0.23798        1.59877       -6.14792
|  9> H         -0.18395        1.48386       -4.45623
| 10> *
| 11> %MaxCore 64000
| 12>
| 13> %pal nprocs 4
| 14> end
| 15>
| 16> %scf
| 17>   MaxIter 150
| 18> end
| 19>
| 20>
| 21>                          ****END OF INPUT****

CARTESIAN COORDINATES (ANGSTROEM)
---------------------------------
  C     -0.258750    1.004320   -5.409830
  C      0.395960   -0.370700   -5.339940
  O     -0.326330   -1.390400   -5.491280
  F      1.619410   -0.400730   -5.036830
  H     -1.289790    0.895390   -5.674390
  H      0.237980    1.598770   -6.147920
  H     -0.183950    1.483860   -4.456230

 Total Charge           Charge          ....    0
 Multiplicity           Mult            ....    1
 Number of Electrons    NEL             ....   32
 Basis Dimension        Dim             ....  110

ORBITAL ENERGIES
----------------

  NO   OCC          E(Eh)            E(eV)
   0   2.0000     -24.375935      -663.3029
   1   2.0000     -18.801907      -511.6259
   2   2.0000     -10.102618      -274.9062
   3   2.0000      -9.952324      -270.8165
   4   2.0000      -1.196302       -32.5530
   5   2.0000      -0.932672       -25.3793
   6   2.0000      -0.693750       -18.8779
   7   2.0000      -0.588856       -16.0236
   8   2.0000      -0.488094       -13.2817
   9   2.0000      -0.481541       -13.1034
  10   2.0000      -0.442244       -12.0341
  11   2.0000      -0.397027       -10.8036
  12   2.0000      -0.385498       -10.4899
  13   2.0000      -0.351034        -9.5521
  14   2.0000      -0.315617        -8.5884
  15   2.0000      -0.246333        -6.7031
  16   0.0000      -0.070002        -1.9048
  17   0.0000      -0.007243        -0.1971
  18   0.0000       0.040778         1.1096
  19   0.0000       0.063718         1.7338
  20   0.0000       0.070756         1.9254

MULLIKEN ATOMIC CHARGES
-----------------------
   0 C :    0.827048
   1 C :    0.257017
   2 O :   -0.355162
   3 F :   -0.307558
   4 H :   -0.194858
   5 H :   -0.115087
   6 H :   -0.111400
Sum of atomic charges:   -0.0000000

LOEWDIN ATOMIC CHARGES
----------------------
   0 C :    0.227879
   1 C :   -0.066762
   2 O :   -0.117593
   3 F :   -0.022247
   4 H :   -0.006458
   5 H :   -0.009123
   6 H :   -0.005697

  Mayer bond orders larger than 0.100000
B(  0-C ,  1-C ) :   1.2287 B(  0-C ,  4-H ) :   0.7968 B(  0-C ,  5-H ) :   0.7302
B(  0-C ,  6-H ) :   0.7408 B(  1-C ,  2-O ) :   1.9048 B(  1-C ,  3-F ) :   0.8381
B(  1-C ,  4-H ) :   0.2800 B(  1-C ,  5-H ) :   0.1826 B(  1-C ,  6-H ) :   0.1731
B(  2-O ,  3-F ) :   0.1121

Dispersion correction           -0.007100378
FINAL SINGLE POINT ENERGY      -252.864207882210

DIPOLE MOMENT
-------------
                                X             Y             Z
Electronic contribution:      3.60144      -3.47081       0.64416
Nuclear contribution   :     -3.46039       4.64214      -0.59441
                        -----------------------------------------
Total Dipole Moment    :      0.14105       1.17133       0.04975
                        -----------------------------------------
Magnitude (a.u.)       :      1.18084
Magnitude (Debye)      :      3.00147

Rotational constants in cm-1:     0.366844     0.321935     0.177045
Rotational constants in MHz : 10997.709774  9651.373819  5307.687677

                             ****ORCA TERMINATED NORMALLY****
TOTAL RUN TIME: 0 days 0 hours 0 minutes 3 seconds 911 msec
