                         Program Version 5.0.0 -  RELEASE  -
|  1> !BLYP D3BJ RIJCOSX def2-SVPD def2/J TightSCF xyzfile
|  2>
|  3> *xyzfile 0 1 D1.xyz
|  4>
|  5> %MaxCore 64000
|  6>
|  7> %pal nprocs 4
|  8> end
|  9>
| 10> %scf
| 11>   MaxIter 150
| 12> end
| 13>
| 14>
| 15>                          ****END OF INPUT****

CARTESIAN COORDINATES (ANGSTROEM)
---------------------------------
  C      0.816067   -2.101491   -2.186546
  H      1.696232   -2.368691   -1.600457
  C      1.100552   -2.467492   -3.599269
  C      0.516243   -0.613634   -2.039373
  H     -0.020066   -2.712849   -1.840844
  C     -0.868621   -0.193925   -2.546303
  C     -0.984801    1.284739   -2.928686
  H     -0.764939    1.904116   -2.051568
  H     -2.032613    1.478953   -3.178952
  C     -0.106085    1.769914   -4.089836
  H     -0.347744    2.822196   -4.262942
  H      0.949683    1.745875   -3.808781
  C     -0.258747    1.004323   -5.409829
  C      0.395958   -0.370696   -5.339939
  H      0.239150    1.569393   -6.201253
  H     -1.309360    0.888694   -5.682455
  H      1.700606   -1.757225   -4.078378
  H      0.293855   -2.359766   -4.256324
  H      1.501324   -3.428479   -3.694915
  F     -0.326329   -1.390398   -5.491279
  O      1.619412   -0.400726   -5.036827
  H     -1.607271   -0.412651   -1.768955
  H     -1.157234   -0.796164   -3.409254
  H      1.299044   -0.056805   -2.558982
  H      0.612393   -0.365579   -0.979171

 Total Charge           Charge          ....    0
 Multiplicity           Mult            ....    1
 Number of Electrons    NEL             ....   80
 Basis Dimension        Dim             ....  326

ORBITAL ENERGIES
----------------

  NO   OCC          E(Eh)            E(eV)
   0   2.0000     -24.382324      -663.4768
   1   2.0000     -18.803716      -511.6751
   2   2.0000     -10.102508      -274.9032
   3   2.0000      -9.955489      -270.9026
   4   2.0000      -9.936059      -270.3739
   5   2.0000      -9.924804      -270.0677
   6   2.0000      -9.917439      -269.8672
   7   2.0000      -9.904182      -269.5065
   8   2.0000      -9.895593      -269.2728
   9   2.0000      -9.849595      -268.0211
  10   2.0000      -1.207647       -32.8617
  11   2.0000      -0.943118       -25.6635
  12   2.0000      -0.738832       -20.1046
  13   2.0000      -0.707995       -19.2655
  14   2.0000      -0.663345       -18.0505
  15   2.0000      -0.629238       -17.1224
  16   2.0000      -0.593312       -16.1448
  17   2.0000      -0.566416       -15.4130
  18   2.0000      -0.531294       -14.4573
  19   2.0000      -0.496978       -13.5235
  20   2.0000      -0.490549       -13.3485
  21   2.0000      -0.476070       -12.9545
  22   2.0000      -0.462372       -12.5818
  23   2.0000      -0.424242       -11.5442
  24   2.0000      -0.404354       -11.0030
  25   2.0000      -0.392831       -10.6895
  26   2.0000      -0.387249       -10.5376
  27   2.0000      -0.374478       -10.1901
  28   2.0000      -0.361776        -9.8444
  29   2.0000      -0.352260        -9.5855
  30   2.0000      -0.332600        -9.0505
  31   2.0000      -0.322583        -8.7779
  32   2.0000      -0.318660        -8.6712
  33   2.0000      -0.306833        -8.3493
  34   2.0000      -0.295625        -8.0444
  35   2.0000      -0.282945        -7.6993
  36   2.0000      -0.273345        -7.4381
  37   2.0000      -0.265012        -7.2114
  38   2.0000      -0.255221        -6.9449
  39   2.0000      -0.220370        -5.9966
  40   0.0000      -0.079844        -2.1727
  41   0.0000      -0.004508        -0.1227
  42   0.0000       0.017699         0.4816
  43   0.0000       0.021855         0.5947
  44   0.0000       0.023507         0.6397

MULLIKEN ATOMIC CHARGES
-----------------------
   0 C :    0.479767
   1 H :   -0.269820
   2 C :    1.836916
   3 C :    0.492035
   4 H :   -0.329402
   5 C :    0.477198
   6 C :    0.646986
   7 H :   -0.217690
   8 H :   -0.093349
   9 C :    0.343472
  10 H :   -0.383325
  11 H :   -0.016624
  12 C :    0.582254
  13 C :    0.354102
  14 H :   -0.145775
  15 H :   -0.182271
  16 H :   -0.431077
  17 H :   -0.498823
  18 H :   -0.429696
  19 F :   -0.430672
  20 O :   -0.477327
  21 H :   -0.279285
  22 H :   -0.438341
  23 H :   -0.134415
  24 H :   -0.454838
Sum of atomic charges:   -0.0000000

LOEWDIN ATOMIC CHARGES
----------------------
   0 C :   -0.037930
   1 H :    0.016454
   2 C :    0.138929
   3 C :   -0.011054
   4 H :    0.016437
   5 C :   -0.005955
   6 C :   -0.014203
   7 H :    0.021889
   8 H :    0.015937
   9 C :   -0.005450
  10 H :    0.019778
  11 H :    0.013540
  12 C :    0.072934
  13 C :   -0.000127
  14 H :    0.037336
  15 H :    0.023926
  16 H :   -0.104702
  17 H :   -0.082300
  18 H :   -0.018462
  19 F :   -0.026823
  20 O :   -0.101862
  21 H :    0.022426
  22 H :   -0.006342
  23 H :    0.001742
  24 H :    0.013883

  Mayer bond orders larger than 0.100000
B(  0-C ,  1-H ) :   0.6295 B(  0-C ,  2-C ) :   0.9930 B(  0-C ,  3-C ) :   1.1390
B(  0-C ,  4-H ) :   0.6444 B(  0-C , 16-H ) :   0.3782 B(  0-C , 17-H ) :   0.2837
B(  0-C , 18-H ) :   0.2406 B(  0-C , 23-H ) :   0.2151 B(  0-C , 24-H ) :   0.1282
B(  1-H ,  3-C ) :   0.2361 B(  1-H ,  4-H ) :  -0.1970 B(  1-H , 17-H ) :   0.1082
B(  2-C ,  3-C ) :   0.2466 B(  2-C ,  4-H ) :   0.1922 B(  2-C , 16-H ) :   0.2006
B(  2-C , 18-H ) :   0.3551 B(  2-C , 23-H ) :  -0.2258 B(  2-C , 24-H ) :   0.1689
B(  3-C ,  4-H ) :   0.1123 B(  3-C ,  5-C ) :   1.1189 B(  3-C , 21-H ) :   0.2992
B(  3-C , 22-H ) :   0.1557 B(  3-C , 23-H ) :   0.7151 B(  3-C , 24-H ) :   0.7056
B(  5-C ,  6-C ) :   1.1810 B(  5-C ,  7-H ) :   0.2013 B(  5-C ,  8-H ) :   0.2804
B(  5-C ,  9-C ) :   0.1624 B(  5-C , 21-H ) :   0.6187 B(  5-C , 22-H ) :   0.6543
B(  5-C , 23-H ) :   0.1569 B(  5-C , 24-H ) :   0.2377 B(  6-C ,  7-H ) :   0.6778
B(  6-C ,  8-H ) :   0.5181 B(  6-C ,  9-C ) :   1.2109 B(  6-C , 10-H ) :   0.1970
B(  6-C , 11-H ) :   0.1297 B(  6-C , 21-H ) :   0.1540 B(  6-C , 22-H ) :   0.1377
B(  7-H ,  8-H ) :  -0.1360 B(  7-H ,  9-C ) :   0.1981 B(  7-H , 15-H ) :  -0.1105
B(  8-H ,  9-C ) :   0.1934 B(  9-C , 10-H ) :   0.7191 B(  9-C , 11-H ) :   0.7420
B(  9-C , 12-C ) :   1.1955 B(  9-C , 13-C ) :   0.1366 B(  9-C , 14-H ) :   0.2239
B(  9-C , 15-H ) :   0.1357 B( 10-H , 11-H ) :  -0.1679 B( 10-H , 12-C ) :   0.1649
B( 11-H , 12-C ) :   0.1204 B( 12-C , 13-C ) :   1.2012 B( 12-C , 14-H ) :   0.5729
B( 12-C , 15-H ) :   0.7766 B( 13-C , 14-H ) :   0.2392 B( 13-C , 15-H ) :   0.2092
B( 13-C , 16-H ) :   0.1170 B( 13-C , 17-H ) :   0.1447 B( 13-C , 19-F ) :   0.7712
B( 13-C , 20-O ) :   1.8083 B( 14-H , 15-H ) :  -0.1203 B( 16-H , 17-H ) :   0.4945
B( 16-H , 20-O ) :   0.2241 B( 16-H , 23-H ) :   0.2920 B( 16-H , 24-H ) :  -0.2418
B( 17-H , 19-F ) :   0.2425 B( 18-H , 23-H ) :  -0.1834 B( 19-F , 20-O ) :   0.1121
B( 23-H , 24-H ) :  -0.1318

Dispersion correction           -0.052536264
FINAL SINGLE POINT ENERGY      -488.399855249019

DIPOLE MOMENT
-------------
                                X             Y             Z
Electronic contribution:      0.37250      -2.00923     -10.55978
Nuclear contribution   :     -1.21560       2.80077      10.24180
                        -----------------------------------------
Total Dipole Moment    :     -0.84311       0.79154      -0.31797
                        -----------------------------------------
Magnitude (a.u.)       :      1.19936
Magnitude (Debye)      :      3.04854

Rotational constants in cm-1:     0.051255     0.042531     0.028894
Rotational constants in MHz :  1536.587743  1275.050721   866.218876

                             ****ORCA TERMINATED NORMALLY****
TOTAL RUN TIME: 0 days 0 hours 0 minutes 31 seconds 614 msec
