                         Program Version 5.0.0 -  RELEASE  -
|  1> !BLYP D3BJ RIJCOSX def2-SVPD def2/J TightSCF xyzfile
|  2>
|  3> *xyzfile 0 1 D2.xyz
|  4>
|  5> %MaxCore 64000
|  6>
|  7> %pal nprocs 4
|  8> end
|  9>
| 10> %scf
| 11>   MaxIter 150
| 12> end
| 13>
| 14>
| 15>                          ****END OF INPUT****

CARTESIAN COORDINATES (ANGSTROEM)
---------------------------------
  C      0.816067   -2.101491   -2.186546
  H      1.696232   -2.368691   -1.600457
  C      1.100552   -2.467492   -3.599269
  C      0.516243   -0.613634   -2.039373
  H     -0.020066   -2.712849   -1.840844
  C     -0.868621   -0.193925   -2.546303
  C     -0.984801    1.284739   -2.928686
  H     -0.764939    1.904116   -2.051568
  H     -2.032613    1.478953   -3.178952
  C     -0.106085    1.769914   -4.089836
  H     -0.347744    2.822196   -4.262942
  H      0.949683    1.745875   -3.808781
  C     -0.258747    1.004323   -5.409829
  C      0.395958   -0.370696   -5.339939
  H      0.239150    1.569393   -6.201253
  H     -1.309360    0.888694   -5.682455
  H      1.700606   -1.757225   -4.078378
  H      0.293855   -2.359766   -4.256324
  H      1.501324   -3.428479   -3.694915
  O     -0.326329   -1.390398   -5.491279
  F      1.619412   -0.400726   -5.036827
  H     -1.607271   -0.412651   -1.768955
  H     -1.157234   -0.796164   -3.409254
  H      1.299044   -0.056805   -2.558982
  H      0.612393   -0.365579   -0.979171

 Total Charge           Charge          ....    0
 Multiplicity           Mult            ....    1
 Number of Electrons    NEL             ....   80
 Basis Dimension        Dim             ....  326

ORBITAL ENERGIES
----------------

  NO   OCC          E(Eh)            E(eV)
   0   2.0000     -24.382649      -663.4856
   1   2.0000     -18.803702      -511.6747
   2   2.0000     -10.102267      -274.8967
   3   2.0000      -9.955432      -270.9011
   4   2.0000      -9.939966      -270.4802
   5   2.0000      -9.924811      -270.0678
   6   2.0000      -9.912296      -269.7273
   7   2.0000      -9.907837      -269.6059
   8   2.0000      -9.896625      -269.3009
   9   2.0000      -9.850851      -268.0553
  10   2.0000      -1.207787       -32.8655
  11   2.0000      -0.942771       -25.6541
  12   2.0000      -0.741295       -20.1717
  13   2.0000      -0.709583       -19.3087
  14   2.0000      -0.664029       -18.0691
  15   2.0000      -0.628534       -17.1033
  16   2.0000      -0.593559       -16.1516
  17   2.0000      -0.566593       -15.4178
  18   2.0000      -0.532102       -14.4792
  19   2.0000      -0.499993       -13.6055
  20   2.0000      -0.494160       -13.4468
  21   2.0000      -0.480994       -13.0885
  22   2.0000      -0.449854       -12.2412
  23   2.0000      -0.425570       -11.5804
  24   2.0000      -0.403518       -10.9803
  25   2.0000      -0.393316       -10.7027
  26   2.0000      -0.388477       -10.5710
  27   2.0000      -0.379816       -10.3353
  28   2.0000      -0.363810        -9.8998
  29   2.0000      -0.344699        -9.3797
  30   2.0000      -0.339509        -9.2385
  31   2.0000      -0.329387        -8.9631
  32   2.0000      -0.322873        -8.7858
  33   2.0000      -0.306086        -8.3290
  34   2.0000      -0.290004        -7.8914
  35   2.0000      -0.284492        -7.7414
  36   2.0000      -0.275175        -7.4879
  37   2.0000      -0.261840        -7.1250
  38   2.0000      -0.257121        -6.9966
  39   2.0000      -0.221026        -6.0144
  40   0.0000      -0.078513        -2.1364
  41   0.0000      -0.006262        -0.1704
  42   0.0000       0.018206         0.4954
  43   0.0000       0.020277         0.5518
  44   0.0000       0.023196         0.6312

MULLIKEN ATOMIC CHARGES
-----------------------
   0 C :    0.483909
   1 H :   -0.263143
   2 C :    1.851093
   3 C :    0.465901
   4 H :   -0.325634
   5 C :    0.534780
   6 C :    0.640459
   7 H :   -0.228419
   8 H :   -0.075215
   9 C :    0.343026
  10 H :   -0.401185
  11 H :   -0.056887
  12 C :    0.606911
  13 C :    0.318872
  14 H :   -0.143977
  15 H :   -0.175705
  16 H :   -0.497198
  17 H :   -0.437688
  18 H :   -0.422842
  19 O :   -0.460670
  20 F :   -0.429583
  21 H :   -0.266792
  22 H :   -0.471843
  23 H :   -0.153647
  24 H :   -0.434523
Sum of atomic charges:   -0.0000000

LOEWDIN ATOMIC CHARGES
----------------------
   0 C :   -0.038918
   1 H :    0.013921
   2 C :    0.142069
   3 C :   -0.013881
   4 H :    0.019878
   5 C :   -0.003296
   6 C :   -0.012933
   7 H :    0.020292
   8 H :    0.018245
   9 C :   -0.012786
  10 H :    0.018540
  11 H :    0.008615
  12 C :    0.078608
  13 C :   -0.004326
  14 H :    0.033166
  15 H :    0.035728
  16 H :   -0.079646
  17 H :   -0.104585
  18 H :   -0.017040
  19 O :   -0.109189
  20 F :   -0.021009
  21 H :    0.022382
  22 H :   -0.005575
  23 H :   -0.002045
  24 H :    0.013785

  Mayer bond orders larger than 0.100000
B(  0-C ,  1-H ) :   0.6228 B(  0-C ,  2-C ) :   0.9855 B(  0-C ,  3-C ) :   1.1381
B(  0-C ,  4-H ) :   0.6584 B(  0-C , 16-H ) :   0.3765 B(  0-C , 17-H ) :   0.2885
B(  0-C , 18-H ) :   0.2358 B(  0-C , 23-H ) :   0.2116 B(  0-C , 24-H ) :   0.1249
B(  1-H ,  3-C ) :   0.2455 B(  1-H ,  4-H ) :  -0.1967 B(  2-C ,  3-C ) :   0.2246
B(  2-C ,  4-H ) :   0.1793 B(  2-C , 16-H ) :   0.1024 B(  2-C , 18-H ) :   0.3627
B(  2-C , 23-H ) :  -0.2219 B(  2-C , 24-H ) :   0.1663 B(  3-C ,  4-H ) :   0.1094
B(  3-C ,  5-C ) :   1.0996 B(  3-C , 21-H ) :   0.2906 B(  3-C , 22-H ) :   0.1677
B(  3-C , 23-H ) :   0.6932 B(  3-C , 24-H ) :   0.7466 B(  5-C ,  6-C ) :   1.1795
B(  5-C ,  7-H ) :   0.2099 B(  5-C ,  8-H ) :   0.2774 B(  5-C ,  9-C ) :   0.1648
B(  5-C , 21-H ) :   0.5896 B(  5-C , 22-H ) :   0.6389 B(  5-C , 23-H ) :   0.1533
B(  5-C , 24-H ) :   0.2355 B(  6-C ,  7-H ) :   0.6860 B(  6-C ,  8-H ) :   0.5167
B(  6-C ,  9-C ) :   1.2143 B(  6-C , 10-H ) :   0.1984 B(  6-C , 11-H ) :   0.1210
B(  6-C , 21-H ) :   0.1555 B(  6-C , 22-H ) :   0.1392 B(  7-H ,  8-H ) :  -0.1259
B(  7-H ,  9-C ) :   0.1971 B(  7-H , 15-H ) :  -0.1073 B(  8-H ,  9-C ) :   0.1956
B(  9-C , 10-H ) :   0.7623 B(  9-C , 11-H ) :   0.7296 B(  9-C , 12-C ) :   1.1757
B(  9-C , 13-C ) :   0.1270 B(  9-C , 14-H ) :   0.2231 B(  9-C , 15-H ) :   0.1114
B( 10-H , 11-H ) :  -0.1781 B( 10-H , 12-C ) :   0.1433 B( 11-H , 12-C ) :   0.1151
B( 12-C , 13-C ) :   1.1761 B( 12-C , 14-H ) :   0.5829 B( 12-C , 15-H ) :   0.7684
B( 13-C , 14-H ) :   0.2148 B( 13-C , 15-H ) :   0.2789 B( 13-C , 16-H ) :   0.1411
B( 13-C , 17-H ) :   0.1253 B( 13-C , 19-O ) :   1.8561 B( 13-C , 20-F ) :   0.7370
B( 14-H , 15-H ) :  -0.1102 B( 16-H , 17-H ) :   0.5001 B( 16-H , 20-F ) :   0.2157
B( 16-H , 23-H ) :   0.3087 B( 16-H , 24-H ) :  -0.2509 B( 17-H , 19-O ) :   0.2278
B( 18-H , 23-H ) :  -0.1927 B( 19-O , 20-F ) :   0.1200 B( 23-H , 24-H ) :  -0.1618

Dispersion correction           -0.052423032
FINAL SINGLE POINT ENERGY      -488.399766449079

DIPOLE MOMENT
-------------
                                X             Y             Z
Electronic contribution:      3.59857      -0.36033      -9.80301
Nuclear contribution   :     -3.57245       1.60200       9.69133
                        -----------------------------------------
Total Dipole Moment    :      0.02613       1.24166      -0.11168
                        -----------------------------------------
Magnitude (a.u.)       :      1.24695
Magnitude (Debye)      :      3.16949

Rotational constants in cm-1:     0.051520     0.042563     0.028962
Rotational constants in MHz :  1544.537298  1275.996546   868.258224

                             ****ORCA TERMINATED NORMALLY****
TOTAL RUN TIME: 0 days 0 hours 0 minutes 29 seconds 199 msec
