                         Program Version 5.0.0 -  RELEASE  -
|  1> !CAM-B3LYP RIJCOSX def2-TZVP def2/J TightSCF
|  2> *xyz -1 1
|  3> C         -0.87096        0.24804       -2.66280
|  4> C         -0.47749        0.60819       -4.10105
|  5> H          0.20677        1.45830       -4.11875
|  6> H         -1.36844        0.92942       -4.64785
|  7> C          0.18467       -0.50664       -4.91676
|  8> O         -0.15869       -1.70109       -4.65798
|  9> O          1.05594       -0.17441       -5.74037
| 10> H         -1.54056       -0.58646       -2.67455
| 11> H         -1.35339        1.08600       -2.20455
| 12> H          0.00660       -0.00662       -2.10609
| 13> *
| 14>
| 15> %MaxCore 64000
| 16>
| 17> %pal nprocs 4
| 18> end
| 19>
| 20> %scf
| 21>   MaxIter 150
| 22> end
| 23>
| 24>
| 25>                          ****END OF INPUT****

CARTESIAN COORDINATES (ANGSTROEM)
---------------------------------
  C     -0.870960    0.248040   -2.662800
  C     -0.477490    0.608190   -4.101050
  H      0.206770    1.458300   -4.118750
  H     -1.368440    0.929420   -4.647850
  C      0.184670   -0.506640   -4.916760
  O     -0.158690   -1.701090   -4.657980
  O      1.055940   -0.174410   -5.740370
  H     -1.540560   -0.586460   -2.674550
  H     -1.353390    1.086000   -2.204550
  H      0.006600   -0.006620   -2.106090

 Total Charge           Charge          ....   -1
 Multiplicity           Mult            ....    1
 Number of Electrons    NEL             ....   40
 Basis Dimension        Dim             ....  185

ORBITAL ENERGIES
----------------

  NO   OCC          E(Eh)            E(eV)
   0   2.0000     -18.923509      -514.9348
   1   2.0000     -18.919945      -514.8379
   2   2.0000     -10.121248      -275.4132
   3   2.0000     -10.074840      -274.1503
   4   2.0000     -10.065841      -273.9054
   5   2.0000      -0.893924       -24.3249
   6   2.0000      -0.798108       -21.7176
   7   2.0000      -0.682973       -18.5846
   8   2.0000      -0.550737       -14.9863
   9   2.0000      -0.385779       -10.4976
  10   2.0000      -0.361136        -9.8270
  11   2.0000      -0.326184        -8.8759
  12   2.0000      -0.293053        -7.9744
  13   2.0000      -0.278949        -7.5906
  14   2.0000      -0.270338        -7.3563
  15   2.0000      -0.239911        -6.5283
  16   2.0000      -0.220907        -6.0112
  17   2.0000      -0.103409        -2.8139
  18   2.0000      -0.100125        -2.7246
  19   2.0000      -0.086730        -2.3600
  20   0.0000       0.218939         5.9576
  21   0.0000       0.261169         7.1068
  22   0.0000       0.279049         7.5933
  23   0.0000       0.285194         7.7605
  24   0.0000       0.304501         8.2859

MULLIKEN ATOMIC CHARGES
-----------------------
   0 C :   -0.303489
   1 C :   -0.163031
   2 H :    0.050904
   3 H :    0.041393
   4 C :    0.183435
   5 O :   -0.538279
   6 O :   -0.502136
   7 H :    0.097118
   8 H :    0.052892
   9 H :    0.081193
Sum of atomic charges:   -1.0000000

LOEWDIN ATOMIC CHARGES
----------------------
   0 C :   -0.327529
   1 C :   -0.292031
   2 H :    0.121105
   3 H :    0.122286
   4 C :   -0.695894
   5 O :   -0.137692
   6 O :   -0.100030
   7 H :    0.110935
   8 H :    0.091897
   9 H :    0.106953

  Mayer bond orders larger than 0.100000
B(  0-C ,  1-C ) :   0.9261 B(  0-C ,  7-H ) :   0.9766 B(  0-C ,  8-H ) :   0.9730
B(  0-C ,  9-H ) :   0.9823 B(  1-C ,  2-H ) :   0.9687 B(  1-C ,  3-H ) :   0.9642
B(  1-C ,  4-C ) :   0.9353 B(  4-C ,  5-O ) :   1.8547 B(  4-C ,  6-O ) :   1.9200

FINAL SINGLE POINT ENERGY      -267.830642520131

DIPOLE MOMENT
-------------
                                X             Y             Z
Electronic contribution:      2.64432      -2.92761      -4.58994
Nuclear contribution   :     -3.54611       4.15440       5.90446
                        -----------------------------------------
Total Dipole Moment    :     -0.90180       1.22679       1.31453
                        -----------------------------------------
Magnitude (a.u.)       :      2.01152
Magnitude (Debye)      :      5.11289

Rotational constants in cm-1:     0.332789     0.132085     0.101080
Rotational constants in MHz :  9976.755824  3959.803182  3030.288811

                             ****ORCA TERMINATED NORMALLY****
TOTAL RUN TIME: 0 days 0 hours 0 minutes 23 seconds 526 msec
