                         Program Version 5.0.0 -  RELEASE  -
|  1> !CAM-B3LYP RIJCOSX def2-TZVP def2/J TightSCF
|  2> *xyz 1 1
|  3> C          2.48645       -2.67712       -2.56345
|  4> C          3.03764       -2.36672       -3.92351
|  5> N          2.28036       -2.45441       -4.96769
|  6> N          4.32174       -2.01793       -4.01664
|  7> H          4.87994       -1.91167       -3.17382
|  8> H          4.71015       -1.67088       -4.88356
|  9> H          1.27042       -2.41265       -4.86614
| 10> H          2.58183       -2.05528       -5.84688
| 11> C          2.49799       -1.46946       -1.61030
| 12> H          1.47259       -3.05153       -2.69437
| 13> H          3.08320       -3.49064       -2.14147
| 14> H          1.91240       -0.67831       -2.02991
| 15> H          3.50450       -1.13364       -1.47227
| 16> H          2.08509       -1.75655       -0.66585
| 17> *
| 18>
| 19> %MaxCore 64000
| 20>
| 21> %pal nprocs 4
| 22> end
| 23>
| 24> %scf
| 25>   MaxIter 150
| 26> end
| 27>
| 28>
| 29>                          ****END OF INPUT****

CARTESIAN COORDINATES (ANGSTROEM)
---------------------------------
  C      2.486450   -2.677120   -2.563450
  C      3.037640   -2.366720   -3.923510
  N      2.280360   -2.454410   -4.967690
  N      4.321740   -2.017930   -4.016640
  H      4.879940   -1.911670   -3.173820
  H      4.710150   -1.670880   -4.883560
  H      1.270420   -2.412650   -4.866140
  H      2.581830   -2.055280   -5.846880
  C      2.497990   -1.469460   -1.610300
  H      1.472590   -3.051530   -2.694370
  H      3.083200   -3.490640   -2.141470
  H      1.912400   -0.678310   -2.029910
  H      3.504500   -1.133640   -1.472270
  H      2.085090   -1.756550   -0.665850

 Total Charge           Charge          ....    1
 Multiplicity           Mult            ....    1
 Number of Electrons    NEL             ....   40
 Basis Dimension        Dim             ....  209

ORBITAL ENERGIES
----------------

  NO   OCC          E(Eh)            E(eV)
   0   2.0000     -14.638758      -398.3408
   1   2.0000     -14.633104      -398.1870
   2   2.0000     -10.572308      -287.6871
   3   2.0000     -10.442939      -284.1668
   4   2.0000     -10.400136      -283.0021
   5   2.0000      -1.292939       -35.1827
   6   2.0000      -1.193987       -32.4900
   7   2.0000      -1.052767       -28.6472
   8   2.0000      -0.944520       -25.7017
   9   2.0000      -0.892503       -24.2862
  10   2.0000      -0.847891       -23.0723
  11   2.0000      -0.823972       -22.4214
  12   2.0000      -0.771465       -20.9926
  13   2.0000      -0.724335       -19.7102
  14   2.0000      -0.693537       -18.8721
  15   2.0000      -0.678741       -18.4695
  16   2.0000      -0.615447       -16.7472
  17   2.0000      -0.605454       -16.4752
  18   2.0000      -0.595274       -16.1982
  19   2.0000      -0.561066       -15.2674
  20   0.0000      -0.164661        -4.4806
  21   0.0000      -0.122509        -3.3336
  22   0.0000      -0.078596        -2.1387
  23   0.0000      -0.076265        -2.0753
  24   0.0000      -0.041105        -1.1185

MULLIKEN ATOMIC CHARGES
-----------------------
   0 C :   -0.273273
   1 C :    0.334685
   2 N :   -0.307932
   3 N :   -0.346012
   4 H :    0.297876
   5 H :    0.279372
   6 H :    0.298807
   7 H :    0.275097
   8 C :   -0.335539
   9 H :    0.148863
  10 H :    0.186650
  11 H :    0.143519
  12 H :    0.121766
  13 H :    0.176121
Sum of atomic charges:    1.0000000

LOEWDIN ATOMIC CHARGES
----------------------
   0 C :   -0.218020
   1 C :   -0.282885
   2 N :    0.122925
   3 N :    0.100204
   4 H :    0.208053
   5 H :    0.196680
   6 H :    0.213663
   7 H :    0.201165
   8 C :   -0.261499
   9 H :    0.158137
  10 H :    0.171567
  11 H :    0.129087
  12 H :    0.121283
  13 H :    0.139638

  Mayer bond orders larger than 0.100000
B(  0-C ,  1-C ) :   0.9467 B(  0-C ,  8-C ) :   0.9347 B(  0-C ,  9-H ) :   0.9805
B(  0-C , 10-H ) :   0.9422 B(  1-C ,  2-N ) :   1.4753 B(  1-C ,  3-N ) :   1.4198
B(  2-N ,  6-H ) :   0.8847 B(  2-N ,  7-H ) :   0.8959 B(  3-N ,  4-H ) :   0.8916
B(  3-N ,  5-H ) :   0.8955 B(  8-C , 11-H ) :   0.9629 B(  8-C , 12-H ) :   0.9709
B(  8-C , 13-H ) :   0.9685

FINAL SINGLE POINT ENERGY      -228.994120897427

DIPOLE MOMENT
-------------
                                X             Y             Z
Electronic contribution:      1.05270      -1.06602      -3.92022
Nuclear contribution   :     -0.84604       1.34287       2.92710
                        -----------------------------------------
Total Dipole Moment    :      0.20666       0.27685      -0.99312
                        -----------------------------------------
Magnitude (a.u.)       :      1.05150
Magnitude (Debye)      :      2.67270

Rotational constants in cm-1:     0.265816     0.126189     0.097583
Rotational constants in MHz :  7968.948902  3783.040103  2925.457702

                             ****ORCA TERMINATED NORMALLY****
TOTAL RUN TIME: 0 days 0 hours 0 minutes 35 seconds 929 msec
