                         Program Version 5.0.0 -  RELEASE  -
|  1> !CAM-B3LYP RIJCOSX def2-TZVP def2/J TightSCF
|  2> *xyz 0 1
|  3> C         -0.87096        0.24804       -2.66280
|  4> C         -0.47749        0.60819       -4.10105
|  5> H          0.20677        1.45830       -4.11875
|  6> H         -1.36844        0.92942       -4.64785
|  7> C          0.18467       -0.50664       -4.91676
|  8> F         -0.15869       -1.70109       -4.65798
|  9> O          1.05594       -0.17441       -5.74037
| 10> H         -1.54056       -0.58646       -2.67455
| 11> H         -1.35339        1.08600       -2.20455
| 12> H          0.00660       -0.00662       -2.10609
| 13> *
| 14>
| 15> %MaxCore 64000
| 16>
| 17> %pal nprocs 4
| 18> end
| 19>
| 20> %scf
| 21>   MaxIter 150
| 22> end
| 23>
| 24>
| 25>                          ****END OF INPUT****

CARTESIAN COORDINATES (ANGSTROEM)
---------------------------------
  C     -0.870960    0.248040   -2.662800
  C     -0.477490    0.608190   -4.101050
  H      0.206770    1.458300   -4.118750
  H     -1.368440    0.929420   -4.647850
  C      0.184670   -0.506640   -4.916760
  F     -0.158690   -1.701090   -4.657980
  O      1.055940   -0.174410   -5.740370
  H     -1.540560   -0.586460   -2.674550
  H     -1.353390    1.086000   -2.204550
  H      0.006600   -0.006620   -2.106090

 Total Charge           Charge          ....    0
 Multiplicity           Mult            ....    1
 Number of Electrons    NEL             ....   40
 Basis Dimension        Dim             ....  185

ORBITAL ENERGIES
----------------

  NO   OCC          E(Eh)            E(eV)
   0   2.0000     -24.822653      -675.4587
   1   2.0000     -19.206354      -522.6315
   2   2.0000     -10.425839      -283.7015
   3   2.0000     -10.277165      -279.6559
   4   2.0000     -10.250983      -278.9434
   5   2.0000      -1.393041       -37.9066
   6   2.0000      -1.122451       -30.5434
   7   2.0000      -0.886540       -24.1240
   8   2.0000      -0.764983       -20.8163
   9   2.0000      -0.719283       -19.5727
  10   2.0000      -0.621991       -16.9252
  11   2.0000      -0.614829       -16.7304
  12   2.0000      -0.570125       -15.5139
  13   2.0000      -0.539001       -14.6670
  14   2.0000      -0.504282       -13.7222
  15   2.0000      -0.471968       -12.8429
  16   2.0000      -0.456729       -12.4282
  17   2.0000      -0.446660       -12.1542
  18   2.0000      -0.416299       -11.3281
  19   2.0000      -0.361636        -9.8406
  20   0.0000       0.023740         0.6460
  21   0.0000       0.062559         1.7023
  22   0.0000       0.109094         2.9686
  23   0.0000       0.130078         3.5396
  24   0.0000       0.135854         3.6968

MULLIKEN ATOMIC CHARGES
-----------------------
   0 C :   -0.340349
   1 C :   -0.232715
   2 H :    0.141382
   3 H :    0.127284
   4 C :    0.352751
   5 F :   -0.113466
   6 O :   -0.307846
   7 H :    0.121668
   8 H :    0.126676
   9 H :    0.124614
Sum of atomic charges:   -0.0000000

LOEWDIN ATOMIC CHARGES
----------------------
   0 C :   -0.297225
   1 C :   -0.257248
   2 H :    0.154269
   3 H :    0.152899
   4 C :   -0.491807
   5 F :    0.303588
   6 O :    0.075268
   7 H :    0.119278
   8 H :    0.120849
   9 H :    0.120128

  Mayer bond orders larger than 0.100000
B(  0-C ,  1-C ) :   0.9377 B(  0-C ,  7-H ) :   0.9707 B(  0-C ,  8-H ) :   0.9742
B(  0-C ,  9-H ) :   0.9758 B(  1-C ,  2-H ) :   0.9681 B(  1-C ,  3-H ) :   0.9443
B(  1-C ,  4-C ) :   0.9920 B(  4-C ,  5-F ) :   1.1450 B(  4-C ,  6-O ) :   2.0960

FINAL SINGLE POINT ENERGY      -292.405517378455

DIPOLE MOMENT
-------------
                                X             Y             Z
Electronic contribution:      2.60260      -5.34568      -5.29169
Nuclear contribution   :     -3.42837       5.66737       6.17046
                        -----------------------------------------
Total Dipole Moment    :     -0.82577       0.32169       0.87877
                        -----------------------------------------
Magnitude (a.u.)       :      1.24804
Magnitude (Debye)      :      3.17228

Rotational constants in cm-1:     0.304660     0.130969     0.097716
Rotational constants in MHz :  9133.464515  3926.366384  2929.457090

                             ****ORCA TERMINATED NORMALLY****
TOTAL RUN TIME: 0 days 0 hours 0 minutes 27 seconds 4 msec
