                         Program Version 5.0.0 -  RELEASE  -
|  1> !CAM-B3LYP RIJCOSX def2-TZVP def2/J TightSCF
|  2> *xyz 0 1
|  3> C          2.48645       -2.67712       -2.56345
|  4> C          3.03764       -2.36672       -3.92351
|  5> C          2.28036       -2.45441       -4.96769
|  6> N          4.32174       -2.01793       -4.01664
|  7> H          4.87994       -1.91167       -3.17382
|  8> H          4.71015       -1.67088       -4.88356
|  9> H          1.27042       -2.41265       -4.86614
| 10> H          2.58183       -2.05528       -5.84688
| 11> C          2.49799       -1.46946       -1.61030
| 12> H          1.47259       -3.05153       -2.69437
| 13> H          3.08320       -3.49064       -2.14147
| 14> H          1.91240       -0.67831       -2.02991
| 15> H          3.50450       -1.13364       -1.47227
| 16> H          2.08509       -1.75655       -0.66585
| 17> *
| 18>
| 19> %MaxCore 64000
| 20>
| 21> %pal nprocs 4
| 22> end
| 23>
| 24> %scf
| 25>   MaxIter 150
| 26> end
| 27>
| 28>
| 29>                          ****END OF INPUT****

CARTESIAN COORDINATES (ANGSTROEM)
---------------------------------
  C      2.486450   -2.677120   -2.563450
  C      3.037640   -2.366720   -3.923510
  C      2.280360   -2.454410   -4.967690
  N      4.321740   -2.017930   -4.016640
  H      4.879940   -1.911670   -3.173820
  H      4.710150   -1.670880   -4.883560
  H      1.270420   -2.412650   -4.866140
  H      2.581830   -2.055280   -5.846880
  C      2.497990   -1.469460   -1.610300
  H      1.472590   -3.051530   -2.694370
  H      3.083200   -3.490640   -2.141470
  H      1.912400   -0.678310   -2.029910
  H      3.504500   -1.133640   -1.472270
  H      2.085090   -1.756550   -0.665850

 Total Charge           Charge          ....    0
 Multiplicity           Mult            ....    1
 Number of Electrons    NEL             ....   40
 Basis Dimension        Dim             ....  209

ORBITAL ENERGIES
----------------

  NO   OCC          E(Eh)            E(eV)
   0   2.0000     -14.387146      -391.4941
   1   2.0000     -10.264355      -279.3073
   2   2.0000     -10.242113      -278.7021
   3   2.0000     -10.230891      -278.3967
   4   2.0000     -10.170733      -276.7597
   5   2.0000      -1.007594       -27.4180
   6   2.0000      -0.861788       -23.4505
   7   2.0000      -0.806105       -21.9352
   8   2.0000      -0.714186       -19.4340
   9   2.0000      -0.640568       -17.4307
  10   2.0000      -0.595536       -16.2054
  11   2.0000      -0.548897       -14.9363
  12   2.0000      -0.506282       -13.7766
  13   2.0000      -0.500854       -13.6289
  14   2.0000      -0.455853       -12.4044
  15   2.0000      -0.450180       -12.2500
  16   2.0000      -0.420310       -11.4372
  17   2.0000      -0.398945       -10.8559
  18   2.0000      -0.391188       -10.6448
  19   2.0000      -0.255401        -6.9498
  20   0.0000       0.061348         1.6694
  21   0.0000       0.086860         2.3636
  22   0.0000       0.109456         2.9784
  23   0.0000       0.115323         3.1381
  24   0.0000       0.126869         3.4523

MULLIKEN ATOMIC CHARGES
-----------------------
   0 C :   -0.223045
   1 C :    0.223699
   2 C :   -0.381421
   3 N :   -0.457163
   4 H :    0.224420
   5 H :    0.226869
   6 H :    0.090654
   7 H :    0.070754
   8 C :   -0.327212
   9 H :    0.113267
  10 H :    0.108186
  11 H :    0.120324
  12 H :    0.091175
  13 H :    0.119493
Sum of atomic charges:   -0.0000000

LOEWDIN ATOMIC CHARGES
----------------------
   0 C :   -0.235243
   1 C :   -0.358179
   2 C :   -0.278457
   3 N :   -0.010508
   4 H :    0.167513
   5 H :    0.169757
   6 H :    0.109377
   7 H :    0.100154
   8 C :   -0.294948
   9 H :    0.146267
  10 H :    0.139708
  11 H :    0.119165
  12 H :    0.109414
  13 H :    0.115980

  Mayer bond orders larger than 0.100000
B(  0-C ,  1-C ) :   0.9465 B(  0-C ,  8-C ) :   0.9367 B(  0-C ,  9-H ) :   0.9899
B(  0-C , 10-H ) :   0.9738 B(  1-C ,  2-C ) :   1.8039 B(  1-C ,  3-N ) :   1.1295
B(  2-C ,  6-H ) :   0.9924 B(  2-C ,  7-H ) :   0.9967 B(  3-N ,  4-H ) :   0.9329
B(  3-N ,  5-H ) :   0.9257 B(  8-C , 11-H ) :   0.9779 B(  8-C , 12-H ) :   0.9773
B(  8-C , 13-H ) :   0.9821

FINAL SINGLE POINT ENERGY      -212.520531626627

DIPOLE MOMENT
-------------
                                X             Y             Z
Electronic contribution:      1.55332      -0.87146      -2.12166
Nuclear contribution   :     -0.99743       1.27863       2.57190
                        -----------------------------------------
Total Dipole Moment    :      0.55588       0.40717       0.45024
                        -----------------------------------------
Magnitude (a.u.)       :      0.82311
Magnitude (Debye)      :      2.09218

Rotational constants in cm-1:     0.274050     0.130114     0.100964
Rotational constants in MHz :  8215.815505  3900.722919  3026.834930

                             ****ORCA TERMINATED NORMALLY****
TOTAL RUN TIME: 0 days 0 hours 0 minutes 38 seconds 177 msec
