                         Program Version 5.0.0 -  RELEASE  -
|  1> !CAM-B3LYP RIJCOSX def2-TZVP def2/J TightSCF
|  2> *xyz 0 1
|  3> C         -0.87096        0.24804       -2.66280
|  4> C         -0.47749        0.60819       -4.10105
|  5> H          0.20677        1.45830       -4.11875
|  6> H         -1.36844        0.92942       -4.64785
|  7> C          0.18467       -0.50664       -4.91676
|  8> O         -0.15869       -1.70109       -4.65798
|  9> F          1.05594       -0.17441       -5.74037
| 10> H         -1.54056       -0.58646       -2.67455
| 11> H         -1.35339        1.08600       -2.20455
| 12> H          0.00660       -0.00662       -2.10609
| 13> *
| 14>
| 15> %MaxCore 64000
| 16>
| 17> %pal nprocs 4
| 18> end
| 19>
| 20> %scf
| 21>   MaxIter 150
| 22> end
| 23>
| 24>
| 25>                          ****END OF INPUT****

CARTESIAN COORDINATES (ANGSTROEM)
---------------------------------
  C     -0.870960    0.248040   -2.662800
  C     -0.477490    0.608190   -4.101050
  H      0.206770    1.458300   -4.118750
  H     -1.368440    0.929420   -4.647850
  C      0.184670   -0.506640   -4.916760
  O     -0.158690   -1.701090   -4.657980
  F      1.055940   -0.174410   -5.740370
  H     -1.540560   -0.586460   -2.674550
  H     -1.353390    1.086000   -2.204550
  H      0.006600   -0.006620   -2.106090

 Total Charge           Charge          ....    0
 Multiplicity           Mult            ....    1
 Number of Electrons    NEL             ....   40
 Basis Dimension        Dim             ....  185

ORBITAL ENERGIES
----------------

  NO   OCC          E(Eh)            E(eV)
   0   2.0000     -24.831996      -675.7130
   1   2.0000     -19.202824      -522.5354
   2   2.0000     -10.428609      -283.7769
   3   2.0000     -10.278428      -279.6903
   4   2.0000     -10.244917      -278.7784
   5   2.0000      -1.411801       -38.4171
   6   2.0000      -1.107288       -30.1308
   7   2.0000      -0.882641       -24.0179
   8   2.0000      -0.774754       -21.0821
   9   2.0000      -0.718365       -19.5477
  10   2.0000      -0.630247       -17.1499
  11   2.0000      -0.615277       -16.7425
  12   2.0000      -0.582040       -15.8381
  13   2.0000      -0.538029       -14.6405
  14   2.0000      -0.502883       -13.6841
  15   2.0000      -0.462783       -12.5930
  16   2.0000      -0.443730       -12.0745
  17   2.0000      -0.441936       -12.0257
  18   2.0000      -0.411663       -11.2019
  19   2.0000      -0.359480        -9.7820
  20   0.0000       0.020911         0.5690
  21   0.0000       0.067498         1.8367
  22   0.0000       0.108696         2.9578
  23   0.0000       0.127298         3.4640
  24   0.0000       0.136323         3.7095

MULLIKEN ATOMIC CHARGES
-----------------------
   0 C :   -0.332079
   1 C :   -0.231686
   2 H :    0.119505
   3 H :    0.129028
   4 C :    0.365402
   5 O :   -0.339597
   6 F :   -0.089319
   7 H :    0.138453
   8 H :    0.121010
   9 H :    0.119283
Sum of atomic charges:   -0.0000000

LOEWDIN ATOMIC CHARGES
----------------------
   0 C :   -0.286955
   1 C :   -0.261492
   2 H :    0.142049
   3 H :    0.154316
   4 C :   -0.496232
   5 O :    0.041898
   6 F :    0.341872
   7 H :    0.125381
   8 H :    0.118565
   9 H :    0.120598

  Mayer bond orders larger than 0.100000
B(  0-C ,  1-C ) :   0.9568 B(  0-C ,  7-H ) :   0.9695 B(  0-C ,  8-H ) :   0.9724
B(  0-C ,  9-H ) :   0.9781 B(  1-C ,  2-H ) :   0.9654 B(  1-C ,  3-H ) :   0.9373
B(  1-C ,  4-C ) :   0.9850 B(  4-C ,  5-O ) :   2.0500 B(  4-C ,  6-F ) :   1.1800

FINAL SINGLE POINT ENERGY      -292.398605221227

DIPOLE MOMENT
-------------
                                X             Y             Z
Electronic contribution:      4.64312      -2.82146      -7.12255
Nuclear contribution   :     -4.75269       4.00281       7.35060
                        -----------------------------------------
Total Dipole Moment    :     -0.10957       1.18135       0.22805
                        -----------------------------------------
Magnitude (a.u.)       :      1.20814
Magnitude (Debye)      :      3.07085

Rotational constants in cm-1:     0.323805     0.124913     0.096140
Rotational constants in MHz :  9707.430323  3744.789513  2882.191141

                             ****ORCA TERMINATED NORMALLY****
TOTAL RUN TIME: 0 days 0 hours 0 minutes 22 seconds 608 msec
