                         Program Version 5.0.0 -  RELEASE  -
|  1> !CAM-B3LYP RIJCOSX def2-TZVP def2/J TightSCF
|  2> *xyz 0 1
|  3> C          2.48645       -2.67712       -2.56345
|  4> C          3.03764       -2.36672       -3.92351
|  5> N          2.28036       -2.45441       -4.96769
|  6> C          4.32174       -2.01793       -4.01664
|  7> H          4.87994       -1.91167       -3.17382
|  8> H          4.71015       -1.67088       -4.88356
|  9> H          1.27042       -2.41265       -4.86614
| 10> H          2.58183       -2.05528       -5.84688
| 11> C          2.49799       -1.46946       -1.61030
| 12> H          1.47259       -3.05153       -2.69437
| 13> H          3.08320       -3.49064       -2.14147
| 14> H          1.91240       -0.67831       -2.02991
| 15> H          3.50450       -1.13364       -1.47227
| 16> H          2.08509       -1.75655       -0.66585
| 17> *
| 18>
| 19> %MaxCore 64000
| 20>
| 21> %pal nprocs 4
| 22> end
| 23>
| 24> %scf
| 25>   MaxIter 150
| 26> end
| 27>
| 28>
| 29>                          ****END OF INPUT****

CARTESIAN COORDINATES (ANGSTROEM)
---------------------------------
  C      2.486450   -2.677120   -2.563450
  C      3.037640   -2.366720   -3.923510
  N      2.280360   -2.454410   -4.967690
  C      4.321740   -2.017930   -4.016640
  H      4.879940   -1.911670   -3.173820
  H      4.710150   -1.670880   -4.883560
  H      1.270420   -2.412650   -4.866140
  H      2.581830   -2.055280   -5.846880
  C      2.497990   -1.469460   -1.610300
  H      1.472590   -3.051530   -2.694370
  H      3.083200   -3.490640   -2.141470
  H      1.912400   -0.678310   -2.029910
  H      3.504500   -1.133640   -1.472270
  H      2.085090   -1.756550   -0.665850

 Total Charge           Charge          ....    0
 Multiplicity           Mult            ....    1
 Number of Electrons    NEL             ....   40
 Basis Dimension        Dim             ....  209

ORBITAL ENERGIES
----------------

  NO   OCC          E(Eh)            E(eV)
   0   2.0000     -14.391120      -391.6023
   1   2.0000     -10.264702      -279.3168
   2   2.0000     -10.242776      -278.7201
   3   2.0000     -10.226956      -278.2896
   4   2.0000     -10.171360      -276.7768
   5   2.0000      -1.023066       -27.8391
   6   2.0000      -0.863291       -23.4913
   7   2.0000      -0.789678       -21.4882
   8   2.0000      -0.719435       -19.5768
   9   2.0000      -0.644260       -17.5312
  10   2.0000      -0.592353       -16.1188
  11   2.0000      -0.553352       -15.0575
  12   2.0000      -0.515581       -14.0297
  13   2.0000      -0.477516       -12.9939
  14   2.0000      -0.462396       -12.5824
  15   2.0000      -0.445718       -12.1286
  16   2.0000      -0.418138       -11.3781
  17   2.0000      -0.402009       -10.9392
  18   2.0000      -0.400238       -10.8910
  19   2.0000      -0.245343        -6.6761
  20   0.0000       0.062999         1.7143
  21   0.0000       0.081074         2.2061
  22   0.0000       0.108475         2.9518
  23   0.0000       0.114035         3.1031
  24   0.0000       0.129671         3.5285

MULLIKEN ATOMIC CHARGES
-----------------------
   0 C :   -0.227753
   1 C :    0.221628
   2 N :   -0.419044
   3 C :   -0.427384
   4 H :    0.090494
   5 H :    0.085957
   6 H :    0.221489
   7 H :    0.226588
   8 C :   -0.319800
   9 H :    0.087225
  10 H :    0.124972
  11 H :    0.106914
  12 H :    0.116689
  13 H :    0.112025
Sum of atomic charges:    0.0000000

LOEWDIN ATOMIC CHARGES
----------------------
   0 C :   -0.235780
   1 C :   -0.371177
   2 N :    0.009944
   3 C :   -0.282989
   4 H :    0.103744
   5 H :    0.094770
   6 H :    0.169083
   7 H :    0.173697
   8 C :   -0.289378
   9 H :    0.131462
  10 H :    0.149440
  11 H :    0.116027
  12 H :    0.117919
  13 H :    0.113239

  Mayer bond orders larger than 0.100000
B(  0-C ,  1-C ) :   0.9070 B(  0-C ,  8-C ) :   0.9497 B(  0-C ,  9-H ) :   0.9976
B(  0-C , 10-H ) :   0.9835 B(  1-C ,  2-N ) :   1.1852 B(  1-C ,  3-C ) :   1.7308
B(  2-N ,  6-H ) :   0.9262 B(  2-N ,  7-H ) :   0.9266 B(  3-C ,  4-H ) :   1.0028
B(  3-C ,  5-H ) :   0.9921 B(  8-C , 11-H ) :   0.9777 B(  8-C , 12-H ) :   0.9778
B(  8-C , 13-H ) :   0.9799

FINAL SINGLE POINT ENERGY      -212.520600711434

DIPOLE MOMENT
-------------
                                X             Y             Z
Electronic contribution:     -0.28428      -1.19291      -2.97828
Nuclear contribution   :     -0.52463       1.37972       2.79217
                        -----------------------------------------
Total Dipole Moment    :     -0.80892       0.18681      -0.18611
                        -----------------------------------------
Magnitude (a.u.)       :      0.85081
Magnitude (Debye)      :      2.16259

Rotational constants in cm-1:     0.281086     0.127387     0.100311
Rotational constants in MHz :  8426.743103  3818.969834  3007.238026

                             ****ORCA TERMINATED NORMALLY****
TOTAL RUN TIME: 0 days 0 hours 0 minutes 37 seconds 593 msec
