                         Program Version 5.0.0 -  RELEASE  -
|  1> !CAM-B3LYP RIJCOSX def2-TZVP def2/J TightSCF xyzfile
|  2>
|  3> *xyzfile 0 1 D1.xyz
|  4>
|  5> %MaxCore 64000
|  6>
|  7> %pal nprocs 18
|  8> end
|  9>
| 10> %scf
| 11>   MaxIter 150
| 12> end
| 13>
| 14>
| 15>                          ****END OF INPUT****

CARTESIAN COORDINATES (ANGSTROEM)
---------------------------------
  C      2.486452   -2.677121   -2.563447
  C     -0.870963    0.248043   -2.662804
  C     -0.477492    0.608191   -4.101052
  H      0.206773    1.458299   -4.118748
  H     -1.368442    0.929419   -4.647855
  C      0.184673   -0.506640   -4.916760
  C      3.037640   -2.366715   -3.923509
  C      2.280360   -2.454408   -4.967692
  N      4.321736   -2.017932   -4.016641
  H      4.879940   -1.911668   -3.173823
  H      4.710148   -1.670882   -4.883561
  H      1.270423   -2.412650   -4.866143
  H      2.581829   -2.055282   -5.846878
  F     -0.158685   -1.701088   -4.657981
  O      1.055938   -0.174410   -5.740373
  C      2.497991   -1.469464   -1.610303
  C      1.582841   -0.321986   -2.042619
  H      2.193083   -1.833912   -0.625420
  H      3.523356   -1.103982   -1.490392
  C      0.100160   -0.673551   -1.915815
  H      1.822311   -0.040361   -3.072834
  H      1.813180    0.557019   -1.433266
  H     -0.063284   -1.679120   -2.301112
  H     -0.168820   -0.691680   -0.853831
  H     -1.001048    1.181040   -2.104071
  H     -1.844645   -0.246592   -2.663281
  H      1.472592   -3.051527   -2.694366
  H      3.083201   -3.490638   -2.141472

 Total Charge           Charge          ....    0
 Multiplicity           Mult            ....    1
 Number of Electrons    NEL             ....   94
 Basis Dimension        Dim             ....  468

ORBITAL ENERGIES
----------------

  NO   OCC          E(Eh)            E(eV)
   0   2.0000     -24.823765      -675.4890
   1   2.0000     -19.203242      -522.5468
   2   2.0000     -14.374119      -391.1397
   3   2.0000     -10.424414      -283.6627
   4   2.0000     -10.272697      -279.5343
   5   2.0000     -10.256882      -279.1040
   6   2.0000     -10.248051      -278.8636
   7   2.0000     -10.244629      -278.7705
   8   2.0000     -10.241736      -278.6918
   9   2.0000     -10.240304      -278.6528
  10   2.0000     -10.235605      -278.5250
  11   2.0000     -10.148554      -276.1562
  12   2.0000      -1.400813       -38.1181
  13   2.0000      -1.121775       -30.5251
  14   2.0000      -0.995198       -27.0807
  15   2.0000      -0.911282       -24.7972
  16   2.0000      -0.875191       -23.8152
  17   2.0000      -0.824979       -22.4488
  18   2.0000      -0.801739       -21.8164
  19   2.0000      -0.755987       -20.5715
  20   2.0000      -0.734448       -19.9853
  21   2.0000      -0.694965       -18.9110
  22   2.0000      -0.656270       -17.8580
  23   2.0000      -0.647777       -17.6269
  24   2.0000      -0.623800       -16.9745
  25   2.0000      -0.610107       -16.6019
  26   2.0000      -0.579985       -15.7822
  27   2.0000      -0.567017       -15.4293
  28   2.0000      -0.551850       -15.0166
  29   2.0000      -0.541601       -14.7377
  30   2.0000      -0.528043       -14.3688
  31   2.0000      -0.510986       -13.9046
  32   2.0000      -0.499893       -13.6028
  33   2.0000      -0.480774       -13.0825
  34   2.0000      -0.471751       -12.8370
  35   2.0000      -0.455082       -12.3834
  36   2.0000      -0.442501       -12.0411
  37   2.0000      -0.439480       -11.9589
  38   2.0000      -0.423222       -11.5165
  39   2.0000      -0.417169       -11.3517
  40   2.0000      -0.404178       -10.9982
  41   2.0000      -0.399585       -10.8733
  42   2.0000      -0.382838       -10.4176
  43   2.0000      -0.377521       -10.2729
  44   2.0000      -0.373437       -10.1617
  45   2.0000      -0.355071        -9.6620
  46   2.0000      -0.239367        -6.5135
  47   0.0000       0.023350         0.6354
  48   0.0000       0.060991         1.6596
  49   0.0000       0.070622         1.9217
  50   0.0000       0.089547         2.4367
  51   0.0000       0.094413         2.5691

MULLIKEN ATOMIC CHARGES
-----------------------
   0 C :   -0.284043
   1 C :   -0.185983
   2 C :   -0.258107
   3 H :    0.153990
   4 H :    0.142947
   5 C :    0.343425
   6 C :    0.209941
   7 C :   -0.378131
   8 N :   -0.462555
   9 H :    0.216783
  10 H :    0.226170
  11 H :    0.094690
  12 H :    0.089970
  13 F :   -0.117899
  14 O :   -0.300300
  15 C :   -0.172794
  16 C :   -0.234109
  17 H :    0.099978
  18 H :    0.100054
  19 C :   -0.244924
  20 H :    0.153517
  21 H :    0.101638
  22 H :    0.119208
  23 H :    0.110904
  24 H :    0.113171
  25 H :    0.115866
  26 H :    0.126443
  27 H :    0.120148
Sum of atomic charges:    0.0000000

LOEWDIN ATOMIC CHARGES
----------------------
   0 C :   -0.217179
   1 C :   -0.264491
   2 C :   -0.234661
   3 H :    0.157424
   4 H :    0.155516
   5 C :   -0.493289
   6 C :   -0.373664
   7 C :   -0.266257
   8 N :   -0.016102
   9 H :    0.163784
  10 H :    0.169324
  11 H :    0.098007
  12 H :    0.102287
  13 F :    0.320957
  14 O :    0.098202
  15 C :   -0.260180
  16 C :   -0.259553
  17 H :    0.136445
  18 H :    0.130467
  19 C :   -0.269242
  20 H :    0.147465
  21 H :    0.134635
  22 H :    0.135615
  23 H :    0.137689
  24 H :    0.140017
  25 H :    0.139341
  26 H :    0.144983
  27 H :    0.142460

  Mayer bond orders larger than 0.100000
B(  0-C ,  6-C ) :   0.9318 B(  0-C , 15-C ) :   0.9148 B(  0-C , 26-H ) :   1.0111
B(  0-C , 27-H ) :   0.9829 B(  1-C ,  2-C ) :   0.9215 B(  1-C , 19-C ) :   0.9387
B(  1-C , 24-H ) :   0.9738 B(  1-C , 25-H ) :   0.9839 B(  2-C ,  3-H ) :   0.9681
B(  2-C ,  4-H ) :   0.9562 B(  2-C ,  5-C ) :   0.9790 B(  5-C , 13-F ) :   1.1072
B(  5-C , 14-O ) :   2.0793 B(  6-C ,  7-C ) :   1.7414 B(  6-C ,  8-N ) :   1.0997
B(  7-C , 11-H ) :   1.0270 B(  7-C , 12-H ) :   1.0026 B(  8-N ,  9-H ) :   0.9346
B(  8-N , 10-H ) :   0.9255 B( 15-C , 16-C ) :   0.9418 B( 15-C , 17-H ) :   0.9779
B( 15-C , 18-H ) :   0.9806 B( 16-C , 19-C ) :   0.9170 B( 16-C , 20-H ) :   0.9760
B( 16-C , 21-H ) :   0.9729 B( 19-C , 22-H ) :   0.9933 B( 19-C , 23-H ) :   0.9726

FINAL SINGLE POINT ENERGY      -582.298090617777

DIPOLE MOMENT
-------------
                                X             Y             Z
Electronic contribution:     -3.68640      -1.61562     -10.23579
Nuclear contribution   :      3.32973       2.37270      11.37738
                        -----------------------------------------
Total Dipole Moment    :     -0.35667       0.75708       1.14159
                        -----------------------------------------
Magnitude (a.u.)       :      1.41549
Magnitude (Debye)      :      3.59788

Rotational constants in cm-1:     0.040902     0.025807     0.019036
Rotational constants in MHz :  1226.202138   773.670450   570.681201

                             ****ORCA TERMINATED NORMALLY****
TOTAL RUN TIME: 0 days 0 hours 1 minutes 3 seconds 759 msec
