                         Program Version 5.0.0 -  RELEASE  -
|  1> !CAM-B3LYP RIJCOSX def2-TZVP def2/J TightSCF xyzfile
|  2>
|  3> *xyzfile 0 1 D2.xyz
|  4>
|  5> %MaxCore 64000
|  6>
|  7> %pal nprocs 18
|  8> end
|  9>
| 10> %scf
| 11>   MaxIter 150
| 12> end
| 13>
| 14>
| 15>                          ****END OF INPUT****

CARTESIAN COORDINATES (ANGSTROEM)
---------------------------------
  C      2.486452   -2.677121   -2.563447
  C     -0.870963    0.248043   -2.662804
  C     -0.477492    0.608191   -4.101052
  H      0.206773    1.458299   -4.118748
  H     -1.368442    0.929419   -4.647855
  C      0.184673   -0.506640   -4.916760
  C      3.037640   -2.366715   -3.923509
  N      2.280360   -2.454408   -4.967692
  C      4.321736   -2.017932   -4.016641
  H      4.879940   -1.911668   -3.173823
  H      4.710148   -1.670882   -4.883561
  H      1.270423   -2.412650   -4.866143
  H      2.581829   -2.055282   -5.846878
  F     -0.158685   -1.701088   -4.657981
  O      1.055938   -0.174410   -5.740373
  C      2.497991   -1.469464   -1.610303
  C      1.582841   -0.321986   -2.042619
  H      2.193083   -1.833912   -0.625420
  H      3.523356   -1.103982   -1.490392
  C      0.100160   -0.673551   -1.915815
  H      1.822311   -0.040361   -3.072834
  H      1.813180    0.557019   -1.433266
  H     -0.063284   -1.679120   -2.301112
  H     -0.168820   -0.691680   -0.853831
  H     -1.001048    1.181040   -2.104071
  H     -1.844645   -0.246592   -2.663281
  H      1.472592   -3.051527   -2.694366
  H      3.083201   -3.490638   -2.141472

 Total Charge           Charge          ....    0
 Multiplicity           Mult            ....    1
 Number of Electrons    NEL             ....   94
 Basis Dimension        Dim             ....  468

ORBITAL ENERGIES
----------------

  NO   OCC          E(Eh)            E(eV)
   0   2.0000     -24.852684      -676.2759
   1   2.0000     -19.223714      -523.1039
   2   2.0000     -14.364265      -390.8715
   3   2.0000     -10.443880      -284.1924
   4   2.0000     -10.284425      -279.8534
   5   2.0000     -10.264552      -279.3127
   6   2.0000     -10.252650      -278.9888
   7   2.0000     -10.250010      -278.9170
   8   2.0000     -10.242764      -278.7198
   9   2.0000     -10.239491      -278.6307
  10   2.0000     -10.236949      -278.5615
  11   2.0000     -10.158583      -276.4291
  12   2.0000      -1.428353       -38.8675
  13   2.0000      -1.142092       -31.0779
  14   2.0000      -1.006342       -27.3840
  15   2.0000      -0.919377       -25.0175
  16   2.0000      -0.878114       -23.8947
  17   2.0000      -0.835827       -22.7440
  18   2.0000      -0.789179       -21.4747
  19   2.0000      -0.769624       -20.9425
  20   2.0000      -0.745982       -20.2992
  21   2.0000      -0.704627       -19.1739
  22   2.0000      -0.670120       -18.2349
  23   2.0000      -0.661553       -18.0018
  24   2.0000      -0.644077       -17.5262
  25   2.0000      -0.613503       -16.6943
  26   2.0000      -0.585140       -15.9225
  27   2.0000      -0.569299       -15.4914
  28   2.0000      -0.554516       -15.0892
  29   2.0000      -0.548652       -14.9296
  30   2.0000      -0.541795       -14.7430
  31   2.0000      -0.514918       -14.0116
  32   2.0000      -0.497963       -13.5503
  33   2.0000      -0.490230       -13.3398
  34   2.0000      -0.477177       -12.9846
  35   2.0000      -0.461049       -12.5458
  36   2.0000      -0.454273       -12.3614
  37   2.0000      -0.444435       -12.0937
  38   2.0000      -0.433024       -11.7832
  39   2.0000      -0.422620       -11.5001
  40   2.0000      -0.411067       -11.1857
  41   2.0000      -0.404194       -10.9987
  42   2.0000      -0.390167       -10.6170
  43   2.0000      -0.387365       -10.5407
  44   2.0000      -0.379017       -10.3136
  45   2.0000      -0.368787       -10.0352
  46   2.0000      -0.230143        -6.2625
  47   0.0000       0.005129         0.1396
  48   0.0000       0.054807         1.4914
  49   0.0000       0.080183         2.1819
  50   0.0000       0.088266         2.4018
  51   0.0000       0.095011         2.5854

MULLIKEN ATOMIC CHARGES
-----------------------
   0 C :   -0.273777
   1 C :   -0.186727
   2 C :   -0.262512
   3 H :    0.161729
   4 H :    0.147483
   5 C :    0.334006
   6 C :    0.176321
   7 N :   -0.375928
   8 C :   -0.427265
   9 H :    0.080295
  10 H :    0.087596
  11 H :    0.214792
  12 H :    0.230743
  13 F :   -0.131460
  14 O :   -0.298070
  15 C :   -0.160313
  16 C :   -0.245941
  17 H :    0.092401
  18 H :    0.117352
  19 C :   -0.250744
  20 H :    0.153986
  21 H :    0.105925
  22 H :    0.117350
  23 H :    0.115251
  24 H :    0.117915
  25 H :    0.118504
  26 H :    0.108207
  27 H :    0.132882
Sum of atomic charges:    0.0000000

LOEWDIN ATOMIC CHARGES
----------------------
   0 C :   -0.213676
   1 C :   -0.264075
   2 C :   -0.232707
   3 H :    0.160306
   4 H :    0.157352
   5 C :   -0.497421
   6 C :   -0.381349
   7 N :    0.029078
   8 C :   -0.291367
   9 H :    0.100987
  10 H :    0.095025
  11 H :    0.145044
  12 H :    0.172203
  13 F :    0.316557
  14 O :    0.091988
  15 C :   -0.251449
  16 C :   -0.260287
  17 H :    0.134616
  18 H :    0.139701
  19 C :   -0.271045
  20 H :    0.146108
  21 H :    0.136392
  22 H :    0.133081
  23 H :    0.139187
  24 H :    0.141868
  25 H :    0.139545
  26 H :    0.131954
  27 H :    0.152382

  Mayer bond orders larger than 0.100000
B(  0-C ,  6-C ) :   0.8948 B(  0-C , 15-C ) :   0.9374 B(  0-C , 26-H ) :   1.0162
B(  0-C , 27-H ) :   0.9807 B(  1-C ,  2-C ) :   0.9196 B(  1-C , 19-C ) :   0.9331
B(  1-C , 24-H ) :   0.9727 B(  1-C , 25-H ) :   0.9852 B(  2-C ,  3-H ) :   0.9667
B(  2-C ,  4-H ) :   0.9521 B(  2-C ,  5-C ) :   0.9807 B(  5-C , 13-F ) :   1.0811
B(  5-C , 14-O ) :   2.0759 B(  6-C ,  7-N ) :   1.2258 B(  6-C ,  8-C ) :   1.7270
B(  7-N , 11-H ) :   0.9244 B(  7-N , 12-H ) :   0.9266 B(  8-C ,  9-H ) :   0.9978
B(  8-C , 10-H ) :   0.9942 B( 15-C , 16-C ) :   0.9558 B( 15-C , 17-H ) :   0.9741
B( 15-C , 18-H ) :   0.9729 B( 16-C , 19-C ) :   0.9063 B( 16-C , 20-H ) :   0.9722
B( 16-C , 21-H ) :   0.9721 B( 19-C , 22-H ) :   0.9952 B( 19-C , 23-H ) :   0.9737

FINAL SINGLE POINT ENERGY      -582.310150940969

DIPOLE MOMENT
-------------
                                X             Y             Z
Electronic contribution:     -5.35725      -1.78527     -10.87221
Nuclear contribution   :      3.65024       2.44123      11.52670
                        -----------------------------------------
Total Dipole Moment    :     -1.70701       0.65596       0.65449
                        -----------------------------------------
Magnitude (a.u.)       :      1.94230
Magnitude (Debye)      :      4.93693

Rotational constants in cm-1:     0.040600     0.026409     0.019262
Rotational constants in MHz :  1217.142957   791.712481   577.449390

                             ****ORCA TERMINATED NORMALLY****
TOTAL RUN TIME: 0 days 0 hours 1 minutes 26 seconds 519 msec
