                         Program Version 5.0.0 -  RELEASE  -
|  1> !CAM-B3LYP RIJCOSX def2-TZVP def2/J TightSCF xyzfile
|  2>
|  3> *xyzfile 0 1 D4.xyz
|  4>
|  5> %MaxCore 64000
|  6>
|  7> %pal nprocs 18
|  8> end
|  9>
| 10> %scf
| 11>   MaxIter 150
| 12> end
| 13>
| 14>
| 15>                          ****END OF INPUT****

CARTESIAN COORDINATES (ANGSTROEM)
---------------------------------
  C      2.486452   -2.677121   -2.563447
  C     -0.870963    0.248043   -2.662804
  C     -0.477492    0.608191   -4.101052
  H      0.206773    1.458299   -4.118748
  H     -1.368442    0.929419   -4.647855
  C      0.184673   -0.506640   -4.916760
  C      3.037640   -2.366715   -3.923509
  N      2.280360   -2.454408   -4.967692
  C      4.321736   -2.017932   -4.016641
  H      4.879940   -1.911668   -3.173823
  H      4.710148   -1.670882   -4.883561
  H      1.270423   -2.412650   -4.866143
  H      2.581829   -2.055282   -5.846878
  O     -0.158685   -1.701088   -4.657981
  F      1.055938   -0.174410   -5.740373
  C      2.497991   -1.469464   -1.610303
  C      1.582841   -0.321986   -2.042619
  H      2.193083   -1.833912   -0.625420
  H      3.523356   -1.103982   -1.490392
  C      0.100160   -0.673551   -1.915815
  H      1.822311   -0.040361   -3.072834
  H      1.813180    0.557019   -1.433266
  H     -0.063284   -1.679120   -2.301112
  H     -0.168820   -0.691680   -0.853831
  H     -1.001048    1.181040   -2.104071
  H     -1.844645   -0.246592   -2.663281
  H      1.472592   -3.051527   -2.694366
  H      3.083201   -3.490638   -2.141472

 Total Charge           Charge          ....    0
 Multiplicity           Mult            ....    1
 Number of Electrons    NEL             ....   94
 Basis Dimension        Dim             ....  468

ORBITAL ENERGIES
----------------

  NO   OCC          E(Eh)            E(eV)
   0   2.0000     -24.853812      -676.3066
   1   2.0000     -19.229073      -523.2497
   2   2.0000     -14.355259      -390.6265
   3   2.0000     -10.454036      -284.4688
   4   2.0000     -10.288696      -279.9697
   5   2.0000     -10.262573      -279.2588
   6   2.0000     -10.249588      -278.9055
   7   2.0000     -10.241495      -278.6853
   8   2.0000     -10.241207      -278.6774
   9   2.0000     -10.236072      -278.5377
  10   2.0000     -10.230977      -278.3990
  11   2.0000     -10.156154      -276.3630
  12   2.0000      -1.434344       -39.0305
  13   2.0000      -1.143199       -31.1080
  14   2.0000      -1.000427       -27.2230
  15   2.0000      -0.915256       -24.9054
  16   2.0000      -0.875908       -23.8347
  17   2.0000      -0.833992       -22.6941
  18   2.0000      -0.791516       -21.5382
  19   2.0000      -0.764316       -20.7981
  20   2.0000      -0.743341       -20.2273
  21   2.0000      -0.700204       -19.0535
  22   2.0000      -0.661950       -18.0126
  23   2.0000      -0.654316       -17.8048
  24   2.0000      -0.633702       -17.2439
  25   2.0000      -0.623918       -16.9777
  26   2.0000      -0.601678       -16.3725
  27   2.0000      -0.569212       -15.4891
  28   2.0000      -0.554454       -15.0875
  29   2.0000      -0.548705       -14.9310
  30   2.0000      -0.541988       -14.7482
  31   2.0000      -0.514666       -14.0048
  32   2.0000      -0.494494       -13.4559
  33   2.0000      -0.482029       -13.1167
  34   2.0000      -0.474445       -12.9103
  35   2.0000      -0.461858       -12.5678
  36   2.0000      -0.448047       -12.1920
  37   2.0000      -0.439941       -11.9714
  38   2.0000      -0.427262       -11.6264
  39   2.0000      -0.425667       -11.5830
  40   2.0000      -0.405678       -11.0391
  41   2.0000      -0.400970       -10.9109
  42   2.0000      -0.387328       -10.5397
  43   2.0000      -0.385417       -10.4877
  44   2.0000      -0.378348       -10.2954
  45   2.0000      -0.364017        -9.9054
  46   2.0000      -0.227516        -6.1910
  47   0.0000      -0.004020        -0.1094
  48   0.0000       0.058608         1.5948
  49   0.0000       0.082322         2.2401
  50   0.0000       0.090123         2.4524
  51   0.0000       0.093579         2.5464

MULLIKEN ATOMIC CHARGES
-----------------------
   0 C :   -0.265537
   1 C :   -0.168019
   2 C :   -0.279896
   3 H :    0.148651
   4 H :    0.150448
   5 C :    0.378826
   6 C :    0.160016
   7 N :   -0.399933
   8 C :   -0.423299
   9 H :    0.079897
  10 H :    0.077710
  11 H :    0.252344
  12 H :    0.205379
  13 O :   -0.365065
  14 F :   -0.084911
  15 C :   -0.162335
  16 C :   -0.229502
  17 H :    0.093167
  18 H :    0.113875
  19 C :   -0.237747
  20 H :    0.117572
  21 H :    0.103527
  22 H :    0.137955
  23 H :    0.110824
  24 H :    0.116308
  25 H :    0.116725
  26 H :    0.123014
  27 H :    0.130003
Sum of atomic charges:    0.0000000

LOEWDIN ATOMIC CHARGES
----------------------
   0 C :   -0.211214
   1 C :   -0.253213
   2 C :   -0.235163
   3 H :    0.149865
   4 H :    0.159811
   5 C :   -0.483806
   6 C :   -0.381677
   7 N :    0.023078
   8 C :   -0.300472
   9 H :    0.100414
  10 H :    0.092392
  11 H :    0.141886
  12 H :    0.162686
  13 O :    0.058191
  14 F :    0.356424
  15 C :   -0.251131
  16 C :   -0.259347
  17 H :    0.135247
  18 H :    0.138244
  19 C :   -0.267909
  20 H :    0.138680
  21 H :    0.135052
  22 H :    0.140798
  23 H :    0.137663
  24 H :    0.141158
  25 H :    0.143436
  26 H :    0.137579
  27 H :    0.151325

  Mayer bond orders larger than 0.100000
B(  0-C ,  6-C ) :   0.8924 B(  0-C , 15-C ) :   0.9370 B(  0-C , 26-H ) :   1.0137
B(  0-C , 27-H ) :   0.9810 B(  1-C ,  2-C ) :   0.9389 B(  1-C , 19-C ) :   0.9478
B(  1-C , 24-H ) :   0.9761 B(  1-C , 25-H ) :   0.9751 B(  2-C ,  3-H ) :   0.9613
B(  2-C ,  4-H ) :   0.9425 B(  2-C ,  5-C ) :   0.9892 B(  5-C , 13-O ) :   1.9255
B(  5-C , 14-F ) :   1.1811 B(  6-C ,  7-N ) :   1.2307 B(  6-C ,  8-C ) :   1.7254
B(  7-N , 11-H ) :   0.8675 B(  7-N , 12-H ) :   0.9351 B(  8-C ,  9-H ) :   0.9978
B(  8-C , 10-H ) :   0.9940 B( 11-H , 13-O ) :   0.1103 B( 15-C , 16-C ) :   0.9642
B( 15-C , 17-H ) :   0.9742 B( 15-C , 18-H ) :   0.9738 B( 16-C , 19-C ) :   0.9180
B( 16-C , 20-H ) :   0.9705 B( 16-C , 21-H ) :   0.9732 B( 19-C , 22-H ) :   0.9852
B( 19-C , 23-H ) :   0.9725

FINAL SINGLE POINT ENERGY      -582.311437900960

DIPOLE MOMENT
-------------
                                X             Y             Z
Electronic contribution:     -3.45626       0.81146     -12.74139
Nuclear contribution   :      2.21030       0.63135      12.80988
                        -----------------------------------------
Total Dipole Moment    :     -1.24596       1.44281       0.06850
                        -----------------------------------------
Magnitude (a.u.)       :      1.90757
Magnitude (Debye)      :      4.84865

Rotational constants in cm-1:     0.039980     0.026547     0.019089
Rotational constants in MHz :  1198.568620   795.867393   572.288555

                             ****ORCA TERMINATED NORMALLY****
TOTAL RUN TIME: 0 days 0 hours 1 minutes 21 seconds 718 msec
