                         Program Version 5.0.0 -  RELEASE  -
|  1> !M062X D3Zero RIJCOSX def2-SVP def2/J TightSCF
|  2> *xyz -1 1
|  3> C          4.08422        1.74208       -2.11472
|  4> C          4.26524        2.50052       -0.79589
|  5> H          4.86853        3.39267       -0.98113
|  6> H          3.30764        2.82457       -0.38781
|  7> C          4.98224        1.65026        0.24742
|  8> O          4.36806        1.38927        1.31371
|  9> O          6.12892        1.23351       -0.04562
| 10> H          3.57911        2.36849       -2.81997
| 11> H          3.50424        0.85965       -1.94198
| 12> H          5.04288        1.46841       -2.50327
| 13> *
| 14> %MaxCore 64000
| 15> %pal nprocs 8
| 16> end
| 17> %scf
| 18>   MaxIter 150
| 19> end
| 20>
| 21>
| 22>                          ****END OF INPUT****

CARTESIAN COORDINATES (ANGSTROEM)
---------------------------------
  C      4.084220    1.742080   -2.114720
  C      4.265240    2.500520   -0.795890
  H      4.868530    3.392670   -0.981130
  H      3.307640    2.824570   -0.387810
  C      4.982240    1.650260    0.247420
  O      4.368060    1.389270    1.313710
  O      6.128920    1.233510   -0.045620
  H      3.579110    2.368490   -2.819970
  H      3.504240    0.859650   -1.941980
  H      5.042880    1.468410   -2.503270

 Total Charge           Charge          ....   -1
 Multiplicity           Mult            ....    1
 Number of Electrons    NEL             ....   40
 Basis Dimension        Dim             ....   95

ORBITAL ENERGIES
----------------

  NO   OCC          E(Eh)            E(eV)
   0   2.0000     -19.330830      -526.0186
   1   2.0000     -19.330315      -526.0046
   2   2.0000     -10.406256      -283.1686
   3   2.0000     -10.381580      -282.4972
   4   2.0000     -10.359581      -281.8985
   5   2.0000      -0.895449       -24.3664
   6   2.0000      -0.794143       -21.6097
   7   2.0000      -0.682616       -18.5749
   8   2.0000      -0.541786       -14.7427
   9   2.0000      -0.378018       -10.2864
  10   2.0000      -0.351010        -9.5515
  11   2.0000      -0.312612        -8.5066
  12   2.0000      -0.281842        -7.6693
  13   2.0000      -0.265681        -7.2296
  14   2.0000      -0.259004        -7.0479
  15   2.0000      -0.223661        -6.0861
  16   2.0000      -0.207993        -5.6598
  17   2.0000      -0.080219        -2.1829
  18   2.0000      -0.076079        -2.0702
  19   2.0000      -0.069770        -1.8985
  20   0.0000       0.253915         6.9094
  21   0.0000       0.305989         8.3264
  22   0.0000       0.319941         8.7060
  23   0.0000       0.321520         8.7490
  24   0.0000       0.330078         8.9819

MULLIKEN ATOMIC CHARGES
-----------------------
   0 C :   -0.050364
   1 C :   -0.051853
   2 H :   -0.016223
   3 H :   -0.026874
   4 C :    0.100259
   5 O :   -0.477075
   6 O :   -0.483691
   7 H :   -0.025092
   8 H :    0.009863
   9 H :    0.021050
Sum of atomic charges:   -1.0000000

LOEWDIN ATOMIC CHARGES
----------------------
   0 C :   -0.066533
   1 C :   -0.097413
   2 H :    0.006289
   3 H :   -0.000516
   4 C :   -0.031915
   5 O :   -0.414836
   6 O :   -0.418699
   7 H :   -0.004742
   8 H :    0.012977
   9 H :    0.015388

  Mayer bond orders larger than 0.100000
B(  0-C ,  1-C ) :   1.0871 B(  0-C ,  7-H ) :   0.9701 B(  0-C ,  8-H ) :   0.9753
B(  0-C ,  9-H ) :   0.9666 B(  1-C ,  2-H ) :   0.9405 B(  1-C ,  3-H ) :   0.9439
B(  1-C ,  4-C ) :   0.9186 B(  4-C ,  5-O ) :   1.8405 B(  4-C ,  6-O ) :   1.8070
B(  5-O ,  6-O ) :   0.1031

Dispersion correction           -0.000085960
FINAL SINGLE POINT ENERGY      -267.494191997189

DIPOLE MOMENT
-------------
                                X             Y             Z
Electronic contribution:      2.49395      -1.54761       5.21842
Nuclear contribution   :     -3.31311       2.28398      -6.76358
                        -----------------------------------------
Total Dipole Moment    :     -0.81916       0.73637      -1.54516
                        -----------------------------------------
Magnitude (a.u.)       :      1.89758
Magnitude (Debye)      :      4.82325

Rotational constants in cm-1:     0.309287     0.135287     0.107346
Rotational constants in MHz :  9272.201029  4055.789113  3218.155789

                             ****ORCA TERMINATED NORMALLY****
TOTAL RUN TIME: 0 days 0 hours 0 minutes 10 seconds 819 msec
