                         Program Version 5.0.0 -  RELEASE  -
|  1> !M062X D3Zero RIJCOSX def2-SVP def2/J TightSCF
|  2> *xyz 1 1
|  3> C          3.91385       -1.65829        3.01513
|  4> N          5.03927       -0.90115        2.49282
|  5> C          6.21038       -1.41726        2.17824
|  6> N          6.53591       -2.67712        2.55608
|  7> N          7.07675       -0.70082        1.47891
|  8> H          7.95464       -1.12155        1.20755
|  9> H          6.75616        0.10664        0.96028
| 10> H          4.84217        0.01761        2.11519
| 11> H          5.99388       -3.12692        3.28278
| 12> C          3.13916       -2.37657        1.91061
| 13> H          3.26723       -0.93940        3.52069
| 14> H          4.24720       -2.35509        3.79006
| 15> H          7.49844       -2.97548        2.46878
| 16> H          2.82969       -1.66654        1.17238
| 17> H          2.27790       -2.85264        2.33072
| 18> H          3.76754       -3.11338        1.45548
| 19> *
| 20> %MaxCore 64000
| 21> %pal nprocs 8
| 22> end
| 23> %scf
| 24>   MaxIter 150
| 25> end
| 26>
| 27>
| 28>                          ****END OF INPUT****

CARTESIAN COORDINATES (ANGSTROEM)
---------------------------------
  C      3.913850   -1.658290    3.015130
  N      5.039270   -0.901150    2.492820
  C      6.210380   -1.417260    2.178240
  N      6.535910   -2.677120    2.556080
  N      7.076750   -0.700820    1.478910
  H      7.954640   -1.121550    1.207550
  H      6.756160    0.106640    0.960280
  H      4.842170    0.017610    2.115190
  H      5.993880   -3.126920    3.282780
  C      3.139160   -2.376570    1.910610
  H      3.267230   -0.939400    3.520690
  H      4.247200   -2.355090    3.790060
  H      7.498440   -2.975480    2.468780
  H      2.829690   -1.666540    1.172380
  H      2.277900   -2.852640    2.330720
  H      3.767540   -3.113380    1.455480

 Total Charge           Charge          ....    1
 Multiplicity           Mult            ....    1
 Number of Electrons    NEL             ....   48
 Basis Dimension        Dim             ....  134

ORBITAL ENERGIES
----------------

  NO   OCC          E(Eh)            E(eV)
   0   2.0000     -14.985355      -407.7722
   1   2.0000     -14.984871      -407.7591
   2   2.0000     -14.981836      -407.6765
   3   2.0000     -10.890725      -296.3517
   4   2.0000     -10.759061      -292.7689
   5   2.0000     -10.685842      -290.7766
   6   2.0000      -1.319437       -35.9037
   7   2.0000      -1.201568       -32.6963
   8   2.0000      -1.182723       -32.1835
   9   2.0000      -1.018244       -27.7078
  10   2.0000      -0.921494       -25.0751
  11   2.0000      -0.880744       -23.9663
  12   2.0000      -0.863402       -23.4944
  13   2.0000      -0.817909       -22.2564
  14   2.0000      -0.762400       -20.7460
  15   2.0000      -0.755905       -20.5692
  16   2.0000      -0.726780       -19.7767
  17   2.0000      -0.701672       -19.0935
  18   2.0000      -0.668803       -18.1991
  19   2.0000      -0.627235       -17.0679
  20   2.0000      -0.594277       -16.1711
  21   2.0000      -0.573830       -15.6147
  22   2.0000      -0.540937       -14.7197
  23   2.0000      -0.509222       -13.8566
  24   0.0000      -0.118104        -3.2138
  25   0.0000      -0.102145        -2.7795
  26   0.0000      -0.069745        -1.8979
  27   0.0000      -0.059252        -1.6123
  28   0.0000      -0.038055        -1.0355

MULLIKEN ATOMIC CHARGES
-----------------------
   0 C :   -0.044730
   1 N :   -0.162753
   2 C :    0.106658
   3 N :   -0.104621
   4 N :   -0.070380
   5 H :    0.187342
   6 H :    0.189525
   7 H :    0.180893
   8 H :    0.183455
   9 C :   -0.032676
  10 H :    0.097998
  11 H :    0.078839
  12 H :    0.184997
  13 H :    0.062379
  14 H :    0.089359
  15 H :    0.053717
Sum of atomic charges:    1.0000000

LOEWDIN ATOMIC CHARGES
----------------------
   0 C :    0.036949
   1 N :    0.022648
   2 C :    0.161945
   3 N :    0.019756
   4 N :    0.038101
   5 H :    0.115155
   6 H :    0.115946
   7 H :    0.111463
   8 H :    0.109105
   9 C :   -0.051066
  10 H :    0.053253
  11 H :    0.035800
  12 H :    0.113399
  13 H :    0.036160
  14 H :    0.050951
  15 H :    0.030433

  Mayer bond orders larger than 0.100000
B(  0-C ,  1-N ) :   0.9199 B(  0-C ,  9-C ) :   1.0797 B(  0-C , 10-H ) :   0.9477
B(  0-C , 11-H ) :   0.9542 B(  1-N ,  2-C ) :   1.3879 B(  1-N ,  7-H ) :   0.9033
B(  2-C ,  3-N ) :   1.3682 B(  2-C ,  4-N ) :   1.4055 B(  3-N ,  8-H ) :   0.9175
B(  3-N , 12-H ) :   0.9200 B(  4-N ,  5-H ) :   0.9199 B(  4-N ,  6-H ) :   0.9182
B(  9-C , 13-H ) :   0.9693 B(  9-C , 14-H ) :   0.9650 B(  9-C , 15-H ) :   0.9673

Dispersion correction           -0.000318592
FINAL SINGLE POINT ENERGY      -284.045942200504

DIPOLE MOMENT
-------------
                                X             Y             Z
Electronic contribution:      4.77453       1.92105       0.06012
Nuclear contribution   :     -3.67981      -1.62355      -0.28562
                        -----------------------------------------
Total Dipole Moment    :      1.09472       0.29750      -0.22550
                        -----------------------------------------
Magnitude (a.u.)       :      1.15662
Magnitude (Debye)      :      2.93989

Rotational constants in cm-1:     0.222027     0.074735     0.065694
Rotational constants in MHz :  6656.200457  2240.503315  1969.451902

                             ****ORCA TERMINATED NORMALLY****
TOTAL RUN TIME: 0 days 0 hours 0 minutes 15 seconds 324 msec
