                         Program Version 5.0.0 -  RELEASE  -
|  1> !M062X D3Zero RIJCOSX def2-SVP def2/J TightSCF
|  2> *xyz 0 1
|  3> C          3.91385       -1.65829        3.01513
|  4> C          5.03927       -0.90115        2.49282
|  5> C          6.21038       -1.41726        2.17824
|  6> N          6.53591       -2.67712        2.55608
|  7> N          7.07675       -0.70082        1.47891
|  8> H          7.95464       -1.12155        1.20755
|  9> H          6.75616        0.10664        0.96028
| 10> H          4.84217        0.01761        2.11519
| 11> H          5.99388       -3.12692        3.28278
| 12> C          3.13916       -2.37657        1.91061
| 13> H          3.26723       -0.93940        3.52069
| 14> H          4.24720       -2.35509        3.79006
| 15> H          7.49844       -2.97548        2.46878
| 16> H          2.82969       -1.66654        1.17238
| 17> H          2.27790       -2.85264        2.33072
| 18> H          3.76754       -3.11338        1.45548
| 19> *
| 20> %MaxCore 64000
| 21> %pal nprocs 8
| 22> end
| 23> %scf
| 24>   MaxIter 150
| 25> end
| 26>
| 27>
| 28>                          ****END OF INPUT****

CARTESIAN COORDINATES (ANGSTROEM)
---------------------------------
  C      3.913850   -1.658290    3.015130
  C      5.039270   -0.901150    2.492820
  C      6.210380   -1.417260    2.178240
  N      6.535910   -2.677120    2.556080
  N      7.076750   -0.700820    1.478910
  H      7.954640   -1.121550    1.207550
  H      6.756160    0.106640    0.960280
  H      4.842170    0.017610    2.115190
  H      5.993880   -3.126920    3.282780
  C      3.139160   -2.376570    1.910610
  H      3.267230   -0.939400    3.520690
  H      4.247200   -2.355090    3.790060
  H      7.498440   -2.975480    2.468780
  H      2.829690   -1.666540    1.172380
  H      2.277900   -2.852640    2.330720
  H      3.767540   -3.113380    1.455480

 Total Charge           Charge          ....    0
 Multiplicity           Mult            ....    1
 Number of Electrons    NEL             ....   48
 Basis Dimension        Dim             ....  134

ORBITAL ENERGIES
----------------

  NO   OCC          E(Eh)            E(eV)
   0   2.0000     -14.752930      -401.4476
   1   2.0000     -14.750973      -401.3944
   2   2.0000     -10.587305      -288.0952
   3   2.0000     -10.519774      -286.2576
   4   2.0000     -10.510930      -286.0170
   5   2.0000     -10.463279      -284.7203
   6   2.0000      -1.051453       -28.6115
   7   2.0000      -0.953446       -25.9446
   8   2.0000      -0.857316       -23.3287
   9   2.0000      -0.771294       -20.9880
  10   2.0000      -0.689017       -18.7491
  11   2.0000      -0.645725       -17.5711
  12   2.0000      -0.606796       -16.5118
  13   2.0000      -0.575306       -15.6549
  14   2.0000      -0.534103       -14.5337
  15   2.0000      -0.500235       -13.6121
  16   2.0000      -0.481546       -13.1035
  17   2.0000      -0.451728       -12.2921
  18   2.0000      -0.441088       -12.0026
  19   2.0000      -0.411339       -11.1931
  20   2.0000      -0.382976       -10.4213
  21   2.0000      -0.374330       -10.1860
  22   2.0000      -0.323913        -8.8141
  23   2.0000      -0.202384        -5.5071
  24   0.0000       0.082141         2.2352
  25   0.0000       0.114608         3.1186
  26   0.0000       0.122312         3.3283
  27   0.0000       0.145661         3.9636
  28   0.0000       0.147298         4.0082

MULLIKEN ATOMIC CHARGES
-----------------------
   0 C :   -0.038478
   1 C :   -0.181419
   2 C :   -0.010030
   3 N :   -0.147411
   4 N :   -0.118726
   5 H :    0.115183
   6 H :    0.139129
   7 H :   -0.081703
   8 H :    0.133779
   9 C :    0.006147
  10 H :    0.015796
  11 H :   -0.002210
  12 H :    0.117847
  13 H :    0.016268
  14 H :    0.016150
  15 H :    0.019680
Sum of atomic charges:    0.0000000

LOEWDIN ATOMIC CHARGES
----------------------
   0 C :   -0.046984
   1 C :   -0.221206
   2 C :    0.032229
   3 N :   -0.049827
   4 N :   -0.034012
   5 H :    0.067679
   6 H :    0.086468
   7 H :   -0.007900
   8 H :    0.080139
   9 C :   -0.058455
  10 H :    0.025253
  11 H :    0.009247
  12 H :    0.067680
  13 H :    0.019274
  14 H :    0.013199
  15 H :    0.017216

  Mayer bond orders larger than 0.100000
B(  0-C ,  1-C ) :   1.0747 B(  0-C ,  9-C ) :   1.0776 B(  0-C , 10-H ) :   0.9280
B(  0-C , 11-H ) :   0.9429 B(  1-C ,  2-C ) :   1.7208 B(  1-C ,  7-H ) :   0.9433
B(  2-C ,  3-N ) :   1.2260 B(  2-C ,  4-N ) :   1.2298 B(  3-N ,  8-H ) :   0.9365
B(  3-N , 12-H ) :   0.9446 B(  4-N ,  5-H ) :   0.9463 B(  4-N ,  6-H ) :   0.9361
B(  9-C , 13-H ) :   0.9698 B(  9-C , 14-H ) :   0.9676 B(  9-C , 15-H ) :   0.9737

Dispersion correction           -0.000316780
FINAL SINGLE POINT ENERGY      -267.576566344037

DIPOLE MOMENT
-------------
                                X             Y             Z
Electronic contribution:      4.76847       1.18633      -0.06789
Nuclear contribution   :     -3.74303      -1.46908      -0.23637
                        -----------------------------------------
Total Dipole Moment    :      1.02544      -0.28275      -0.30426
                        -----------------------------------------
Magnitude (a.u.)       :      1.10637
Magnitude (Debye)      :      2.81217

Rotational constants in cm-1:     0.225937     0.074877     0.065953
Rotational constants in MHz :  6773.424301  2244.750632  1977.214101

                             ****ORCA TERMINATED NORMALLY****
TOTAL RUN TIME: 0 days 0 hours 0 minutes 8 seconds 487 msec
