                         Program Version 5.0.0 -  RELEASE  -
|  1> !M062X D3Zero RIJCOSX def2-SVP def2/J TightSCF
|  2> *xyz 0 1
|  3> C          4.08422        1.74208       -2.11472
|  4> C          4.26524        2.50052       -0.79589
|  5> H          4.86853        3.39267       -0.98113
|  6> H          3.30764        2.82457       -0.38781
|  7> C          4.98224        1.65026        0.24742
|  8> O          4.36806        1.38927        1.31371
|  9> F          6.12892        1.23351       -0.04562
| 10> H          3.57911        2.36849       -2.81997
| 11> H          3.50424        0.85965       -1.94198
| 12> H          5.04288        1.46841       -2.50327
| 13> *
| 14> %MaxCore 64000
| 15> %pal nprocs 8
| 16> end
| 17> %scf
| 18>   MaxIter 150
| 19> end
| 20>
| 21>
| 22>                          ****END OF INPUT****

CARTESIAN COORDINATES (ANGSTROEM)
---------------------------------
  C      4.084220    1.742080   -2.114720
  C      4.265240    2.500520   -0.795890
  H      4.868530    3.392670   -0.981130
  H      3.307640    2.824570   -0.387810
  C      4.982240    1.650260    0.247420
  O      4.368060    1.389270    1.313710
  F      6.128920    1.233510   -0.045620
  H      3.579110    2.368490   -2.819970
  H      3.504240    0.859650   -1.941980
  H      5.042880    1.468410   -2.503270

 Total Charge           Charge          ....    0
 Multiplicity           Mult            ....    1
 Number of Electrons    NEL             ....   40
 Basis Dimension        Dim             ....   95

ORBITAL ENERGIES
----------------

  NO   OCC          E(Eh)            E(eV)
   0   2.0000     -25.314214      -688.8348
   1   2.0000     -19.634085      -534.2706
   2   2.0000     -10.726211      -291.8750
   3   2.0000     -10.578678      -287.8605
   4   2.0000     -10.561050      -287.3808
   5   2.0000      -1.436839       -39.0984
   6   2.0000      -1.132275       -30.8108
   7   2.0000      -0.894068       -24.3288
   8   2.0000      -0.771974       -21.0065
   9   2.0000      -0.727277       -19.7902
  10   2.0000      -0.638659       -17.3788
  11   2.0000      -0.627912       -17.0863
  12   2.0000      -0.577211       -15.7067
  13   2.0000      -0.535171       -14.5627
  14   2.0000      -0.505906       -13.7664
  15   2.0000      -0.468083       -12.7372
  16   2.0000      -0.450047       -12.2464
  17   2.0000      -0.439355       -11.9554
  18   2.0000      -0.410254       -11.1636
  19   2.0000      -0.358358        -9.7514
  20   0.0000       0.028030         0.7627
  21   0.0000       0.095731         2.6050
  22   0.0000       0.141677         3.8552
  23   0.0000       0.149204         4.0601
  24   0.0000       0.169790         4.6202

MULLIKEN ATOMIC CHARGES
-----------------------
   0 C :   -0.077864
   1 C :   -0.126480
   2 H :    0.068352
   3 H :    0.075783
   4 C :    0.290533
   5 O :   -0.285568
   6 F :   -0.108375
   7 H :    0.054870
   8 H :    0.056806
   9 H :    0.051941
Sum of atomic charges:   -0.0000000

LOEWDIN ATOMIC CHARGES
----------------------
   0 C :   -0.050333
   1 C :   -0.074352
   2 H :    0.042725
   3 H :    0.047184
   4 C :    0.121968
   5 O :   -0.206950
   6 F :    0.028396
   7 H :    0.032981
   8 H :    0.030738
   9 H :    0.027644

  Mayer bond orders larger than 0.100000
B(  0-C ,  1-C ) :   1.0660 B(  0-C ,  7-H ) :   0.9712 B(  0-C ,  8-H ) :   0.9769
B(  0-C ,  9-H ) :   0.9737 B(  1-C ,  2-H ) :   0.9334 B(  1-C ,  3-H ) :   0.9515
B(  1-C ,  4-C ) :   1.0061 B(  4-C ,  5-O ) :   2.0713 B(  4-C ,  6-F ) :   1.1541

Dispersion correction           -0.000092199
FINAL SINGLE POINT ENERGY      -292.045047825584

DIPOLE MOMENT
-------------
                                X             Y             Z
Electronic contribution:      4.83882      -2.31479       5.90434
Nuclear contribution   :     -4.79499       2.78546      -7.01827
                        -----------------------------------------
Total Dipole Moment    :      0.04382       0.47068      -1.11393
                        -----------------------------------------
Magnitude (a.u.)       :      1.21008
Magnitude (Debye)      :      3.07579

Rotational constants in cm-1:     0.286098     0.133492     0.103343
Rotational constants in MHz :  8577.003657  4001.981591  3098.148068

                             ****ORCA TERMINATED NORMALLY****
TOTAL RUN TIME: 0 days 0 hours 0 minutes 5 seconds 148 msec
