                         Program Version 5.0.0 -  RELEASE  -
|  1> !M062X D3Zero RIJCOSX def2-SVP def2/J TightSCF
|  2> *xyz 0 1
|  3> C          3.91385       -1.65829        3.01513
|  4> N          5.03927       -0.90115        2.49282
|  5> C          6.21038       -1.41726        2.17824
|  6> C          6.53591       -2.67712        2.55608
|  7> N          7.07675       -0.70082        1.47891
|  8> H          7.95464       -1.12155        1.20755
|  9> H          6.75616        0.10664        0.96028
| 10> H          4.84217        0.01761        2.11519
| 11> H          5.99388       -3.12692        3.28278
| 12> C          3.13916       -2.37657        1.91061
| 13> H          3.26723       -0.93940        3.52069
| 14> H          4.24720       -2.35509        3.79006
| 15> H          7.49844       -2.97548        2.46878
| 16> H          2.82969       -1.66654        1.17238
| 17> H          2.27790       -2.85264        2.33072
| 18> H          3.76754       -3.11338        1.45548
| 19> *
| 20> %MaxCore 64000
| 21> %pal nprocs 8
| 22> end
| 23> %scf
| 24>   MaxIter 150
| 25> end
| 26>
| 27>
| 28>                          ****END OF INPUT****

CARTESIAN COORDINATES (ANGSTROEM)
---------------------------------
  C      3.913850   -1.658290    3.015130
  N      5.039270   -0.901150    2.492820
  C      6.210380   -1.417260    2.178240
  C      6.535910   -2.677120    2.556080
  N      7.076750   -0.700820    1.478910
  H      7.954640   -1.121550    1.207550
  H      6.756160    0.106640    0.960280
  H      4.842170    0.017610    2.115190
  H      5.993880   -3.126920    3.282780
  C      3.139160   -2.376570    1.910610
  H      3.267230   -0.939400    3.520690
  H      4.247200   -2.355090    3.790060
  H      7.498440   -2.975480    2.468780
  H      2.829690   -1.666540    1.172380
  H      2.277900   -2.852640    2.330720
  H      3.767540   -3.113380    1.455480

 Total Charge           Charge          ....    0
 Multiplicity           Mult            ....    1
 Number of Electrons    NEL             ....   48
 Basis Dimension        Dim             ....  134

ORBITAL ENERGIES
----------------

  NO   OCC          E(Eh)            E(eV)
   0   2.0000     -14.757240      -401.5649
   1   2.0000     -14.754882      -401.5008
   2   2.0000     -10.593764      -288.2710
   3   2.0000     -10.580678      -287.9149
   4   2.0000     -10.529956      -286.5347
   5   2.0000     -10.455534      -284.5096
   6   2.0000      -1.067041       -29.0357
   7   2.0000      -0.976331       -26.5673
   8   2.0000      -0.837001       -22.7759
   9   2.0000      -0.783510       -21.3204
  10   2.0000      -0.717268       -19.5179
  11   2.0000      -0.633772       -17.2458
  12   2.0000      -0.619378       -16.8541
  13   2.0000      -0.586925       -15.9710
  14   2.0000      -0.531381       -14.4596
  15   2.0000      -0.503717       -13.7068
  16   2.0000      -0.483141       -13.1469
  17   2.0000      -0.458095       -12.4654
  18   2.0000      -0.437999       -11.9186
  19   2.0000      -0.425205       -11.5704
  20   2.0000      -0.423128       -11.5139
  21   2.0000      -0.403268       -10.9735
  22   2.0000      -0.307927        -8.3791
  23   2.0000      -0.205628        -5.5954
  24   0.0000       0.081331         2.2131
  25   0.0000       0.113026         3.0756
  26   0.0000       0.126714         3.4481
  27   0.0000       0.137537         3.7426
  28   0.0000       0.154772         4.2116

MULLIKEN ATOMIC CHARGES
-----------------------
   0 C :    0.018241
   1 N :   -0.209506
   2 C :   -0.013147
   3 C :   -0.117066
   4 N :   -0.130247
   5 H :    0.140777
   6 H :    0.117265
   7 H :    0.115060
   8 H :   -0.039087
   9 C :   -0.025049
  10 H :    0.031639
  11 H :    0.058568
  12 H :   -0.048014
  13 H :    0.019158
  14 H :    0.031767
  15 H :    0.049639
Sum of atomic charges:    0.0000000

LOEWDIN ATOMIC CHARGES
----------------------
   0 C :    0.039735
   1 N :   -0.037945
   2 C :    0.042420
   3 C :   -0.280547
   4 N :   -0.030421
   5 H :    0.088166
   6 H :    0.067517
   7 H :    0.068618
   8 H :   -0.008421
   9 C :   -0.066192
  10 H :    0.022348
  11 H :    0.031317
  12 H :   -0.009304
  13 H :    0.017943
  14 H :    0.024430
  15 H :    0.030337

  Mayer bond orders larger than 0.100000
B(  0-C ,  1-N ) :   0.9909 B(  0-C ,  9-C ) :   1.0918 B(  0-C , 10-H ) :   0.9601
B(  0-C , 11-H ) :   0.9489 B(  1-N ,  2-C ) :   1.1829 B(  1-N ,  7-H ) :   0.9317
B(  2-C ,  3-C ) :   1.7332 B(  2-C ,  4-N ) :   1.2394 B(  3-C ,  8-H ) :   0.9384
B(  3-C , 12-H ) :   0.9405 B(  4-N ,  5-H ) :   0.9391 B(  4-N ,  6-H ) :   0.9458
B(  9-C , 13-H ) :   0.9696 B(  9-C , 14-H ) :   0.9677 B(  9-C , 15-H ) :   0.9651

Dispersion correction           -0.000314000
FINAL SINGLE POINT ENERGY      -267.568602800731

DIPOLE MOMENT
-------------
                                X             Y             Z
Electronic contribution:      3.10061       2.89132      -0.26150
Nuclear contribution   :     -3.42552      -1.84584      -0.22295
                        -----------------------------------------
Total Dipole Moment    :     -0.32491       1.04548      -0.48445
                        -----------------------------------------
Magnitude (a.u.)       :      1.19720
Magnitude (Debye)      :      3.04304

Rotational constants in cm-1:     0.233526     0.075277     0.067092
Rotational constants in MHz :  7000.931279  2256.752901  2011.361214

                             ****ORCA TERMINATED NORMALLY****
TOTAL RUN TIME: 0 days 0 hours 0 minutes 7 seconds 874 msec
