                         Program Version 5.0.0 -  RELEASE  -
|  1> !M062X D3Zero RIJCOSX def2-SVP def2/J TightSCF
|  2> *xyz 0 1
|  3> C          3.91385       -1.65829        3.01513
|  4> N          5.03927       -0.90115        2.49282
|  5> C          6.21038       -1.41726        2.17824
|  6> N          6.53591       -2.67712        2.55608
|  7> C          7.07675       -0.70082        1.47891
|  8> H          7.95464       -1.12155        1.20755
|  9> H          6.75616        0.10664        0.96028
| 10> H          4.84217        0.01761        2.11519
| 11> H          5.99388       -3.12692        3.28278
| 12> C          3.13916       -2.37657        1.91061
| 13> H          3.26723       -0.93940        3.52069
| 14> H          4.24720       -2.35509        3.79006
| 15> H          7.49844       -2.97548        2.46878
| 16> H          2.82969       -1.66654        1.17238
| 17> H          2.27790       -2.85264        2.33072
| 18> H          3.76754       -3.11338        1.45548
| 19> *
| 20> %MaxCore 64000
| 21> %pal nprocs 8
| 22> end
| 23> %scf
| 24>   MaxIter 150
| 25> end
| 26>
| 27>
| 28>                          ****END OF INPUT****

CARTESIAN COORDINATES (ANGSTROEM)
---------------------------------
  C      3.913850   -1.658290    3.015130
  N      5.039270   -0.901150    2.492820
  C      6.210380   -1.417260    2.178240
  N      6.535910   -2.677120    2.556080
  C      7.076750   -0.700820    1.478910
  H      7.954640   -1.121550    1.207550
  H      6.756160    0.106640    0.960280
  H      4.842170    0.017610    2.115190
  H      5.993880   -3.126920    3.282780
  C      3.139160   -2.376570    1.910610
  H      3.267230   -0.939400    3.520690
  H      4.247200   -2.355090    3.790060
  H      7.498440   -2.975480    2.468780
  H      2.829690   -1.666540    1.172380
  H      2.277900   -2.852640    2.330720
  H      3.767540   -3.113380    1.455480

 Total Charge           Charge          ....    0
 Multiplicity           Mult            ....    1
 Number of Electrons    NEL             ....   48
 Basis Dimension        Dim             ....  134

ORBITAL ENERGIES
----------------

  NO   OCC          E(Eh)            E(eV)
   0   2.0000     -14.753843      -401.4725
   1   2.0000     -14.752567      -401.4378
   2   2.0000     -10.590541      -288.1833
   3   2.0000     -10.589974      -288.1678
   4   2.0000     -10.538228      -286.7598
   5   2.0000     -10.455829      -284.5176
   6   2.0000      -1.062173       -28.9032
   7   2.0000      -0.968408       -26.3517
   8   2.0000      -0.855892       -23.2900
   9   2.0000      -0.781111       -21.2551
  10   2.0000      -0.704922       -19.1819
  11   2.0000      -0.671024       -18.2595
  12   2.0000      -0.602922       -16.4063
  13   2.0000      -0.564439       -15.3592
  14   2.0000      -0.541227       -14.7275
  15   2.0000      -0.504047       -13.7158
  16   2.0000      -0.497542       -13.5388
  17   2.0000      -0.466681       -12.6990
  18   2.0000      -0.440699       -11.9920
  19   2.0000      -0.429936       -11.6991
  20   2.0000      -0.420895       -11.4531
  21   2.0000      -0.415691       -11.3115
  22   2.0000      -0.311544        -8.4776
  23   2.0000      -0.206929        -5.6308
  24   0.0000       0.081478         2.2171
  25   0.0000       0.107883         2.9356
  26   0.0000       0.123060         3.3486
  27   0.0000       0.140806         3.8315
  28   0.0000       0.147808         4.0221

MULLIKEN ATOMIC CHARGES
-----------------------
   0 C :   -0.008764
   1 N :   -0.191414
   2 C :   -0.002392
   3 N :   -0.157254
   4 C :   -0.102973
   5 H :   -0.046085
   6 H :   -0.041715
   7 H :    0.136231
   8 H :    0.116323
   9 C :   -0.019534
  10 H :    0.039140
  11 H :    0.034502
  12 H :    0.138941
  13 H :    0.032866
  14 H :    0.031223
  15 H :    0.040904
Sum of atomic charges:    0.0000000

LOEWDIN ATOMIC CHARGES
----------------------
   0 C :    0.026055
   1 N :   -0.037703
   2 C :    0.044513
   3 N :   -0.047227
   4 C :   -0.258798
   5 H :   -0.007623
   6 H :   -0.007101
   7 H :    0.087833
   8 H :    0.064271
   9 C :   -0.068501
  10 H :    0.026233
  11 H :    0.018007
  12 H :    0.086521
  13 H :    0.024097
  14 H :    0.023533
  15 H :    0.025890

  Mayer bond orders larger than 0.100000
B(  0-C ,  1-N ) :   1.0106 B(  0-C ,  9-C ) :   1.0714 B(  0-C , 10-H ) :   0.9576
B(  0-C , 11-H ) :   0.9566 B(  1-N ,  2-C ) :   1.1963 B(  1-N ,  7-H ) :   0.9229
B(  2-C ,  3-N ) :   1.1995 B(  2-C ,  4-C ) :   1.7752 B(  3-N ,  8-H ) :   0.9460
B(  3-N , 12-H ) :   0.9395 B(  4-C ,  5-H ) :   0.9382 B(  4-C ,  6-H ) :   0.9395
B(  9-C , 13-H ) :   0.9700 B(  9-C , 14-H ) :   0.9656 B(  9-C , 15-H ) :   0.9668

Dispersion correction           -0.000312706
FINAL SINGLE POINT ENERGY      -267.569201990629

DIPOLE MOMENT
-------------
                                X             Y             Z
Electronic contribution:      2.55845       0.89808       1.00234
Nuclear contribution   :     -3.31079      -1.42658      -0.45147
                        -----------------------------------------
Total Dipole Moment    :     -0.75234      -0.52850       0.55087
                        -----------------------------------------
Magnitude (a.u.)       :      1.07182
Magnitude (Debye)      :      2.72434

Rotational constants in cm-1:     0.225507     0.077571     0.068070
Rotational constants in MHz :  6760.542142  2325.533779  2040.680522

                             ****ORCA TERMINATED NORMALLY****
TOTAL RUN TIME: 0 days 0 hours 0 minutes 9 seconds 210 msec
