                         Program Version 5.0.0 -  RELEASE  -
|  1> !wB97X-D3 RIJCOSX def2-TZVP def2/J TightSCF xyzfile
|  2>
|  3> *xyzfile 0 1 D5.xyz
|  4>
|  5> %MaxCore 64000
|  6>
|  7> %pal nprocs 18
|  8> end
|  9>
| 10> %scf
| 11>   MaxIter 150
| 12> end
| 13>
| 14>
| 15>                          ****END OF INPUT****

CARTESIAN COORDINATES (ANGSTROEM)
---------------------------------
  C      3.913853   -1.658291    3.015134
  N      5.039266   -0.901154    2.492821
  C      4.084215    1.742081   -2.114724
  C      4.265245    2.500518   -0.795890
  H      4.868534    3.392674   -0.981134
  H      3.307640    2.824571   -0.387809
  C      4.982240    1.650257    0.247422
  C      6.210384   -1.417261    2.178244
  C      6.535913   -2.677122    2.556078
  N      7.076754   -0.700820    1.478906
  H      7.954643   -1.121554    1.207554
  H      6.756161    0.106637    0.960278
  H      4.842168    0.017609    2.115191
  H      5.993876   -3.126918    3.282784
  H      7.498441   -2.975482    2.468776
  O      4.368065    1.389270    1.313706
  F      6.128919    1.233512   -0.045620
  C      3.139159   -2.376572    1.910609
  H      3.267235   -0.939401    3.520693
  H      4.247195   -2.355095    3.790065
  C      1.997274    0.430918   -1.399218
  C      3.412746    0.376886   -1.965497
  H      4.047407   -0.246590   -1.326706
  H      3.390774   -0.118719   -2.942839
  H      5.068475    1.598504   -2.565728
  H      3.503356    2.363939   -2.804565
  C      2.399946   -1.389579    1.009490
  H      2.440750   -3.087118    2.362976
  H      3.844475   -2.970462    1.318677
  C      2.070177   -1.936705   -0.372401
  H      1.481611   -1.061542    1.509912
  H      3.008628   -0.490001    0.897451
  C      1.322238   -0.935775   -1.256413
  H      1.472747   -2.850902   -0.283997
  H      3.003539   -2.234041   -0.862535
  H      1.376444    1.058920   -2.047420
  H      2.015341    0.929780   -0.426535
  H      0.316648   -0.787213   -0.848278
  H      1.185611   -1.379252   -2.248613

 Total Charge           Charge          ....    0
 Multiplicity           Mult            ....    1
 Number of Electrons    NEL             ....  126
 Basis Dimension        Dim             ....  634

ORBITAL ENERGIES
----------------

  NO   OCC          E(Eh)            E(eV)
   0   2.0000     -24.900680      -677.5819
   1   2.0000     -19.275461      -524.5120
   2   2.0000     -14.396068      -391.7369
   3   2.0000     -14.386822      -391.4853
   4   2.0000     -10.494076      -285.5583
   5   2.0000     -10.326506      -280.9985
   6   2.0000     -10.307549      -280.4827
   7   2.0000     -10.301355      -280.3141
   8   2.0000     -10.289300      -279.9861
   9   2.0000     -10.285461      -279.8816
  10   2.0000     -10.278475      -279.6915
  11   2.0000     -10.271650      -279.5058
  12   2.0000     -10.263793      -279.2920
  13   2.0000     -10.256904      -279.1046
  14   2.0000     -10.251399      -278.9548
  15   2.0000     -10.160547      -276.4825
  16   2.0000      -1.484484       -40.3949
  17   2.0000      -1.192718       -32.4555
  18   2.0000      -1.065885       -29.0042
  19   2.0000      -0.982863       -26.7451
  20   2.0000      -0.964283       -26.2395
  21   2.0000      -0.926899       -25.2222
  22   2.0000      -0.889564       -24.2063
  23   2.0000      -0.858418       -23.3587
  24   2.0000      -0.821237       -22.3470
  25   2.0000      -0.807879       -21.9835
  26   2.0000      -0.792805       -21.5733
  27   2.0000      -0.763058       -20.7639
  28   2.0000      -0.730196       -19.8696
  29   2.0000      -0.703323       -19.1384
  30   2.0000      -0.699781       -19.0420
  31   2.0000      -0.696881       -18.9631
  32   2.0000      -0.665155       -18.0998
  33   2.0000      -0.658351       -17.9147
  34   2.0000      -0.639168       -17.3927
  35   2.0000      -0.610297       -16.6070
  36   2.0000      -0.603825       -16.4309
  37   2.0000      -0.593960       -16.1625
  38   2.0000      -0.589916       -16.0524
  39   2.0000      -0.569006       -15.4834
  40   2.0000      -0.551283       -15.0012
  41   2.0000      -0.545423       -14.8417
  42   2.0000      -0.531102       -14.4520
  43   2.0000      -0.521344       -14.1865
  44   2.0000      -0.513254       -13.9663
  45   2.0000      -0.511640       -13.9224
  46   2.0000      -0.499304       -13.5868
  47   2.0000      -0.488186       -13.2842
  48   2.0000      -0.484685       -13.1889
  49   2.0000      -0.473256       -12.8779
  50   2.0000      -0.465126       -12.6567
  51   2.0000      -0.455729       -12.4010
  52   2.0000      -0.451080       -12.2745
  53   2.0000      -0.442844       -12.0504
  54   2.0000      -0.436541       -11.8789
  55   2.0000      -0.433525       -11.7968
  56   2.0000      -0.417439       -11.3591
  57   2.0000      -0.408960       -11.1284
  58   2.0000      -0.404421       -11.0049
  59   2.0000      -0.400693       -10.9034
  60   2.0000      -0.395013       -10.7489
  61   2.0000      -0.319064        -8.6822
  62   2.0000      -0.228963        -6.2304
  63   0.0000       0.021118         0.5746
  64   0.0000       0.094549         2.5728
  65   0.0000       0.118805         3.2329
  66   0.0000       0.120596         3.2816
  67   0.0000       0.127705         3.4750

MULLIKEN ATOMIC CHARGES
-----------------------
   0 C :   -0.136270
   1 N :   -0.349387
   2 C :   -0.206574
   3 C :   -0.223580
   4 H :    0.148296
   5 H :    0.165188
   6 C :    0.422974
   7 C :    0.374687
   8 C :   -0.558551
   9 N :   -0.515677
  10 H :    0.247962
  11 H :    0.216035
  12 H :    0.230988
  13 H :    0.078649
  14 H :    0.074524
  15 O :   -0.384740
  16 F :   -0.122780
  17 C :   -0.102144
  18 H :    0.113381
  19 H :    0.124781
  20 C :   -0.249661
  21 C :   -0.257367
  22 H :    0.130689
  23 H :    0.119561
  24 H :    0.130087
  25 H :    0.123908
  26 C :   -0.267639
  27 H :    0.094381
  28 H :    0.125500
  29 C :   -0.213170
  30 H :    0.094741
  31 H :    0.058687
  32 C :   -0.169040
  33 H :    0.109479
  34 H :    0.116872
  35 H :    0.108735
  36 H :    0.134593
  37 H :    0.106510
  38 H :    0.105368
Sum of atomic charges:    0.0000000

LOEWDIN ATOMIC CHARGES
----------------------
   0 C :   -0.273735
   1 N :    0.118332
   2 C :   -0.260819
   3 C :   -0.222542
   4 H :    0.154828
   5 H :    0.156730
   6 C :   -0.470460
   7 C :   -0.465373
   8 C :   -0.381246
   9 N :   -0.020971
  10 H :    0.175404
  11 H :    0.141222
  12 H :    0.156414
  13 H :    0.091962
  14 H :    0.088512
  15 O :    0.081336
  16 F :    0.346218
  17 C :   -0.264602
  18 H :    0.132664
  19 H :    0.133748
  20 C :   -0.269624
  21 C :   -0.265311
  22 H :    0.139262
  23 H :    0.142165
  24 H :    0.141399
  25 H :    0.144130
  26 C :   -0.273681
  27 H :    0.132606
  28 H :    0.144693
  29 C :   -0.271366
  30 H :    0.134580
  31 H :    0.132497
  32 C :   -0.266628
  33 H :    0.136888
  34 H :    0.135058
  35 H :    0.136395
  36 H :    0.136853
  37 H :    0.137249
  38 H :    0.135212

  Mayer bond orders larger than 0.100000
B(  0-C ,  1-N ) :   0.9652 B(  0-C , 17-C ) :   0.9386 B(  0-C , 18-H ) :   0.9833
B(  0-C , 19-H ) :   0.9843 B(  1-N ,  7-C ) :   1.2218 B(  1-N , 12-H ) :   0.8709
B(  2-C ,  3-C ) :   0.9407 B(  2-C , 21-C ) :   0.9630 B(  2-C , 24-H ) :   0.9812
B(  2-C , 25-H ) :   0.9703 B(  3-C ,  4-H ) :   0.9506 B(  3-C ,  5-H ) :   0.9805
B(  3-C ,  6-C ) :   0.9741 B(  6-C , 15-O ) :   1.9163 B(  6-C , 16-F ) :   1.0869
B(  7-C ,  8-C ) :   1.5996 B(  7-C ,  9-N ) :   1.1448 B(  8-C , 13-H ) :   1.0117
B(  8-C , 14-H ) :   1.0039 B(  9-N , 10-H ) :   0.9240 B(  9-N , 11-H ) :   0.9081
B( 17-C , 26-C ) :   0.9766 B( 17-C , 27-H ) :   0.9722 B( 17-C , 28-H ) :   0.9716
B( 20-C , 21-C ) :   0.9329 B( 20-C , 32-C ) :   0.9702 B( 20-C , 35-H ) :   0.9698
B( 20-C , 36-H ) :   0.9791 B( 21-C , 22-H ) :   0.9775 B( 21-C , 23-H ) :   0.9703
B( 26-C , 29-C ) :   0.9556 B( 26-C , 30-H ) :   0.9662 B( 26-C , 31-H ) :   0.9960
B( 29-C , 32-C ) :   0.9688 B( 29-C , 33-H ) :   0.9789 B( 29-C , 34-H ) :   0.9868
B( 32-C , 37-H ) :   0.9831 B( 32-C , 38-H ) :   0.9839

Dispersion correction           -0.020119603
FINAL SINGLE POINT ENERGY      -755.752894954830

DIPOLE MOMENT
-------------
                                X             Y             Z
Electronic contribution:     12.78348      10.45006       3.19635
Nuclear contribution   :    -13.35170      -8.48261      -5.12969
                        -----------------------------------------
Total Dipole Moment    :     -0.56822       1.96744      -1.93334
                        -----------------------------------------
Magnitude (a.u.)       :      2.81629
Magnitude (Debye)      :      7.15845

Rotational constants in cm-1:     0.019886     0.013843     0.009504
Rotational constants in MHz :   596.157485   415.004628   284.931121

                             ****ORCA TERMINATED NORMALLY****
TOTAL RUN TIME: 0 days 0 hours 2 minutes 41 seconds 748 msec
