                         Program Version 5.0.0 -  RELEASE  -
|  1> !PBE0 D3BJ RIJCOSX def2-SVPD def2/J TightSCF
|  2> *xyz -1 1
|  3> C          4.99986       -1.59613       -5.92488
|  4> C          3.76678       -2.26611       -6.51175
|  5> C          2.49670       -1.84416       -5.73570
|  6> H          1.62642       -2.21743       -6.30895
|  7> H          2.48182       -2.45607       -4.79341
|  8> O          2.45973       -0.50920       -5.50576
|  9> H          3.88619       -3.35708       -6.53360
| 10> H          3.68560       -1.92217       -7.54713
| 11> H          5.86637       -1.89999       -6.47418
| 12> H          5.10830       -1.88372       -4.89997
| 13> H          4.89230       -0.53341       -5.98765
| 14> *
| 15>
| 16> %MaxCore 64000
| 17>
| 18> %pal nprocs 4
| 19> end
| 20>
| 21> %scf
| 22>   MaxIter 150
| 23> end
| 24>
| 25>
| 26>                          ****END OF INPUT****

CARTESIAN COORDINATES (ANGSTROEM)
---------------------------------
  C      4.999860   -1.596130   -5.924880
  C      3.766780   -2.266110   -6.511750
  C      2.496700   -1.844160   -5.735700
  H      1.626420   -2.217430   -6.308950
  H      2.481820   -2.456070   -4.793410
  O      2.459730   -0.509200   -5.505760
  H      3.886190   -3.357080   -6.533600
  H      3.685600   -1.922170   -7.547130
  H      5.866370   -1.899990   -6.474180
  H      5.108300   -1.883720   -4.899970
  H      4.892300   -0.533410   -5.987650

 Total Charge           Charge          ....   -1
 Multiplicity           Mult            ....    1
 Number of Electrons    NEL             ....   34
 Basis Dimension        Dim             ....  139

ORBITAL ENERGIES
----------------

  NO   OCC          E(Eh)            E(eV)
   0   2.0000     -18.888424      -513.9801
   1   2.0000     -10.048243      -273.4266
   2   2.0000     -10.041655      -273.2473
   3   2.0000     -10.038818      -273.1701
   4   2.0000      -0.708532       -19.2801
   5   2.0000      -0.595354       -16.2004
   6   2.0000      -0.476204       -12.9582
   7   2.0000      -0.374478       -10.1901
   8   2.0000      -0.286596        -7.7987
   9   2.0000      -0.276717        -7.5298
  10   2.0000      -0.223225        -6.0743
  11   2.0000      -0.199158        -5.4194
  12   2.0000      -0.170037        -4.6269
  13   2.0000      -0.159106        -4.3295
  14   2.0000      -0.129950        -3.5361
  15   2.0000       0.013294         0.3618
  16   2.0000       0.016587         0.4514
  17   0.0000       0.174632         4.7520
  18   0.0000       0.198320         5.3966
  19   0.0000       0.214877         5.8471
  20   0.0000       0.238805         6.4982
  21   0.0000       0.259794         7.0694

MULLIKEN ATOMIC CHARGES
-----------------------
   0 C :    0.449716
   1 C :   -0.654491
   2 C :    0.396809
   3 H :   -0.128064
   4 H :   -0.043571
   5 O :   -0.917894
   6 H :   -0.047833
   7 H :    0.011995
   8 H :   -0.069445
   9 H :   -0.034091
  10 H :    0.036870
Sum of atomic charges:   -1.0000000

LOEWDIN ATOMIC CHARGES
----------------------
   0 C :    0.070263
   1 C :   -0.120437
   2 C :   -0.218178
   3 H :   -0.034907
   4 H :   -0.025095
   5 O :   -0.547469
   6 H :   -0.010765
   7 H :   -0.000782
   8 H :   -0.049218
   9 H :   -0.028987
  10 H :   -0.034426

  Mayer bond orders larger than 0.100000
B(  0-C ,  1-C ) :   1.2866 B(  0-C ,  8-H ) :   0.8424 B(  0-C ,  9-H ) :   0.8591
B(  0-C , 10-H ) :   0.8380 B(  1-C ,  2-C ) :   1.0325 B(  1-C ,  3-H ) :   0.1328
B(  1-C ,  4-H ) :   0.1290 B(  1-C ,  5-O ) :   0.1217 B(  1-C ,  6-H ) :   1.0416
B(  1-C ,  7-H ) :   0.9741 B(  1-C ,  8-H ) :   0.1746 B(  1-C ,  9-H ) :   0.1799
B(  1-C , 10-H ) :   0.1884 B(  2-C ,  3-H ) :   0.9833 B(  2-C ,  4-H ) :   0.9527
B(  2-C ,  5-O ) :   1.0966

Dispersion correction           -0.005517260
FINAL SINGLE POINT ENERGY      -193.384718763275

DIPOLE MOMENT
-------------
                                X             Y             Z
Electronic contribution:     -2.00953       2.01755       0.55249
Nuclear contribution   :      3.33375      -3.25054      -1.09297
                        -----------------------------------------
Total Dipole Moment    :      1.32422      -1.23299      -0.54048
                        -----------------------------------------
Magnitude (a.u.)       :      1.88837
Magnitude (Debye)      :      4.79986

Rotational constants in cm-1:     0.478390     0.193336     0.154822
Rotational constants in MHz : 14341.777399  5796.063993  4641.443060

                             ****ORCA TERMINATED NORMALLY****
TOTAL RUN TIME: 0 days 0 hours 0 minutes 10 seconds 387 msec
