                         Program Version 5.0.0 -  RELEASE  -
|  1> !PBE0 D3BJ RIJCOSX def2-SVPD def2/J TightSCF
|  2> *xyz 1 1
|  3> C          4.99986       -1.59613       -5.92488
|  4> N          5.28156       -1.97413       -4.53576
|  5> C          3.76678       -2.26611       -6.51175
|  6> C          2.49670       -1.84416       -5.73570
|  7> C          4.79250       -1.36132       -3.45730
|  8> N          3.93990       -0.37492       -3.55736
|  9> N          5.25986       -1.75422       -2.23913
| 10> H          5.92282       -2.52145       -2.18672
| 11> H          4.65468       -1.64040       -1.44202
| 12> H          5.70914       -2.87560       -4.38702
| 13> H          3.33010       -0.31764       -4.36125
| 14> H          3.69849        0.11447       -2.70833
| 15> H          4.84333       -0.51793       -5.94302
| 16> H          5.90170       -1.82250       -6.49647
| 17> H          3.88619       -3.35708       -6.53360
| 18> H          3.68560       -1.92217       -7.54713
| 19> H          1.64155       -2.32499       -6.16281
| 20> H          2.37707       -0.78268       -5.79763
| 21> H          2.59306       -2.13299       -4.70994
| 22> *
| 23>
| 24> %MaxCore 64000
| 25>
| 26> %pal nprocs 4
| 27> end
| 28>
| 29> %scf
| 30>   MaxIter 150
| 31> end
| 32>
| 33>
| 34>                          ****END OF INPUT****

CARTESIAN COORDINATES (ANGSTROEM)
---------------------------------
  C      4.999860   -1.596130   -5.924880
  N      5.281560   -1.974130   -4.535760
  C      3.766780   -2.266110   -6.511750
  C      2.496700   -1.844160   -5.735700
  C      4.792500   -1.361320   -3.457300
  N      3.939900   -0.374920   -3.557360
  N      5.259860   -1.754220   -2.239130
  H      5.922820   -2.521450   -2.186720
  H      4.654680   -1.640400   -1.442020
  H      5.709140   -2.875600   -4.387020
  H      3.330100   -0.317640   -4.361250
  H      3.698490    0.114470   -2.708330
  H      4.843330   -0.517930   -5.943020
  H      5.901700   -1.822500   -6.496470
  H      3.886190   -3.357080   -6.533600
  H      3.685600   -1.922170   -7.547130
  H      1.641550   -2.324990   -6.162810
  H      2.377070   -0.782680   -5.797630
  H      2.593060   -2.132990   -4.709940

 Total Charge           Charge          ....    1
 Multiplicity           Mult            ....    1
 Number of Electrons    NEL             ....   56
 Basis Dimension        Dim             ....  236

ORBITAL ENERGIES
----------------

  NO   OCC          E(Eh)            E(eV)
   0   2.0000     -14.618926      -397.8012
   1   2.0000     -14.615657      -397.7122
   2   2.0000     -14.612155      -397.6170
   3   2.0000     -10.563628      -287.4509
   4   2.0000     -10.434971      -283.9500
   5   2.0000     -10.384183      -282.5680
   6   2.0000     -10.370930      -282.2073
   7   2.0000      -1.231430       -33.5089
   8   2.0000      -1.120018       -30.4772
   9   2.0000      -1.105033       -30.0695
  10   2.0000      -0.963761       -26.2253
  11   2.0000      -0.884354       -24.0645
  12   2.0000      -0.843236       -22.9456
  13   2.0000      -0.804573       -21.8936
  14   2.0000      -0.778676       -21.1889
  15   2.0000      -0.747697       -20.3459
  16   2.0000      -0.710495       -19.3335
  17   2.0000      -0.704006       -19.1570
  18   2.0000      -0.656759       -17.8713
  19   2.0000      -0.646205       -17.5841
  20   2.0000      -0.620527       -16.8854
  21   2.0000      -0.593373       -16.1465
  22   2.0000      -0.574039       -15.6204
  23   2.0000      -0.534452       -14.5432
  24   2.0000      -0.513292       -13.9674
  25   2.0000      -0.509449       -13.8628
  26   2.0000      -0.486011       -13.2250
  27   2.0000      -0.459136       -12.4937
  28   0.0000      -0.168300        -4.5797
  29   0.0000      -0.138329        -3.7641
  30   0.0000      -0.106104        -2.8872
  31   0.0000      -0.095725        -2.6048
  32   0.0000      -0.083025        -2.2592

MULLIKEN ATOMIC CHARGES
-----------------------
   0 C :    0.660240
   1 N :   -0.545316
   2 C :   -0.181794
   3 C :    0.326501
   4 C :    1.524025
   5 N :    0.048552
   6 N :   -0.224977
   7 H :   -0.013879
   8 H :   -0.003368
   9 H :   -0.236151
  10 H :   -0.300409
  11 H :   -0.066387
  12 H :    0.092041
  13 H :   -0.274533
  14 H :   -0.050294
  15 H :    0.089767
  16 H :   -0.277234
  17 H :    0.253989
  18 H :    0.179228
Sum of atomic charges:    1.0000000

LOEWDIN ATOMIC CHARGES
----------------------
   0 C :    0.073329
   1 N :    0.048822
   2 C :   -0.029265
   3 C :    0.133495
   4 C :   -0.030840
   5 N :    0.290977
   6 N :    0.257109
   7 H :    0.033696
   8 H :    0.028299
   9 H :    0.056725
  10 H :   -0.032712
  11 H :    0.049774
  12 H :    0.035123
  13 H :    0.042733
  14 H :    0.035864
  15 H :    0.041108
  16 H :    0.003692
  17 H :   -0.010944
  18 H :   -0.026985

  Mayer bond orders larger than 0.100000
B(  0-C ,  1-N ) :   0.8878 B(  0-C ,  2-C ) :   1.1115 B(  0-C ,  9-H ) :  -0.1953
B(  0-C , 12-H ) :   0.7634 B(  0-C , 13-H ) :   0.9827 B(  0-C , 14-H ) :   0.1184
B(  1-N ,  4-C ) :   0.9225 B(  1-N ,  5-N ) :   0.1793 B(  1-N ,  6-N ) :   0.2152
B(  1-N ,  9-H ) :   1.3432 B(  1-N , 12-H ) :   0.1674 B(  1-N , 13-H ) :   0.1234
B(  2-C ,  3-C ) :   1.2944 B(  2-C , 14-H ) :   0.9814 B(  2-C , 15-H ) :   0.8843
B(  2-C , 16-H ) :   0.1592 B(  2-C , 17-H ) :   0.1081 B(  2-C , 18-H ) :   0.1226
B(  3-C , 10-H ) :   0.1788 B(  3-C , 16-H ) :   1.0476 B(  3-C , 17-H ) :   0.6897
B(  3-C , 18-H ) :   0.8212 B(  4-C ,  5-N ) :   0.9986 B(  4-C ,  6-N ) :   0.7263
B(  4-C ,  7-H ) :  -0.1095 B(  4-C ,  9-H ) :  -0.2166 B(  4-C , 10-H ) :  -0.1161
B(  4-C , 11-H ) :  -0.1277 B(  5-N ,  6-N ) :   0.1784 B(  5-N , 10-H ) :   1.1495
B(  5-N , 11-H ) :   1.2331 B(  6-N ,  7-H ) :   1.0882 B(  6-N ,  8-H ) :   1.1513
B(  7-H ,  8-H ) :  -0.1309 B( 10-H , 11-H ) :  -0.2084 B( 10-H , 17-H ) :   0.1537
B( 12-H , 13-H ) :  -0.1144 B( 16-H , 17-H ) :  -0.1055

Dispersion correction           -0.014168481
FINAL SINGLE POINT ENERGY      -323.132365742114

DIPOLE MOMENT
-------------
                                X             Y             Z
Electronic contribution:      3.86822       0.79969       4.83115
Nuclear contribution   :     -3.69451      -0.93313      -3.60402
                        -----------------------------------------
Total Dipole Moment    :      0.17370      -0.13344       1.22713
                        -----------------------------------------
Magnitude (a.u.)       :      1.24652
Magnitude (Debye)      :      3.16841

Rotational constants in cm-1:     0.152547     0.057272     0.048491
Rotational constants in MHz :  4573.230603  1716.968614  1453.721796

                             ****ORCA TERMINATED NORMALLY****
TOTAL RUN TIME: 0 days 0 hours 0 minutes 30 seconds 13 msec
