                         Program Version 5.0.0 -  RELEASE  -
|  1> !PBE0 D3BJ RIJCOSX def2-SVPD def2/J TightSCF
|  2> *xyz 0 1
|  3> C          4.99986       -1.59613       -5.92488
|  4> C          3.76678       -2.26611       -6.51175
|  5> C          2.49670       -1.84416       -5.73570
|  6> H          1.62642       -2.21743       -6.30895
|  7> H          2.48182       -2.45607       -4.79341
|  8> F          2.45973       -0.50920       -5.50576
|  9> H          3.88619       -3.35708       -6.53360
| 10> H          3.68560       -1.92217       -7.54713
| 11> H          5.86637       -1.89999       -6.47418
| 12> H          5.10830       -1.88372       -4.89997
| 13> H          4.89230       -0.53341       -5.98765
| 14> *
| 15>
| 16> %MaxCore 64000
| 17>
| 18> %pal nprocs 4
| 19> end
| 20>
| 21> %scf
| 22>   MaxIter 150
| 23> end
| 24>
| 25>
| 26>                          ****END OF INPUT****

CARTESIAN COORDINATES (ANGSTROEM)
---------------------------------
  C      4.999860   -1.596130   -5.924880
  C      3.766780   -2.266110   -6.511750
  C      2.496700   -1.844160   -5.735700
  H      1.626420   -2.217430   -6.308950
  H      2.481820   -2.456070   -4.793410
  F      2.459730   -0.509200   -5.505760
  H      3.886190   -3.357080   -6.533600
  H      3.685600   -1.922170   -7.547130
  H      5.866370   -1.899990   -6.474180
  H      5.108300   -1.883720   -4.899970
  H      4.892300   -0.533410   -5.987650

 Total Charge           Charge          ....    0
 Multiplicity           Mult            ....    1
 Number of Electrons    NEL             ....   34
 Basis Dimension        Dim             ....  139

ORBITAL ENERGIES
----------------

  NO   OCC          E(Eh)            E(eV)
   0   2.0000     -24.777278      -674.2240
   1   2.0000     -10.311908      -280.6013
   2   2.0000     -10.238373      -278.6003
   3   2.0000     -10.216357      -278.0012
   4   2.0000      -1.225236       -33.3404
   5   2.0000      -0.805686       -21.9238
   6   2.0000      -0.704319       -19.1655
   7   2.0000      -0.609998       -16.5989
   8   2.0000      -0.531154       -14.4534
   9   2.0000      -0.514077       -13.9887
  10   2.0000      -0.494563       -13.4577
  11   2.0000      -0.451983       -12.2991
  12   2.0000      -0.412252       -11.2179
  13   2.0000      -0.387092       -10.5333
  14   2.0000      -0.368107       -10.0167
  15   2.0000      -0.338997        -9.2246
  16   2.0000      -0.334803        -9.1105
  17   0.0000       0.028847         0.7850
  18   0.0000       0.054145         1.4734
  19   0.0000       0.064590         1.7576
  20   0.0000       0.078323         2.1313
  21   0.0000       0.099556         2.7091

MULLIKEN ATOMIC CHARGES
-----------------------
   0 C :    0.452751
   1 C :   -0.618200
   2 C :    0.676327
   3 H :   -0.039603
   4 H :    0.042235
   5 F :   -0.471262
   6 H :   -0.034171
   7 H :    0.014498
   8 H :   -0.043412
   9 H :   -0.018054
  10 H :    0.038890
Sum of atomic charges:    0.0000000

LOEWDIN ATOMIC CHARGES
----------------------
   0 C :    0.108359
   1 C :   -0.070694
   2 C :    0.096278
   3 H :    0.028990
   4 H :    0.041178
   5 F :   -0.209287
   6 H :    0.028918
   7 H :    0.021961
   8 H :   -0.017040
   9 H :   -0.012898
  10 H :   -0.015765

  Mayer bond orders larger than 0.100000
B(  0-C ,  1-C ) :   1.3138 B(  0-C ,  8-H ) :   0.8637 B(  0-C ,  9-H ) :   0.8569
B(  0-C , 10-H ) :   0.8436 B(  1-C ,  2-C ) :   1.1581 B(  1-C ,  6-H ) :   1.0030
B(  1-C ,  7-H ) :   0.9601 B(  1-C ,  8-H ) :   0.1609 B(  1-C ,  9-H ) :   0.1572
B(  1-C , 10-H ) :   0.1564 B(  2-C ,  3-H ) :   0.9436 B(  2-C ,  4-H ) :   0.9062
B(  2-C ,  5-F ) :   0.6803

Dispersion correction           -0.005194631
FINAL SINGLE POINT ENERGY      -217.980752609453

DIPOLE MOMENT
-------------
                                X             Y             Z
Electronic contribution:     -4.39638       3.86359       1.41953
Nuclear contribution   :      4.50596      -4.50325      -1.58424
                        -----------------------------------------
Total Dipole Moment    :      0.10959      -0.63966      -0.16471
                        -----------------------------------------
Magnitude (a.u.)       :      0.66955
Magnitude (Debye)      :      1.70187

Rotational constants in cm-1:     0.464063     0.182606     0.146573
Rotational constants in MHz : 13912.251583  5474.398056  4394.141907

                             ****ORCA TERMINATED NORMALLY****
TOTAL RUN TIME: 0 days 0 hours 0 minutes 8 seconds 465 msec
