                         Program Version 5.0.0 -  RELEASE  -
|  1> !PBE0 D3BJ RIJCOSX def2-SVPD def2/J TightSCF
|  2> *xyz 0 1
|  3> C          4.99986       -1.59613       -5.92488
|  4> C          5.28156       -1.97413       -4.53576
|  5> C          3.76678       -2.26611       -6.51175
|  6> C          2.49670       -1.84416       -5.73570
|  7> C          4.79250       -1.36132       -3.45730
|  8> N          3.93990       -0.37492       -3.55736
|  9> N          5.25986       -1.75422       -2.23913
| 10> H          5.92282       -2.52145       -2.18672
| 11> H          4.65468       -1.64040       -1.44202
| 12> H          5.70914       -2.87560       -4.38702
| 13> H          3.33010       -0.31764       -4.36125
| 14> H          3.69849        0.11447       -2.70833
| 15> H          4.84333       -0.51793       -5.94302
| 16> H          5.90170       -1.82250       -6.49647
| 17> H          3.88619       -3.35708       -6.53360
| 18> H          3.68560       -1.92217       -7.54713
| 19> H          1.64155       -2.32499       -6.16281
| 20> H          2.37707       -0.78268       -5.79763
| 21> H          2.59306       -2.13299       -4.70994
| 22> *
| 23>
| 24> %MaxCore 64000
| 25>
| 26> %pal nprocs 4
| 27> end
| 28>
| 29> %scf
| 30>   MaxIter 150
| 31> end
| 32>
| 33>
| 34>                          ****END OF INPUT****

CARTESIAN COORDINATES (ANGSTROEM)
---------------------------------
  C      4.999860   -1.596130   -5.924880
  C      5.281560   -1.974130   -4.535760
  C      3.766780   -2.266110   -6.511750
  C      2.496700   -1.844160   -5.735700
  C      4.792500   -1.361320   -3.457300
  N      3.939900   -0.374920   -3.557360
  N      5.259860   -1.754220   -2.239130
  H      5.922820   -2.521450   -2.186720
  H      4.654680   -1.640400   -1.442020
  H      5.709140   -2.875600   -4.387020
  H      3.330100   -0.317640   -4.361250
  H      3.698490    0.114470   -2.708330
  H      4.843330   -0.517930   -5.943020
  H      5.901700   -1.822500   -6.496470
  H      3.886190   -3.357080   -6.533600
  H      3.685600   -1.922170   -7.547130
  H      1.641550   -2.324990   -6.162810
  H      2.377070   -0.782680   -5.797630
  H      2.593060   -2.132990   -4.709940

 Total Charge           Charge          ....    0
 Multiplicity           Mult            ....    1
 Number of Electrons    NEL             ....   56
 Basis Dimension        Dim             ....  236

ORBITAL ENERGIES
----------------

  NO   OCC          E(Eh)            E(eV)
   0   2.0000     -14.396001      -391.7351
   1   2.0000     -14.392534      -391.6408
   2   2.0000     -10.274076      -279.5718
   3   2.0000     -10.216675      -278.0099
   4   2.0000     -10.214061      -277.9387
   5   2.0000     -10.205250      -277.6990
   6   2.0000     -10.158195      -276.4185
   7   2.0000      -0.980305       -26.6754
   8   2.0000      -0.886851       -24.1324
   9   2.0000      -0.806052       -21.9338
  10   2.0000      -0.739490       -20.1225
  11   2.0000      -0.674997       -18.3676
  12   2.0000      -0.620334       -16.8801
  13   2.0000      -0.576346       -15.6832
  14   2.0000      -0.559622       -15.2281
  15   2.0000      -0.521643       -14.1946
  16   2.0000      -0.495275       -13.4771
  17   2.0000      -0.461956       -12.5705
  18   2.0000      -0.450394       -12.2558
  19   2.0000      -0.432533       -11.7698
  20   2.0000      -0.402005       -10.9391
  21   2.0000      -0.386427       -10.5152
  22   2.0000      -0.368450       -10.0260
  23   2.0000      -0.347641        -9.4598
  24   2.0000      -0.331531        -9.0214
  25   2.0000      -0.327014        -8.8985
  26   2.0000      -0.275954        -7.5091
  27   2.0000      -0.173575        -4.7232
  28   0.0000       0.023971         0.6523
  29   0.0000       0.046109         1.2547
  30   0.0000       0.055073         1.4986
  31   0.0000       0.067810         1.8452
  32   0.0000       0.071051         1.9334

MULLIKEN ATOMIC CHARGES
-----------------------
   0 C :    0.044755
   1 C :   -0.277852
   2 C :   -0.196135
   3 C :    0.338410
   4 C :    1.046187
   5 N :    0.115861
   6 N :   -0.248097
   7 H :   -0.026167
   8 H :   -0.073943
   9 H :   -0.225517
  10 H :   -0.332558
  11 H :   -0.195002
  12 H :    0.093677
  13 H :   -0.133689
  14 H :   -0.076580
  15 H :    0.018045
  16 H :   -0.271054
  17 H :    0.243830
  18 H :    0.155830
Sum of atomic charges:    0.0000000

LOEWDIN ATOMIC CHARGES
----------------------
   0 C :   -0.070640
   1 C :   -0.020217
   2 C :   -0.061082
   3 C :    0.115668
   4 C :   -0.220275
   5 N :    0.208409
   6 N :    0.175742
   7 H :    0.001398
   8 H :   -0.021498
   9 H :   -0.050843
  10 H :   -0.057156
  11 H :    0.002672
  12 H :    0.013491
  13 H :    0.014926
  14 H :    0.023785
  15 H :    0.014452
  16 H :   -0.018959
  17 H :   -0.021881
  18 H :   -0.027994

  Mayer bond orders larger than 0.100000
B(  0-C ,  1-C ) :   1.1674 B(  0-C ,  2-C ) :   1.1184 B(  0-C ,  9-H ) :   0.2204
B(  0-C , 12-H ) :   0.8024 B(  0-C , 13-H ) :   0.9453 B(  0-C , 14-H ) :   0.1604
B(  0-C , 15-H ) :   0.1159 B(  1-C ,  4-C ) :   1.5602 B(  1-C ,  5-N ) :   0.2539
B(  1-C ,  6-N ) :   0.3072 B(  1-C ,  9-H ) :   0.9421 B(  1-C , 12-H ) :   0.2233
B(  1-C , 13-H ) :   0.1426 B(  2-C ,  3-C ) :   1.3044 B(  2-C , 14-H ) :   0.9806
B(  2-C , 15-H ) :   0.8914 B(  2-C , 16-H ) :   0.1780 B(  2-C , 17-H ) :   0.1185
B(  2-C , 18-H ) :   0.1459 B(  3-C , 10-H ) :   0.1662 B(  3-C , 15-H ) :   0.1037
B(  3-C , 16-H ) :   0.9955 B(  3-C , 17-H ) :   0.6983 B(  3-C , 18-H ) :   0.8139
B(  4-C ,  5-N ) :   0.9267 B(  4-C ,  6-N ) :   0.6336 B(  4-C ,  9-H ) :   0.1076
B(  4-C , 11-H ) :  -0.1550 B(  4-C , 12-H ) :  -0.1188 B(  5-N ,  6-N ) :   0.1220
B(  5-N , 10-H ) :   1.1061 B(  5-N , 11-H ) :   1.2941 B(  6-N ,  7-H ) :   1.1092
B(  6-N ,  8-H ) :   1.1486 B(  7-H ,  8-H ) :  -0.1228 B( 10-H , 11-H ) :  -0.1947
B( 10-H , 17-H ) :   0.1476

Dispersion correction           -0.014656777
FINAL SINGLE POINT ENERGY      -306.673206312116

DIPOLE MOMENT
-------------
                                X             Y             Z
Electronic contribution:      2.89414       1.03735       4.32120
Nuclear contribution   :     -3.49027      -1.01686      -3.60427
                        -----------------------------------------
Total Dipole Moment    :     -0.59613       0.02049       0.71693
                        -----------------------------------------
Magnitude (a.u.)       :      0.93262
Magnitude (Debye)      :      2.37053

Rotational constants in cm-1:     0.155200     0.057307     0.048781
Rotational constants in MHz :  4652.781345  1718.017305  1462.410307

                             ****ORCA TERMINATED NORMALLY****
TOTAL RUN TIME: 0 days 0 hours 0 minutes 31 seconds 423 msec
