                         Program Version 5.0.0 -  RELEASE  -
|  1> !PBE0 D3BJ RIJCOSX def2-SVPD def2/J TightSCF
|  2> *xyz 0 1
|  3> C          4.99986       -1.59613       -5.92488
|  4> N          5.28156       -1.97413       -4.53576
|  5> C          3.76678       -2.26611       -6.51175
|  6> C          2.49670       -1.84416       -5.73570
|  7> C          4.79250       -1.36132       -3.45730
|  8> C          3.93990       -0.37492       -3.55736
|  9> N          5.25986       -1.75422       -2.23913
| 10> H          5.92282       -2.52145       -2.18672
| 11> H          4.65468       -1.64040       -1.44202
| 12> H          5.70914       -2.87560       -4.38702
| 13> H          3.33010       -0.31764       -4.36125
| 14> H          3.69849        0.11447       -2.70833
| 15> H          4.84333       -0.51793       -5.94302
| 16> H          5.90170       -1.82250       -6.49647
| 17> H          3.88619       -3.35708       -6.53360
| 18> H          3.68560       -1.92217       -7.54713
| 19> H          1.64155       -2.32499       -6.16281
| 20> H          2.37707       -0.78268       -5.79763
| 21> H          2.59306       -2.13299       -4.70994
| 22> *
| 23>
| 24> %MaxCore 64000
| 25>
| 26> %pal nprocs 4
| 27> end
| 28>
| 29> %scf
| 30>   MaxIter 150
| 31> end
| 32>
| 33>
| 34>                          ****END OF INPUT****

CARTESIAN COORDINATES (ANGSTROEM)
---------------------------------
  C      4.999860   -1.596130   -5.924880
  N      5.281560   -1.974130   -4.535760
  C      3.766780   -2.266110   -6.511750
  C      2.496700   -1.844160   -5.735700
  C      4.792500   -1.361320   -3.457300
  C      3.939900   -0.374920   -3.557360
  N      5.259860   -1.754220   -2.239130
  H      5.922820   -2.521450   -2.186720
  H      4.654680   -1.640400   -1.442020
  H      5.709140   -2.875600   -4.387020
  H      3.330100   -0.317640   -4.361250
  H      3.698490    0.114470   -2.708330
  H      4.843330   -0.517930   -5.943020
  H      5.901700   -1.822500   -6.496470
  H      3.886190   -3.357080   -6.533600
  H      3.685600   -1.922170   -7.547130
  H      1.641550   -2.324990   -6.162810
  H      2.377070   -0.782680   -5.797630
  H      2.593060   -2.132990   -4.709940

 Total Charge           Charge          ....    0
 Multiplicity           Mult            ....    1
 Number of Electrons    NEL             ....   56
 Basis Dimension        Dim             ....  236

ORBITAL ENERGIES
----------------

  NO   OCC          E(Eh)            E(eV)
   0   2.0000     -14.399667      -391.8349
   1   2.0000     -14.393584      -391.6693
   2   2.0000     -10.275658      -279.6149
   3   2.0000     -10.261536      -279.2306
   4   2.0000     -10.230478      -278.3855
   5   2.0000     -10.209298      -277.8091
   6   2.0000     -10.143640      -276.0225
   7   2.0000      -0.981702       -26.7135
   8   2.0000      -0.896812       -24.4035
   9   2.0000      -0.793097       -21.5813
  10   2.0000      -0.740568       -20.1519
  11   2.0000      -0.695781       -18.9332
  12   2.0000      -0.621187       -16.9033
  13   2.0000      -0.577154       -15.7052
  14   2.0000      -0.554125       -15.0785
  15   2.0000      -0.527636       -14.3577
  16   2.0000      -0.481377       -13.0989
  17   2.0000      -0.471529       -12.8310
  18   2.0000      -0.446590       -12.1523
  19   2.0000      -0.418557       -11.3895
  20   2.0000      -0.406947       -11.0736
  21   2.0000      -0.389591       -10.6013
  22   2.0000      -0.387286       -10.5386
  23   2.0000      -0.355754        -9.6806
  24   2.0000      -0.352590        -9.5945
  25   2.0000      -0.340553        -9.2669
  26   2.0000      -0.262478        -7.1424
  27   2.0000      -0.183112        -4.9827
  28   0.0000       0.021852         0.5946
  29   0.0000       0.044198         1.2027
  30   0.0000       0.050760         1.3812
  31   0.0000       0.062184         1.6921
  32   0.0000       0.074131         2.0172

MULLIKEN ATOMIC CHARGES
-----------------------
   0 C :    0.641075
   1 N :   -0.570620
   2 C :   -0.237973
   3 C :    0.206350
   4 C :    0.887649
   5 C :    0.529098
   6 N :   -0.141508
   7 H :   -0.091478
   8 H :   -0.000716
   9 H :   -0.330286
  10 H :   -0.768834
  11 H :   -0.316402
  12 H :    0.157450
  13 H :   -0.303866
  14 H :   -0.070944
  15 H :    0.041435
  16 H :   -0.338206
  17 H :    0.431810
  18 H :    0.275966
Sum of atomic charges:   -0.0000000

LOEWDIN ATOMIC CHARGES
----------------------
   0 C :    0.047475
   1 N :   -0.017386
   2 C :   -0.053256
   3 C :    0.118265
   4 C :   -0.225868
   5 C :    0.159830
   6 N :    0.180649
   7 H :   -0.014003
   8 H :   -0.003782
   9 H :    0.017751
  10 H :   -0.142998
  11 H :   -0.084352
  12 H :    0.026207
  13 H :    0.018347
  14 H :    0.019029
  15 H :    0.018864
  16 H :   -0.020859
  17 H :   -0.017252
  18 H :   -0.026662

  Mayer bond orders larger than 0.100000
B(  0-C ,  1-N ) :   0.8943 B(  0-C ,  2-C ) :   1.0916 B(  0-C ,  5-C ) :   0.1055
B(  0-C ,  9-H ) :  -0.1871 B(  0-C , 12-H ) :   0.7378 B(  0-C , 13-H ) :   0.9993
B(  0-C , 14-H ) :   0.1114 B(  0-C , 15-H ) :   0.1063 B(  1-N ,  4-C ) :   0.8107
B(  1-N ,  5-C ) :   0.2941 B(  1-N ,  6-N ) :   0.1649 B(  1-N ,  9-H ) :   1.4265
B(  1-N , 12-H ) :   0.1472 B(  1-N , 13-H ) :   0.1239 B(  2-C ,  3-C ) :   1.3122
B(  2-C , 12-H ) :   0.1147 B(  2-C , 14-H ) :   0.9883 B(  2-C , 15-H ) :   0.8973
B(  2-C , 16-H ) :   0.1661 B(  2-C , 18-H ) :   0.1178 B(  3-C , 10-H ) :   0.3468
B(  3-C , 15-H ) :   0.1024 B(  3-C , 16-H ) :   1.0691 B(  3-C , 17-H ) :   0.5887
B(  3-C , 18-H ) :   0.7939 B(  4-C ,  5-C ) :   1.7535 B(  4-C ,  6-N ) :   0.7392
B(  4-C ,  9-H ) :  -0.2569 B(  4-C , 11-H ) :   0.3460 B(  5-C ,  6-N ) :   0.3195
B(  5-C , 10-H ) :   0.5438 B(  5-C , 11-H ) :   0.6669 B(  6-N ,  7-H ) :   1.0560
B(  6-N ,  8-H ) :   1.0877 B(  6-N , 11-H ) :   0.1577 B(  7-H ,  8-H ) :  -0.1248
B( 10-H , 17-H ) :   0.1255 B( 12-H , 13-H ) :  -0.1235 B( 16-H , 17-H ) :  -0.1508

Dispersion correction           -0.014631917
FINAL SINGLE POINT ENERGY      -306.659409585762

DIPOLE MOMENT
-------------
                                X             Y             Z
Electronic contribution:      4.04869      -0.35756       3.37544
Nuclear contribution   :     -3.78417      -0.66655      -3.38995
                        -----------------------------------------
Total Dipole Moment    :      0.26452      -1.02411      -0.01451
                        -----------------------------------------
Magnitude (a.u.)       :      1.05782
Magnitude (Debye)      :      2.68877

Rotational constants in cm-1:     0.157710     0.057795     0.049101
Rotational constants in MHz :  4728.033540  1732.635996  1472.015132

                             ****ORCA TERMINATED NORMALLY****
TOTAL RUN TIME: 0 days 0 hours 0 minutes 30 seconds 62 msec
