                         Program Version 5.0.0 -  RELEASE  -
|  1> !PBE0 D3BJ RIJCOSX def2-SVPD def2/J TightSCF
|  2> *xyz 0 1
|  3> C          4.99986       -1.59613       -5.92488
|  4> N          5.28156       -1.97413       -4.53576
|  5> C          3.76678       -2.26611       -6.51175
|  6> C          2.49670       -1.84416       -5.73570
|  7> C          4.79250       -1.36132       -3.45730
|  8> N          3.93990       -0.37492       -3.55736
|  9> C          5.25986       -1.75422       -2.23913
| 10> H          5.92282       -2.52145       -2.18672
| 11> H          4.65468       -1.64040       -1.44202
| 12> H          5.70914       -2.87560       -4.38702
| 13> H          3.33010       -0.31764       -4.36125
| 14> H          3.69849        0.11447       -2.70833
| 15> H          4.84333       -0.51793       -5.94302
| 16> H          5.90170       -1.82250       -6.49647
| 17> H          3.88619       -3.35708       -6.53360
| 18> H          3.68560       -1.92217       -7.54713
| 19> H          1.64155       -2.32499       -6.16281
| 20> H          2.37707       -0.78268       -5.79763
| 21> H          2.59306       -2.13299       -4.70994
| 22> *
| 23>
| 24> %MaxCore 64000
| 25>
| 26> %pal nprocs 4
| 27> end
| 28>
| 29> %scf
| 30>   MaxIter 150
| 31> end
| 32>
| 33>
| 34>                          ****END OF INPUT****

CARTESIAN COORDINATES (ANGSTROEM)
---------------------------------
  C      4.999860   -1.596130   -5.924880
  N      5.281560   -1.974130   -4.535760
  C      3.766780   -2.266110   -6.511750
  C      2.496700   -1.844160   -5.735700
  C      4.792500   -1.361320   -3.457300
  N      3.939900   -0.374920   -3.557360
  C      5.259860   -1.754220   -2.239130
  H      5.922820   -2.521450   -2.186720
  H      4.654680   -1.640400   -1.442020
  H      5.709140   -2.875600   -4.387020
  H      3.330100   -0.317640   -4.361250
  H      3.698490    0.114470   -2.708330
  H      4.843330   -0.517930   -5.943020
  H      5.901700   -1.822500   -6.496470
  H      3.886190   -3.357080   -6.533600
  H      3.685600   -1.922170   -7.547130
  H      1.641550   -2.324990   -6.162810
  H      2.377070   -0.782680   -5.797630
  H      2.593060   -2.132990   -4.709940

 Total Charge           Charge          ....    0
 Multiplicity           Mult            ....    1
 Number of Electrons    NEL             ....   56
 Basis Dimension        Dim             ....  236

ORBITAL ENERGIES
----------------

  NO   OCC          E(Eh)            E(eV)
   0   2.0000     -14.398670      -391.8077
   1   2.0000     -14.395030      -391.7087
   2   2.0000     -10.278978      -279.7052
   3   2.0000     -10.270325      -279.4697
   4   2.0000     -10.242238      -278.7055
   5   2.0000     -10.232009      -278.4271
   6   2.0000     -10.140549      -275.9384
   7   2.0000      -0.990699       -26.9583
   8   2.0000      -0.905537       -24.6409
   9   2.0000      -0.813257       -22.1298
  10   2.0000      -0.734230       -19.9794
  11   2.0000      -0.690687       -18.7945
  12   2.0000      -0.620497       -16.8846
  13   2.0000      -0.614198       -16.7132
  14   2.0000      -0.561740       -15.2857
  15   2.0000      -0.517108       -14.0712
  16   2.0000      -0.494959       -13.4685
  17   2.0000      -0.476395       -12.9634
  18   2.0000      -0.467416       -12.7190
  19   2.0000      -0.420886       -11.4529
  20   2.0000      -0.408172       -11.1069
  21   2.0000      -0.399409       -10.8685
  22   2.0000      -0.387356       -10.5405
  23   2.0000      -0.366587        -9.9753
  24   2.0000      -0.363037        -9.8787
  25   2.0000      -0.356452        -9.6995
  26   2.0000      -0.266921        -7.2633
  27   2.0000      -0.168704        -4.5907
  28   0.0000       0.021060         0.5731
  29   0.0000       0.041039         1.1167
  30   0.0000       0.050591         1.3767
  31   0.0000       0.055641         1.5141
  32   0.0000       0.071006         1.9322

MULLIKEN ATOMIC CHARGES
-----------------------
   0 C :    0.648051
   1 N :   -0.381590
   2 C :   -0.198096
   3 C :    0.308328
   4 C :    0.482248
   5 N :    0.182630
   6 C :    0.309428
   7 H :   -0.219507
   8 H :   -0.233026
   9 H :   -0.301444
  10 H :   -0.392011
  11 H :   -0.076479
  12 H :    0.064970
  13 H :   -0.334132
  14 H :   -0.066209
  15 H :    0.059245
  16 H :   -0.306212
  17 H :    0.243807
  18 H :    0.210000
Sum of atomic charges:    0.0000000

LOEWDIN ATOMIC CHARGES
----------------------
   0 C :    0.042148
   1 N :   -0.007140
   2 C :   -0.054380
   3 C :    0.120278
   4 C :   -0.237916
   5 N :    0.207277
   6 C :    0.138411
   7 H :   -0.108368
   8 H :   -0.113624
   9 H :    0.032787
  10 H :   -0.065388
  11 H :    0.019113
  12 H :    0.020264
  13 H :    0.019223
  14 H :    0.023734
  15 H :    0.020478
  16 H :   -0.015336
  17 H :   -0.019495
  18 H :   -0.022067

  Mayer bond orders larger than 0.100000
B(  0-C ,  1-N ) :   0.9239 B(  0-C ,  2-C ) :   1.0886 B(  0-C ,  9-H ) :  -0.2140
B(  0-C , 12-H ) :   0.7787 B(  0-C , 13-H ) :   0.9906 B(  0-C , 14-H ) :   0.1309
B(  0-C , 15-H ) :   0.1095 B(  1-N ,  4-C ) :   0.9898 B(  1-N ,  5-N ) :   0.1369
B(  1-N ,  6-C ) :   0.2156 B(  1-N ,  9-H ) :   1.2564 B(  1-N , 12-H ) :   0.1716
B(  1-N , 13-H ) :   0.1264 B(  2-C ,  3-C ) :   1.2898 B(  2-C , 14-H ) :   0.9769
B(  2-C , 15-H ) :   0.8872 B(  2-C , 16-H ) :   0.1639 B(  2-C , 17-H ) :   0.1123
B(  2-C , 18-H ) :   0.1316 B(  3-C , 10-H ) :   0.1676 B(  3-C , 16-H ) :   1.0306
B(  3-C , 17-H ) :   0.6975 B(  3-C , 18-H ) :   0.8082 B(  4-C ,  5-N ) :   1.0337
B(  4-C ,  6-C ) :   1.7624 B(  4-C ,  7-H ) :   0.1780 B(  4-C ,  8-H ) :   0.1819
B(  4-C ,  9-H ) :  -0.1632 B(  5-N ,  6-C ) :   0.1595 B(  5-N , 10-H ) :   1.0742
B(  5-N , 11-H ) :   1.2182 B(  5-N , 12-H ) :   0.1055 B(  6-C ,  7-H ) :   0.7699
B(  6-C ,  8-H ) :   0.8545 B(  7-H ,  8-H ) :   0.1923 B( 10-H , 11-H ) :  -0.1978
B( 10-H , 17-H ) :   0.1403 B( 12-H , 13-H ) :  -0.1209 B( 16-H , 17-H ) :  -0.1086

Dispersion correction           -0.014522907
FINAL SINGLE POINT ENERGY      -306.658288827250

DIPOLE MOMENT
-------------
                                X             Y             Z
Electronic contribution:      2.74944       0.91505       1.93567
Nuclear contribution   :     -3.49502      -0.96869      -3.10119
                        -----------------------------------------
Total Dipole Moment    :     -0.74558      -0.05364      -1.16552
                        -----------------------------------------
Magnitude (a.u.)       :      1.38463
Magnitude (Debye)      :      3.51945

Rotational constants in cm-1:     0.153385     0.059790     0.050215
Rotational constants in MHz :  4598.376479  1792.462869  1505.410199

                             ****ORCA TERMINATED NORMALLY****
TOTAL RUN TIME: 0 days 0 hours 0 minutes 30 seconds 861 msec
