                         Program Version 5.0.0 -  RELEASE  -
|  1> !PBE0 D3BJ RIJCOSX def2-SVPD def2/J TightSCF xyzfile
|  2>
|  3> *xyzfile 0 1 D1.xyz
|  4>
|  5> %MaxCore 64000
|  6>
|  7> %pal nprocs 4
|  8> end
|  9>
| 10> %scf
| 11>   MaxIter 150
| 12> end
| 13>
| 14>
| 15>                          ****END OF INPUT****

CARTESIAN COORDINATES (ANGSTROEM)
---------------------------------
  C      4.999862   -1.596133   -5.924876
  C      5.281560   -1.974132   -4.535764
  C      3.766779   -2.266110   -6.511752
  C      2.496702   -1.844161   -5.735704
  H      1.626416   -2.217434   -6.308950
  H      2.481824   -2.456069   -4.793414
  F      2.459729   -0.509204   -5.505757
  C      4.792500   -1.361316   -3.457295
  N      3.939898   -0.374925   -3.557359
  N      5.259860   -1.754224   -2.239133
  H      5.922824   -2.521451   -2.186720
  H      4.654678   -1.640404   -1.442016
  H      5.709139   -2.875599   -4.387021
  H      3.330101   -0.317639   -4.361247
  H      3.698494    0.114468   -2.708333
  H      4.843333   -0.517930   -5.943019
  H      5.901695   -1.822503   -6.496467
  H      3.886191   -3.357076   -6.533604
  H      3.685602   -1.922168   -7.547128

 Total Charge           Charge          ....    0
 Multiplicity           Mult            ....    1
 Number of Electrons    NEL             ....   64
 Basis Dimension        Dim             ....  251

ORBITAL ENERGIES
----------------

  NO   OCC          E(Eh)            E(eV)
   0   2.0000     -24.808556      -675.0751
   1   2.0000     -14.387835      -391.5129
   2   2.0000     -14.372819      -391.1043
   3   2.0000     -10.317249      -280.7466
   4   2.0000     -10.269019      -279.4342
   5   2.0000     -10.229537      -278.3599
   6   2.0000     -10.208925      -277.7990
   7   2.0000     -10.154023      -276.3050
   8   2.0000      -1.263944       -34.3937
   9   2.0000      -0.970452       -26.4073
  10   2.0000      -0.877940       -23.8900
  11   2.0000      -0.812873       -22.1194
  12   2.0000      -0.740716       -20.1559
  13   2.0000      -0.688425       -18.7330
  14   2.0000      -0.616857       -16.7855
  15   2.0000      -0.606014       -16.4905
  16   2.0000      -0.560991       -15.2653
  17   2.0000      -0.546849       -14.8805
  18   2.0000      -0.534253       -14.5378
  19   2.0000      -0.511722       -13.9247
  20   2.0000      -0.507806       -13.8181
  21   2.0000      -0.469877       -12.7860
  22   2.0000      -0.439853       -11.9690
  23   2.0000      -0.422245       -11.4899
  24   2.0000      -0.408409       -11.1134
  25   2.0000      -0.387014       -10.5312
  26   2.0000      -0.365351        -9.9417
  27   2.0000      -0.350662        -9.5420
  28   2.0000      -0.337256        -9.1772
  29   2.0000      -0.328166        -8.9298
  30   2.0000      -0.267573        -7.2810
  31   2.0000      -0.169527        -4.6131
  32   0.0000       0.026360         0.7173
  33   0.0000       0.043189         1.1752
  34   0.0000       0.056276         1.5313
  35   0.0000       0.059003         1.6056
  36   0.0000       0.072375         1.9694

MULLIKEN ATOMIC CHARGES
-----------------------
   0 C :    0.028157
   1 C :   -0.274008
   2 C :   -0.139791
   3 C :    0.684909
   4 H :   -0.228925
   5 H :    0.234159
   6 F :   -0.467544
   7 C :    1.020555
   8 N :    0.215723
   9 N :   -0.255976
  10 H :   -0.036755
  11 H :   -0.066975
  12 H :   -0.226518
  13 H :   -0.252069
  14 H :   -0.219605
  15 H :    0.196808
  16 H :   -0.180541
  17 H :   -0.073452
  18 H :    0.041848
Sum of atomic charges:    0.0000000

LOEWDIN ATOMIC CHARGES
----------------------
   0 C :   -0.060446
   1 C :   -0.024783
   2 C :   -0.016362
   3 C :    0.137778
   4 H :    0.032271
   5 H :    0.046755
   6 F :   -0.187367
   7 C :   -0.213907
   8 N :    0.225197
   9 N :    0.174580
  10 H :   -0.000832
  11 H :   -0.021827
  12 H :   -0.055310
  13 H :   -0.122351
  14 H :    0.001503
  15 H :    0.016244
  16 H :    0.016860
  17 H :    0.033339
  18 H :    0.018656

  Mayer bond orders larger than 0.100000
B(  0-C ,  1-C ) :   1.1699 B(  0-C ,  2-C ) :   1.1487 B(  0-C , 12-H ) :   0.2154
B(  0-C , 15-H ) :   0.7646 B(  0-C , 16-H ) :   0.9582 B(  0-C , 17-H ) :   0.1606
B(  0-C , 18-H ) :   0.1005 B(  1-C ,  7-C ) :   1.5429 B(  1-C ,  8-N ) :   0.2288
B(  1-C ,  9-N ) :   0.3178 B(  1-C , 12-H ) :   0.9295 B(  1-C , 15-H ) :   0.2220
B(  1-C , 16-H ) :   0.1344 B(  2-C ,  3-C ) :   1.2219 B(  2-C ,  4-H ) :   0.1421
B(  2-C ,  6-F ) :   0.1072 B(  2-C , 17-H ) :   0.9535 B(  2-C , 18-H ) :   0.8951
B(  3-C ,  4-H ) :   0.9964 B(  3-C ,  5-H ) :   0.8142 B(  3-C ,  6-F ) :   0.5779
B(  7-C ,  8-N ) :   0.9531 B(  7-C ,  9-N ) :   0.6131 B(  7-C , 10-H ) :  -0.1072
B(  7-C , 12-H ) :   0.1107 B(  7-C , 14-H ) :  -0.1516 B(  7-C , 15-H ) :  -0.1063
B(  8-N ,  9-N ) :   0.1183 B(  8-N , 13-H ) :   1.1620 B(  8-N , 14-H ) :   1.2506
B(  9-N , 10-H ) :   1.1327 B(  9-N , 11-H ) :   1.1291 B( 10-H , 11-H ) :  -0.1234
B( 13-H , 14-H ) :  -0.1903

Dispersion correction           -0.014962955
FINAL SINGLE POINT ENERGY      -405.740373981896

DIPOLE MOMENT
-------------
                                X             Y             Z
Electronic contribution:     -3.32793       3.98502       0.79298
Nuclear contribution   :      2.63975      -4.51113      -0.34926
                        -----------------------------------------
Total Dipole Moment    :     -0.68819      -0.52611       0.44372
                        -----------------------------------------
Magnitude (a.u.)       :      0.97328
Magnitude (Debye)      :      2.47389

Rotational constants in cm-1:     0.109429     0.049838     0.039337
Rotational constants in MHz :  3280.611039  1494.113088  1179.280063

                             ****ORCA TERMINATED NORMALLY****
TOTAL RUN TIME: 0 days 0 hours 0 minutes 42 seconds 526 msec
