                         Program Version 5.0.0 -  RELEASE  -
|  1> !TPSS D3BJ RIJCOSX def2-SVP def2/J TightSCF
|  2> *xyz -1 1
|  3> C          0.70466        1.44313       -4.50363
|  4> C          1.72854        1.42432       -5.63944
|  5> H          2.64672        1.95379       -5.38105
|  6> H          1.29992        1.93061       -6.50361
|  7> S          2.25263       -0.18811       -6.27184
|  8> O          3.56261       -0.44446       -5.63155
|  9> O          2.34494       -0.03374       -7.69650
| 10> O          1.26606       -1.15918       -5.80536
| 11> H         -0.17385        0.91270       -4.80656
| 12> H          0.44778        2.45562       -4.27173
| 13> H          1.12367        0.97423       -3.63791
| 14> *
| 15>
| 16> %MaxCore 64000
| 17>
| 18> %pal nprocs 4
| 19> end
| 20>
| 21> %scf
| 22>   MaxIter 150
| 23> end
| 24>
| 25>
| 26>                          ****END OF INPUT****

CARTESIAN COORDINATES (ANGSTROEM)
---------------------------------
  C      0.704660    1.443130   -4.503630
  C      1.728540    1.424320   -5.639440
  H      2.646720    1.953790   -5.381050
  H      1.299920    1.930610   -6.503610
  S      2.252630   -0.188110   -6.271840
  O      3.562610   -0.444460   -5.631550
  O      2.344940   -0.033740   -7.696500
  O      1.266060   -1.159180   -5.805360
  H     -0.173850    0.912700   -4.806560
  H      0.447780    2.455620   -4.271730
  H      1.123670    0.974230   -3.637910

 Total Charge           Charge          ....   -1
 Multiplicity           Mult            ....    1
 Number of Electrons    NEL             ....   58
 Basis Dimension        Dim             ....  113

ORBITAL ENERGIES
----------------

  NO   OCC          E(Eh)            E(eV)
   0   2.0000     -88.322434     -2403.3756
   1   2.0000     -18.641954      -507.2734
   2   2.0000     -18.635889      -507.1083
   3   2.0000     -18.624226      -506.7910
   4   2.0000      -9.852692      -268.1054
   5   2.0000      -9.840949      -267.7858
   6   2.0000      -7.689511      -209.2422
   7   2.0000      -5.674960      -154.4235
   8   2.0000      -5.674763      -154.4182
   9   2.0000      -5.674420      -154.4088
  10   2.0000      -0.820169       -22.3179
  11   2.0000      -0.686754       -18.6875
  12   2.0000      -0.662517       -18.0280
  13   2.0000      -0.556580       -15.1453
  14   2.0000      -0.438195       -11.9239
  15   2.0000      -0.308260        -8.3882
  16   2.0000      -0.264311        -7.1923
  17   2.0000      -0.245992        -6.6938
  18   2.0000      -0.213031        -5.7969
  19   2.0000      -0.192392        -5.2352
  20   2.0000      -0.186570        -5.0768
  21   2.0000      -0.166582        -4.5329
  22   2.0000      -0.162717        -4.4277
  23   2.0000      -0.069270        -1.8849
  24   2.0000      -0.068369        -1.8604
  25   2.0000      -0.040946        -1.1142
  26   2.0000      -0.035682        -0.9710
  27   2.0000      -0.020599        -0.5605
  28   2.0000       0.014395         0.3917
  29   0.0000       0.191064         5.1991
  30   0.0000       0.245167         6.6713
  31   0.0000       0.246160         6.6983
  32   0.0000       0.254552         6.9267
  33   0.0000       0.273753         7.4492

MULLIKEN ATOMIC CHARGES
-----------------------
   0 C :    0.043221
   1 C :   -0.099852
   2 H :    0.000954
   3 H :   -0.007847
   4 S :    0.813849
   5 O :   -0.599494
   6 O :   -0.549737
   7 O :   -0.567491
   8 H :    0.003033
   9 H :   -0.038531
  10 H :    0.001895
Sum of atomic charges:   -1.0000000

LOEWDIN ATOMIC CHARGES
----------------------
   0 C :   -0.060634
   1 C :   -0.188312
   2 H :    0.004044
   3 H :   -0.000265
   4 S :    1.056370
   5 O :   -0.637075
   6 O :   -0.585128
   7 O :   -0.607488
   8 H :    0.011026
   9 H :   -0.003881
  10 H :    0.011343

  Mayer bond orders larger than 0.100000
B(  0-C ,  1-C ) :   1.0778 B(  0-C ,  8-H ) :   0.9632 B(  0-C ,  9-H ) :   0.9528
B(  0-C , 10-H ) :   0.9672 B(  1-C ,  2-H ) :   0.9406 B(  1-C ,  3-H ) :   0.9395
B(  1-C ,  4-S ) :   0.8527 B(  4-S ,  5-O ) :   1.5927 B(  4-S ,  6-O ) :   1.6411
B(  4-S ,  7-O ) :   1.6214

Dispersion correction           -0.011976361
FINAL SINGLE POINT ENERGY      -702.788456708822

DIPOLE MOMENT
-------------
                                X             Y             Z
Electronic contribution:      3.74744      -5.83533      -4.40217
Nuclear contribution   :     -4.50297       7.24642       5.01775
                        -----------------------------------------
Total Dipole Moment    :     -0.75553       1.41109       0.61558
                        -----------------------------------------
Magnitude (a.u.)       :      1.71492
Magnitude (Debye)      :      4.35897

Rotational constants in cm-1:     0.162459     0.081286     0.079601
Rotational constants in MHz :  4870.394399  2436.893583  2386.374948

                             ****ORCA TERMINATED NORMALLY****
TOTAL RUN TIME: 0 days 0 hours 0 minutes 8 seconds 466 msec
