                         Program Version 5.0.0 -  RELEASE  -
|  1> !TPSS D3BJ RIJCOSX def2-SVP def2/J TightSCF
|  2> *xyz 1 1
|  3> C          2.91632       -1.24259       -1.54313
|  4> C          3.46659       -1.59097       -2.88908
|  5> N          4.65227       -1.14316       -3.25969
|  6> N          2.75226       -2.29204       -3.72803
|  7> H          1.77836       -2.48960       -3.51274
|  8> H          2.94861       -2.20854       -4.71681
|  9> H          5.14672       -0.51251       -2.63385
| 10> H          4.78303       -1.00720       -4.25350
| 11> C          2.80408        0.29070       -1.35924
| 12> H          1.94047       -1.71653       -1.44116
| 13> H          3.55857       -1.66343       -0.76637
| 14> H          2.17393        0.69633       -2.12297
| 15> H          3.77707        0.73043       -1.42880
| 16> H          2.38369        0.50492       -0.39889
| 17> *
| 18>
| 19> %MaxCore 64000
| 20>
| 21> %pal nprocs 4
| 22> end
| 23>
| 24> %scf
| 25>   MaxIter 150
| 26> end
| 27>
| 28>
| 29>                          ****END OF INPUT****

CARTESIAN COORDINATES (ANGSTROEM)
---------------------------------
  C      2.916320   -1.242590   -1.543130
  C      3.466590   -1.590970   -2.889080
  N      4.652270   -1.143160   -3.259690
  N      2.752260   -2.292040   -3.728030
  H      1.778360   -2.489600   -3.512740
  H      2.948610   -2.208540   -4.716810
  H      5.146720   -0.512510   -2.633850
  H      4.783030   -1.007200   -4.253500
  C      2.804080    0.290700   -1.359240
  H      1.940470   -1.716530   -1.441160
  H      3.558570   -1.663430   -0.766370
  H      2.173930    0.696330   -2.122970
  H      3.777070    0.730430   -1.428800
  H      2.383690    0.504920   -0.398890

 Total Charge           Charge          ....    1
 Multiplicity           Mult            ....    1
 Number of Electrons    NEL             ....   40
 Basis Dimension        Dim             ....  115

ORBITAL ENERGIES
----------------

  NO   OCC          E(Eh)            E(eV)
   0   2.0000     -14.365695      -390.9104
   1   2.0000     -14.360704      -390.7746
   2   2.0000     -10.311775      -280.5977
   3   2.0000     -10.201484      -277.5965
   4   2.0000     -10.165858      -276.6271
   5   2.0000      -1.136224       -30.9182
   6   2.0000      -1.042631       -28.3714
   7   2.0000      -0.908037       -24.7089
   8   2.0000      -0.808313       -21.9953
   9   2.0000      -0.765706       -20.8359
  10   2.0000      -0.722738       -19.6667
  11   2.0000      -0.705529       -19.1984
  12   2.0000      -0.657025       -17.8785
  13   2.0000      -0.620631       -16.8882
  14   2.0000      -0.585051       -15.9200
  15   2.0000      -0.558928       -15.2092
  16   2.0000      -0.515010       -14.0141
  17   2.0000      -0.506110       -13.7719
  18   2.0000      -0.494679       -13.4609
  19   2.0000      -0.459981       -12.5167
  20   0.0000      -0.244119        -6.6428
  21   0.0000      -0.158471        -4.3122
  22   0.0000      -0.118691        -3.2297
  23   0.0000      -0.114805        -3.1240
  24   0.0000      -0.083667        -2.2767

MULLIKEN ATOMIC CHARGES
-----------------------
   0 C :    0.018891
   1 C :   -0.089805
   2 N :    0.016630
   3 N :    0.032089
   4 H :    0.183457
   5 H :    0.166584
   6 H :    0.179837
   7 H :    0.171299
   8 C :   -0.000928
   9 H :    0.051687
  10 H :    0.099140
  11 H :    0.051249
  12 H :    0.038767
  13 H :    0.081104
Sum of atomic charges:    1.0000000

LOEWDIN ATOMIC CHARGES
----------------------
   0 C :   -0.023511
   1 C :    0.129467
   2 N :    0.104074
   3 N :    0.117981
   4 H :    0.120900
   5 H :    0.109338
   6 H :    0.116651
   7 H :    0.109316
   8 C :   -0.009288
   9 H :    0.047797
  10 H :    0.066409
  11 H :    0.034081
  12 H :    0.024688
  13 H :    0.052095

  Mayer bond orders larger than 0.100000
B(  0-C ,  1-C ) :   1.0316 B(  0-C ,  8-C ) :   1.0660 B(  0-C ,  9-H ) :   0.9208
B(  0-C , 10-H ) :   0.9140 B(  1-C ,  2-N ) :   1.4864 B(  1-C ,  3-N ) :   1.5205
B(  2-N ,  6-H ) :   0.9243 B(  2-N ,  7-H ) :   0.9305 B(  3-N ,  4-H ) :   0.9193
B(  3-N ,  5-H ) :   0.9313 B(  8-C , 11-H ) :   0.9699 B(  8-C , 12-H ) :   0.9701
B(  8-C , 13-H ) :   0.9583

Dispersion correction           -0.012557388
FINAL SINGLE POINT ENERGY      -228.905510881244

DIPOLE MOMENT
-------------
                                X             Y             Z
Electronic contribution:      1.33457      -2.85969      -2.83482
Nuclear contribution   :     -1.30215       2.77761       1.84194
                        -----------------------------------------
Total Dipole Moment    :      0.03242      -0.08208      -0.99289
                        -----------------------------------------
Magnitude (a.u.)       :      0.99680
Magnitude (Debye)      :      2.53367

Rotational constants in cm-1:     0.267442     0.127541     0.099068
Rotational constants in MHz :  8017.703171  3823.592522  2969.992494

                             ****ORCA TERMINATED NORMALLY****
TOTAL RUN TIME: 0 days 0 hours 0 minutes 8 seconds 946 msec
