                         Program Version 5.0.0 -  RELEASE  -
|  1> !TPSS D3BJ RIJCOSX def2-SVP def2/J TightSCF
|  2> *xyz 0 1
|  3> C          0.70466        1.44313       -4.50363
|  4> C          1.72854        1.42432       -5.63944
|  5> H          2.64672        1.95379       -5.38105
|  6> H          1.29992        1.93061       -6.50361
|  7> S          2.25263       -0.18811       -6.27184
|  8> F          3.56261       -0.44446       -5.63155
|  9> O          2.34494       -0.03374       -7.69650
| 10> O          1.26606       -1.15918       -5.80536
| 11> H         -0.17385        0.91270       -4.80656
| 12> H          0.44778        2.45562       -4.27173
| 13> H          1.12367        0.97423       -3.63791
| 14> *
| 15>
| 16> %MaxCore 64000
| 17>
| 18> %pal nprocs 4
| 19> end
| 20>
| 21> %scf
| 22>   MaxIter 150
| 23> end
| 24>
| 25>
| 26>                          ****END OF INPUT****

CARTESIAN COORDINATES (ANGSTROEM)
---------------------------------
  C      0.704660    1.443130   -4.503630
  C      1.728540    1.424320   -5.639440
  H      2.646720    1.953790   -5.381050
  H      1.299920    1.930610   -6.503610
  S      2.252630   -0.188110   -6.271840
  F      3.562610   -0.444460   -5.631550
  O      2.344940   -0.033740   -7.696500
  O      1.266060   -1.159180   -5.805360
  H     -0.173850    0.912700   -4.806560
  H      0.447780    2.455620   -4.271730
  H      1.123670    0.974230   -3.637910

 Total Charge           Charge          ....    0
 Multiplicity           Mult            ....    1
 Number of Electrons    NEL             ....   58
 Basis Dimension        Dim             ....  113

ORBITAL ENERGIES
----------------

  NO   OCC          E(Eh)            E(eV)
   0   2.0000     -88.592938     -2410.7364
   1   2.0000     -24.502984      -666.7601
   2   2.0000     -18.894539      -514.1465
   3   2.0000     -18.887894      -513.9657
   4   2.0000     -10.053115      -273.5592
   5   2.0000     -10.020560      -272.6733
   6   2.0000      -7.962667      -216.6752
   7   2.0000      -5.952134      -161.9658
   8   2.0000      -5.945920      -161.7967
   9   2.0000      -5.944359      -161.7542
  10   2.0000      -1.248825       -33.9823
  11   2.0000      -1.027417       -27.9574
  12   2.0000      -0.934274       -25.4229
  13   2.0000      -0.753935       -20.5156
  14   2.0000      -0.657107       -17.8808
  15   2.0000      -0.607015       -16.5177
  16   2.0000      -0.516878       -14.0650
  17   2.0000      -0.492749       -13.4084
  18   2.0000      -0.486026       -13.2254
  19   2.0000      -0.444046       -12.0831
  20   2.0000      -0.425054       -11.5663
  21   2.0000      -0.398000       -10.8301
  22   2.0000      -0.380463       -10.3529
  23   2.0000      -0.361499        -9.8369
  24   2.0000      -0.354578        -9.6486
  25   2.0000      -0.331300        -9.0151
  26   2.0000      -0.282158        -7.6779
  27   2.0000      -0.277253        -7.5444
  28   2.0000      -0.259958        -7.0738
  29   0.0000       0.009573         0.2605
  30   0.0000       0.029216         0.7950
  31   0.0000       0.057989         1.5780
  32   0.0000       0.059185         1.6105
  33   0.0000       0.083420         2.2700

MULLIKEN ATOMIC CHARGES
-----------------------
   0 C :    0.031324
   1 C :   -0.149235
   2 H :    0.061124
   3 H :    0.083216
   4 S :    0.902187
   5 F :   -0.194296
   6 O :   -0.414060
   7 O :   -0.436638
   8 H :    0.050101
   9 H :    0.033103
  10 H :    0.033173
Sum of atomic charges:   -0.0000000

LOEWDIN ATOMIC CHARGES
----------------------
   0 C :   -0.040664
   1 C :   -0.152283
   2 H :    0.028585
   3 H :    0.043163
   4 S :    1.118026
   5 F :   -0.148588
   6 O :   -0.456087
   7 O :   -0.480686
   8 H :    0.031410
   9 H :    0.031504
  10 H :    0.025620

  Mayer bond orders larger than 0.100000
B(  0-C ,  1-C ) :   1.0745 B(  0-C ,  8-H ) :   0.9673 B(  0-C ,  9-H ) :   0.9562
B(  0-C , 10-H ) :   0.9717 B(  1-C ,  2-H ) :   0.9319 B(  1-C ,  3-H ) :   0.9375
B(  1-C ,  4-S ) :   0.8846 B(  4-S ,  5-F ) :   0.9859 B(  4-S ,  6-O ) :   1.7934
B(  4-S ,  7-O ) :   1.7755

Dispersion correction           -0.011430531
FINAL SINGLE POINT ENERGY      -727.315209889432

DIPOLE MOMENT
-------------
                                X             Y             Z
Electronic contribution:      6.32001      -6.59205      -3.77643
Nuclear contribution   :     -6.09914       7.80989       4.64238
                        -----------------------------------------
Total Dipole Moment    :      0.22088       1.21784       0.86595
                        -----------------------------------------
Magnitude (a.u.)       :      1.51056
Magnitude (Debye)      :      3.83954

Rotational constants in cm-1:     0.154372     0.078826     0.078033
Rotational constants in MHz :  4627.943144  2363.154585  2339.382767

                             ****ORCA TERMINATED NORMALLY****
TOTAL RUN TIME: 0 days 0 hours 0 minutes 8 seconds 218 msec
