                         Program Version 5.0.0 -  RELEASE  -
|  1> !TPSS D3BJ RIJCOSX def2-SVP def2/J TightSCF
|  2> *xyz 0 1
|  3> C          2.91632       -1.24259       -1.54313
|  4> C          3.46659       -1.59097       -2.88908
|  5> C          4.65227       -1.14316       -3.25969
|  6> N          2.75226       -2.29204       -3.72803
|  7> H          1.77836       -2.48960       -3.51274
|  8> H          2.94861       -2.20854       -4.71681
|  9> H          5.14672       -0.51251       -2.63385
| 10> H          4.78303       -1.00720       -4.25350
| 11> C          2.80408        0.29070       -1.35924
| 12> H          1.94047       -1.71653       -1.44116
| 13> H          3.55857       -1.66343       -0.76637
| 14> H          2.17393        0.69633       -2.12297
| 15> H          3.77707        0.73043       -1.42880
| 16> H          2.38369        0.50492       -0.39889
| 17> *
| 18>
| 19> %MaxCore 64000
| 20>
| 21> %pal nprocs 4
| 22> end
| 23>
| 24> %scf
| 25>   MaxIter 150
| 26> end
| 27>
| 28>
| 29>                          ****END OF INPUT****

CARTESIAN COORDINATES (ANGSTROEM)
---------------------------------
  C      2.916320   -1.242590   -1.543130
  C      3.466590   -1.590970   -2.889080
  C      4.652270   -1.143160   -3.259690
  N      2.752260   -2.292040   -3.728030
  H      1.778360   -2.489600   -3.512740
  H      2.948610   -2.208540   -4.716810
  H      5.146720   -0.512510   -2.633850
  H      4.783030   -1.007200   -4.253500
  C      2.804080    0.290700   -1.359240
  H      1.940470   -1.716530   -1.441160
  H      3.558570   -1.663430   -0.766370
  H      2.173930    0.696330   -2.122970
  H      3.777070    0.730430   -1.428800
  H      2.383690    0.504920   -0.398890

 Total Charge           Charge          ....    0
 Multiplicity           Mult            ....    1
 Number of Electrons    NEL             ....   40
 Basis Dimension        Dim             ....  115

ORBITAL ENERGIES
----------------

  NO   OCC          E(Eh)            E(eV)
   0   2.0000     -14.114520      -384.0756
   1   2.0000     -10.006757      -272.2977
   2   2.0000      -9.999852      -272.1098
   3   2.0000      -9.988210      -271.7930
   4   2.0000      -9.923850      -270.0417
   5   2.0000      -0.857862       -23.3436
   6   2.0000      -0.713168       -19.4063
   7   2.0000      -0.644696       -17.5431
   8   2.0000      -0.584365       -15.9014
   9   2.0000      -0.509680       -13.8691
  10   2.0000      -0.472396       -12.8546
  11   2.0000      -0.429799       -11.6954
  12   2.0000      -0.403809       -10.9882
  13   2.0000      -0.364039        -9.9060
  14   2.0000      -0.345211        -9.3937
  15   2.0000      -0.334509        -9.1024
  16   2.0000      -0.315556        -8.5867
  17   2.0000      -0.302634        -8.2351
  18   2.0000      -0.281520        -7.6606
  19   2.0000      -0.149909        -4.0792
  20   0.0000       0.023904         0.6505
  21   0.0000       0.039702         1.0803
  22   0.0000       0.081846         2.2271
  23   0.0000       0.083958         2.2846
  24   0.0000       0.109881         2.9900

MULLIKEN ATOMIC CHARGES
-----------------------
   0 C :    0.060385
   1 C :   -0.176726
   2 C :   -0.038376
   3 N :   -0.051570
   4 H :    0.101411
   5 H :    0.108754
   6 H :   -0.035189
   7 H :   -0.042643
   8 C :    0.017274
   9 H :   -0.017693
  10 H :    0.031021
  11 H :    0.012269
  12 H :    0.023763
  13 H :    0.007320
Sum of atomic charges:   -0.0000000

LOEWDIN ATOMIC CHARGES
----------------------
   0 C :   -0.022572
   1 C :   -0.010412
   2 C :   -0.174321
   3 N :    0.014661
   4 H :    0.065414
   5 H :    0.073435
   6 H :   -0.006161
   7 H :   -0.009364
   8 C :   -0.029271
   9 H :    0.011623
  10 H :    0.034038
  11 H :    0.017697
  12 H :    0.019994
  13 H :    0.015239

  Mayer bond orders larger than 0.100000
B(  0-C ,  1-C ) :   1.0157 B(  0-C ,  8-C ) :   1.0955 B(  0-C ,  9-H ) :   0.9296
B(  0-C , 10-H ) :   0.9313 B(  1-C ,  2-C ) :   1.8242 B(  1-C ,  3-N ) :   1.2875
B(  2-C ,  6-H ) :   0.9498 B(  2-C ,  7-H ) :   0.9523 B(  3-N ,  4-H ) :   0.9463
B(  3-N ,  5-H ) :   0.9465 B(  8-C , 11-H ) :   0.9706 B(  8-C , 12-H ) :   0.9733
B(  8-C , 13-H ) :   0.9616

Dispersion correction           -0.013080379
FINAL SINGLE POINT ENERGY      -212.439290329273

DIPOLE MOMENT
-------------
                                X             Y             Z
Electronic contribution:      0.07154      -2.79463      -1.86323
Nuclear contribution   :     -0.99366       2.78648       1.68526
                        -----------------------------------------
Total Dipole Moment    :     -0.92211      -0.00815      -0.17797
                        -----------------------------------------
Magnitude (a.u.)       :      0.93916
Magnitude (Debye)      :      2.38717

Rotational constants in cm-1:     0.282898     0.128664     0.101801
Rotational constants in MHz :  8481.061354  3857.240210  3051.924245

                             ****ORCA TERMINATED NORMALLY****
TOTAL RUN TIME: 0 days 0 hours 0 minutes 7 seconds 813 msec
