                         Program Version 5.0.0 -  RELEASE  -
|  1> !TPSS D3BJ RIJCOSX def2-SVP def2/J TightSCF
|  2> *xyz 0 1
|  3> C          0.70466        1.44313       -4.50363
|  4> C          1.72854        1.42432       -5.63944
|  5> H          2.64672        1.95379       -5.38105
|  6> H          1.29992        1.93061       -6.50361
|  7> S          2.25263       -0.18811       -6.27184
|  8> O          3.56261       -0.44446       -5.63155
|  9> F          2.34494       -0.03374       -7.69650
| 10> O          1.26606       -1.15918       -5.80536
| 11> H         -0.17385        0.91270       -4.80656
| 12> H          0.44778        2.45562       -4.27173
| 13> H          1.12367        0.97423       -3.63791
| 14> *
| 15>
| 16> %MaxCore 64000
| 17>
| 18> %pal nprocs 4
| 19> end
| 20>
| 21> %scf
| 22>   MaxIter 150
| 23> end
| 24>
| 25>
| 26>                          ****END OF INPUT****

CARTESIAN COORDINATES (ANGSTROEM)
---------------------------------
  C      0.704660    1.443130   -4.503630
  C      1.728540    1.424320   -5.639440
  H      2.646720    1.953790   -5.381050
  H      1.299920    1.930610   -6.503610
  S      2.252630   -0.188110   -6.271840
  O      3.562610   -0.444460   -5.631550
  F      2.344940   -0.033740   -7.696500
  O      1.266060   -1.159180   -5.805360
  H     -0.173850    0.912700   -4.806560
  H      0.447780    2.455620   -4.271730
  H      1.123670    0.974230   -3.637910

 Total Charge           Charge          ....    0
 Multiplicity           Mult            ....    1
 Number of Electrons    NEL             ....   58
 Basis Dimension        Dim             ....  113

ORBITAL ENERGIES
----------------

  NO   OCC          E(Eh)            E(eV)
   0   2.0000     -88.594205     -2410.7709
   1   2.0000     -24.525872      -667.3829
   2   2.0000     -18.887214      -513.9472
   3   2.0000     -18.877737      -513.6893
   4   2.0000     -10.054035      -273.5842
   5   2.0000     -10.021221      -272.6913
   6   2.0000      -7.964014      -216.7118
   7   2.0000      -5.953790      -162.0109
   8   2.0000      -5.946957      -161.8249
   9   2.0000      -5.945457      -161.7841
  10   2.0000      -1.286931       -35.0192
  11   2.0000      -1.012857       -27.5612
  12   2.0000      -0.913249       -24.8508
  13   2.0000      -0.754503       -20.5311
  14   2.0000      -0.669677       -18.2228
  15   2.0000      -0.616104       -16.7651
  16   2.0000      -0.527864       -14.3639
  17   2.0000      -0.519951       -14.1486
  18   2.0000      -0.492801       -13.4098
  19   2.0000      -0.446528       -12.1507
  20   2.0000      -0.424873       -11.5614
  21   2.0000      -0.390826       -10.6349
  22   2.0000      -0.376781       -10.2527
  23   2.0000      -0.363788        -9.8992
  24   2.0000      -0.350099        -9.5267
  25   2.0000      -0.324288        -8.8243
  26   2.0000      -0.274825        -7.4784
  27   2.0000      -0.263675        -7.1750
  28   2.0000      -0.242841        -6.6080
  29   0.0000       0.008066         0.2195
  30   0.0000       0.026218         0.7134
  31   0.0000       0.052579         1.4307
  32   0.0000       0.059634         1.6227
  33   0.0000       0.083224         2.2646

MULLIKEN ATOMIC CHARGES
-----------------------
   0 C :    0.035382
   1 C :   -0.141392
   2 H :    0.078099
   3 H :    0.050014
   4 S :    0.889531
   5 O :   -0.456265
   6 F :   -0.149787
   7 O :   -0.430585
   8 H :    0.041719
   9 H :    0.034814
  10 H :    0.048469
Sum of atomic charges:   -0.0000000

LOEWDIN ATOMIC CHARGES
----------------------
   0 C :   -0.034213
   1 C :   -0.150559
   2 H :    0.038219
   3 H :    0.023543
   4 S :    1.110072
   5 O :   -0.501505
   6 F :   -0.102153
   7 O :   -0.476828
   8 H :    0.029107
   9 H :    0.032483
  10 H :    0.031835

  Mayer bond orders larger than 0.100000
B(  0-C ,  1-C ) :   1.0850 B(  0-C ,  8-H ) :   0.9655 B(  0-C ,  9-H ) :   0.9569
B(  0-C , 10-H ) :   0.9717 B(  1-C ,  2-H ) :   0.9324 B(  1-C ,  3-H ) :   0.9309
B(  1-C ,  4-S ) :   0.8857 B(  4-S ,  5-O ) :   1.7431 B(  4-S ,  6-F ) :   1.0359
B(  4-S ,  7-O ) :   1.7692

Dispersion correction           -0.011447586
FINAL SINGLE POINT ENERGY      -727.294483887930

DIPOLE MOMENT
-------------
                                X             Y             Z
Electronic contribution:      4.25607      -5.90547      -7.23386
Nuclear contribution   :     -4.83029       7.38191       6.79413
                        -----------------------------------------
Total Dipole Moment    :     -0.57422       1.47643      -0.43974
                        -----------------------------------------
Magnitude (a.u.)       :      1.64407
Magnitude (Debye)      :      4.17888

Rotational constants in cm-1:     0.156575     0.079070     0.076729
Rotational constants in MHz :  4694.010604  2370.444114  2300.280155

                             ****ORCA TERMINATED NORMALLY****
TOTAL RUN TIME: 0 days 0 hours 0 minutes 7 seconds 868 msec
