                         Program Version 5.0.0 -  RELEASE  -
|  1> !TPSS D3BJ RIJCOSX def2-SVP def2/J TightSCF
|  2> *xyz 0 1
|  3> C          2.91632       -1.24259       -1.54313
|  4> C          3.46659       -1.59097       -2.88908
|  5> N          4.65227       -1.14316       -3.25969
|  6> C          2.75226       -2.29204       -3.72803
|  7> H          1.77836       -2.48960       -3.51274
|  8> H          2.94861       -2.20854       -4.71681
|  9> H          5.14672       -0.51251       -2.63385
| 10> H          4.78303       -1.00720       -4.25350
| 11> C          2.80408        0.29070       -1.35924
| 12> H          1.94047       -1.71653       -1.44116
| 13> H          3.55857       -1.66343       -0.76637
| 14> H          2.17393        0.69633       -2.12297
| 15> H          3.77707        0.73043       -1.42880
| 16> H          2.38369        0.50492       -0.39889
| 17> *
| 18>
| 19> %MaxCore 64000
| 20>
| 21> %pal nprocs 4
| 22> end
| 23>
| 24> %scf
| 25>   MaxIter 150
| 26> end
| 27>
| 28>
| 29>                          ****END OF INPUT****

CARTESIAN COORDINATES (ANGSTROEM)
---------------------------------
  C      2.916320   -1.242590   -1.543130
  C      3.466590   -1.590970   -2.889080
  N      4.652270   -1.143160   -3.259690
  C      2.752260   -2.292040   -3.728030
  H      1.778360   -2.489600   -3.512740
  H      2.948610   -2.208540   -4.716810
  H      5.146720   -0.512510   -2.633850
  H      4.783030   -1.007200   -4.253500
  C      2.804080    0.290700   -1.359240
  H      1.940470   -1.716530   -1.441160
  H      3.558570   -1.663430   -0.766370
  H      2.173930    0.696330   -2.122970
  H      3.777070    0.730430   -1.428800
  H      2.383690    0.504920   -0.398890

 Total Charge           Charge          ....    0
 Multiplicity           Mult            ....    1
 Number of Electrons    NEL             ....   40
 Basis Dimension        Dim             ....  115

ORBITAL ENERGIES
----------------

  NO   OCC          E(Eh)            E(eV)
   0   2.0000     -14.111262      -383.9870
   1   2.0000     -10.005660      -272.2678
   2   2.0000      -9.998288      -272.0673
   3   2.0000      -9.993903      -271.9479
   4   2.0000      -9.928041      -270.1557
   5   2.0000      -0.853430       -23.2230
   6   2.0000      -0.711413       -19.3585
   7   2.0000      -0.655682       -17.8420
   8   2.0000      -0.577495       -15.7144
   9   2.0000      -0.509567       -13.8660
  10   2.0000      -0.476638       -12.9700
  11   2.0000      -0.427061       -11.6209
  12   2.0000      -0.393978       -10.7207
  13   2.0000      -0.386970       -10.5300
  14   2.0000      -0.342214        -9.3121
  15   2.0000      -0.339078        -9.2268
  16   2.0000      -0.318571        -8.6688
  17   2.0000      -0.299658        -8.1541
  18   2.0000      -0.277131        -7.5411
  19   2.0000      -0.156785        -4.2663
  20   0.0000       0.026006         0.7076
  21   0.0000       0.036218         0.9856
  22   0.0000       0.083926         2.2837
  23   0.0000       0.089890         2.4460
  24   0.0000       0.105757         2.8778

MULLIKEN ATOMIC CHARGES
-----------------------
   0 C :    0.065901
   1 C :   -0.166532
   2 N :   -0.065909
   3 C :   -0.029154
   4 H :   -0.035197
   5 H :   -0.048058
   6 H :    0.102490
   7 H :    0.116010
   8 C :    0.008151
   9 H :    0.004909
  10 H :    0.013280
  11 H :    0.018835
  12 H :   -0.001264
  13 H :    0.016538
Sum of atomic charges:    0.0000000

LOEWDIN ATOMIC CHARGES
----------------------
   0 C :   -0.021493
   1 C :   -0.010201
   2 N :    0.001092
   3 C :   -0.160330
   4 H :   -0.003085
   5 H :   -0.009756
   6 H :    0.064921
   7 H :    0.074897
   8 C :   -0.036461
   9 H :    0.029488
  10 H :    0.020805
  11 H :    0.021000
  12 H :    0.008577
  13 H :    0.020545

  Mayer bond orders larger than 0.100000
B(  0-C ,  1-C ) :   1.0427 B(  0-C ,  8-C ) :   1.0832 B(  0-C ,  9-H ) :   0.9259
B(  0-C , 10-H ) :   0.9268 B(  1-C ,  2-N ) :   1.2615 B(  1-C ,  3-C ) :   1.8563
B(  2-N ,  6-H ) :   0.9527 B(  2-N ,  7-H ) :   0.9463 B(  3-C ,  4-H ) :   0.9369
B(  3-C ,  5-H ) :   0.9506 B(  8-C , 11-H ) :   0.9697 B(  8-C , 12-H ) :   0.9700
B(  8-C , 13-H ) :   0.9652

Dispersion correction           -0.013049138
FINAL SINGLE POINT ENERGY      -212.442868756398

DIPOLE MOMENT
-------------
                                X             Y             Z
Electronic contribution:      1.81695      -1.72385      -1.43292
Nuclear contribution   :     -1.43372       2.52039       1.57679
                        -----------------------------------------
Total Dipole Moment    :      0.38323       0.79654       0.14387
                        -----------------------------------------
Magnitude (a.u.)       :      0.89557
Magnitude (Debye)      :      2.27635

Rotational constants in cm-1:     0.274962     0.131786     0.102554
Rotational constants in MHz :  8243.150005  3950.846092  3074.493018

                             ****ORCA TERMINATED NORMALLY****
TOTAL RUN TIME: 0 days 0 hours 0 minutes 9 seconds 2 msec
