                         Program Version 5.0.0 -  RELEASE  -
|  1> !TPSS D3BJ RIJCOSX def2-SVP def2/J TightSCF
|  2> *xyz 0 1
|  3> C          0.70466        1.44313       -4.50363
|  4> C          1.72854        1.42432       -5.63944
|  5> H          2.64672        1.95379       -5.38105
|  6> H          1.29992        1.93061       -6.50361
|  7> S          2.25263       -0.18811       -6.27184
|  8> O          3.56261       -0.44446       -5.63155
|  9> O          2.34494       -0.03374       -7.69650
| 10> F          1.26606       -1.15918       -5.80536
| 11> H         -0.17385        0.91270       -4.80656
| 12> H          0.44778        2.45562       -4.27173
| 13> H          1.12367        0.97423       -3.63791
| 14> *
| 15>
| 16> %MaxCore 64000
| 17>
| 18> %pal nprocs 4
| 19> end
| 20>
| 21> %scf
| 22>   MaxIter 150
| 23> end
| 24>
| 25>
| 26>                          ****END OF INPUT****

CARTESIAN COORDINATES (ANGSTROEM)
---------------------------------
  C      0.704660    1.443130   -4.503630
  C      1.728540    1.424320   -5.639440
  H      2.646720    1.953790   -5.381050
  H      1.299920    1.930610   -6.503610
  S      2.252630   -0.188110   -6.271840
  O      3.562610   -0.444460   -5.631550
  O      2.344940   -0.033740   -7.696500
  F      1.266060   -1.159180   -5.805360
  H     -0.173850    0.912700   -4.806560
  H      0.447780    2.455620   -4.271730
  H      1.123670    0.974230   -3.637910

 Total Charge           Charge          ....    0
 Multiplicity           Mult            ....    1
 Number of Electrons    NEL             ....   58
 Basis Dimension        Dim             ....  113

ORBITAL ENERGIES
----------------

  NO   OCC          E(Eh)            E(eV)
   0   2.0000     -88.592763     -2410.7316
   1   2.0000     -24.514527      -667.0742
   2   2.0000     -18.894010      -514.1321
   3   2.0000     -18.877276      -513.6768
   4   2.0000     -10.052925      -273.5540
   5   2.0000     -10.027975      -272.8751
   6   2.0000      -7.962597      -216.6733
   7   2.0000      -5.952318      -161.9708
   8   2.0000      -5.945669      -161.7899
   9   2.0000      -5.944100      -161.7472
  10   2.0000      -1.266128       -34.4531
  11   2.0000      -1.022696       -27.8290
  12   2.0000      -0.921199       -25.0671
  13   2.0000      -0.757784       -20.6204
  14   2.0000      -0.659799       -17.9540
  15   2.0000      -0.617222       -16.7955
  16   2.0000      -0.529321       -14.4036
  17   2.0000      -0.505761       -13.7625
  18   2.0000      -0.480146       -13.0654
  19   2.0000      -0.450035       -12.2461
  20   2.0000      -0.420712       -11.4482
  21   2.0000      -0.401191       -10.9170
  22   2.0000      -0.384335       -10.4583
  23   2.0000      -0.370402       -10.0791
  24   2.0000      -0.354707        -9.6521
  25   2.0000      -0.328916        -8.9503
  26   2.0000      -0.281161        -7.6508
  27   2.0000      -0.264437        -7.1957
  28   2.0000      -0.249305        -6.7839
  29   0.0000      -0.000394        -0.0107
  30   0.0000       0.040856         1.1117
  31   0.0000       0.055056         1.4982
  32   0.0000       0.060547         1.6476
  33   0.0000       0.086088         2.3426

MULLIKEN ATOMIC CHARGES
-----------------------
   0 C :    0.003918
   1 C :   -0.133877
   2 H :    0.090769
   3 H :    0.070915
   4 S :    0.894802
   5 O :   -0.459922
   6 O :   -0.410366
   7 F :   -0.172717
   8 H :    0.032511
   9 H :    0.041381
  10 H :    0.042588
Sum of atomic charges:   -0.0000000

LOEWDIN ATOMIC CHARGES
----------------------
   0 C :   -0.048502
   1 C :   -0.145760
   2 H :    0.046710
   3 H :    0.034304
   4 S :    1.114802
   5 O :   -0.505381
   6 O :   -0.453731
   7 F :   -0.126090
   8 H :    0.022680
   9 H :    0.034394
  10 H :    0.026575

  Mayer bond orders larger than 0.100000
B(  0-C ,  1-C ) :   1.0669 B(  0-C ,  8-H ) :   0.9717 B(  0-C ,  9-H ) :   0.9595
B(  0-C , 10-H ) :   0.9715 B(  1-C ,  2-H ) :   0.9348 B(  1-C ,  3-H ) :   0.9360
B(  1-C ,  4-S ) :   0.8976 B(  4-S ,  5-O ) :   1.7469 B(  4-S ,  6-O ) :   1.7901
B(  4-S ,  7-F ) :   1.0100

Dispersion correction           -0.011376714
FINAL SINGLE POINT ENERGY      -727.304406030912

DIPOLE MOMENT
-------------
                                X             Y             Z
Electronic contribution:      2.45261      -7.75867      -4.05794
Nuclear contribution   :     -3.70606       8.55465       4.82350
                        -----------------------------------------
Total Dipole Moment    :     -1.25345       0.79598       0.76556
                        -----------------------------------------
Magnitude (a.u.)       :      1.67056
Magnitude (Debye)      :      4.24624

Rotational constants in cm-1:     0.153201     0.080978     0.077494
Rotational constants in MHz :  4592.852844  2427.650814  2323.207507

                             ****ORCA TERMINATED NORMALLY****
TOTAL RUN TIME: 0 days 0 hours 0 minutes 7 seconds 894 msec
