                         Program Version 5.0.0 -  RELEASE  -
|  1> !TPSS D3BJ RIJCOSX def2-TZVP def2/J TightSCF xyzfile
|  2>
|  3> *xyzfile 0 1 D1.xyz
|  4>
|  5> %MaxCore 64000
|  6>
|  7> %pal nprocs 18
|  8> end
|  9>
| 10> %scf
| 11>   MaxIter 150
| 12> end
| 13>
| 14>
| 15>                          ****END OF INPUT****

CARTESIAN COORDINATES (ANGSTROEM)
---------------------------------
  C      2.916324   -1.242589   -1.543125
  C      0.704661    1.443129   -4.503630
  C      1.728539    1.424320   -5.639443
  H      2.646718    1.953794   -5.381054
  H      1.299916    1.930613   -6.503614
  S      2.252625   -0.188115   -6.271840
  C      3.466585   -1.590971   -2.889082
  C      4.652275   -1.143164   -3.259692
  N      2.752264   -2.292043   -3.728029
  H      1.778364   -2.489604   -3.512738
  H      2.948612   -2.208544   -4.716813
  H      5.146723   -0.512508   -2.633852
  H      4.783030   -1.007203   -4.253498
  F      3.562607   -0.444464   -5.631552
  O      2.344944   -0.033742   -7.696501
  C      2.804084    0.290698   -1.359243
  C      1.052550    0.695659   -3.214915
  H     -0.232483    1.032925   -4.884449
  H      0.511700    2.495794   -4.267966
  C      2.388380    1.093669   -2.597108
  H      3.763425    0.674718   -0.999889
  H      2.094788    0.461222   -0.545756
  O      1.266058   -1.159177   -5.805365
  H      3.167316    1.013242   -3.359430
  H      2.357690    2.149375   -2.310997
  H      1.039284   -0.368429   -3.449329
  H      0.250787    0.865605   -2.488283
  H      1.940472   -1.716529   -1.441161
  H      3.558569   -1.663433   -0.766371

 Total Charge           Charge          ....    0
 Multiplicity           Mult            ....    1
 Number of Electrons    NEL             ....  112
 Basis Dimension        Dim             ....  505

ORBITAL ENERGIES
----------------

  NO   OCC          E(Eh)            E(eV)
   0   2.0000     -88.588158     -2410.6063
   1   2.0000     -24.513774      -667.0537
   2   2.0000     -18.902398      -514.3604
   3   2.0000     -18.899458      -514.2804
   4   2.0000     -14.097223      -383.6049
   5   2.0000     -10.044980      -273.3378
   6   2.0000     -10.012981      -272.4671
   7   2.0000      -9.996521      -272.0192
   8   2.0000      -9.991483      -271.8821
   9   2.0000      -9.989558      -271.8297
  10   2.0000      -9.988354      -271.7969
  11   2.0000      -9.987096      -271.7627
  12   2.0000      -9.909724      -269.6573
  13   2.0000      -7.938031      -216.0048
  14   2.0000      -5.921402      -161.1295
  15   2.0000      -5.914552      -160.9431
  16   2.0000      -5.914031      -160.9290
  17   2.0000      -1.279331       -34.8124
  18   2.0000      -1.045549       -28.4508
  19   2.0000      -0.959225       -26.1018
  20   2.0000      -0.870938       -23.6994
  21   2.0000      -0.780213       -21.2307
  22   2.0000      -0.745579       -20.2882
  23   2.0000      -0.706362       -19.2211
  24   2.0000      -0.676032       -18.3958
  25   2.0000      -0.643899       -17.5214
  26   2.0000      -0.633879       -17.2487
  27   2.0000      -0.582829       -15.8596
  28   2.0000      -0.547553       -14.8997
  29   2.0000      -0.523229       -14.2378
  30   2.0000      -0.516072       -14.0430
  31   2.0000      -0.510856       -13.9011
  32   2.0000      -0.500793       -13.6273
  33   2.0000      -0.471097       -12.8192
  34   2.0000      -0.454059       -12.3556
  35   2.0000      -0.448270       -12.1980
  36   2.0000      -0.434876       -11.8336
  37   2.0000      -0.427082       -11.6215
  38   2.0000      -0.412624       -11.2281
  39   2.0000      -0.402537       -10.9536
  40   2.0000      -0.390888       -10.6366
  41   2.0000      -0.382428       -10.4064
  42   2.0000      -0.356587        -9.7032
  43   2.0000      -0.354115        -9.6360
  44   2.0000      -0.347315        -9.4509
  45   2.0000      -0.343720        -9.3531
  46   2.0000      -0.336624        -9.1600
  47   2.0000      -0.318773        -8.6743
  48   2.0000      -0.314605        -8.5608
  49   2.0000      -0.300890        -8.1876
  50   2.0000      -0.299088        -8.1386
  51   2.0000      -0.290335        -7.9004
  52   2.0000      -0.289445        -7.8762
  53   2.0000      -0.280859        -7.6426
  54   2.0000      -0.278297        -7.5729
  55   2.0000      -0.156644        -4.2625
  56   0.0000      -0.010285        -0.2799
  57   0.0000       0.003933         0.1070
  58   0.0000       0.007940         0.2160
  59   0.0000       0.019703         0.5361
  60   0.0000       0.031134         0.8472

MULLIKEN ATOMIC CHARGES
-----------------------
   0 C :   -0.158507
   1 C :   -0.092863
   2 C :   -0.302316
   3 H :    0.149403
   4 H :    0.166030
   5 S :    0.798437
   6 C :    0.050741
   7 C :   -0.376556
   8 N :   -0.369673
   9 H :    0.227089
  10 H :    0.211027
  11 H :    0.094306
  12 H :    0.080358
  13 F :   -0.101247
  14 O :   -0.383233
  15 C :   -0.201263
  16 C :   -0.230625
  17 H :    0.115010
  18 H :    0.097253
  19 C :   -0.110341
  20 H :    0.109502
  21 H :    0.081823
  22 O :   -0.420206
  23 H :    0.092475
  24 H :    0.078821
  25 H :    0.098436
  26 H :    0.087465
  27 H :    0.091815
  28 H :    0.116841
Sum of atomic charges:    0.0000000

LOEWDIN ATOMIC CHARGES
----------------------
   0 C :   -0.209465
   1 C :   -0.273656
   2 C :   -0.363652
   3 H :    0.136411
   4 H :    0.148343
   5 S :    0.510071
   6 C :   -0.391554
   7 C :   -0.289231
   8 N :    0.034015
   9 H :    0.164255
  10 H :    0.156933
  11 H :    0.103077
  12 H :    0.090126
  13 F :    0.076480
  14 O :   -0.233220
  15 C :   -0.244961
  16 C :   -0.266047
  17 H :    0.144119
  18 H :    0.143882
  19 C :   -0.264764
  20 H :    0.136716
  21 H :    0.132695
  22 O :   -0.258568
  23 H :    0.133352
  24 H :    0.133125
  25 H :    0.132738
  26 H :    0.136583
  27 H :    0.133399
  28 H :    0.148801

  Mayer bond orders larger than 0.100000
B(  0-C ,  6-C ) :   0.9783 B(  0-C , 15-C ) :   0.9933 B(  0-C , 27-H ) :   0.9457
B(  0-C , 28-H ) :   0.9503 B(  1-C ,  2-C ) :   0.9984 B(  1-C , 16-C ) :   1.0199
B(  1-C , 17-H ) :   0.9448 B(  1-C , 18-H ) :   0.9245 B(  2-C ,  3-H ) :   0.9355
B(  2-C ,  4-H ) :   0.9301 B(  2-C ,  5-S ) :   0.9032 B(  5-S , 13-F ) :   1.0978
B(  5-S , 14-O ) :   1.9865 B(  5-S , 22-O ) :   1.8541 B(  6-C ,  7-C ) :   1.7231
B(  6-C ,  8-N ) :   1.2331 B(  7-C , 11-H ) :   0.9914 B(  7-C , 12-H ) :   0.9775
B(  8-N ,  9-H ) :   0.9122 B(  8-N , 10-H ) :   0.9125 B( 15-C , 19-C ) :   1.0339
B( 15-C , 20-H ) :   0.9529 B( 15-C , 21-H ) :   0.9420 B( 16-C , 19-C ) :   0.9985
B( 16-C , 25-H ) :   0.9550 B( 16-C , 26-H ) :   0.9361 B( 19-C , 23-H ) :   0.9400
B( 19-C , 24-H ) :   0.9386

Dispersion correction           -0.045950679
FINAL SINGLE POINT ENERGY     -1018.050960198968

DIPOLE MOMENT
-------------
                                X             Y             Z
Electronic contribution:      2.16196      -5.04517     -18.64806
Nuclear contribution   :     -2.89481       6.29550      19.36835
                        -----------------------------------------
Total Dipole Moment    :     -0.73285       1.25033       0.72030
                        -----------------------------------------
Magnitude (a.u.)       :      1.61840
Magnitude (Debye)      :      4.11364

Rotational constants in cm-1:     0.036515     0.018832     0.015081
Rotational constants in MHz :  1094.679513   564.567051   452.109105

                             ****ORCA TERMINATED NORMALLY****
TOTAL RUN TIME: 0 days 0 hours 0 minutes 25 seconds 424 msec
