                         Program Version 5.0.0 -  RELEASE  -
|  1> !TPSS D3BJ RIJCOSX def2-TZVP def2/J TightSCF xyzfile
|  2>
|  3> *xyzfile 0 1 D3.xyz
|  4>
|  5> %MaxCore 64000
|  6>
|  7> %pal nprocs 18
|  8> end
|  9>
| 10> %scf
| 11>   MaxIter 150
| 12> end
| 13>
| 14>
| 15>                          ****END OF INPUT****

CARTESIAN COORDINATES (ANGSTROEM)
---------------------------------
  C      2.916324   -1.242589   -1.543125
  C      0.704661    1.443129   -4.503630
  C      1.728539    1.424320   -5.639443
  H      2.646718    1.953794   -5.381054
  H      1.299916    1.930613   -6.503614
  S      2.252625   -0.188115   -6.271840
  C      3.466585   -1.590971   -2.889082
  C      4.652275   -1.143164   -3.259692
  N      2.752264   -2.292043   -3.728029
  H      1.778364   -2.489604   -3.512738
  H      2.948612   -2.208544   -4.716813
  H      5.146723   -0.512508   -2.633852
  H      4.783030   -1.007203   -4.253498
  O      3.562607   -0.444464   -5.631552
  F      2.344944   -0.033742   -7.696501
  C      2.804084    0.290698   -1.359243
  C      1.052550    0.695659   -3.214915
  H     -0.232483    1.032925   -4.884449
  H      0.511700    2.495794   -4.267966
  C      2.388380    1.093669   -2.597108
  H      3.763425    0.674718   -0.999889
  H      2.094788    0.461222   -0.545756
  O      1.266058   -1.159177   -5.805365
  H      3.167316    1.013242   -3.359430
  H      2.357690    2.149375   -2.310997
  H      1.039284   -0.368429   -3.449329
  H      0.250787    0.865605   -2.488283
  H      1.940472   -1.716529   -1.441161
  H      3.558569   -1.663433   -0.766371

 Total Charge           Charge          ....    0
 Multiplicity           Mult            ....    1
 Number of Electrons    NEL             ....  112
 Basis Dimension        Dim             ....  505

ORBITAL ENERGIES
----------------

  NO   OCC          E(Eh)            E(eV)
   0   2.0000     -88.594335     -2410.7744
   1   2.0000     -24.536558      -667.6737
   2   2.0000     -18.902892      -514.3738
   3   2.0000     -18.894495      -514.1453
   4   2.0000     -14.074360      -382.9828
   5   2.0000     -10.048428      -273.4316
   6   2.0000     -10.014555      -272.5099
   7   2.0000      -9.985457      -271.7181
   8   2.0000      -9.977543      -271.5028
   9   2.0000      -9.975645      -271.4511
  10   2.0000      -9.974510      -271.4202
  11   2.0000      -9.973481      -271.3922
  12   2.0000      -9.884956      -268.9833
  13   2.0000      -7.944170      -216.1718
  14   2.0000      -5.927343      -161.2912
  15   2.0000      -5.920802      -161.1132
  16   2.0000      -5.920147      -161.0954
  17   2.0000      -1.313607       -35.7451
  18   2.0000      -1.038634       -28.2627
  19   2.0000      -0.946090       -25.7444
  20   2.0000      -0.848468       -23.0880
  21   2.0000      -0.779202       -21.2032
  22   2.0000      -0.736972       -20.0540
  23   2.0000      -0.704475       -19.1697
  24   2.0000      -0.670000       -18.2316
  25   2.0000      -0.643035       -17.4979
  26   2.0000      -0.619771       -16.8648
  27   2.0000      -0.581133       -15.8134
  28   2.0000      -0.545070       -14.8321
  29   2.0000      -0.537619       -14.6293
  30   2.0000      -0.520718       -14.1695
  31   2.0000      -0.513680       -13.9780
  32   2.0000      -0.489245       -13.3130
  33   2.0000      -0.458564       -12.4782
  34   2.0000      -0.450406       -12.2562
  35   2.0000      -0.449082       -12.2201
  36   2.0000      -0.431429       -11.7398
  37   2.0000      -0.422210       -11.4889
  38   2.0000      -0.404761       -11.0141
  39   2.0000      -0.394372       -10.7314
  40   2.0000      -0.384919       -10.4742
  41   2.0000      -0.371393       -10.1061
  42   2.0000      -0.356764        -9.7080
  43   2.0000      -0.345336        -9.3971
  44   2.0000      -0.339302        -9.2329
  45   2.0000      -0.325675        -8.8621
  46   2.0000      -0.319695        -8.6993
  47   2.0000      -0.310623        -8.4525
  48   2.0000      -0.299782        -8.1575
  49   2.0000      -0.297943        -8.1074
  50   2.0000      -0.288005        -7.8370
  51   2.0000      -0.280215        -7.6250
  52   2.0000      -0.276551        -7.5253
  53   2.0000      -0.270003        -7.3472
  54   2.0000      -0.261143        -7.1060
  55   2.0000      -0.134361        -3.6561
  56   0.0000      -0.015557        -0.4233
  57   0.0000      -0.000984        -0.0268
  58   0.0000       0.020417         0.5556
  59   0.0000       0.026851         0.7306
  60   0.0000       0.033396         0.9088

MULLIKEN ATOMIC CHARGES
-----------------------
   0 C :   -0.158448
   1 C :   -0.104923
   2 C :   -0.293847
   3 H :    0.164583
   4 H :    0.138842
   5 S :    0.799356
   6 C :    0.066094
   7 C :   -0.379665
   8 N :   -0.385874
   9 H :    0.213635
  10 H :    0.225772
  11 H :    0.081177
  12 H :    0.115827
  13 O :   -0.420752
  14 F :   -0.069138
  15 C :   -0.201719
  16 C :   -0.208378
  17 H :    0.108828
  18 H :    0.100489
  19 C :   -0.118441
  20 H :    0.106425
  21 H :    0.073436
  22 O :   -0.415411
  23 H :    0.117651
  24 H :    0.070946
  25 H :    0.093560
  26 H :    0.084251
  27 H :    0.084944
  28 H :    0.110777
Sum of atomic charges:    0.0000000

LOEWDIN ATOMIC CHARGES
----------------------
   0 C :   -0.213091
   1 C :   -0.270681
   2 C :   -0.365854
   3 H :    0.144284
   4 H :    0.134148
   5 S :    0.505084
   6 C :   -0.392536
   7 C :   -0.284688
   8 N :    0.029995
   9 H :    0.157603
  10 H :    0.160483
  11 H :    0.099396
  12 H :    0.098385
  13 O :   -0.262280
  14 F :    0.117890
  15 C :   -0.246586
  16 C :   -0.262543
  17 H :    0.142418
  18 H :    0.145484
  19 C :   -0.264196
  20 H :    0.136083
  21 H :    0.129711
  22 O :   -0.256683
  23 H :    0.140631
  24 H :    0.130320
  25 H :    0.133961
  26 H :    0.135735
  27 H :    0.130756
  28 H :    0.146771

  Mayer bond orders larger than 0.100000
B(  0-C ,  6-C ) :   0.9836 B(  0-C , 15-C ) :   0.9959 B(  0-C , 27-H ) :   0.9462
B(  0-C , 28-H ) :   0.9516 B(  1-C ,  2-C ) :   1.0073 B(  1-C , 16-C ) :   1.0252
B(  1-C , 17-H ) :   0.9454 B(  1-C , 18-H ) :   0.9259 B(  2-C ,  3-H ) :   0.9320
B(  2-C ,  4-H ) :   0.9277 B(  2-C ,  5-S ) :   0.9084 B(  5-S , 13-O ) :   1.8316
B(  5-S , 14-F ) :   1.1743 B(  5-S , 22-O ) :   1.8738 B(  6-C ,  7-C ) :   1.7356
B(  6-C ,  8-N ) :   1.2206 B(  7-C , 11-H ) :   0.9856 B(  7-C , 12-H ) :   0.9697
B(  8-N ,  9-H ) :   0.9180 B(  8-N , 10-H ) :   0.9016 B( 15-C , 19-C ) :   1.0374
B( 15-C , 20-H ) :   0.9521 B( 15-C , 21-H ) :   0.9412 B( 16-C , 19-C ) :   0.9968
B( 16-C , 25-H ) :   0.9504 B( 16-C , 26-H ) :   0.9373 B( 19-C , 23-H ) :   0.9383
B( 19-C , 24-H ) :   0.9372

Dispersion correction           -0.046449017
FINAL SINGLE POINT ENERGY     -1018.034985919752

DIPOLE MOMENT
-------------
                                X             Y             Z
Electronic contribution:      0.09189      -4.27184     -22.53372
Nuclear contribution   :     -1.50273       5.82595      21.72909
                        -----------------------------------------
Total Dipole Moment    :     -1.41084       1.55411      -0.80463
                        -----------------------------------------
Magnitude (a.u.)       :      2.24792
Magnitude (Debye)      :      5.71376

Rotational constants in cm-1:     0.036883     0.018294     0.014745
Rotational constants in MHz :  1105.724679   548.429785   442.050481

                             ****ORCA TERMINATED NORMALLY****
TOTAL RUN TIME: 0 days 0 hours 0 minutes 23 seconds 831 msec
