                         Program Version 5.0.0 -  RELEASE  -
|  1> !TPSS D3BJ RIJCOSX def2-TZVP def2/J TightSCF xyzfile
|  2>
|  3> *xyzfile 0 1 D4.xyz
|  4>
|  5> %MaxCore 64000
|  6>
|  7> %pal nprocs 18
|  8> end
|  9>
| 10> %scf
| 11>   MaxIter 150
| 12> end
| 13>
| 14>
| 15>                          ****END OF INPUT****

CARTESIAN COORDINATES (ANGSTROEM)
---------------------------------
  C      2.916324   -1.242589   -1.543125
  C      0.704661    1.443129   -4.503630
  C      1.728539    1.424320   -5.639443
  H      2.646718    1.953794   -5.381054
  H      1.299916    1.930613   -6.503614
  S      2.252625   -0.188115   -6.271840
  C      3.466585   -1.590971   -2.889082
  N      4.652275   -1.143164   -3.259692
  C      2.752264   -2.292043   -3.728029
  H      1.778364   -2.489604   -3.512738
  H      2.948612   -2.208544   -4.716813
  H      5.146723   -0.512508   -2.633852
  H      4.783030   -1.007203   -4.253498
  O      3.562607   -0.444464   -5.631552
  F      2.344944   -0.033742   -7.696501
  C      2.804084    0.290698   -1.359243
  C      1.052550    0.695659   -3.214915
  H     -0.232483    1.032925   -4.884449
  H      0.511700    2.495794   -4.267966
  C      2.388380    1.093669   -2.597108
  H      3.763425    0.674718   -0.999889
  H      2.094788    0.461222   -0.545756
  O      1.266058   -1.159177   -5.805365
  H      3.167316    1.013242   -3.359430
  H      2.357690    2.149375   -2.310997
  H      1.039284   -0.368429   -3.449329
  H      0.250787    0.865605   -2.488283
  H      1.940472   -1.716529   -1.441161
  H      3.558569   -1.663433   -0.766371

 Total Charge           Charge          ....    0
 Multiplicity           Mult            ....    1
 Number of Electrons    NEL             ....  112
 Basis Dimension        Dim             ....  505

ORBITAL ENERGIES
----------------

  NO   OCC          E(Eh)            E(eV)
   0   2.0000     -88.590267     -2410.6637
   1   2.0000     -24.532781      -667.5709
   2   2.0000     -18.894038      -514.1329
   3   2.0000     -18.891134      -514.0539
   4   2.0000     -14.073007      -382.9460
   5   2.0000     -10.045160      -273.3427
   6   2.0000     -10.010693      -272.4048
   7   2.0000      -9.980492      -271.5830
   8   2.0000      -9.979548      -271.5573
   9   2.0000      -9.978675      -271.5336
  10   2.0000      -9.972286      -271.3597
  11   2.0000      -9.971229      -271.3309
  12   2.0000      -9.888493      -269.0796
  13   2.0000      -7.939751      -216.0516
  14   2.0000      -5.922922      -161.1709
  15   2.0000      -5.916376      -160.9928
  16   2.0000      -5.915806      -160.9773
  17   2.0000      -1.309722       -35.6393
  18   2.0000      -1.031678       -28.0734
  19   2.0000      -0.940335       -25.5878
  20   2.0000      -0.844822       -22.9888
  21   2.0000      -0.775617       -21.1056
  22   2.0000      -0.735648       -20.0180
  23   2.0000      -0.699750       -19.0412
  24   2.0000      -0.670608       -18.2482
  25   2.0000      -0.648255       -17.6399
  26   2.0000      -0.617436       -16.8013
  27   2.0000      -0.573763       -15.6129
  28   2.0000      -0.541931       -14.7467
  29   2.0000      -0.534077       -14.5330
  30   2.0000      -0.518177       -14.1003
  31   2.0000      -0.512001       -13.9323
  32   2.0000      -0.487671       -13.2702
  33   2.0000      -0.461681       -12.5630
  34   2.0000      -0.449485       -12.2311
  35   2.0000      -0.447972       -12.1900
  36   2.0000      -0.422169       -11.4878
  37   2.0000      -0.412489       -11.2244
  38   2.0000      -0.402780       -10.9602
  39   2.0000      -0.398364       -10.8400
  40   2.0000      -0.383894       -10.4463
  41   2.0000      -0.367212        -9.9923
  42   2.0000      -0.357205        -9.7200
  43   2.0000      -0.341938        -9.3046
  44   2.0000      -0.336770        -9.1640
  45   2.0000      -0.329256        -8.9595
  46   2.0000      -0.320035        -8.7086
  47   2.0000      -0.310460        -8.4480
  48   2.0000      -0.296597        -8.0708
  49   2.0000      -0.290738        -7.9114
  50   2.0000      -0.284322        -7.7368
  51   2.0000      -0.281314        -7.6549
  52   2.0000      -0.271384        -7.3847
  53   2.0000      -0.263841        -7.1795
  54   2.0000      -0.257344        -7.0027
  55   2.0000      -0.141043        -3.8380
  56   0.0000      -0.010927        -0.2973
  57   0.0000       0.001947         0.0530
  58   0.0000       0.019356         0.5267
  59   0.0000       0.026781         0.7287
  60   0.0000       0.036801         1.0014

MULLIKEN ATOMIC CHARGES
-----------------------
   0 C :   -0.150110
   1 C :   -0.104086
   2 C :   -0.291346
   3 H :    0.155434
   4 H :    0.138602
   5 S :    0.812088
   6 C :    0.081709
   7 N :   -0.426468
   8 C :   -0.351037
   9 H :    0.079845
  10 H :    0.091354
  11 H :    0.217555
  12 H :    0.245643
  13 O :   -0.448274
  14 F :   -0.070113
  15 C :   -0.226219
  16 C :   -0.214932
  17 H :    0.108825
  18 H :    0.097348
  19 C :   -0.125589
  20 H :    0.100893
  21 H :    0.082455
  22 O :   -0.389476
  23 H :    0.096899
  24 H :    0.071045
  25 H :    0.134814
  26 H :    0.078681
  27 H :    0.107754
  28 H :    0.096706
Sum of atomic charges:   -0.0000000

LOEWDIN ATOMIC CHARGES
----------------------
   0 C :   -0.214260
   1 C :   -0.271172
   2 C :   -0.367441
   3 H :    0.141190
   4 H :    0.133738
   5 S :    0.513218
   6 C :   -0.391880
   7 N :    0.007963
   8 C :   -0.270920
   9 H :    0.099121
  10 H :    0.093414
  11 H :    0.161605
  12 H :    0.165836
  13 O :   -0.281087
  14 F :    0.117137
  15 C :   -0.255762
  16 C :   -0.260746
  17 H :    0.143316
  18 H :    0.144031
  19 C :   -0.265655
  20 H :    0.129865
  21 H :    0.132993
  22 O :   -0.229530
  23 H :    0.133391
  24 H :    0.130305
  25 H :    0.145439
  26 H :    0.134748
  27 H :    0.144896
  28 H :    0.136247

  Mayer bond orders larger than 0.100000
B(  0-C ,  6-C ) :   1.0199 B(  0-C , 15-C ) :   0.9737 B(  0-C , 27-H ) :   0.9492
B(  0-C , 28-H ) :   0.9529 B(  1-C ,  2-C ) :   1.0052 B(  1-C , 16-C ) :   1.0188
B(  1-C , 17-H ) :   0.9444 B(  1-C , 18-H ) :   0.9256 B(  2-C ,  3-H ) :   0.9329
B(  2-C ,  4-H ) :   0.9287 B(  2-C ,  5-S ) :   0.9091 B(  5-S , 13-O ) :   1.8151
B(  5-S , 14-F ) :   1.1711 B(  5-S , 22-O ) :   1.9102 B(  6-C ,  7-N ) :   1.1584
B(  6-C ,  8-C ) :   1.7595 B(  7-N , 11-H ) :   0.9289 B(  7-N , 12-H ) :   0.8980
B(  8-C ,  9-H ) :   0.9836 B(  8-C , 10-H ) :   0.9939 B( 15-C , 19-C ) :   1.0152
B( 15-C , 20-H ) :   0.9619 B( 15-C , 21-H ) :   0.9408 B( 16-C , 19-C ) :   0.9890
B( 16-C , 25-H ) :   0.9536 B( 16-C , 26-H ) :   0.9367 B( 19-C , 23-H ) :   0.9427
B( 19-C , 24-H ) :   0.9388

Dispersion correction           -0.046522494
FINAL SINGLE POINT ENERGY     -1018.037451277217

DIPOLE MOMENT
-------------
                                X             Y             Z
Electronic contribution:      1.40387      -3.55279     -22.21510
Nuclear contribution   :     -1.74760       5.67788      21.66873
                        -----------------------------------------
Total Dipole Moment    :     -0.34373       2.12509      -0.54637
                        -----------------------------------------
Magnitude (a.u.)       :      2.22096
Magnitude (Debye)      :      5.64524

Rotational constants in cm-1:     0.036818     0.018222     0.014682
Rotational constants in MHz :  1103.783048   546.296792   440.157914

                             ****ORCA TERMINATED NORMALLY****
TOTAL RUN TIME: 0 days 0 hours 0 minutes 24 seconds 922 msec
