                         Program Version 5.0.0 -  RELEASE  -
|  1> !TPSS D3BJ RIJCOSX def2-TZVP def2/J TightSCF xyzfile
|  2>
|  3> *xyzfile 0 1 D5.xyz
|  4>
|  5> %MaxCore 64000
|  6>
|  7> %pal nprocs 18
|  8> end
|  9>
| 10> %scf
| 11>   MaxIter 150
| 12> end
| 13>
| 14>
| 15>                          ****END OF INPUT****

CARTESIAN COORDINATES (ANGSTROEM)
---------------------------------
  C      2.916324   -1.242589   -1.543125
  C      0.704661    1.443129   -4.503630
  C      1.728539    1.424320   -5.639443
  H      2.646718    1.953794   -5.381054
  H      1.299916    1.930613   -6.503614
  S      2.252625   -0.188115   -6.271840
  C      3.466585   -1.590971   -2.889082
  C      4.652275   -1.143164   -3.259692
  N      2.752264   -2.292043   -3.728029
  H      1.778364   -2.489604   -3.512738
  H      2.948612   -2.208544   -4.716813
  H      5.146723   -0.512508   -2.633852
  H      4.783030   -1.007203   -4.253498
  O      3.562607   -0.444464   -5.631552
  O      2.344944   -0.033742   -7.696501
  C      2.804084    0.290698   -1.359243
  C      1.052550    0.695659   -3.214915
  H     -0.232483    1.032925   -4.884449
  H      0.511700    2.495794   -4.267966
  C      2.388380    1.093669   -2.597108
  H      3.763425    0.674718   -0.999889
  H      2.094788    0.461222   -0.545756
  F      1.266058   -1.159177   -5.805365
  H      3.167316    1.013242   -3.359430
  H      2.357690    2.149375   -2.310997
  H      1.039284   -0.368429   -3.449329
  H      0.250787    0.865605   -2.488283
  H      1.940472   -1.716529   -1.441161
  H      3.558569   -1.663433   -0.766371

 Total Charge           Charge          ....    0
 Multiplicity           Mult            ....    1
 Number of Electrons    NEL             ....  112
 Basis Dimension        Dim             ....  505

ORBITAL ENERGIES
----------------

  NO   OCC          E(Eh)            E(eV)
   0   2.0000     -88.590437     -2410.6684
   1   2.0000     -24.527166      -667.4181
   2   2.0000     -18.903883      -514.4008
   3   2.0000     -18.891765      -514.0711
   4   2.0000     -14.091356      -383.4453
   5   2.0000     -10.046188      -273.3707
   6   2.0000     -10.018860      -272.6270
   7   2.0000      -9.997145      -272.0362
   8   2.0000      -9.984913      -271.7033
   9   2.0000      -9.984250      -271.6853
  10   2.0000      -9.983438      -271.6631
  11   2.0000      -9.982261      -271.6311
  12   2.0000      -9.894211      -269.2352
  13   2.0000      -7.940358      -216.0681
  14   2.0000      -5.923771      -161.1940
  15   2.0000      -5.916857      -161.0059
  16   2.0000      -5.916235      -160.9889
  17   2.0000      -1.296847       -35.2890
  18   2.0000      -1.042526       -28.3686
  19   2.0000      -0.950781       -25.8721
  20   2.0000      -0.863574       -23.4990
  21   2.0000      -0.784103       -21.3365
  22   2.0000      -0.742707       -20.2101
  23   2.0000      -0.705639       -19.2014
  24   2.0000      -0.669803       -18.2263
  25   2.0000      -0.649632       -17.6774
  26   2.0000      -0.626365       -17.0443
  27   2.0000      -0.587233       -15.9794
  28   2.0000      -0.549146       -14.9430
  29   2.0000      -0.534104       -14.5337
  30   2.0000      -0.524888       -14.2829
  31   2.0000      -0.506903       -13.7935
  32   2.0000      -0.497183       -13.5290
  33   2.0000      -0.468295       -12.7430
  34   2.0000      -0.454222       -12.3600
  35   2.0000      -0.450079       -12.2473
  36   2.0000      -0.429754       -11.6942
  37   2.0000      -0.425822       -11.5872
  38   2.0000      -0.409976       -11.1560
  39   2.0000      -0.406368       -11.0578
  40   2.0000      -0.390910       -10.6372
  41   2.0000      -0.378035       -10.2869
  42   2.0000      -0.358648        -9.7593
  43   2.0000      -0.349405        -9.5078
  44   2.0000      -0.347297        -9.4504
  45   2.0000      -0.338190        -9.2026
  46   2.0000      -0.331325        -9.0158
  47   2.0000      -0.313531        -8.5316
  48   2.0000      -0.311805        -8.4846
  49   2.0000      -0.298423        -8.1205
  50   2.0000      -0.294792        -8.0217
  51   2.0000      -0.289406        -7.8751
  52   2.0000      -0.285205        -7.7608
  53   2.0000      -0.272432        -7.4133
  54   2.0000      -0.265324        -7.2198
  55   2.0000      -0.145926        -3.9708
  56   0.0000      -0.022161        -0.6030
  57   0.0000       0.009681         0.2634
  58   0.0000       0.016985         0.4622
  59   0.0000       0.020316         0.5528
  60   0.0000       0.028867         0.7855

MULLIKEN ATOMIC CHARGES
-----------------------
   0 C :   -0.156480
   1 C :   -0.146559
   2 C :   -0.272323
   3 H :    0.166667
   4 H :    0.158924
   5 S :    0.793585
   6 C :    0.057385
   7 C :   -0.356052
   8 N :   -0.410370
   9 H :    0.211019
  10 H :    0.217699
  11 H :    0.084593
  12 H :    0.123823
  13 O :   -0.420815
  14 O :   -0.376878
  15 C :   -0.207281
  16 C :   -0.212271
  17 H :    0.112109
  18 H :    0.101655
  19 C :   -0.106817
  20 H :    0.110206
  21 H :    0.076324
  22 F :   -0.097239
  23 H :    0.121295
  24 H :    0.077648
  25 H :    0.058248
  26 H :    0.091961
  27 H :    0.084265
  28 H :    0.115679
Sum of atomic charges:   -0.0000000

LOEWDIN ATOMIC CHARGES
----------------------
   0 C :   -0.213271
   1 C :   -0.282333
   2 C :   -0.356990
   3 H :    0.148508
   4 H :    0.142994
   5 S :    0.507036
   6 C :   -0.393641
   7 C :   -0.270256
   8 N :    0.017519
   9 H :    0.153575
  10 H :    0.155623
  11 H :    0.100954
  12 H :    0.100502
  13 O :   -0.261143
  14 O :   -0.229887
  15 C :   -0.245943
  16 C :   -0.267035
  17 H :    0.137909
  18 H :    0.145188
  19 C :   -0.262890
  20 H :    0.137300
  21 H :    0.130451
  22 F :    0.091032
  23 H :    0.142170
  24 H :    0.132656
  25 H :    0.124397
  26 H :    0.137163
  27 H :    0.130236
  28 H :    0.148178

  Mayer bond orders larger than 0.100000
B(  0-C ,  6-C ) :   0.9820 B(  0-C , 15-C ) :   0.9949 B(  0-C , 27-H ) :   0.9463
B(  0-C , 28-H ) :   0.9515 B(  1-C ,  2-C ) :   1.0070 B(  1-C , 16-C ) :   1.0040
B(  1-C , 17-H ) :   0.9570 B(  1-C , 18-H ) :   0.9266 B(  2-C ,  3-H ) :   0.9325
B(  2-C ,  4-H ) :   0.9292 B(  2-C ,  5-S ) :   0.9121 B(  5-S , 13-O ) :   1.8149
B(  5-S , 14-O ) :   1.9919 B(  5-S , 22-F ) :   1.1123 B(  6-C ,  7-C ) :   1.7568
B(  6-C ,  8-N ) :   1.1843 B(  7-C , 11-H ) :   0.9852 B(  7-C , 12-H ) :   0.9665
B(  8-N ,  9-H ) :   0.9191 B(  8-N , 10-H ) :   0.8997 B( 15-C , 19-C ) :   1.0337
B( 15-C , 20-H ) :   0.9519 B( 15-C , 21-H ) :   0.9420 B( 16-C , 19-C ) :   0.9785
B( 16-C , 25-H ) :   0.9616 B( 16-C , 26-H ) :   0.9371 B( 19-C , 23-H ) :   0.9380
B( 19-C , 24-H ) :   0.9370

Dispersion correction           -0.046061673
FINAL SINGLE POINT ENERGY     -1018.039592130751

DIPOLE MOMENT
-------------
                                X             Y             Z
Electronic contribution:     -1.65569      -6.14941     -19.08649
Nuclear contribution   :     -0.26930       7.11259      19.56706
                        -----------------------------------------
Total Dipole Moment    :     -1.92500       0.96318       0.48057
                        -----------------------------------------
Magnitude (a.u.)       :      2.20551
Magnitude (Debye)      :      5.60596

Rotational constants in cm-1:     0.036519     0.018683     0.015073
Rotational constants in MHz :  1094.801738   560.111127   451.890222

                             ****ORCA TERMINATED NORMALLY****
TOTAL RUN TIME: 0 days 0 hours 0 minutes 28 seconds 685 msec
