                         Program Version 5.0.0 -  RELEASE  -
|  1> !PBE0 D3BJ RIJCOSX def2-SVP def2/J TightSCF
|  2> *xyz 1 1
|  3> C          4.36645       -0.13321       -1.41606
|  4> C          4.50829       -0.93187       -2.72425
|  5> C          3.05650       -0.32080       -0.70738
|  6> N          2.38983        0.71129       -0.24391
|  7> N          2.51600       -1.50772       -0.55023
|  8> H          2.96768       -2.32291       -0.95631
|  9> H          1.54987       -1.49063       -0.24988
| 10> H          2.74307        1.64947       -0.41280
| 11> H          1.44036        0.50278        0.03703
| 12> H          4.48784        0.93300       -1.61157
| 13> H          5.16967       -0.41443       -0.72982
| 14> H          5.46700       -0.73824       -3.15818
| 15> H          3.74074       -0.63528       -3.40821
| 16> H          4.41574       -1.97727       -2.51573
| 17> *
| 18>
| 19> %MaxCore 64000
| 20>
| 21> %pal nprocs 4
| 22> end
| 23>
| 24> %scf
| 25>   MaxIter 150
| 26> end
| 27>
| 28>
| 29>                          ****END OF INPUT****

CARTESIAN COORDINATES (ANGSTROEM)
---------------------------------
  C      4.366450   -0.133210   -1.416060
  C      4.508290   -0.931870   -2.724250
  C      3.056500   -0.320800   -0.707380
  N      2.389830    0.711290   -0.243910
  N      2.516000   -1.507720   -0.550230
  H      2.967680   -2.322910   -0.956310
  H      1.549870   -1.490630   -0.249880
  H      2.743070    1.649470   -0.412800
  H      1.440360    0.502780    0.037030
  H      4.487840    0.933000   -1.611570
  H      5.169670   -0.414430   -0.729820
  H      5.467000   -0.738240   -3.158180
  H      3.740740   -0.635280   -3.408210
  H      4.415740   -1.977270   -2.515730

 Total Charge           Charge          ....    1
 Multiplicity           Mult            ....    1
 Number of Electrons    NEL             ....   40
 Basis Dimension        Dim             ....  115

ORBITAL ENERGIES
----------------

  NO   OCC          E(Eh)            E(eV)
   0   2.0000     -14.641907      -398.4265
   1   2.0000     -14.640838      -398.3974
   2   2.0000     -10.552757      -287.1551
   3   2.0000     -10.433701      -283.9154
   4   2.0000     -10.392075      -282.7827
   5   2.0000      -1.232791       -33.5460
   6   2.0000      -1.123901       -30.5829
   7   2.0000      -0.988220       -26.8908
   8   2.0000      -0.875667       -23.8281
   9   2.0000      -0.835387       -22.7320
  10   2.0000      -0.785895       -21.3853
  11   2.0000      -0.771247       -20.9867
  12   2.0000      -0.720363       -19.6021
  13   2.0000      -0.675701       -18.3868
  14   2.0000      -0.642599       -17.4860
  15   2.0000      -0.616072       -16.7642
  16   2.0000      -0.568456       -15.4685
  17   2.0000      -0.553410       -15.0591
  18   2.0000      -0.538729       -14.6596
  19   2.0000      -0.505875       -13.7656
  20   0.0000      -0.202754        -5.5172
  21   0.0000      -0.139056        -3.7839
  22   0.0000      -0.094029        -2.5587
  23   0.0000      -0.089865        -2.4454
  24   0.0000      -0.052889        -1.4392

MULLIKEN ATOMIC CHARGES
-----------------------
   0 C :   -0.047168
   1 C :   -0.067281
   2 C :   -0.041321
   3 N :   -0.023039
   4 N :   -0.024069
   5 H :    0.196042
   6 H :    0.180679
   7 H :    0.201564
   8 H :    0.178068
   9 H :    0.077226
  10 H :    0.130340
  11 H :    0.099393
  12 H :    0.079186
  13 H :    0.060379
Sum of atomic charges:    1.0000000

LOEWDIN ATOMIC CHARGES
----------------------
   0 C :   -0.043032
   1 C :   -0.034366
   2 C :    0.147665
   3 N :    0.097540
   4 N :    0.094528
   5 H :    0.121991
   6 H :    0.111422
   7 H :    0.125908
   8 H :    0.110670
   9 H :    0.056537
  10 H :    0.077956
  11 H :    0.058685
  12 H :    0.043043
  13 H :    0.031453

  Mayer bond orders larger than 0.100000
B(  0-C ,  1-C ) :   1.0737 B(  0-C ,  2-C ) :   1.0093 B(  0-C ,  9-H ) :   0.9233
B(  0-C , 10-H ) :   0.9105 B(  1-C , 11-H ) :   0.9571 B(  1-C , 12-H ) :   0.9742
B(  1-C , 13-H ) :   0.9680 B(  2-C ,  3-N ) :   1.5136 B(  2-C ,  4-N ) :   1.5001
B(  3-N ,  7-H ) :   0.9118 B(  3-N ,  8-H ) :   0.9253 B(  4-N ,  5-H ) :   0.9178
B(  4-N ,  6-H ) :   0.9244

Dispersion correction           -0.008492465
FINAL SINGLE POINT ENERGY      -228.598879452830

DIPOLE MOMENT
-------------
                                X             Y             Z
Electronic contribution:     -2.71175       0.62468       3.13884
Nuclear contribution   :      1.78847      -0.48174      -2.67127
                        -----------------------------------------
Total Dipole Moment    :     -0.92328       0.14294       0.46757
                        -----------------------------------------
Magnitude (a.u.)       :      1.04475
Magnitude (Debye)      :      2.65554

Rotational constants in cm-1:     0.286883     0.123210     0.094446
Rotational constants in MHz :  8600.540572  3693.747366  2831.415242

                             ****ORCA TERMINATED NORMALLY****
TOTAL RUN TIME: 0 days 0 hours 0 minutes 13 seconds 114 msec
