                         Program Version 5.0.0 -  RELEASE  -
|  1> !PBE0 D3BJ RIJCOSX def2-SVP def2/J TightSCF
|  2> *xyz 0 1
|  3> C         -0.90349       -0.87394       -1.98739
|  4> C         -0.96015       -0.52236       -0.48987
|  5> H         -1.69039       -1.20813       -0.02168
|  6> H         -1.41449        0.48633       -0.40668
|  7> F          0.26170       -0.58031        0.13861
|  8> H         -1.88568       -0.80774       -2.40670
|  9> H         -0.53143       -1.87013       -2.10605
| 10> H         -0.25399       -0.18836       -2.49039
| 11> *
| 12>
| 13> %MaxCore 64000
| 14>
| 15> %pal nprocs 4
| 16> end
| 17>
| 18> %scf
| 19>   MaxIter 150
| 20> end
| 21>
| 22>
| 23>                          ****END OF INPUT****

CARTESIAN COORDINATES (ANGSTROEM)
---------------------------------
  C     -0.903490   -0.873940   -1.987390
  C     -0.960150   -0.522360   -0.489870
  H     -1.690390   -1.208130   -0.021680
  H     -1.414490    0.486330   -0.406680
  F      0.261700   -0.580310    0.138610
  H     -1.885680   -0.807740   -2.406700
  H     -0.531430   -1.870130   -2.106050
  H     -0.253990   -0.188360   -2.490390

 Total Charge           Charge          ....    0
 Multiplicity           Mult            ....    1
 Number of Electrons    NEL             ....   26
 Basis Dimension        Dim             ....   67

ORBITAL ENERGIES
----------------

  NO   OCC          E(Eh)            E(eV)
   0   2.0000     -24.748987      -673.4542
   1   2.0000     -10.305509      -280.4272
   2   2.0000     -10.226628      -278.2807
   3   2.0000      -1.197926       -32.5972
   4   2.0000      -0.777571       -21.1588
   5   2.0000      -0.640509       -17.4291
   6   2.0000      -0.514392       -13.9973
   7   2.0000      -0.504564       -13.7299
   8   2.0000      -0.465265       -12.6605
   9   2.0000      -0.413318       -11.2470
  10   2.0000      -0.411340       -11.1931
  11   2.0000      -0.342702        -9.3254
  12   2.0000      -0.337102        -9.1730
  13   0.0000       0.074948         2.0394
  14   0.0000       0.120603         3.2818
  15   0.0000       0.127113         3.4589
  16   0.0000       0.141402         3.8477
  17   0.0000       0.157229         4.2784

MULLIKEN ATOMIC CHARGES
-----------------------
   0 C :   -0.115484
   1 C :    0.190748
   2 H :    0.030173
   3 H :    0.030499
   4 F :   -0.277125
   5 H :    0.039672
   6 H :    0.050734
   7 H :    0.050783
Sum of atomic charges:    0.0000000

LOEWDIN ATOMIC CHARGES
----------------------
   0 C :   -0.083426
   1 C :    0.107058
   2 H :    0.013180
   3 H :    0.013701
   4 F :   -0.142823
   5 H :    0.033964
   6 H :    0.029174
   7 H :    0.029171

  Mayer bond orders larger than 0.100000
B(  0-C ,  1-C ) :   1.0860 B(  0-C ,  5-H ) :   0.9615 B(  0-C ,  6-H ) :   0.9717
B(  0-C ,  7-H ) :   0.9717 B(  1-C ,  2-H ) :   0.9596 B(  1-C ,  3-H ) :   0.9593
B(  1-C ,  4-F ) :   0.9822

Dispersion correction           -0.002808289
FINAL SINGLE POINT ENERGY      -178.727290989273

DIPOLE MOMENT
-------------
                                X             Y             Z
Electronic contribution:      3.25239       0.37758       4.00998
Nuclear contribution   :     -3.84149      -0.36812      -4.38946
                        -----------------------------------------
Total Dipole Moment    :     -0.58910       0.00946      -0.37948
                        -----------------------------------------
Magnitude (a.u.)       :      0.70081
Magnitude (Debye)      :      1.78131

Rotational constants in cm-1:     1.270659     0.299196     0.265842
Rotational constants in MHz : 38093.410361  8969.665806  7969.741481

                             ****ORCA TERMINATED NORMALLY****
TOTAL RUN TIME: 0 days 0 hours 0 minutes 7 seconds 419 msec
