                         Program Version 5.0.0 -  RELEASE  -
|  1> !PBE0 D3BJ RIJCOSX def2-SVP def2/J TightSCF
|  2> *xyz 0 1
|  3> C          4.36645       -0.13321       -1.41606
|  4> C          4.50829       -0.93187       -2.72425
|  5> C          3.05650       -0.32080       -0.70738
|  6> C          2.38983        0.71129       -0.24391
|  7> N          2.51600       -1.50772       -0.55023
|  8> H          2.96768       -2.32291       -0.95631
|  9> H          1.54987       -1.49063       -0.24988
| 10> H          2.74307        1.64947       -0.41280
| 11> H          1.44036        0.50278        0.03703
| 12> H          4.48784        0.93300       -1.61157
| 13> H          5.16967       -0.41443       -0.72982
| 14> H          5.46700       -0.73824       -3.15818
| 15> H          3.74074       -0.63528       -3.40821
| 16> H          4.41574       -1.97727       -2.51573
| 17> *
| 18>
| 19> %MaxCore 64000
| 20>
| 21> %pal nprocs 4
| 22> end
| 23>
| 24> %scf
| 25>   MaxIter 150
| 26> end
| 27>
| 28>
| 29>                          ****END OF INPUT****

CARTESIAN COORDINATES (ANGSTROEM)
---------------------------------
  C      4.366450   -0.133210   -1.416060
  C      4.508290   -0.931870   -2.724250
  C      3.056500   -0.320800   -0.707380
  C      2.389830    0.711290   -0.243910
  N      2.516000   -1.507720   -0.550230
  H      2.967680   -2.322910   -0.956310
  H      1.549870   -1.490630   -0.249880
  H      2.743070    1.649470   -0.412800
  H      1.440360    0.502780    0.037030
  H      4.487840    0.933000   -1.611570
  H      5.169670   -0.414430   -0.729820
  H      5.467000   -0.738240   -3.158180
  H      3.740740   -0.635280   -3.408210
  H      4.415740   -1.977270   -2.515730

 Total Charge           Charge          ....    0
 Multiplicity           Mult            ....    1
 Number of Electrons    NEL             ....   40
 Basis Dimension        Dim             ....  115

ORBITAL ENERGIES
----------------

  NO   OCC          E(Eh)            E(eV)
   0   2.0000     -14.386601      -391.4793
   1   2.0000     -10.242936      -278.7245
   2   2.0000     -10.230643      -278.3900
   3   2.0000     -10.223847      -278.2050
   4   2.0000     -10.158017      -276.4137
   5   2.0000      -0.944680       -25.7060
   6   2.0000      -0.791209       -21.5299
   7   2.0000      -0.732785       -19.9401
   8   2.0000      -0.646904       -17.6032
   9   2.0000      -0.571756       -15.5583
  10   2.0000      -0.543857       -14.7991
  11   2.0000      -0.479856       -13.0576
  12   2.0000      -0.451011       -12.2726
  13   2.0000      -0.440171       -11.9777
  14   2.0000      -0.400706       -10.9038
  15   2.0000      -0.390182       -10.6174
  16   2.0000      -0.367177        -9.9914
  17   2.0000      -0.352848        -9.6015
  18   2.0000      -0.333044        -9.0626
  19   2.0000      -0.191434        -5.2092
  20   0.0000       0.056805         1.5458
  21   0.0000       0.065431         1.7805
  22   0.0000       0.104947         2.8558
  23   0.0000       0.108871         2.9625
  24   0.0000       0.131476         3.5776

MULLIKEN ATOMIC CHARGES
-----------------------
   0 C :    0.003418
   1 C :   -0.061800
   2 C :   -0.156158
   3 C :   -0.061396
   4 N :   -0.104775
   5 H :    0.118567
   6 H :    0.129457
   7 H :   -0.019263
   8 H :   -0.035503
   9 H :    0.031541
  10 H :    0.047577
  11 H :    0.039323
  12 H :    0.045062
  13 H :    0.023951
Sum of atomic charges:   -0.0000000

LOEWDIN ATOMIC CHARGES
----------------------
   0 C :   -0.038679
   1 C :   -0.059564
   2 C :   -0.001820
   3 C :   -0.182124
   4 N :   -0.012046
   5 H :    0.070807
   6 H :    0.081114
   7 H :    0.002124
   8 H :   -0.005786
   9 H :    0.037509
  10 H :    0.034071
  11 H :    0.029140
  12 H :    0.028637
  13 H :    0.016617

  Mayer bond orders larger than 0.100000
B(  0-C ,  1-C ) :   1.0803 B(  0-C ,  2-C ) :   1.0166 B(  0-C ,  9-H ) :   0.9336
B(  0-C , 10-H ) :   0.9336 B(  1-C , 11-H ) :   0.9676 B(  1-C , 12-H ) :   0.9741
B(  1-C , 13-H ) :   0.9711 B(  2-C ,  3-C ) :   1.8527 B(  2-C ,  4-N ) :   1.2694
B(  3-C ,  7-H ) :   0.9456 B(  3-C ,  8-H ) :   0.9474 B(  4-N ,  5-H ) :   0.9493
B(  4-N ,  6-H ) :   0.9395

Dispersion correction           -0.008822803
FINAL SINGLE POINT ENERGY      -212.148513049904

DIPOLE MOMENT
-------------
                                X             Y             Z
Electronic contribution:     -1.50130      -0.51115       2.07385
Nuclear contribution   :      1.56827      -0.21459      -2.46657
                        -----------------------------------------
Total Dipole Moment    :      0.06697      -0.72574      -0.39272
                        -----------------------------------------
Magnitude (a.u.)       :      0.82790
Magnitude (Debye)      :      2.10435

Rotational constants in cm-1:     0.294070     0.127722     0.097792
Rotational constants in MHz :  8815.983970  3829.010547  2931.715816

                             ****ORCA TERMINATED NORMALLY****
TOTAL RUN TIME: 0 days 0 hours 0 minutes 12 seconds 191 msec
