                         Program Version 5.0.0 -  RELEASE  -
|  1> !PBE0 D3BJ RIJCOSX def2-SVP def2/J TightSCF
|  2> *xyz 0 1
|  3> C          4.36645       -0.13321       -1.41606
|  4> C          4.50829       -0.93187       -2.72425
|  5> C          3.05650       -0.32080       -0.70738
|  6> N          2.38983        0.71129       -0.24391
|  7> C          2.51600       -1.50772       -0.55023
|  8> H          2.96768       -2.32291       -0.95631
|  9> H          1.54987       -1.49063       -0.24988
| 10> H          2.74307        1.64947       -0.41280
| 11> H          1.44036        0.50278        0.03703
| 12> H          4.48784        0.93300       -1.61157
| 13> H          5.16967       -0.41443       -0.72982
| 14> H          5.46700       -0.73824       -3.15818
| 15> H          3.74074       -0.63528       -3.40821
| 16> H          4.41574       -1.97727       -2.51573
| 17> *
| 18>
| 19> %MaxCore 64000
| 20>
| 21> %pal nprocs 4
| 22> end
| 23>
| 24> %scf
| 25>   MaxIter 150
| 26> end
| 27>
| 28>
| 29>                          ****END OF INPUT****

CARTESIAN COORDINATES (ANGSTROEM)
---------------------------------
  C      4.366450   -0.133210   -1.416060
  C      4.508290   -0.931870   -2.724250
  C      3.056500   -0.320800   -0.707380
  N      2.389830    0.711290   -0.243910
  C      2.516000   -1.507720   -0.550230
  H      2.967680   -2.322910   -0.956310
  H      1.549870   -1.490630   -0.249880
  H      2.743070    1.649470   -0.412800
  H      1.440360    0.502780    0.037030
  H      4.487840    0.933000   -1.611570
  H      5.169670   -0.414430   -0.729820
  H      5.467000   -0.738240   -3.158180
  H      3.740740   -0.635280   -3.408210
  H      4.415740   -1.977270   -2.515730

 Total Charge           Charge          ....    0
 Multiplicity           Mult            ....    1
 Number of Electrons    NEL             ....   40
 Basis Dimension        Dim             ....  115

ORBITAL ENERGIES
----------------

  NO   OCC          E(Eh)            E(eV)
   0   2.0000     -14.386763      -391.4837
   1   2.0000     -10.243199      -278.7316
   2   2.0000     -10.232059      -278.4285
   3   2.0000     -10.216765      -278.0123
   4   2.0000     -10.156146      -276.3628
   5   2.0000      -0.944661       -25.7055
   6   2.0000      -0.792313       -21.5599
   7   2.0000      -0.721374       -19.6296
   8   2.0000      -0.656322       -17.8594
   9   2.0000      -0.562127       -15.2963
  10   2.0000      -0.541002       -14.7214
  11   2.0000      -0.487434       -13.2637
  12   2.0000      -0.460634       -12.5345
  13   2.0000      -0.416240       -11.3265
  14   2.0000      -0.399128       -10.8608
  15   2.0000      -0.389287       -10.5930
  16   2.0000      -0.367355        -9.9962
  17   2.0000      -0.350499        -9.5376
  18   2.0000      -0.334223        -9.0947
  19   2.0000      -0.189580        -5.1587
  20   0.0000       0.061343         1.6692
  21   0.0000       0.065371         1.7788
  22   0.0000       0.103372         2.8129
  23   0.0000       0.108164         2.9433
  24   0.0000       0.135694         3.6924

MULLIKEN ATOMIC CHARGES
-----------------------
   0 C :    0.000227
   1 C :   -0.049141
   2 C :   -0.156942
   3 N :   -0.109320
   4 C :   -0.063260
   5 H :   -0.020198
   6 H :   -0.032760
   7 H :    0.121180
   8 H :    0.126756
   9 H :    0.008088
  10 H :    0.057747
  11 H :    0.030133
  12 H :    0.040139
  13 H :    0.047351
Sum of atomic charges:   -0.0000000

LOEWDIN ATOMIC CHARGES
----------------------
   0 C :   -0.040224
   1 C :   -0.050001
   2 C :   -0.001341
   3 N :   -0.009715
   4 C :   -0.186672
   5 H :    0.000435
   6 H :   -0.005038
   7 H :    0.072170
   8 H :    0.080280
   9 H :    0.020101
  10 H :    0.041497
  11 H :    0.023933
  12 H :    0.027251
  13 H :    0.027325

  Mayer bond orders larger than 0.100000
B(  0-C ,  1-C ) :   1.0996 B(  0-C ,  2-C ) :   0.9913 B(  0-C ,  9-H ) :   0.9370
B(  0-C , 10-H ) :   0.9332 B(  1-C , 11-H ) :   0.9657 B(  1-C , 12-H ) :   0.9753
B(  1-C , 13-H ) :   0.9726 B(  2-C ,  3-N ) :   1.2729 B(  2-C ,  4-C ) :   1.8476
B(  3-N ,  7-H ) :   0.9438 B(  3-N ,  8-H ) :   0.9408 B(  4-C ,  5-H ) :   0.9553
B(  4-C ,  6-H ) :   0.9466

Dispersion correction           -0.008849645
FINAL SINGLE POINT ENERGY      -212.147104416479

DIPOLE MOMENT
-------------
                                X             Y             Z
Electronic contribution:     -1.61656       1.52401       2.37387
Nuclear contribution   :      1.59749      -0.72853      -2.53752
                        -----------------------------------------
Total Dipole Moment    :     -0.01907       0.79548      -0.16365
                        -----------------------------------------
Magnitude (a.u.)       :      0.81236
Magnitude (Debye)      :      2.06486

Rotational constants in cm-1:     0.304597     0.124127     0.096828
Rotational constants in MHz :  9131.600925  3721.227051  2902.830760

                             ****ORCA TERMINATED NORMALLY****
TOTAL RUN TIME: 0 days 0 hours 0 minutes 13 seconds 310 msec
