                         Program Version 5.0.0 -  RELEASE  -
|  1> !PBE0 D3BJ RIJCOSX def2-TZVP def2/J TightSCF xyzfile
|  2>
|  3> *xyzfile 0 1 D1.xyz
|  4>
|  5> %MaxCore 64000
|  6>
|  7> %pal nprocs 18
|  8> end
|  9>
| 10> %scf
| 11>   MaxIter 150
| 12> end
| 13>
| 14>
| 15>                          ****END OF INPUT****

CARTESIAN COORDINATES (ANGSTROEM)
---------------------------------
  C      4.366454   -0.133215   -1.416062
  C      4.508292   -0.931872   -2.724249
  H      4.753716   -1.972051   -2.488408
  C      3.294164   -0.918214   -3.656570
  H      5.385637   -0.536236   -3.242640
  H      2.483463   -1.477378   -3.185764
  H      3.553092   -1.478495   -4.560331
  C      2.772335    0.460100   -4.051448
  H      2.608762    1.065107   -3.155194
  C      1.465354    0.410537   -4.853644
  H      3.532940    0.988848   -4.635671
  C      0.326171   -0.375613   -4.192580
  H      1.666704   -0.022269   -5.839323
  H      1.138198    1.439246   -5.035449
  C     -0.017405    0.080588   -2.778406
  H      0.585573   -1.439385   -4.168057
  H     -0.560005   -0.311425   -4.831461
  H      0.902090    0.201296   -2.206729
  C     -0.903495   -0.873945   -1.987388
  H     -0.479549    1.074657   -2.811915
  H     -0.502554   -1.892096   -2.081204
  H     -1.917039   -0.895427   -2.406277
  C     -0.960148   -0.522365   -0.489867
  H     -1.690392   -1.208130   -0.021677
  H     -1.414490    0.486329   -0.406677
  F      0.261703   -0.580307    0.138611
  C      3.056503   -0.320797   -0.707384
  C      2.389825    0.711285   -0.243909
  N      2.515999   -1.507721   -0.550229
  H      2.967683   -2.322915   -0.956305
  H      1.549872   -1.490634   -0.249876
  H      2.743071    1.649471   -0.412802
  H      1.440364    0.502778    0.037031
  H      4.487835    0.932997   -1.611569
  H      5.169672   -0.414432   -0.729817

 Total Charge           Charge          ....    0
 Multiplicity           Mult            ....    1
 Number of Electrons    NEL             ....  104
 Basis Dimension        Dim             ....  535

ORBITAL ENERGIES
----------------

  NO   OCC          E(Eh)            E(eV)
   0   2.0000     -24.789004      -674.5431
   1   2.0000     -14.356989      -390.6735
   2   2.0000     -10.310840      -280.5722
   3   2.0000     -10.232812      -278.4490
   4   2.0000     -10.221120      -278.1308
   5   2.0000     -10.213984      -277.9366
   6   2.0000     -10.213255      -277.9168
   7   2.0000     -10.210979      -277.8549
   8   2.0000     -10.210550      -277.8432
   9   2.0000     -10.208888      -277.7980
  10   2.0000     -10.206639      -277.7368
  11   2.0000     -10.204491      -277.6783
  12   2.0000     -10.124499      -275.5016
  13   2.0000      -1.269553       -34.5463
  14   2.0000      -0.942523       -25.6474
  15   2.0000      -0.842210       -22.9177
  16   2.0000      -0.820003       -22.3134
  17   2.0000      -0.793159       -21.5829
  18   2.0000      -0.755298       -20.5527
  19   2.0000      -0.727300       -19.7908
  20   2.0000      -0.705721       -19.2036
  21   2.0000      -0.657718       -17.8974
  22   2.0000      -0.634221       -17.2580
  23   2.0000      -0.603339       -16.4177
  24   2.0000      -0.573756       -15.6127
  25   2.0000      -0.558200       -15.1894
  26   2.0000      -0.550654       -14.9840
  27   2.0000      -0.543114       -14.7789
  28   2.0000      -0.530442       -14.4341
  29   2.0000      -0.500488       -13.6190
  30   2.0000      -0.485627       -13.2146
  31   2.0000      -0.473742       -12.8912
  32   2.0000      -0.456783       -12.4297
  33   2.0000      -0.451518       -12.2864
  34   2.0000      -0.441224       -12.0063
  35   2.0000      -0.435045       -11.8382
  36   2.0000      -0.410699       -11.1757
  37   2.0000      -0.402360       -10.9488
  38   2.0000      -0.392545       -10.6817
  39   2.0000      -0.384227       -10.4553
  40   2.0000      -0.377391       -10.2693
  41   2.0000      -0.368520       -10.0279
  42   2.0000      -0.360401        -9.8070
  43   2.0000      -0.353356        -9.6153
  44   2.0000      -0.349942        -9.5224
  45   2.0000      -0.341624        -9.2961
  46   2.0000      -0.324396        -8.8273
  47   2.0000      -0.322693        -8.7809
  48   2.0000      -0.315525        -8.5859
  49   2.0000      -0.312560        -8.5052
  50   2.0000      -0.309124        -8.4117
  51   2.0000      -0.181831        -4.9479
  52   0.0000       0.035472         0.9653
  53   0.0000       0.045692         1.2433
  54   0.0000       0.053870         1.4659
  55   0.0000       0.059121         1.6088
  56   0.0000       0.064457         1.7540

MULLIKEN ATOMIC CHARGES
-----------------------
   0 C :   -0.175126
   1 C :   -0.260307
   2 H :    0.113970
   3 C :   -0.162701
   4 H :    0.103586
   5 H :    0.083941
   6 H :    0.095956
   7 C :   -0.250942
   8 H :    0.129150
   9 C :   -0.136144
  10 H :    0.098105
  11 C :   -0.212818
  12 H :    0.097544
  13 H :    0.096114
  14 C :   -0.224425
  15 H :    0.107151
  16 H :    0.100584
  17 H :    0.118055
  18 C :   -0.213967
  19 H :    0.087088
  20 H :    0.104562
  21 H :    0.112418
  22 C :    0.020147
  23 H :    0.121460
  24 H :    0.110106
  25 F :   -0.220679
  26 C :    0.078465
  27 C :   -0.440139
  28 N :   -0.427131
  29 H :    0.225512
  30 H :    0.245453
  31 H :    0.091620
  32 H :    0.147950
  33 H :    0.118668
  34 H :    0.116775
Sum of atomic charges:   -0.0000000

LOEWDIN ATOMIC CHARGES
----------------------
   0 C :   -0.221380
   1 C :   -0.270262
   2 H :    0.133390
   3 C :   -0.273532
   4 H :    0.138948
   5 H :    0.134380
   6 H :    0.136405
   7 C :   -0.271075
   8 H :    0.142662
   9 C :   -0.268128
  10 H :    0.135119
  11 C :   -0.274792
  12 H :    0.136360
  13 H :    0.137033
  14 C :   -0.274199
  15 H :    0.135300
  16 H :    0.134765
  17 H :    0.151657
  18 C :   -0.280202
  19 H :    0.137230
  20 H :    0.138659
  21 H :    0.144024
  22 C :   -0.336003
  23 H :    0.126814
  24 H :    0.130328
  25 F :    0.141819
  26 C :   -0.388146
  27 C :   -0.293250
  28 N :    0.001815
  29 H :    0.165278
  30 H :    0.158231
  31 H :    0.101051
  32 H :    0.094328
  33 H :    0.149880
  34 H :    0.145494

  Mayer bond orders larger than 0.100000
B(  0-C ,  1-C ) :   0.9750 B(  0-C , 26-C ) :   1.0019 B(  0-C , 33-H ) :   0.9641
B(  0-C , 34-H ) :   0.9565 B(  1-C ,  2-H ) :   0.9767 B(  1-C ,  3-C ) :   0.9848
B(  1-C ,  4-H ) :   0.9556 B(  3-C ,  5-H ) :   0.9598 B(  3-C ,  6-H ) :   0.9537
B(  3-C ,  7-C ) :   0.9755 B(  7-C ,  8-H ) :   0.9692 B(  7-C ,  9-C ) :   0.9963
B(  7-C , 10-H ) :   0.9529 B(  9-C , 11-C ) :   1.0037 B(  9-C , 12-H ) :   0.9598
B(  9-C , 13-H ) :   0.9604 B( 11-C , 14-C ) :   1.0030 B( 11-C , 15-H ) :   0.9671
B( 11-C , 16-H ) :   0.9578 B( 14-C , 17-H ) :   0.9805 B( 14-C , 18-C ) :   0.9919
B( 14-C , 19-H ) :   0.9536 B( 18-C , 20-H ) :   0.9582 B( 18-C , 21-H ) :   0.9429
B( 18-C , 22-C ) :   1.0074 B( 22-C , 23-H ) :   0.9655 B( 22-C , 24-H ) :   0.9701
B( 22-C , 25-F ) :   0.9260 B( 26-C , 27-C ) :   1.7533 B( 26-C , 28-N ) :   1.1960
B( 27-C , 31-H ) :   0.9895 B( 27-C , 32-H ) :   0.9578 B( 28-N , 29-H ) :   0.9188
B( 28-N , 30-H ) :   0.8738

Dispersion correction           -0.034583891
FINAL SINGLE POINT ENERGY      -586.510137282495

DIPOLE MOMENT
-------------
                                X             Y             Z
Electronic contribution:     -2.68231      -1.62737      10.47003
Nuclear contribution   :      1.82572       1.04089     -11.09065
                        -----------------------------------------
Total Dipole Moment    :     -0.85660      -0.58647      -0.62061
                        -----------------------------------------
Magnitude (a.u.)       :      1.20949
Magnitude (Debye)      :      3.07429

Rotational constants in cm-1:     0.028436     0.022359     0.014416
Rotational constants in MHz :   852.496561   670.291843   432.183951

                             ****ORCA TERMINATED NORMALLY****
TOTAL RUN TIME: 0 days 0 hours 0 minutes 58 seconds 848 msec
