                         Program Version 5.0.0 -  RELEASE  -
|  1> !wB97X-D3 RIJCOSX def2-TZVPD def2/J TightSCF
|  2> *xyz -1 1
|  3> C          3.93993        0.32036       -4.36773
|  4> C          5.10585        0.66802       -5.30546
|  5> O          4.80913        1.15019       -6.41436
|  6> O          6.26737        0.56500       -4.81948
|  7> H          3.01376        0.44480       -4.88890
|  8> H          3.96058        0.96928       -3.51722
|  9> H          4.03331       -0.69517       -4.04388
| 10> *
| 11>
| 12> %MaxCore 64000
| 13>
| 14> %pal nprocs 18
| 15> end
| 16>
| 17> %scf
| 18>   MaxIter 150
| 19> end
| 20>
| 21>
| 22>                          ****END OF INPUT****

CARTESIAN COORDINATES (ANGSTROEM)
---------------------------------
  C      3.939930    0.320360   -4.367730
  C      5.105850    0.668020   -5.305460
  O      4.809130    1.150190   -6.414360
  O      6.267370    0.565000   -4.819480
  H      3.013760    0.444800   -4.888900
  H      3.960580    0.969280   -3.517220
  H      4.033310   -0.695170   -4.043880

 Total Charge           Charge          ....   -1
 Multiplicity           Mult            ....    1
 Number of Electrons    NEL             ....   32
 Basis Dimension        Dim             ....  181

ORBITAL ENERGIES
----------------

  NO   OCC          E(Eh)            E(eV)
   0   2.0000     -18.962993      -516.0093
   1   2.0000     -18.958643      -515.8909
   2   2.0000     -10.157122      -276.3893
   3   2.0000     -10.082507      -274.3590
   4   2.0000      -0.933187       -25.3933
   5   2.0000      -0.839022       -22.8309
   6   2.0000      -0.655499       -17.8370
   7   2.0000      -0.408135       -11.1059
   8   2.0000      -0.358106        -9.7446
   9   2.0000      -0.343912        -9.3583
  10   2.0000      -0.325607        -8.8602
  11   2.0000      -0.281934        -7.6718
  12   2.0000      -0.261960        -7.1283
  13   2.0000      -0.138451        -3.7675
  14   2.0000      -0.131369        -3.5747
  15   2.0000      -0.120824        -3.2878
  16   0.0000       0.203257         5.5309
  17   0.0000       0.224087         6.0977
  18   0.0000       0.235881         6.4186
  19   0.0000       0.254204         6.9172
  20   0.0000       0.275392         7.4938

MULLIKEN ATOMIC CHARGES
-----------------------
   0 C :   -0.705607
   1 C :    0.538890
   2 O :   -0.737982
   3 O :   -0.762782
   4 H :    0.240715
   5 H :    0.204815
   6 H :    0.221950
Sum of atomic charges:   -1.0000000

LOEWDIN ATOMIC CHARGES
----------------------
   0 C :   -0.072283
   1 C :   -0.807583
   2 O :   -0.115272
   3 O :   -0.139364
   4 H :    0.041729
   5 H :    0.048000
   6 H :    0.044773

  Mayer bond orders larger than 0.100000
B(  0-C ,  1-C ) :   0.8912 B(  0-C ,  4-H ) :   0.9869 B(  0-C ,  5-H ) :   0.9386
B(  0-C ,  6-H ) :   0.9520 B(  1-C ,  2-O ) :   1.4868 B(  1-C ,  3-O ) :   1.4657

Dispersion correction           -0.000905523
FINAL SINGLE POINT ENERGY      -228.553167395268

DIPOLE MOMENT
-------------
                                X             Y             Z
Electronic contribution:      2.71527       0.86517      -2.22869
Nuclear contribution   :     -3.81330      -1.22874       3.01208
                        -----------------------------------------
Total Dipole Moment    :     -1.09803      -0.36357       0.78339
                        -----------------------------------------
Magnitude (a.u.)       :      1.39698
Magnitude (Debye)      :      3.55085

Rotational constants in cm-1:     0.390282     0.335702     0.186718
Rotational constants in MHz : 11700.346989 10064.094211  5597.661196

                             ****ORCA TERMINATED NORMALLY****
TOTAL RUN TIME: 0 days 0 hours 0 minutes 8 seconds 933 msec
