                         Program Version 5.0.0 -  RELEASE  -
|  1> !wB97X-D3 RIJCOSX def2-TZVPD def2/J TightSCF
|  2> *xyz 1 1
|  3> C          3.90595        2.81985       -3.75292
|  4> N          5.29562        3.13151       -4.10533
|  5> C          5.70862        3.46889       -5.32419
|  6> N          6.90470        3.03895       -5.71708
|  7> N          4.98188        4.29357       -6.09746
|  8> H          5.00055        4.10131       -7.08776
|  9> H          4.08469        4.59690       -5.73965
| 10> H          5.96336        2.52611       -3.64239
| 11> H          7.04716        2.06686       -5.47360
| 12> H          7.19815        3.30799       -6.64523
| 13> H          3.24866        3.48801       -4.26909
| 14> H          3.77188        2.93227       -2.69732
| 15> H          3.68381        1.81198       -4.03533
| 16> *
| 17>
| 18> %MaxCore 64000
| 19>
| 20> %pal nprocs 18
| 21> end
| 22>
| 23> %scf
| 24>   MaxIter 150
| 25> end
| 26>
| 27>
| 28>                          ****END OF INPUT****

CARTESIAN COORDINATES (ANGSTROEM)
---------------------------------
  C      3.905950    2.819850   -3.752920
  N      5.295620    3.131510   -4.105330
  C      5.708620    3.468890   -5.324190
  N      6.904700    3.038950   -5.717080
  N      4.981880    4.293570   -6.097460
  H      5.000550    4.101310   -7.087760
  H      4.084690    4.596900   -5.739650
  H      5.963360    2.526110   -3.642390
  H      7.047160    2.066860   -5.473600
  H      7.198150    3.307990   -6.645230
  H      3.248660    3.488010   -4.269090
  H      3.771880    2.932270   -2.697320
  H      3.683810    1.811980   -4.035330

 Total Charge           Charge          ....    1
 Multiplicity           Mult            ....    1
 Number of Electrons    NEL             ....   40
 Basis Dimension        Dim             ....  257

ORBITAL ENERGIES
----------------

  NO   OCC          E(Eh)            E(eV)
   0   2.0000     -14.656667      -398.8282
   1   2.0000     -14.652782      -398.7225
   2   2.0000     -14.652562      -398.7165
   3   2.0000     -10.621402      -289.0230
   4   2.0000     -10.483093      -285.2595
   5   2.0000      -1.345589       -36.6153
   6   2.0000      -1.229245       -33.4495
   7   2.0000      -1.221356       -33.2348
   8   2.0000      -1.023935       -27.8627
   9   2.0000      -0.935369       -25.4527
  10   2.0000      -0.887700       -24.1555
  11   2.0000      -0.862689       -23.4750
  12   2.0000      -0.808094       -21.9894
  13   2.0000      -0.791326       -21.5331
  14   2.0000      -0.747896       -20.3513
  15   2.0000      -0.742498       -20.2044
  16   2.0000      -0.689049       -18.7500
  17   2.0000      -0.680567       -18.5192
  18   2.0000      -0.590225       -16.0608
  19   2.0000      -0.560962       -15.2646
  20   0.0000      -0.118898        -3.2354
  21   0.0000      -0.096405        -2.6233
  22   0.0000      -0.057704        -1.5702
  23   0.0000      -0.052396        -1.4258
  24   0.0000      -0.023864        -0.6494

MULLIKEN ATOMIC CHARGES
-----------------------
   0 C :   -0.905856
   1 N :   -0.197899
   2 C :    0.658791
   3 N :   -0.444776
   4 N :   -0.422677
   5 H :    0.267383
   6 H :    0.258385
   7 H :    0.268063
   8 H :    0.271020
   9 H :    0.269226
  10 H :    0.342849
  11 H :    0.291658
  12 H :    0.343833
Sum of atomic charges:    1.0000000

LOEWDIN ATOMIC CHARGES
----------------------
   0 C :   -0.011520
   1 N :    0.049149
   2 C :   -0.439612
   3 N :    0.203890
   4 N :    0.213248
   5 H :    0.140557
   6 H :    0.126067
   7 H :    0.159788
   8 H :    0.143143
   9 H :    0.139418
  10 H :    0.079259
  11 H :    0.098932
  12 H :    0.097681

  Mayer bond orders larger than 0.100000
B(  0-C ,  1-N ) :   0.8567 B(  0-C ,  2-C ) :  -0.1163 B(  0-C , 10-H ) :   0.8601
B(  0-C , 11-H ) :   0.9525 B(  0-C , 12-H ) :   0.8908 B(  1-N ,  2-C ) :   1.3156
B(  1-N ,  7-H ) :   0.9041 B(  2-C ,  3-N ) :   1.1480 B(  2-C ,  4-N ) :   1.1459
B(  3-N ,  8-H ) :   0.9326 B(  3-N ,  9-H ) :   0.9068 B(  4-N ,  5-H ) :   0.9291
B(  4-N ,  6-H ) :   0.9145

Dispersion correction           -0.002448326
FINAL SINGLE POINT ENERGY      -245.098089963897

DIPOLE MOMENT
-------------
                                X             Y             Z
Electronic contribution:      2.50535       1.07713      -1.20109
Nuclear contribution   :     -2.62204      -1.73043       0.52001
                        -----------------------------------------
Total Dipole Moment    :     -0.11668      -0.65330      -0.68108
                        -----------------------------------------
Magnitude (a.u.)       :      0.95094
Magnitude (Debye)      :      2.41709

Rotational constants in cm-1:     0.299316     0.133886     0.097604
Rotational constants in MHz :  8973.254382  4013.798371  2926.103660

                             ****ORCA TERMINATED NORMALLY****
TOTAL RUN TIME: 0 days 0 hours 0 minutes 20 seconds 661 msec
