                         Program Version 5.0.0 -  RELEASE  -
|  1> !wB97X-D3 RIJCOSX def2-TZVPD def2/J TightSCF
|  2> *xyz 0 1
|  3> C          3.93993        0.32036       -4.36773
|  4> C          5.10585        0.66802       -5.30546
|  5> F          4.80913        1.15019       -6.41436
|  6> O          6.26737        0.56500       -4.81948
|  7> H          3.01376        0.44480       -4.88890
|  8> H          3.96058        0.96928       -3.51722
|  9> H          4.03331       -0.69517       -4.04388
| 10> *
| 11>
| 12> %MaxCore 64000
| 13>
| 14> %pal nprocs 18
| 15> end
| 16>
| 17> %scf
| 18>   MaxIter 150
| 19> end
| 20>
| 21>
| 22>                          ****END OF INPUT****

CARTESIAN COORDINATES (ANGSTROEM)
---------------------------------
  C      3.939930    0.320360   -4.367730
  C      5.105850    0.668020   -5.305460
  F      4.809130    1.150190   -6.414360
  O      6.267370    0.565000   -4.819480
  H      3.013760    0.444800   -4.888900
  H      3.960580    0.969280   -3.517220
  H      4.033310   -0.695170   -4.043880

 Total Charge           Charge          ....    0
 Multiplicity           Mult            ....    1
 Number of Electrons    NEL             ....   32
 Basis Dimension        Dim             ....  181

ORBITAL ENERGIES
----------------

  NO   OCC          E(Eh)            E(eV)
   0   2.0000     -24.863441      -676.5686
   1   2.0000     -19.237432      -523.4771
   2   2.0000     -10.462396      -284.6963
   3   2.0000     -10.299296      -280.2581
   4   2.0000      -1.447385       -39.3854
   5   2.0000      -1.146489       -31.1975
   6   2.0000      -0.887281       -24.1441
   7   2.0000      -0.774278       -21.0692
   8   2.0000      -0.660067       -17.9613
   9   2.0000      -0.655542       -17.8382
  10   2.0000      -0.609633       -16.5890
  11   2.0000      -0.545092       -14.8327
  12   2.0000      -0.532060       -14.4781
  13   2.0000      -0.499305       -13.5868
  14   2.0000      -0.447418       -12.1749
  15   2.0000      -0.390808       -10.6344
  16   0.0000       0.050267         1.3678
  17   0.0000       0.063045         1.7155
  18   0.0000       0.093434         2.5425
  19   0.0000       0.107274         2.9191
  20   0.0000       0.117250         3.1905

MULLIKEN ATOMIC CHARGES
-----------------------
   0 C :   -0.783948
   1 C :    0.702926
   2 F :   -0.208906
   3 O :   -0.552976
   4 H :    0.305083
   5 H :    0.264085
   6 H :    0.273735
Sum of atomic charges:   -0.0000000

LOEWDIN ATOMIC CHARGES
----------------------
   0 C :    0.008154
   1 C :   -0.507507
   2 F :    0.210839
   3 O :    0.055159
   4 H :    0.068821
   5 H :    0.083210
   6 H :    0.081325

  Mayer bond orders larger than 0.100000
B(  0-C ,  1-C ) :   0.8802 B(  0-C ,  4-H ) :   0.9334 B(  0-C ,  5-H ) :   0.9222
B(  0-C ,  6-H ) :   0.9364 B(  1-C ,  2-F ) :   1.0088 B(  1-C ,  3-O ) :   1.7024

Dispersion correction           -0.000910951
FINAL SINGLE POINT ENERGY      -253.117094388379

DIPOLE MOMENT
-------------
                                X             Y             Z
Electronic contribution:      2.39564       1.63150      -4.17757
Nuclear contribution   :     -3.58567      -1.71656       4.24175
                        -----------------------------------------
Total Dipole Moment    :     -1.19003      -0.08506       0.06418
                        -----------------------------------------
Magnitude (a.u.)       :      1.19479
Magnitude (Debye)      :      3.03692

Rotational constants in cm-1:     0.365806     0.323297     0.177262
Rotational constants in MHz : 10966.600844  9692.195205  5314.176777

                             ****ORCA TERMINATED NORMALLY****
TOTAL RUN TIME: 0 days 0 hours 0 minutes 11 seconds 561 msec
