                         Program Version 5.0.0 -  RELEASE  -
|  1> !wB97X-D3 RIJCOSX def2-TZVPD def2/J TightSCF
|  2> *xyz 0 1
|  3> C          3.90595        2.81985       -3.75292
|  4> C          5.29562        3.13151       -4.10533
|  5> C          5.70862        3.46889       -5.32419
|  6> N          6.90470        3.03895       -5.71708
|  7> N          4.98188        4.29357       -6.09746
|  8> H          5.00055        4.10131       -7.08776
|  9> H          4.08469        4.59690       -5.73965
| 10> H          5.96336        2.52611       -3.64239
| 11> H          7.04716        2.06686       -5.47360
| 12> H          7.19815        3.30799       -6.64523
| 13> H          3.24866        3.48801       -4.26909
| 14> H          3.77188        2.93227       -2.69732
| 15> H          3.68381        1.81198       -4.03533
| 16> *
| 17>
| 18> %MaxCore 64000
| 19>
| 20> %pal nprocs 18
| 21> end
| 22>
| 23> %scf
| 24>   MaxIter 150
| 25> end
| 26>
| 27>
| 28>                          ****END OF INPUT****

CARTESIAN COORDINATES (ANGSTROEM)
---------------------------------
  C      3.905950    2.819850   -3.752920
  C      5.295620    3.131510   -4.105330
  C      5.708620    3.468890   -5.324190
  N      6.904700    3.038950   -5.717080
  N      4.981880    4.293570   -6.097460
  H      5.000550    4.101310   -7.087760
  H      4.084690    4.596900   -5.739650
  H      5.963360    2.526110   -3.642390
  H      7.047160    2.066860   -5.473600
  H      7.198150    3.307990   -6.645230
  H      3.248660    3.488010   -4.269090
  H      3.771880    2.932270   -2.697320
  H      3.683810    1.811980   -4.035330

 Total Charge           Charge          ....    0
 Multiplicity           Mult            ....    1
 Number of Electrons    NEL             ....   40
 Basis Dimension        Dim             ....  257

ORBITAL ENERGIES
----------------

  NO   OCC          E(Eh)            E(eV)
   0   2.0000     -14.423877      -392.4936
   1   2.0000     -14.422319      -392.4513
   2   2.0000     -10.318453      -280.7794
   3   2.0000     -10.240706      -278.6638
   4   2.0000     -10.200140      -277.5599
   5   2.0000      -1.083435       -29.4818
   6   2.0000      -0.992372       -27.0038
   7   2.0000      -0.870827       -23.6964
   8   2.0000      -0.769448       -20.9377
   9   2.0000      -0.686051       -18.6684
  10   2.0000      -0.639265       -17.3953
  11   2.0000      -0.610687       -16.6176
  12   2.0000      -0.576386       -15.6843
  13   2.0000      -0.529421       -14.4063
  14   2.0000      -0.502816       -13.6823
  15   2.0000      -0.478002       -13.0071
  16   2.0000      -0.450937       -12.2706
  17   2.0000      -0.427838       -11.6421
  18   2.0000      -0.369988       -10.0679
  19   2.0000      -0.254774        -6.9328
  20   0.0000       0.062216         1.6930
  21   0.0000       0.090687         2.4677
  22   0.0000       0.097397         2.6503
  23   0.0000       0.115053         3.1308
  24   0.0000       0.124072         3.3762

MULLIKEN ATOMIC CHARGES
-----------------------
   0 C :   -0.977485
   1 C :   -0.534369
   2 C :    0.377742
   3 N :   -0.468316
   4 N :   -0.467949
   5 H :    0.211833
   6 H :    0.214795
   7 H :    0.396218
   8 H :    0.241028
   9 H :    0.231848
  10 H :    0.292295
  11 H :    0.265729
  12 H :    0.216631
Sum of atomic charges:    0.0000000

LOEWDIN ATOMIC CHARGES
----------------------
   0 C :   -0.123608
   1 C :   -0.176302
   2 C :   -0.565890
   3 N :    0.105020
   4 N :    0.115678
   5 H :    0.098134
   6 H :    0.097409
   7 H :    0.059695
   8 H :    0.110812
   9 H :    0.098664
  10 H :    0.049796
  11 H :    0.062663
  12 H :    0.067928

  Mayer bond orders larger than 0.100000
B(  0-C ,  1-C ) :   0.7421 B(  0-C , 10-H ) :   0.9422 B(  0-C , 11-H ) :   1.0215
B(  0-C , 12-H ) :   1.0092 B(  1-C ,  2-C ) :   1.6047 B(  1-C ,  4-N ) :   0.1365
B(  1-C ,  7-H ) :   0.8946 B(  2-C ,  3-N ) :   1.0892 B(  2-C ,  4-N ) :   0.9363
B(  2-C ,  7-H ) :  -0.1029 B(  3-N ,  8-H ) :   0.9435 B(  3-N ,  9-H ) :   0.9213
B(  4-N ,  5-H ) :   0.9756 B(  4-N ,  6-H ) :   0.9256

Dispersion correction           -0.002449451
FINAL SINGLE POINT ENERGY      -228.620233020057

DIPOLE MOMENT
-------------
                                X             Y             Z
Electronic contribution:      2.51380       1.33638      -1.82117
Nuclear contribution   :     -2.63304      -1.77161       0.70501
                        -----------------------------------------
Total Dipole Moment    :     -0.11924      -0.43524      -1.11616
                        -----------------------------------------
Magnitude (a.u.)       :      1.20393
Magnitude (Debye)      :      3.06015

Rotational constants in cm-1:     0.303572     0.135185     0.098519
Rotational constants in MHz :  9100.846149  4052.756012  2953.539431

                             ****ORCA TERMINATED NORMALLY****
TOTAL RUN TIME: 0 days 0 hours 0 minutes 19 seconds 450 msec
