                         Program Version 5.0.0 -  RELEASE  -
|  1> !wB97X-D3 RIJCOSX def2-TZVPD def2/J TightSCF
|  2> *xyz 0 1
|  3> C          3.93993        0.32036       -4.36773
|  4> C          5.10585        0.66802       -5.30546
|  5> O          4.80913        1.15019       -6.41436
|  6> F          6.26737        0.56500       -4.81948
|  7> H          3.01376        0.44480       -4.88890
|  8> H          3.96058        0.96928       -3.51722
|  9> H          4.03331       -0.69517       -4.04388
| 10> *
| 11>
| 12> %MaxCore 64000
| 13>
| 14> %pal nprocs 18
| 15> end
| 16>
| 17> %scf
| 18>   MaxIter 150
| 19> end
| 20>
| 21>
| 22>                          ****END OF INPUT****

CARTESIAN COORDINATES (ANGSTROEM)
---------------------------------
  C      3.939930    0.320360   -4.367730
  C      5.105850    0.668020   -5.305460
  O      4.809130    1.150190   -6.414360
  F      6.267370    0.565000   -4.819480
  H      3.013760    0.444800   -4.888900
  H      3.960580    0.969280   -3.517220
  H      4.033310   -0.695170   -4.043880

 Total Charge           Charge          ....    0
 Multiplicity           Mult            ....    1
 Number of Electrons    NEL             ....   32
 Basis Dimension        Dim             ....  181

ORBITAL ENERGIES
----------------

  NO   OCC          E(Eh)            E(eV)
   0   2.0000     -24.856422      -676.3776
   1   2.0000     -19.240626      -523.5640
   2   2.0000     -10.460569      -284.6466
   3   2.0000     -10.299027      -280.2508
   4   2.0000      -1.433534       -39.0084
   5   2.0000      -1.158225       -31.5169
   6   2.0000      -0.886587       -24.1253
   7   2.0000      -0.766674       -20.8622
   8   2.0000      -0.652742       -17.7620
   9   2.0000      -0.648547       -17.6479
  10   2.0000      -0.609733       -16.5917
  11   2.0000      -0.543773       -14.7968
  12   2.0000      -0.533221       -14.5097
  13   2.0000      -0.502003       -13.6602
  14   2.0000      -0.456738       -12.4285
  15   2.0000      -0.393116       -10.6972
  16   0.0000       0.054218         1.4754
  17   0.0000       0.064353         1.7511
  18   0.0000       0.093790         2.5521
  19   0.0000       0.106853         2.9076
  20   0.0000       0.115779         3.1505

MULLIKEN ATOMIC CHARGES
-----------------------
   0 C :   -0.808849
   1 C :    0.718425
   2 O :   -0.539828
   3 F :   -0.221023
   4 H :    0.270446
   5 H :    0.282020
   6 H :    0.298809
Sum of atomic charges:   -0.0000000

LOEWDIN ATOMIC CHARGES
----------------------
   0 C :    0.008203
   1 C :   -0.506211
   2 O :    0.074708
   3 F :    0.189629
   4 H :    0.079027
   5 H :    0.079182
   6 H :    0.075463

  Mayer bond orders larger than 0.100000
B(  0-C ,  1-C ) :   0.8704 B(  0-C ,  4-H ) :   0.9765 B(  0-C ,  5-H ) :   0.9103
B(  0-C ,  6-H ) :   0.9211 B(  1-C ,  2-O ) :   1.7120 B(  1-C ,  3-F ) :   0.9749

Dispersion correction           -0.000899961
FINAL SINGLE POINT ENERGY      -253.122872224109

DIPOLE MOMENT
-------------
                                X             Y             Z
Electronic contribution:      4.77943       0.67386      -1.56708
Nuclear contribution   :     -5.09247      -1.11188       2.59376
                        -----------------------------------------
Total Dipole Moment    :     -0.31303      -0.43802       1.02669
                        -----------------------------------------
Magnitude (a.u.)       :      1.15928
Magnitude (Debye)      :      2.94666

Rotational constants in cm-1:     0.367940     0.321271     0.177147
Rotational constants in MHz : 11030.570495  9631.458923  5310.737691

                             ****ORCA TERMINATED NORMALLY****
TOTAL RUN TIME: 0 days 0 hours 0 minutes 11 seconds 608 msec
