                         Program Version 5.0.0 -  RELEASE  -
|  1> !wB97X-D3 RIJCOSX def2-TZVPD def2/J TightSCF
|  2> *xyz 0 1
|  3> C          3.90595        2.81985       -3.75292
|  4> N          5.29562        3.13151       -4.10533
|  5> C          5.70862        3.46889       -5.32419
|  6> C          6.90470        3.03895       -5.71708
|  7> N          4.98188        4.29357       -6.09746
|  8> H          5.00055        4.10131       -7.08776
|  9> H          4.08469        4.59690       -5.73965
| 10> H          5.96336        2.52611       -3.64239
| 11> H          7.04716        2.06686       -5.47360
| 12> H          7.19815        3.30799       -6.64523
| 13> H          3.24866        3.48801       -4.26909
| 14> H          3.77188        2.93227       -2.69732
| 15> H          3.68381        1.81198       -4.03533
| 16> *
| 17>
| 18> %MaxCore 64000
| 19>
| 20> %pal nprocs 18
| 21> end
| 22>
| 23> %scf
| 24>   MaxIter 150
| 25> end
| 26>
| 27>
| 28>                          ****END OF INPUT****

CARTESIAN COORDINATES (ANGSTROEM)
---------------------------------
  C      3.905950    2.819850   -3.752920
  N      5.295620    3.131510   -4.105330
  C      5.708620    3.468890   -5.324190
  C      6.904700    3.038950   -5.717080
  N      4.981880    4.293570   -6.097460
  H      5.000550    4.101310   -7.087760
  H      4.084690    4.596900   -5.739650
  H      5.963360    2.526110   -3.642390
  H      7.047160    2.066860   -5.473600
  H      7.198150    3.307990   -6.645230
  H      3.248660    3.488010   -4.269090
  H      3.771880    2.932270   -2.697320
  H      3.683810    1.811980   -4.035330

 Total Charge           Charge          ....    0
 Multiplicity           Mult            ....    1
 Number of Electrons    NEL             ....   40
 Basis Dimension        Dim             ....  257

ORBITAL ENERGIES
----------------

  NO   OCC          E(Eh)            E(eV)
   0   2.0000     -14.427515      -392.5927
   1   2.0000     -14.426221      -392.5574
   2   2.0000     -10.326092      -280.9872
   3   2.0000     -10.306943      -280.4662
   4   2.0000     -10.185804      -277.1698
   5   2.0000      -1.089708       -29.6525
   6   2.0000      -1.003667       -27.3112
   7   2.0000      -0.862689       -23.4750
   8   2.0000      -0.786774       -21.4092
   9   2.0000      -0.703273       -19.1370
  10   2.0000      -0.637858       -17.3570
  11   2.0000      -0.594599       -16.1799
  12   2.0000      -0.581387       -15.8204
  13   2.0000      -0.553678       -15.0663
  14   2.0000      -0.505132       -13.7453
  15   2.0000      -0.490668       -13.3517
  16   2.0000      -0.482641       -13.1333
  17   2.0000      -0.442403       -12.0384
  18   2.0000      -0.354841        -9.6557
  19   2.0000      -0.264494        -7.1972
  20   0.0000       0.060119         1.6359
  21   0.0000       0.090239         2.4555
  22   0.0000       0.096556         2.6274
  23   0.0000       0.117701         3.2028
  24   0.0000       0.123387         3.3575

MULLIKEN ATOMIC CHARGES
-----------------------
   0 C :   -0.916191
   1 N :   -0.235508
   2 C :    0.688970
   3 C :   -1.325217
   4 N :   -0.456312
   5 H :    0.233379
   6 H :    0.212562
   7 H :    0.244651
   8 H :    0.305407
   9 H :    0.352780
  10 H :    0.313567
  11 H :    0.276338
  12 H :    0.305572
Sum of atomic charges:    0.0000000

LOEWDIN ATOMIC CHARGES
----------------------
   0 C :   -0.068077
   1 N :   -0.027611
   2 C :   -0.576425
   3 C :   -0.012695
   4 N :    0.120530
   5 H :    0.110472
   6 H :    0.089283
   7 H :    0.132033
   8 H :    0.012550
   9 H :    0.007264
  10 H :    0.062123
  11 H :    0.075092
  12 H :    0.075462

  Mayer bond orders larger than 0.100000
B(  0-C ,  1-N ) :   0.8547 B(  0-C ,  2-C ) :  -0.1092 B(  0-C , 10-H ) :   0.8813
B(  0-C , 11-H ) :   0.9501 B(  0-C , 12-H ) :   0.9262 B(  1-N ,  2-C ) :   1.2116
B(  1-N ,  3-C ) :   0.1074 B(  1-N ,  7-H ) :   0.8998 B(  2-C ,  3-C ) :   1.1543
B(  2-C ,  4-N ) :   1.0116 B(  3-C ,  4-N ) :   0.1163 B(  3-C ,  8-H ) :   0.9971
B(  3-C ,  9-H ) :   1.0094 B(  4-N ,  5-H ) :   0.9459 B(  4-N ,  6-H ) :   0.9217

Dispersion correction           -0.002460091
FINAL SINGLE POINT ENERGY      -228.607755069807

DIPOLE MOMENT
-------------
                                X             Y             Z
Electronic contribution:      0.92563       1.44438      -0.29017
Nuclear contribution   :     -2.30713      -1.79036       0.37856
                        -----------------------------------------
Total Dipole Moment    :     -1.38150      -0.34598       0.08839
                        -----------------------------------------
Magnitude (a.u.)       :      1.42691
Magnitude (Debye)      :      3.62691

Rotational constants in cm-1:     0.307513     0.139026     0.101190
Rotational constants in MHz :  9218.994719  4167.905268  3033.592538

                             ****ORCA TERMINATED NORMALLY****
TOTAL RUN TIME: 0 days 0 hours 0 minutes 16 seconds 888 msec
