                         Program Version 5.0.0 -  RELEASE  -
|  1> !wB97X-D3 RIJCOSX def2-TZVPD def2/J TightSCF
|  2> *xyz 0 1
|  3> C          3.90595        2.81985       -3.75292
|  4> N          5.29562        3.13151       -4.10533
|  5> C          5.70862        3.46889       -5.32419
|  6> N          6.90470        3.03895       -5.71708
|  7> C          4.98188        4.29357       -6.09746
|  8> H          5.00055        4.10131       -7.08776
|  9> H          4.08469        4.59690       -5.73965
| 10> H          5.96336        2.52611       -3.64239
| 11> H          7.04716        2.06686       -5.47360
| 12> H          7.19815        3.30799       -6.64523
| 13> H          3.24866        3.48801       -4.26909
| 14> H          3.77188        2.93227       -2.69732
| 15> H          3.68381        1.81198       -4.03533
| 16> *
| 17>
| 18> %MaxCore 64000
| 19>
| 20> %pal nprocs 18
| 21> end
| 22>
| 23> %scf
| 24>   MaxIter 150
| 25> end
| 26>
| 27>
| 28>                          ****END OF INPUT****

CARTESIAN COORDINATES (ANGSTROEM)
---------------------------------
  C      3.905950    2.819850   -3.752920
  N      5.295620    3.131510   -4.105330
  C      5.708620    3.468890   -5.324190
  N      6.904700    3.038950   -5.717080
  C      4.981880    4.293570   -6.097460
  H      5.000550    4.101310   -7.087760
  H      4.084690    4.596900   -5.739650
  H      5.963360    2.526110   -3.642390
  H      7.047160    2.066860   -5.473600
  H      7.198150    3.307990   -6.645230
  H      3.248660    3.488010   -4.269090
  H      3.771880    2.932270   -2.697320
  H      3.683810    1.811980   -4.035330

 Total Charge           Charge          ....    0
 Multiplicity           Mult            ....    1
 Number of Electrons    NEL             ....   40
 Basis Dimension        Dim             ....  257

ORBITAL ENERGIES
----------------

  NO   OCC          E(Eh)            E(eV)
   0   2.0000     -14.428731      -392.6257
   1   2.0000     -14.425962      -392.5504
   2   2.0000     -10.325111      -280.9606
   3   2.0000     -10.300646      -280.2948
   4   2.0000     -10.189835      -277.2795
   5   2.0000      -1.094626       -29.7863
   6   2.0000      -1.005282       -27.3551
   7   2.0000      -0.838951       -22.8290
   8   2.0000      -0.810959       -22.0673
   9   2.0000      -0.674339       -18.3497
  10   2.0000      -0.643684       -17.5155
  11   2.0000      -0.625717       -17.0266
  12   2.0000      -0.555532       -15.1168
  13   2.0000      -0.547058       -14.8862
  14   2.0000      -0.517363       -14.0782
  15   2.0000      -0.484858       -13.1937
  16   2.0000      -0.474909       -12.9229
  17   2.0000      -0.445459       -12.1216
  18   2.0000      -0.355892        -9.6843
  19   2.0000      -0.264551        -7.1988
  20   0.0000       0.062181         1.6920
  21   0.0000       0.087319         2.3761
  22   0.0000       0.099097         2.6966
  23   0.0000       0.115481         3.1424
  24   0.0000       0.125535         3.4160

MULLIKEN ATOMIC CHARGES
-----------------------
   0 C :   -0.845015
   1 N :   -0.249160
   2 C :    0.651573
   3 N :   -0.498438
   4 C :   -1.301909
   5 H :    0.304574
   6 H :    0.375236
   7 H :    0.236207
   8 H :    0.212200
   9 H :    0.237439
  10 H :    0.319699
  11 H :    0.275558
  12 H :    0.282038
Sum of atomic charges:    0.0000000

LOEWDIN ATOMIC CHARGES
----------------------
   0 C :   -0.062727
   1 N :   -0.029408
   2 C :   -0.583984
   3 N :    0.108836
   4 C :    0.002449
   5 H :    0.009077
   6 H :   -0.001231
   7 H :    0.127163
   8 H :    0.103048
   9 H :    0.108174
  10 H :    0.067256
  11 H :    0.075138
  12 H :    0.076209

  Mayer bond orders larger than 0.100000
B(  0-C ,  1-N ) :   0.8301 B(  0-C , 10-H ) :   0.8835 B(  0-C , 11-H ) :   0.9395
B(  0-C , 12-H ) :   0.9183 B(  1-N ,  2-C ) :   1.1219 B(  1-N ,  7-H ) :   0.9130
B(  2-C ,  3-N ) :   1.0191 B(  2-C ,  4-C ) :   1.3502 B(  3-N ,  4-C ) :   0.1188
B(  3-N ,  8-H ) :   0.9688 B(  3-N ,  9-H ) :   0.9222 B(  4-C ,  5-H ) :   1.0352
B(  4-C ,  6-H ) :   0.8623

Dispersion correction           -0.002442571
FINAL SINGLE POINT ENERGY      -228.611266031052

DIPOLE MOMENT
-------------
                                X             Y             Z
Electronic contribution:      2.78764       0.25047       0.00707
Nuclear contribution   :     -2.69659      -1.53624       0.30152
                        -----------------------------------------
Total Dipole Moment    :      0.09105      -1.28577       0.30858
                        -----------------------------------------
Magnitude (a.u.)       :      1.32541
Magnitude (Debye)      :      3.36893

Rotational constants in cm-1:     0.320409     0.134796     0.100241
Rotational constants in MHz :  9605.632807  4041.079317  3005.150506

                             ****ORCA TERMINATED NORMALLY****
TOTAL RUN TIME: 0 days 0 hours 0 minutes 19 seconds 898 msec
