                         Program Version 5.0.0 -  RELEASE  -
|  1> !wB97X-D3 RIJCOSX def2-TZVPD def2/J TightSCF xyzfile
|  2>
|  3> *xyzfile 0 1 D3.xyz
|  4>
|  5> %MaxCore 64000
|  6>
|  7> %pal nprocs 18
|  8> end
|  9>
| 10> %scf
| 11>   MaxIter 150
| 12> end
| 13>
| 14>
| 15>                          ****END OF INPUT****

CARTESIAN COORDINATES (ANGSTROEM)
---------------------------------
  C      3.905947    2.819855   -3.752920
  N      5.295615    3.131515   -4.105334
  C      3.803511    1.374716   -3.260807
  C      3.939934    0.320362   -4.367729
  H      4.105043   -0.655085   -3.907733
  H      3.022801    0.280517   -4.957117
  C      5.105846    0.668022   -5.305463
  C      5.708619    3.468885   -5.324190
  N      6.904696    3.038954   -5.717084
  C      4.981884    4.293570   -6.097457
  H      5.000546    4.101311   -7.087761
  H      4.084693    4.596899   -5.739652
  H      5.963358    2.526112   -3.642391
  H      7.047164    2.066861   -5.473604
  H      7.198145    3.307994   -6.645225
  H      3.282025    2.949187   -4.640259
  H      3.565254    3.514574   -2.982523
  H      4.574833    1.215157   -2.500443
  H      2.843514    1.260845   -2.751465
  F      4.809132    1.150187   -6.414361
  O      6.267366    0.564999   -4.819481

 Total Charge           Charge          ....    0
 Multiplicity           Mult            ....    1
 Number of Electrons    NEL             ....   78
 Basis Dimension        Dim             ....  475

ORBITAL ENERGIES
----------------

  NO   OCC          E(Eh)            E(eV)
   0   2.0000     -24.876875      -676.9342
   1   2.0000     -19.256952      -524.0083
   2   2.0000     -14.425734      -392.5442
   3   2.0000     -14.401887      -391.8953
   4   2.0000     -10.481092      -285.2050
   5   2.0000     -10.321956      -280.8747
   6   2.0000     -10.321161      -280.8531
   7   2.0000     -10.317499      -280.7534
   8   2.0000     -10.308189      -280.5001
   9   2.0000     -10.183509      -277.1074
  10   2.0000      -1.461269       -39.7632
  11   2.0000      -1.174640       -31.9636
  12   2.0000      -1.089477       -29.6462
  13   2.0000      -1.004003       -27.3203
  14   2.0000      -0.937099       -25.4998
  15   2.0000      -0.854603       -23.2549
  16   2.0000      -0.818224       -22.2650
  17   2.0000      -0.790243       -21.5036
  18   2.0000      -0.744781       -20.2665
  19   2.0000      -0.680510       -18.5176
  20   2.0000      -0.675232       -18.3740
  21   2.0000      -0.664270       -18.0757
  22   2.0000      -0.647868       -17.6294
  23   2.0000      -0.618209       -16.8223
  24   2.0000      -0.607333       -16.5264
  25   2.0000      -0.586158       -15.9502
  26   2.0000      -0.575265       -15.6537
  27   2.0000      -0.536040       -14.5864
  28   2.0000      -0.527866       -14.3640
  29   2.0000      -0.508099       -13.8261
  30   2.0000      -0.490951       -13.3594
  31   2.0000      -0.488078       -13.2813
  32   2.0000      -0.473830       -12.8936
  33   2.0000      -0.467002       -12.7078
  34   2.0000      -0.453824       -12.3492
  35   2.0000      -0.429963       -11.6999
  36   2.0000      -0.410184       -11.1617
  37   2.0000      -0.346043        -9.4163
  38   2.0000      -0.258996        -7.0476
  39   0.0000       0.028649         0.7796
  40   0.0000       0.058059         1.5799
  41   0.0000       0.076879         2.0920
  42   0.0000       0.079146         2.1537
  43   0.0000       0.085870         2.3366

MULLIKEN ATOMIC CHARGES
-----------------------
   0 C :   -0.665004
   1 N :   -0.151501
   2 C :   -0.617696
   3 C :   -0.525082
   4 H :    0.289056
   5 H :    0.322445
   6 C :    0.923581
   7 C :    0.385919
   8 N :   -0.427864
   9 C :   -1.571762
  10 H :    0.392526
  11 H :    0.466175
  12 H :    0.379029
  13 H :    0.325054
  14 H :    0.250857
  15 H :    0.357153
  16 H :    0.218967
  17 H :    0.321597
  18 H :    0.248223
  19 F :   -0.239641
  20 O :   -0.682031
Sum of atomic charges:    0.0000000

LOEWDIN ATOMIC CHARGES
----------------------
   0 C :   -0.172269
   1 N :    0.031870
   2 C :   -0.173962
   3 C :   -0.084816
   4 H :    0.125381
   5 H :    0.118917
   6 C :   -0.456768
   7 C :   -0.592161
   8 N :    0.128921
   9 C :   -0.001606
  10 H :    0.011684
  11 H :    0.003886
  12 H :    0.129213
  13 H :    0.059145
  14 H :    0.114511
  15 H :    0.119104
  16 H :    0.118649
  17 H :    0.119251
  18 H :    0.115855
  19 F :    0.241741
  20 O :    0.043455

  Mayer bond orders larger than 0.100000
B(  0-C ,  1-N ) :   0.8046 B(  0-C ,  2-C ) :   0.9244 B(  0-C ,  9-C ) :   0.1661
B(  0-C , 15-H ) :   0.8892 B(  0-C , 16-H ) :   1.0101 B(  1-N ,  7-C ) :   1.1509
B(  1-N , 12-H ) :   0.6835 B(  2-C ,  3-C ) :   0.9034 B(  2-C , 17-H ) :   0.8953
B(  2-C , 18-H ) :   1.0082 B(  3-C ,  4-H ) :   0.9078 B(  3-C ,  5-H ) :   0.9377
B(  3-C ,  6-C ) :   0.9478 B(  6-C , 19-F ) :   0.9019 B(  6-C , 20-O ) :   1.4322
B(  7-C ,  8-N ) :   0.9023 B(  7-C ,  9-C ) :   1.2497 B(  7-C , 20-O ) :   0.1034
B(  8-N ,  9-C ) :   0.1090 B(  8-N , 13-H ) :   0.7742 B(  8-N , 14-H ) :   0.8792
B(  9-C , 10-H ) :   0.8894 B(  9-C , 11-H ) :   0.8135

Dispersion correction           -0.008980838
FINAL SINGLE POINT ENERGY      -519.844923290611

DIPOLE MOMENT
-------------
                                X             Y             Z
Electronic contribution:      3.55168      -4.89620      -4.87658
Nuclear contribution   :     -4.64021       3.37029       5.31478
                        -----------------------------------------
Total Dipole Moment    :     -1.08853      -1.52592       0.43820
                        -----------------------------------------
Magnitude (a.u.)       :      1.92493
Magnitude (Debye)      :      4.89277

Rotational constants in cm-1:     0.061077     0.043622     0.034103
Rotational constants in MHz :  1831.041375  1307.759852  1022.388536

                             ****ORCA TERMINATED NORMALLY****
TOTAL RUN TIME: 0 days 0 hours 1 minutes 32 seconds 929 msec
