                         Program Version 5.0.0 -  RELEASE  -
|  1> !wB97X-D3 RIJCOSX def2-TZVPD def2/J TightSCF xyzfile
|  2>
|  3> *xyzfile 0 1 D5.xyz
|  4>
|  5> %MaxCore 64000
|  6>
|  7> %pal nprocs 18
|  8> end
|  9>
| 10> %scf
| 11>   MaxIter 150
| 12> end
| 13>
| 14>
| 15>                          ****END OF INPUT****

CARTESIAN COORDINATES (ANGSTROEM)
---------------------------------
  C      3.905947    2.819855   -3.752920
  N      5.295615    3.131515   -4.105334
  C      3.803511    1.374716   -3.260807
  C      3.939934    0.320362   -4.367729
  H      4.105043   -0.655085   -3.907733
  H      3.022801    0.280517   -4.957117
  C      5.105846    0.668022   -5.305463
  C      5.708619    3.468885   -5.324190
  C      6.904696    3.038954   -5.717084
  N      4.981884    4.293570   -6.097457
  H      5.000546    4.101311   -7.087761
  H      4.084693    4.596899   -5.739652
  H      5.963358    2.526112   -3.642391
  H      7.047164    2.066861   -5.473604
  H      7.198145    3.307994   -6.645225
  H      3.282025    2.949187   -4.640259
  H      3.565254    3.514574   -2.982523
  H      4.574833    1.215157   -2.500443
  H      2.843514    1.260845   -2.751465
  O      4.809132    1.150187   -6.414361
  F      6.267366    0.564999   -4.819481

 Total Charge           Charge          ....    0
 Multiplicity           Mult            ....    1
 Number of Electrons    NEL             ....   78
 Basis Dimension        Dim             ....  475

ORBITAL ENERGIES
----------------

  NO   OCC          E(Eh)            E(eV)
   0   2.0000     -24.859378      -676.4581
   1   2.0000     -19.240848      -523.5701
   2   2.0000     -14.428650      -392.6235
   3   2.0000     -14.417581      -392.3223
   4   2.0000     -10.459936      -284.6293
   5   2.0000     -10.323938      -280.9286
   6   2.0000     -10.316934      -280.7380
   7   2.0000     -10.314716      -280.6777
   8   2.0000     -10.308579      -280.5107
   9   2.0000     -10.171573      -276.7826
  10   2.0000      -1.440406       -39.1954
  11   2.0000      -1.161146       -31.5964
  12   2.0000      -1.089632       -29.6504
  13   2.0000      -1.005255       -27.3544
  14   2.0000      -0.938229       -25.5305
  15   2.0000      -0.859889       -23.3988
  16   2.0000      -0.815423       -22.1888
  17   2.0000      -0.770956       -20.9788
  18   2.0000      -0.733884       -19.9700
  19   2.0000      -0.706217       -19.2171
  20   2.0000      -0.663761       -18.0618
  21   2.0000      -0.660758       -17.9802
  22   2.0000      -0.624695       -16.9988
  23   2.0000      -0.613070       -16.6825
  24   2.0000      -0.601617       -16.3708
  25   2.0000      -0.589466       -16.0402
  26   2.0000      -0.566770       -15.4226
  27   2.0000      -0.542617       -14.7654
  28   2.0000      -0.521360       -14.1869
  29   2.0000      -0.503627       -13.7044
  30   2.0000      -0.492230       -13.3943
  31   2.0000      -0.481237       -13.0951
  32   2.0000      -0.470135       -12.7930
  33   2.0000      -0.461545       -12.5593
  34   2.0000      -0.455525       -12.3955
  35   2.0000      -0.420785       -11.4502
  36   2.0000      -0.390838       -10.6352
  37   2.0000      -0.355285        -9.6678
  38   2.0000      -0.253461        -6.8970
  39   0.0000       0.047460         1.2915
  40   0.0000       0.059887         1.6296
  41   0.0000       0.072447         1.9714
  42   0.0000       0.078489         2.1358
  43   0.0000       0.088903         2.4192

MULLIKEN ATOMIC CHARGES
-----------------------
   0 C :   -0.596324
   1 N :   -0.229937
   2 C :   -0.661617
   3 C :   -0.488433
   4 H :    0.307970
   5 H :    0.296700
   6 C :    0.798579
   7 C :    0.528383
   8 C :   -1.277839
   9 N :   -0.503802
  10 H :    0.230712
  11 H :    0.242323
  12 H :    0.305625
  13 H :    0.426798
  14 H :    0.348523
  15 H :    0.346905
  16 H :    0.198210
  17 H :    0.325737
  18 H :    0.252790
  19 O :   -0.562759
  20 F :   -0.288545
Sum of atomic charges:    0.0000000

LOEWDIN ATOMIC CHARGES
----------------------
   0 C :   -0.178650
   1 N :    0.031498
   2 C :   -0.178637
   3 C :   -0.087438
   4 H :    0.119068
   5 H :    0.124068
   6 C :   -0.477611
   7 C :   -0.580253
   8 C :   -0.005265
   9 N :    0.137104
  10 H :    0.113626
  11 H :    0.095876
  12 H :    0.130407
  13 H :   -0.000354
  14 H :    0.023572
  15 H :    0.118610
  16 H :    0.114358
  17 H :    0.117302
  18 H :    0.114409
  19 O :    0.095561
  20 F :    0.172749

  Mayer bond orders larger than 0.100000
B(  0-C ,  1-N ) :   0.8457 B(  0-C ,  2-C ) :   0.9389 B(  0-C ,  9-N ) :   0.1119
B(  0-C , 15-H ) :   0.8563 B(  0-C , 16-H ) :   1.0692 B(  1-N ,  7-C ) :   1.0260
B(  1-N , 12-H ) :   0.7628 B(  2-C ,  3-C ) :   0.9013 B(  2-C ,  6-C ) :   0.1064
B(  2-C , 17-H ) :   0.9148 B(  2-C , 18-H ) :   0.9974 B(  3-C ,  4-H ) :   0.9156
B(  3-C ,  5-H ) :   0.9508 B(  3-C ,  6-C ) :   0.9425 B(  6-C , 19-O ) :   1.6057
B(  6-C , 20-F ) :   0.8180 B(  7-C ,  8-C ) :   1.4735 B(  7-C ,  9-N ) :   0.9034
B(  7-C , 14-H ) :  -0.1407 B(  8-C , 13-H ) :   0.7764 B(  8-C , 14-H ) :   1.1467
B(  9-N , 10-H ) :   0.9120 B(  9-N , 11-H ) :   0.8865

Dispersion correction           -0.008992253
FINAL SINGLE POINT ENERGY      -519.831246994212

DIPOLE MOMENT
-------------
                                X             Y             Z
Electronic contribution:      4.38769      -4.69702      -2.59525
Nuclear contribution   :     -6.05797       3.87976       3.55209
                        -----------------------------------------
Total Dipole Moment    :     -1.67028      -0.81726       0.95683
                        -----------------------------------------
Magnitude (a.u.)       :      2.09124
Magnitude (Debye)      :      5.31550

Rotational constants in cm-1:     0.061282     0.043164     0.033679
Rotational constants in MHz :  1837.191639  1294.028651  1009.659886

                             ****ORCA TERMINATED NORMALLY****
TOTAL RUN TIME: 0 days 0 hours 1 minutes 19 seconds 366 msec
