                         Program Version 5.0.0 -  RELEASE  -
|  1> !PBE0 D3BJ RIJCOSX def2-TZVP def2/J TightSCF
|  2> *xyz -1 1
|  3> C         -0.87096        0.24804       -2.66280
|  4> C         -0.47749        0.60819       -4.10105
|  5> H          0.20677        1.45830       -4.11875
|  6> H         -1.36844        0.92942       -4.64785
|  7> C          0.18467       -0.50664       -4.91676
|  8> O         -0.15869       -1.70109       -4.65798
|  9> O          1.05594       -0.17441       -5.74037
| 10> H         -1.54056       -0.58646       -2.67455
| 11> H         -1.35339        1.08600       -2.20455
| 12> H          0.00660       -0.00662       -2.10609
| 13> *
| 14>
| 15> %MaxCore 64000
| 16>
| 17> %pal nprocs 4
| 18> end
| 19>
| 20> %scf
| 21>   MaxIter 150
| 22> end
| 23>
| 24>
| 25>                          ****END OF INPUT****

CARTESIAN COORDINATES (ANGSTROEM)
---------------------------------
  C     -0.870960    0.248040   -2.662800
  C     -0.477490    0.608190   -4.101050
  H      0.206770    1.458300   -4.118750
  H     -1.368440    0.929420   -4.647850
  C      0.184670   -0.506640   -4.916760
  O     -0.158690   -1.701090   -4.657980
  O      1.055940   -0.174410   -5.740370
  H     -1.540560   -0.586460   -2.674550
  H     -1.353390    1.086000   -2.204550
  H      0.006600   -0.006620   -2.106090

 Total Charge           Charge          ....   -1
 Multiplicity           Mult            ....    1
 Number of Electrons    NEL             ....   40
 Basis Dimension        Dim             ....  185

ORBITAL ENERGIES
----------------

  NO   OCC          E(Eh)            E(eV)
   0   2.0000     -18.929291      -515.0922
   1   2.0000     -18.926220      -515.0086
   2   2.0000     -10.091911      -274.6149
   3   2.0000     -10.050319      -273.4831
   4   2.0000     -10.041784      -273.2508
   5   2.0000      -0.839005       -22.8305
   6   2.0000      -0.743914       -20.2429
   7   2.0000      -0.621415       -16.9095
   8   2.0000      -0.489895       -13.3307
   9   2.0000      -0.327484        -8.9113
  10   2.0000      -0.302087        -8.2202
  11   2.0000      -0.269525        -7.3342
  12   2.0000      -0.236723        -6.4416
  13   2.0000      -0.221773        -6.0347
  14   2.0000      -0.213984        -5.8228
  15   2.0000      -0.184414        -5.0182
  16   2.0000      -0.164906        -4.4873
  17   2.0000      -0.051000        -1.3878
  18   2.0000      -0.045130        -1.2280
  19   2.0000      -0.031421        -0.8550
  20   0.0000       0.192965         5.2508
  21   0.0000       0.235176         6.3995
  22   0.0000       0.246969         6.7204
  23   0.0000       0.257747         7.0136
  24   0.0000       0.272099         7.4042

MULLIKEN ATOMIC CHARGES
-----------------------
   0 C :   -0.315843
   1 C :   -0.169145
   2 H :    0.054313
   3 H :    0.046885
   4 C :    0.206634
   5 O :   -0.549420
   6 O :   -0.518759
   7 H :    0.100162
   8 H :    0.058801
   9 H :    0.086372
Sum of atomic charges:   -1.0000000

LOEWDIN ATOMIC CHARGES
----------------------
   0 C :   -0.332347
   1 C :   -0.298663
   2 H :    0.122583
   3 H :    0.124193
   4 C :   -0.702474
   5 O :   -0.131400
   6 O :   -0.094872
   7 H :    0.111737
   8 H :    0.093010
   9 H :    0.108233

  Mayer bond orders larger than 0.100000
B(  0-C ,  1-C ) :   0.9693 B(  0-C ,  7-H ) :   0.9696 B(  0-C ,  8-H ) :   0.9637
B(  0-C ,  9-H ) :   0.9774 B(  1-C ,  2-H ) :   0.9542 B(  1-C ,  3-H ) :   0.9509
B(  1-C ,  4-C ) :   0.9610 B(  4-C ,  5-O ) :   1.8320 B(  4-C ,  6-O ) :   1.8892

Dispersion correction           -0.005423886
FINAL SINGLE POINT ENERGY      -267.642272461194

DIPOLE MOMENT
-------------
                                X             Y             Z
Electronic contribution:      2.67242      -2.96945      -4.62713
Nuclear contribution   :     -3.54611       4.15440       5.90446
                        -----------------------------------------
Total Dipole Moment    :     -0.87369       1.18495       1.27733
                        -----------------------------------------
Magnitude (a.u.)       :      1.94911
Magnitude (Debye)      :      4.95425

Rotational constants in cm-1:     0.332789     0.132085     0.101080
Rotational constants in MHz :  9976.755824  3959.803182  3030.288811

                             ****ORCA TERMINATED NORMALLY****
TOTAL RUN TIME: 0 days 0 hours 0 minutes 20 seconds 87 msec
