                         Program Version 5.0.0 -  RELEASE  -
|  1> !PBE0 D3BJ RIJCOSX def2-TZVP def2/J TightSCF
|  2> *xyz 1 1
|  3> C          2.48645       -2.67712       -2.56345
|  4> C          3.03764       -2.36672       -3.92351
|  5> N          2.28036       -2.45441       -4.96769
|  6> N          4.32174       -2.01793       -4.01664
|  7> H          4.87994       -1.91167       -3.17382
|  8> H          4.71015       -1.67088       -4.88356
|  9> H          1.27042       -2.41265       -4.86614
| 10> H          2.58183       -2.05528       -5.84688
| 11> C          2.49799       -1.46946       -1.61030
| 12> H          1.47259       -3.05153       -2.69437
| 13> H          3.08320       -3.49064       -2.14147
| 14> H          1.91240       -0.67831       -2.02991
| 15> H          3.50450       -1.13364       -1.47227
| 16> H          2.08509       -1.75655       -0.66585
| 17> *
| 18>
| 19> %MaxCore 64000
| 20>
| 21> %pal nprocs 4
| 22> end
| 23>
| 24> %scf
| 25>   MaxIter 150
| 26> end
| 27>
| 28>
| 29>                          ****END OF INPUT****

CARTESIAN COORDINATES (ANGSTROEM)
---------------------------------
  C      2.486450   -2.677120   -2.563450
  C      3.037640   -2.366720   -3.923510
  N      2.280360   -2.454410   -4.967690
  N      4.321740   -2.017930   -4.016640
  H      4.879940   -1.911670   -3.173820
  H      4.710150   -1.670880   -4.883560
  H      1.270420   -2.412650   -4.866140
  H      2.581830   -2.055280   -5.846880
  C      2.497990   -1.469460   -1.610300
  H      1.472590   -3.051530   -2.694370
  H      3.083200   -3.490640   -2.141470
  H      1.912400   -0.678310   -2.029910
  H      3.504500   -1.133640   -1.472270
  H      2.085090   -1.756550   -0.665850

 Total Charge           Charge          ....    1
 Multiplicity           Mult            ....    1
 Number of Electrons    NEL             ....   40
 Basis Dimension        Dim             ....  209

ORBITAL ENERGIES
----------------

  NO   OCC          E(Eh)            E(eV)
   0   2.0000     -14.632217      -398.1629
   1   2.0000     -14.627142      -398.0248
   2   2.0000     -10.545432      -286.9558
   3   2.0000     -10.420739      -283.5627
   4   2.0000     -10.377133      -282.3762
   5   2.0000      -1.235471       -33.6189
   6   2.0000      -1.137242       -30.9459
   7   2.0000      -0.992835       -27.0164
   8   2.0000      -0.886475       -24.1222
   9   2.0000      -0.834173       -22.6990
  10   2.0000      -0.791252       -21.5311
  11   2.0000      -0.766652       -20.8617
  12   2.0000      -0.716112       -19.4864
  13   2.0000      -0.666501       -18.1364
  14   2.0000      -0.637259       -17.3407
  15   2.0000      -0.622560       -16.9407
  16   2.0000      -0.562136       -15.2965
  17   2.0000      -0.550947       -14.9920
  18   2.0000      -0.540794       -14.7158
  19   2.0000      -0.508862       -13.8469
  20   0.0000      -0.208057        -5.6615
  21   0.0000      -0.150130        -4.0852
  22   0.0000      -0.106733        -2.9044
  23   0.0000      -0.104345        -2.8394
  24   0.0000      -0.072164        -1.9637

MULLIKEN ATOMIC CHARGES
-----------------------
   0 C :   -0.246343
   1 C :    0.313155
   2 N :   -0.324566
   3 N :   -0.358698
   4 H :    0.303494
   5 H :    0.285530
   6 H :    0.305318
   7 H :    0.282396
   8 C :   -0.347881
   9 H :    0.149407
  10 H :    0.185280
  11 H :    0.146644
  12 H :    0.126533
  13 H :    0.179731
Sum of atomic charges:    1.0000000

LOEWDIN ATOMIC CHARGES
----------------------
   0 C :   -0.221212
   1 C :   -0.294985
   2 N :    0.126043
   3 N :    0.104503
   4 H :    0.208720
   5 H :    0.197012
   6 H :    0.214188
   7 H :    0.201393
   8 C :   -0.263396
   9 H :    0.159911
  10 H :    0.173537
  11 H :    0.130542
  12 H :    0.122787
  13 H :    0.140957

  Mayer bond orders larger than 0.100000
B(  0-C ,  1-C ) :   0.9966 B(  0-C ,  8-C ) :   0.9852 B(  0-C ,  9-H ) :   0.9605
B(  0-C , 10-H ) :   0.9281 B(  1-C ,  2-N ) :   1.4995 B(  1-C ,  3-N ) :   1.4440
B(  2-N ,  6-H ) :   0.8750 B(  2-N ,  7-H ) :   0.8848 B(  3-N ,  4-H ) :   0.8826
B(  3-N ,  5-H ) :   0.8853 B(  8-C , 11-H ) :   0.9587 B(  8-C , 12-H ) :   0.9670
B(  8-C , 13-H ) :   0.9572

Dispersion correction           -0.008508074
FINAL SINGLE POINT ENERGY      -228.850358326168

DIPOLE MOMENT
-------------
                                X             Y             Z
Electronic contribution:      1.05708      -1.06439      -3.91751
Nuclear contribution   :     -0.84604       1.34287       2.92710
                        -----------------------------------------
Total Dipole Moment    :      0.21104       0.27849      -0.99041
                        -----------------------------------------
Magnitude (a.u.)       :      1.05024
Magnitude (Debye)      :      2.66949

Rotational constants in cm-1:     0.265816     0.126189     0.097583
Rotational constants in MHz :  7968.948902  3783.040103  2925.457702

                             ****ORCA TERMINATED NORMALLY****
TOTAL RUN TIME: 0 days 0 hours 0 minutes 26 seconds 33 msec
