                         Program Version 5.0.0 -  RELEASE  -
|  1> !PBE0 D3BJ RIJCOSX def2-TZVP def2/J TightSCF
|  2> *xyz 0 1
|  3> C         -0.87096        0.24804       -2.66280
|  4> C         -0.47749        0.60819       -4.10105
|  5> H          0.20677        1.45830       -4.11875
|  6> H         -1.36844        0.92942       -4.64785
|  7> C          0.18467       -0.50664       -4.91676
|  8> F         -0.15869       -1.70109       -4.65798
|  9> O          1.05594       -0.17441       -5.74037
| 10> H         -1.54056       -0.58646       -2.67455
| 11> H         -1.35339        1.08600       -2.20455
| 12> H          0.00660       -0.00662       -2.10609
| 13> *
| 14>
| 15> %MaxCore 64000
| 16>
| 17> %pal nprocs 4
| 18> end
| 19>
| 20> %scf
| 21>   MaxIter 150
| 22> end
| 23>
| 24>
| 25>                          ****END OF INPUT****

CARTESIAN COORDINATES (ANGSTROEM)
---------------------------------
  C     -0.870960    0.248040   -2.662800
  C     -0.477490    0.608190   -4.101050
  H      0.206770    1.458300   -4.118750
  H     -1.368440    0.929420   -4.647850
  C      0.184670   -0.506640   -4.916760
  F     -0.158690   -1.701090   -4.657980
  O      1.055940   -0.174410   -5.740370
  H     -1.540560   -0.586460   -2.674550
  H     -1.353390    1.086000   -2.204550
  H      0.006600   -0.006620   -2.106090

 Total Charge           Charge          ....    0
 Multiplicity           Mult            ....    1
 Number of Electrons    NEL             ....   40
 Basis Dimension        Dim             ....  185

ORBITAL ENERGIES
----------------

  NO   OCC          E(Eh)            E(eV)
   0   2.0000     -24.835745      -675.8150
   1   2.0000     -19.210750      -522.7511
   2   2.0000     -10.396542      -282.9043
   3   2.0000     -10.253657      -279.0162
   4   2.0000     -10.227022      -278.2914
   5   2.0000      -1.341427       -36.5021
   6   2.0000      -1.067336       -29.0437
   7   2.0000      -0.825502       -22.4630
   8   2.0000      -0.705816       -19.2062
   9   2.0000      -0.660711       -17.9789
  10   2.0000      -0.561621       -15.2825
  11   2.0000      -0.554818       -15.0974
  12   2.0000      -0.513448       -13.9716
  13   2.0000      -0.481301       -13.0969
  14   2.0000      -0.447518       -12.1776
  15   2.0000      -0.416129       -11.3235
  16   2.0000      -0.400550       -10.8995
  17   2.0000      -0.391116       -10.6428
  18   2.0000      -0.362209        -9.8562
  19   2.0000      -0.305590        -8.3155
  20   0.0000      -0.020056        -0.5458
  21   0.0000       0.035905         0.9770
  22   0.0000       0.082760         2.2520
  23   0.0000       0.102139         2.7793
  24   0.0000       0.108298         2.9469

MULLIKEN ATOMIC CHARGES
-----------------------
   0 C :   -0.352519
   1 C :   -0.227665
   2 H :    0.143281
   3 H :    0.129809
   4 C :    0.348485
   5 F :   -0.107089
   6 O :   -0.319856
   7 H :    0.125810
   8 H :    0.131505
   9 H :    0.128239
Sum of atomic charges:   -0.0000000

LOEWDIN ATOMIC CHARGES
----------------------
   0 C :   -0.300609
   1 C :   -0.261663
   2 H :    0.155955
   3 H :    0.154968
   4 C :   -0.496694
   5 F :    0.305434
   6 O :    0.078561
   7 H :    0.120601
   8 H :    0.122024
   9 H :    0.121423

  Mayer bond orders larger than 0.100000
B(  0-C ,  1-C ) :   0.9866 B(  0-C ,  7-H ) :   0.9665 B(  0-C ,  8-H ) :   0.9652
B(  0-C ,  9-H ) :   0.9719 B(  1-C ,  2-H ) :   0.9551 B(  1-C ,  3-H ) :   0.9306
B(  1-C ,  4-C ) :   1.0254 B(  4-C ,  5-F ) :   1.1462 B(  4-C ,  6-O ) :   2.0790

Dispersion correction           -0.005105651
FINAL SINGLE POINT ENERGY      -292.204464192714

DIPOLE MOMENT
-------------
                                X             Y             Z
Electronic contribution:      2.61768      -5.35871      -5.30761
Nuclear contribution   :     -3.42837       5.66737       6.17046
                        -----------------------------------------
Total Dipole Moment    :     -0.81069       0.30866       0.86285
                        -----------------------------------------
Magnitude (a.u.)       :      1.22352
Magnitude (Debye)      :      3.10994

Rotational constants in cm-1:     0.304660     0.130969     0.097716
Rotational constants in MHz :  9133.464515  3926.366384  2929.457090

                             ****ORCA TERMINATED NORMALLY****
TOTAL RUN TIME: 0 days 0 hours 0 minutes 18 seconds 746 msec
