                         Program Version 5.0.0 -  RELEASE  -
|  1> !PBE0 D3BJ RIJCOSX def2-TZVP def2/J TightSCF
|  2> *xyz 0 1
|  3> C          2.48645       -2.67712       -2.56345
|  4> C          3.03764       -2.36672       -3.92351
|  5> C          2.28036       -2.45441       -4.96769
|  6> N          4.32174       -2.01793       -4.01664
|  7> H          4.87994       -1.91167       -3.17382
|  8> H          4.71015       -1.67088       -4.88356
|  9> H          1.27042       -2.41265       -4.86614
| 10> H          2.58183       -2.05528       -5.84688
| 11> C          2.49799       -1.46946       -1.61030
| 12> H          1.47259       -3.05153       -2.69437
| 13> H          3.08320       -3.49064       -2.14147
| 14> H          1.91240       -0.67831       -2.02991
| 15> H          3.50450       -1.13364       -1.47227
| 16> H          2.08509       -1.75655       -0.66585
| 17> *
| 18>
| 19> %MaxCore 64000
| 20>
| 21> %pal nprocs 4
| 22> end
| 23>
| 24> %scf
| 25>   MaxIter 150
| 26> end
| 27>
| 28>
| 29>                          ****END OF INPUT****

CARTESIAN COORDINATES (ANGSTROEM)
---------------------------------
  C      2.486450   -2.677120   -2.563450
  C      3.037640   -2.366720   -3.923510
  C      2.280360   -2.454410   -4.967690
  N      4.321740   -2.017930   -4.016640
  H      4.879940   -1.911670   -3.173820
  H      4.710150   -1.670880   -4.883560
  H      1.270420   -2.412650   -4.866140
  H      2.581830   -2.055280   -5.846880
  C      2.497990   -1.469460   -1.610300
  H      1.472590   -3.051530   -2.694370
  H      3.083200   -3.490640   -2.141470
  H      1.912400   -0.678310   -2.029910
  H      3.504500   -1.133640   -1.472270
  H      2.085090   -1.756550   -0.665850

 Total Charge           Charge          ....    0
 Multiplicity           Mult            ....    1
 Number of Electrons    NEL             ....   40
 Basis Dimension        Dim             ....  209

ORBITAL ENERGIES
----------------

  NO   OCC          E(Eh)            E(eV)
   0   2.0000     -14.382205      -391.3597
   1   2.0000     -10.240290      -278.6525
   2   2.0000     -10.219817      -278.0954
   3   2.0000     -10.207472      -277.7594
   4   2.0000     -10.147482      -276.1270
   5   2.0000      -0.950700       -25.8699
   6   2.0000      -0.802213       -21.8293
   7   2.0000      -0.746782       -20.3210
   8   2.0000      -0.654745       -17.8165
   9   2.0000      -0.583639       -15.8816
  10   2.0000      -0.539137       -14.6707
  11   2.0000      -0.491599       -13.3771
  12   2.0000      -0.449637       -12.2352
  13   2.0000      -0.444309       -12.0903
  14   2.0000      -0.400495       -10.8980
  15   2.0000      -0.394637       -10.7386
  16   2.0000      -0.365672        -9.9505
  17   2.0000      -0.344967        -9.3870
  18   2.0000      -0.336704        -9.1622
  19   2.0000      -0.206376        -5.6158
  20   0.0000       0.033574         0.9136
  21   0.0000       0.049997         1.3605
  22   0.0000       0.080872         2.2006
  23   0.0000       0.086933         2.3656
  24   0.0000       0.099476         2.7069

MULLIKEN ATOMIC CHARGES
-----------------------
   0 C :   -0.205079
   1 C :    0.189225
   2 C :   -0.391815
   3 N :   -0.474441
   4 H :    0.233014
   5 H :    0.235155
   6 H :    0.104854
   7 H :    0.080301
   8 C :   -0.341972
   9 H :    0.116571
  10 H :    0.108750
  11 H :    0.123630
  12 H :    0.096879
  13 H :    0.124927
Sum of atomic charges:   -0.0000000

LOEWDIN ATOMIC CHARGES
----------------------
   0 C :   -0.239346
   1 C :   -0.368561
   2 C :   -0.278400
   3 N :   -0.006086
   4 H :    0.168716
   5 H :    0.170755
   6 H :    0.110999
   7 H :    0.101288
   8 C :   -0.298186
   9 H :    0.148341
  10 H :    0.141707
  11 H :    0.120563
  12 H :    0.110883
  13 H :    0.117326

  Mayer bond orders larger than 0.100000
B(  0-C ,  1-C ) :   0.9927 B(  0-C ,  8-C ) :   0.9821 B(  0-C ,  9-H ) :   0.9698
B(  0-C , 10-H ) :   0.9576 B(  1-C ,  2-C ) :   1.8376 B(  1-C ,  3-N ) :   1.1567
B(  2-C ,  6-H ) :   0.9768 B(  2-C ,  7-H ) :   0.9813 B(  3-N ,  4-H ) :   0.9209
B(  3-N ,  5-H ) :   0.9137 B(  8-C , 11-H ) :   0.9729 B(  8-C , 12-H ) :   0.9732
B(  8-C , 13-H ) :   0.9711

Dispersion correction           -0.008847865
FINAL SINGLE POINT ENERGY      -212.386218883073

DIPOLE MOMENT
-------------
                                X             Y             Z
Electronic contribution:      1.56506      -0.86913      -2.12807
Nuclear contribution   :     -0.99743       1.27863       2.57190
                        -----------------------------------------
Total Dipole Moment    :      0.56763       0.40950       0.44383
                        -----------------------------------------
Magnitude (a.u.)       :      0.82878
Magnitude (Debye)      :      2.10659

Rotational constants in cm-1:     0.274050     0.130114     0.100964
Rotational constants in MHz :  8215.815505  3900.722919  3026.834930

                             ****ORCA TERMINATED NORMALLY****
TOTAL RUN TIME: 0 days 0 hours 0 minutes 25 seconds 297 msec
