                         Program Version 5.0.0 -  RELEASE  -
|  1> !PBE0 D3BJ RIJCOSX def2-TZVP def2/J TightSCF
|  2> *xyz 0 1
|  3> C         -0.87096        0.24804       -2.66280
|  4> C         -0.47749        0.60819       -4.10105
|  5> H          0.20677        1.45830       -4.11875
|  6> H         -1.36844        0.92942       -4.64785
|  7> C          0.18467       -0.50664       -4.91676
|  8> O         -0.15869       -1.70109       -4.65798
|  9> F          1.05594       -0.17441       -5.74037
| 10> H         -1.54056       -0.58646       -2.67455
| 11> H         -1.35339        1.08600       -2.20455
| 12> H          0.00660       -0.00662       -2.10609
| 13> *
| 14>
| 15> %MaxCore 64000
| 16>
| 17> %pal nprocs 4
| 18> end
| 19>
| 20> %scf
| 21>   MaxIter 150
| 22> end
| 23>
| 24>
| 25>                          ****END OF INPUT****

CARTESIAN COORDINATES (ANGSTROEM)
---------------------------------
  C     -0.870960    0.248040   -2.662800
  C     -0.477490    0.608190   -4.101050
  H      0.206770    1.458300   -4.118750
  H     -1.368440    0.929420   -4.647850
  C      0.184670   -0.506640   -4.916760
  O     -0.158690   -1.701090   -4.657980
  F      1.055940   -0.174410   -5.740370
  H     -1.540560   -0.586460   -2.674550
  H     -1.353390    1.086000   -2.204550
  H      0.006600   -0.006620   -2.106090

 Total Charge           Charge          ....    0
 Multiplicity           Mult            ....    1
 Number of Electrons    NEL             ....   40
 Basis Dimension        Dim             ....  185

ORBITAL ENERGIES
----------------

  NO   OCC          E(Eh)            E(eV)
   0   2.0000     -24.845257      -676.0738
   1   2.0000     -19.207605      -522.6655
   2   2.0000     -10.399002      -282.9712
   3   2.0000     -10.254849      -279.0486
   4   2.0000     -10.221149      -278.1316
   5   2.0000      -1.360355       -37.0171
   6   2.0000      -1.051979       -28.6258
   7   2.0000      -0.821662       -22.3586
   8   2.0000      -0.715871       -19.4798
   9   2.0000      -0.659589       -17.9483
  10   2.0000      -0.569921       -15.5083
  11   2.0000      -0.555955       -15.1283
  12   2.0000      -0.524800       -14.2805
  13   2.0000      -0.480110       -13.0644
  14   2.0000      -0.445762       -12.1298
  15   2.0000      -0.408182       -11.1072
  16   2.0000      -0.388119       -10.5612
  17   2.0000      -0.386454       -10.5160
  18   2.0000      -0.357412        -9.7257
  19   2.0000      -0.303002        -8.2451
  20   0.0000      -0.022766        -0.6195
  21   0.0000       0.041037         1.1167
  22   0.0000       0.082018         2.2318
  23   0.0000       0.099174         2.6987
  24   0.0000       0.108286         2.9466

MULLIKEN ATOMIC CHARGES
-----------------------
   0 C :   -0.344701
   1 C :   -0.227292
   2 H :    0.121028
   3 H :    0.131964
   4 C :    0.360482
   5 O :   -0.347482
   6 F :   -0.085604
   7 H :    0.142292
   8 H :    0.126228
   9 H :    0.123084
Sum of atomic charges:   -0.0000000

LOEWDIN ATOMIC CHARGES
----------------------
   0 C :   -0.289952
   1 C :   -0.266347
   2 H :    0.143543
   3 H :    0.156385
   4 C :   -0.501760
   5 O :    0.046065
   6 F :    0.343489
   7 H :    0.126626
   8 H :    0.119955
   9 H :    0.121997

  Mayer bond orders larger than 0.100000
B(  0-C ,  1-C ) :   1.0056 B(  0-C ,  7-H ) :   0.9646 B(  0-C ,  8-H ) :   0.9637
B(  0-C ,  9-H ) :   0.9735 B(  1-C ,  2-H ) :   0.9524 B(  1-C ,  3-H ) :   0.9242
B(  1-C ,  4-C ) :   1.0169 B(  4-C ,  5-O ) :   2.0376 B(  4-C ,  6-F ) :   1.1778

Dispersion correction           -0.005147260
FINAL SINGLE POINT ENERGY      -292.197710769963

DIPOLE MOMENT
-------------
                                X             Y             Z
Electronic contribution:      4.64954      -2.84661      -7.12948
Nuclear contribution   :     -4.75269       4.00281       7.35060
                        -----------------------------------------
Total Dipole Moment    :     -0.10315       1.15620       0.22112
                        -----------------------------------------
Magnitude (a.u.)       :      1.18166
Magnitude (Debye)      :      3.00355

Rotational constants in cm-1:     0.323805     0.124913     0.096140
Rotational constants in MHz :  9707.430323  3744.789513  2882.191141

                             ****ORCA TERMINATED NORMALLY****
TOTAL RUN TIME: 0 days 0 hours 0 minutes 20 seconds 298 msec
