                         Program Version 5.0.0 -  RELEASE  -
|  1> !PBE0 D3BJ RIJCOSX def2-TZVP def2/J TightSCF
|  2> *xyz 0 1
|  3> C          2.48645       -2.67712       -2.56345
|  4> C          3.03764       -2.36672       -3.92351
|  5> N          2.28036       -2.45441       -4.96769
|  6> C          4.32174       -2.01793       -4.01664
|  7> H          4.87994       -1.91167       -3.17382
|  8> H          4.71015       -1.67088       -4.88356
|  9> H          1.27042       -2.41265       -4.86614
| 10> H          2.58183       -2.05528       -5.84688
| 11> C          2.49799       -1.46946       -1.61030
| 12> H          1.47259       -3.05153       -2.69437
| 13> H          3.08320       -3.49064       -2.14147
| 14> H          1.91240       -0.67831       -2.02991
| 15> H          3.50450       -1.13364       -1.47227
| 16> H          2.08509       -1.75655       -0.66585
| 17> *
| 18>
| 19> %MaxCore 64000
| 20>
| 21> %pal nprocs 4
| 22> end
| 23>
| 24> %scf
| 25>   MaxIter 150
| 26> end
| 27>
| 28>
| 29>                          ****END OF INPUT****

CARTESIAN COORDINATES (ANGSTROEM)
---------------------------------
  C      2.486450   -2.677120   -2.563450
  C      3.037640   -2.366720   -3.923510
  N      2.280360   -2.454410   -4.967690
  C      4.321740   -2.017930   -4.016640
  H      4.879940   -1.911670   -3.173820
  H      4.710150   -1.670880   -4.883560
  H      1.270420   -2.412650   -4.866140
  H      2.581830   -2.055280   -5.846880
  C      2.497990   -1.469460   -1.610300
  H      1.472590   -3.051530   -2.694370
  H      3.083200   -3.490640   -2.141470
  H      1.912400   -0.678310   -2.029910
  H      3.504500   -1.133640   -1.472270
  H      2.085090   -1.756550   -0.665850

 Total Charge           Charge          ....    0
 Multiplicity           Mult            ....    1
 Number of Electrons    NEL             ....   40
 Basis Dimension        Dim             ....  209

ORBITAL ENERGIES
----------------

  NO   OCC          E(Eh)            E(eV)
   0   2.0000     -14.385802      -391.4576
   1   2.0000     -10.240580      -278.6603
   2   2.0000     -10.220550      -278.1153
   3   2.0000     -10.203497      -277.6513
   4   2.0000     -10.148671      -276.1594
   5   2.0000      -0.966433       -26.2980
   6   2.0000      -0.803385       -21.8612
   7   2.0000      -0.730635       -19.8816
   8   2.0000      -0.659837       -17.9551
   9   2.0000      -0.587423       -15.9846
  10   2.0000      -0.535972       -14.5845
  11   2.0000      -0.496136       -13.5006
  12   2.0000      -0.458181       -12.4677
  13   2.0000      -0.421176       -11.4608
  14   2.0000      -0.406968       -11.0742
  15   2.0000      -0.390558       -10.6276
  16   2.0000      -0.363913        -9.9026
  17   2.0000      -0.347742        -9.4625
  18   2.0000      -0.345784        -9.4093
  19   2.0000      -0.196830        -5.3560
  20   0.0000       0.035924         0.9775
  21   0.0000       0.044904         1.2219
  22   0.0000       0.079012         2.1500
  23   0.0000       0.085837         2.3357
  24   0.0000       0.101915         2.7732

MULLIKEN ATOMIC CHARGES
-----------------------
   0 C :   -0.205108
   1 C :    0.185166
   2 N :   -0.439495
   3 C :   -0.431703
   4 H :    0.106039
   5 H :    0.090885
   6 H :    0.230716
   7 H :    0.235689
   8 C :   -0.336736
   9 H :    0.088716
  10 H :    0.125534
  11 H :    0.111423
  12 H :    0.121840
  13 H :    0.117034
Sum of atomic charges:   -0.0000000

LOEWDIN ATOMIC CHARGES
----------------------
   0 C :   -0.239873
   1 C :   -0.381627
   2 N :    0.013735
   3 C :   -0.281736
   4 H :    0.105373
   5 H :    0.095763
   6 H :    0.169997
   7 H :    0.174620
   8 C :   -0.292507
   9 H :    0.133279
  10 H :    0.151583
  11 H :    0.117561
  12 H :    0.119347
  13 H :    0.114484

  Mayer bond orders larger than 0.100000
B(  0-C ,  1-C ) :   0.9533 B(  0-C ,  8-C ) :   0.9950 B(  0-C ,  9-H ) :   0.9725
B(  0-C , 10-H ) :   0.9683 B(  1-C ,  2-N ) :   1.2120 B(  1-C ,  3-C ) :   1.7640
B(  2-N ,  6-H ) :   0.9137 B(  2-N ,  7-H ) :   0.9136 B(  3-C ,  4-H ) :   0.9886
B(  3-C ,  5-H ) :   0.9768 B(  8-C , 11-H ) :   0.9728 B(  8-C , 12-H ) :   0.9728
B(  8-C , 13-H ) :   0.9680

Dispersion correction           -0.008866055
FINAL SINGLE POINT ENERGY      -212.386873239605

DIPOLE MOMENT
-------------
                                X             Y             Z
Electronic contribution:     -0.28260      -1.19680      -2.99145
Nuclear contribution   :     -0.52463       1.37972       2.79217
                        -----------------------------------------
Total Dipole Moment    :     -0.80724       0.18292      -0.19928
                        -----------------------------------------
Magnitude (a.u.)       :      0.85135
Magnitude (Debye)      :      2.16397

Rotational constants in cm-1:     0.281086     0.127387     0.100311
Rotational constants in MHz :  8426.743103  3818.969834  3007.238026

                             ****ORCA TERMINATED NORMALLY****
TOTAL RUN TIME: 0 days 0 hours 0 minutes 24 seconds 769 msec
