                         Program Version 5.0.0 -  RELEASE  -
|  1> !PBE0 D3BJ RIJCOSX def2-TZVP def2/J TightSCF xyzfile
|  2>
|  3> *xyzfile 0 1 D1.xyz
|  4>
|  5> %MaxCore 64000
|  6>
|  7> %pal nprocs 18
|  8> end
|  9>
| 10> %scf
| 11>   MaxIter 150
| 12> end
| 13>
| 14>
| 15>                          ****END OF INPUT****

CARTESIAN COORDINATES (ANGSTROEM)
---------------------------------
  C      2.486452   -2.677121   -2.563447
  C     -0.870963    0.248043   -2.662804
  C     -0.477492    0.608191   -4.101052
  H      0.206773    1.458299   -4.118748
  H     -1.368442    0.929419   -4.647855
  C      0.184673   -0.506640   -4.916760
  C      3.037640   -2.366715   -3.923509
  C      2.280360   -2.454408   -4.967692
  N      4.321736   -2.017932   -4.016641
  H      4.879940   -1.911668   -3.173823
  H      4.710148   -1.670882   -4.883561
  H      1.270423   -2.412650   -4.866143
  H      2.581829   -2.055282   -5.846878
  F     -0.158685   -1.701088   -4.657981
  O      1.055938   -0.174410   -5.740373
  C      2.497991   -1.469464   -1.610303
  C      1.582841   -0.321986   -2.042619
  H      2.193083   -1.833912   -0.625420
  H      3.523356   -1.103982   -1.490392
  C      0.100160   -0.673551   -1.915815
  H      1.822311   -0.040361   -3.072834
  H      1.813180    0.557019   -1.433266
  H     -0.063284   -1.679120   -2.301112
  H     -0.168820   -0.691680   -0.853831
  H     -1.001048    1.181040   -2.104071
  H     -1.844645   -0.246592   -2.663281
  H      1.472592   -3.051527   -2.694366
  H      3.083201   -3.490638   -2.141472

 Total Charge           Charge          ....    0
 Multiplicity           Mult            ....    1
 Number of Electrons    NEL             ....   94
 Basis Dimension        Dim             ....  468

ORBITAL ENERGIES
----------------

  NO   OCC          E(Eh)            E(eV)
   0   2.0000     -24.837409      -675.8603
   1   2.0000     -19.207985      -522.6759
   2   2.0000     -14.369594      -391.0165
   3   2.0000     -10.395442      -282.8743
   4   2.0000     -10.249488      -278.9027
   5   2.0000     -10.234783      -278.5026
   6   2.0000     -10.224805      -278.2311
   7   2.0000     -10.222775      -278.1758
   8   2.0000     -10.220079      -278.1025
   9   2.0000     -10.218340      -278.0552
  10   2.0000     -10.213677      -277.9283
  11   2.0000     -10.126015      -275.5429
  12   2.0000      -1.349175       -36.7129
  13   2.0000      -1.066617       -29.0241
  14   2.0000      -0.938645       -25.5418
  15   2.0000      -0.850396       -23.1405
  16   2.0000      -0.815019       -22.1778
  17   2.0000      -0.765839       -20.8395
  18   2.0000      -0.742154       -20.1950
  19   2.0000      -0.697036       -18.9673
  20   2.0000      -0.675997       -18.3948
  21   2.0000      -0.635479       -17.2923
  22   2.0000      -0.597094       -16.2478
  23   2.0000      -0.588282       -16.0080
  24   2.0000      -0.563736       -15.3400
  25   2.0000      -0.552586       -15.0366
  26   2.0000      -0.523671       -14.2498
  27   2.0000      -0.510468       -13.8905
  28   2.0000      -0.493666       -13.4333
  29   2.0000      -0.484020       -13.1709
  30   2.0000      -0.471356       -12.8262
  31   2.0000      -0.455154       -12.3854
  32   2.0000      -0.443758       -12.0753
  33   2.0000      -0.424071       -11.5396
  34   2.0000      -0.416172       -11.3246
  35   2.0000      -0.400036       -10.8855
  36   2.0000      -0.386965       -10.5298
  37   2.0000      -0.384766       -10.4700
  38   2.0000      -0.368700       -10.0328
  39   2.0000      -0.362643        -9.8680
  40   2.0000      -0.350706        -9.5432
  41   2.0000      -0.345527        -9.4023
  42   2.0000      -0.329744        -8.9728
  43   2.0000      -0.324064        -8.8182
  44   2.0000      -0.320147        -8.7116
  45   2.0000      -0.299776        -8.1573
  46   2.0000      -0.190982        -5.1969
  47   0.0000      -0.020490        -0.5576
  48   0.0000       0.033168         0.9026
  49   0.0000       0.042494         1.1563
  50   0.0000       0.058423         1.5898
  51   0.0000       0.066017         1.7964

MULLIKEN ATOMIC CHARGES
-----------------------
   0 C :   -0.261671
   1 C :   -0.192001
   2 C :   -0.229448
   3 H :    0.151186
   4 H :    0.141388
   5 C :    0.320307
   6 C :    0.150887
   7 C :   -0.364914
   8 N :   -0.474295
   9 H :    0.226053
  10 H :    0.234361
  11 H :    0.113342
  12 H :    0.085886
  13 F :   -0.107443
  14 O :   -0.310907
  15 C :   -0.151712
  16 C :   -0.236631
  17 H :    0.096762
  18 H :    0.098887
  19 C :   -0.233179
  20 H :    0.154908
  21 H :    0.096407
  22 H :    0.112679
  23 H :    0.110949
  24 H :    0.110383
  25 H :    0.114674
  26 H :    0.125118
  27 H :    0.118025
Sum of atomic charges:   -0.0000000

LOEWDIN ATOMIC CHARGES
----------------------
   0 C :   -0.220700
   1 C :   -0.268547
   2 C :   -0.238741
   3 H :    0.159386
   4 H :    0.157530
   5 C :   -0.500383
   6 C :   -0.383213
   7 C :   -0.266205
   8 N :   -0.011360
   9 H :    0.164978
  10 H :    0.170373
  11 H :    0.099347
  12 H :    0.103526
  13 F :    0.323419
  14 O :    0.102237
  15 C :   -0.263896
  16 C :   -0.263249
  17 H :    0.138368
  18 H :    0.132335
  19 C :   -0.272875
  20 H :    0.149823
  21 H :    0.136316
  22 H :    0.137628
  23 H :    0.139490
  24 H :    0.141772
  25 H :    0.141179
  26 H :    0.147099
  27 H :    0.144364

  Mayer bond orders larger than 0.100000
B(  0-C ,  6-C ) :   0.9843 B(  0-C , 15-C ) :   0.9641 B(  0-C , 26-H ) :   0.9885
B(  0-C , 27-H ) :   0.9558 B(  1-C ,  2-C ) :   0.9851 B(  1-C , 19-C ) :   0.9963
B(  1-C , 24-H ) :   0.9542 B(  1-C , 25-H ) :   0.9630 B(  2-C ,  3-H ) :   0.9527
B(  2-C ,  4-H ) :   0.9322 B(  2-C ,  5-C ) :   1.0199 B(  5-C , 13-F ) :   1.1124
B(  5-C , 14-O ) :   2.0623 B(  6-C ,  7-C ) :   1.7991 B(  6-C ,  8-N ) :   1.1340
B(  7-C , 11-H ) :   0.9981 B(  7-C , 12-H ) :   0.9747 B(  8-N ,  9-H ) :   0.9218
B(  8-N , 10-H ) :   0.9124 B( 15-C , 16-C ) :   0.9871 B( 15-C , 17-H ) :   0.9534
B( 15-C , 18-H ) :   0.9590 B( 16-C , 19-C ) :   0.9873 B( 16-C , 20-H ) :   0.9571
B( 16-C , 21-H ) :   0.9473 B( 19-C , 22-H ) :   0.9748 B( 19-C , 23-H ) :   0.9511

Dispersion correction           -0.027206894
FINAL SINGLE POINT ENERGY      -581.930584366869

DIPOLE MOMENT
-------------
                                X             Y             Z
Electronic contribution:     -3.65650      -1.62393     -10.25831
Nuclear contribution   :      3.32973       2.37270      11.37738
                        -----------------------------------------
Total Dipole Moment    :     -0.32677       0.74877       1.11908
                        -----------------------------------------
Magnitude (a.u.)       :      1.38556
Magnitude (Debye)      :      3.52181

Rotational constants in cm-1:     0.040902     0.025807     0.019036
Rotational constants in MHz :  1226.202138   773.670450   570.681201

                             ****ORCA TERMINATED NORMALLY****
TOTAL RUN TIME: 0 days 0 hours 0 minutes 51 seconds 989 msec
