                         Program Version 5.0.0 -  RELEASE  -
|  1> !PBE0 D3BJ RIJCOSX def2-TZVP def2/J TightSCF xyzfile
|  2>
|  3> *xyzfile 0 1 D3.xyz
|  4>
|  5> %MaxCore 64000
|  6>
|  7> %pal nprocs 18
|  8> end
|  9>
| 10> %scf
| 11>   MaxIter 150
| 12> end
| 13>
| 14>
| 15>                          ****END OF INPUT****

CARTESIAN COORDINATES (ANGSTROEM)
---------------------------------
  C      2.486452   -2.677121   -2.563447
  C     -0.870963    0.248043   -2.662804
  C     -0.477492    0.608191   -4.101052
  H      0.206773    1.458299   -4.118748
  H     -1.368442    0.929419   -4.647855
  C      0.184673   -0.506640   -4.916760
  C      3.037640   -2.366715   -3.923509
  C      2.280360   -2.454408   -4.967692
  N      4.321736   -2.017932   -4.016641
  H      4.879940   -1.911668   -3.173823
  H      4.710148   -1.670882   -4.883561
  H      1.270423   -2.412650   -4.866143
  H      2.581829   -2.055282   -5.846878
  O     -0.158685   -1.701088   -4.657981
  F      1.055938   -0.174410   -5.740373
  C      2.497991   -1.469464   -1.610303
  C      1.582841   -0.321986   -2.042619
  H      2.193083   -1.833912   -0.625420
  H      3.523356   -1.103982   -1.490392
  C      0.100160   -0.673551   -1.915815
  H      1.822311   -0.040361   -3.072834
  H      1.813180    0.557019   -1.433266
  H     -0.063284   -1.679120   -2.301112
  H     -0.168820   -0.691680   -0.853831
  H     -1.001048    1.181040   -2.104071
  H     -1.844645   -0.246592   -2.663281
  H      1.472592   -3.051527   -2.694366
  H      3.083201   -3.490638   -2.141472

 Total Charge           Charge          ....    0
 Multiplicity           Mult            ....    1
 Number of Electrons    NEL             ....   94
 Basis Dimension        Dim             ....  468

ORBITAL ENERGIES
----------------

  NO   OCC          E(Eh)            E(eV)
   0   2.0000     -24.844256      -676.0466
   1   2.0000     -19.207685      -522.6677
   2   2.0000     -14.368426      -390.9848
   3   2.0000     -10.400952      -283.0243
   4   2.0000     -10.252123      -278.9744
   5   2.0000     -10.232026      -278.4276
   6   2.0000     -10.222374      -278.1649
   7   2.0000     -10.217072      -278.0207
   8   2.0000     -10.216541      -278.0062
   9   2.0000     -10.214053      -277.9385
  10   2.0000     -10.208547      -277.7887
  11   2.0000     -10.118627      -275.3418
  12   2.0000      -1.360136       -37.0112
  13   2.0000      -1.061495       -28.8848
  14   2.0000      -0.937233       -25.5034
  15   2.0000      -0.845127       -22.9971
  16   2.0000      -0.812451       -22.1079
  17   2.0000      -0.764061       -20.7912
  18   2.0000      -0.740150       -20.1405
  19   2.0000      -0.699959       -19.0469
  20   2.0000      -0.672943       -18.3117
  21   2.0000      -0.631535       -17.1849
  22   2.0000      -0.593047       -16.1376
  23   2.0000      -0.578912       -15.7530
  24   2.0000      -0.565659       -15.3924
  25   2.0000      -0.546281       -14.8651
  26   2.0000      -0.534990       -14.5578
  27   2.0000      -0.521845       -14.2001
  28   2.0000      -0.490872       -13.3573
  29   2.0000      -0.483076       -13.1452
  30   2.0000      -0.467286       -12.7155
  31   2.0000      -0.452745       -12.3198
  32   2.0000      -0.445295       -12.1171
  33   2.0000      -0.415455       -11.3051
  34   2.0000      -0.409317       -11.1381
  35   2.0000      -0.407348       -11.0845
  36   2.0000      -0.389795       -10.6069
  37   2.0000      -0.377541       -10.2734
  38   2.0000      -0.368601       -10.0301
  39   2.0000      -0.364856        -9.9282
  40   2.0000      -0.346386        -9.4256
  41   2.0000      -0.339130        -9.2282
  42   2.0000      -0.327240        -8.9047
  43   2.0000      -0.321363        -8.7447
  44   2.0000      -0.320230        -8.7139
  45   2.0000      -0.278501        -7.5784
  46   2.0000      -0.189719        -5.1625
  47   0.0000      -0.026258        -0.7145
  48   0.0000       0.036094         0.9822
  49   0.0000       0.045024         1.2252
  50   0.0000       0.057781         1.5723
  51   0.0000       0.071135         1.9357

MULLIKEN ATOMIC CHARGES
-----------------------
   0 C :   -0.249384
   1 C :   -0.170101
   2 C :   -0.245049
   3 H :    0.135300
   4 H :    0.143480
   5 C :    0.353741
   6 C :    0.134399
   7 C :   -0.412389
   8 N :   -0.467864
   9 H :    0.225725
  10 H :    0.228686
  11 H :    0.175304
  12 H :    0.061338
  13 O :   -0.348881
  14 F :   -0.084212
  15 C :   -0.156043
  16 C :   -0.220737
  17 H :    0.097792
  18 H :    0.095647
  19 C :   -0.226449
  20 H :    0.122537
  21 H :    0.093891
  22 H :    0.132265
  23 H :    0.106020
  24 H :    0.108320
  25 H :    0.112294
  26 H :    0.138531
  27 H :    0.115840
Sum of atomic charges:   -0.0000000

LOEWDIN ATOMIC CHARGES
----------------------
   0 C :   -0.217734
   1 C :   -0.257648
   2 C :   -0.242840
   3 H :    0.147638
   4 H :    0.159266
   5 C :   -0.496261
   6 C :   -0.386156
   7 C :   -0.269381
   8 N :   -0.014992
   9 H :    0.164261
  10 H :    0.167531
  11 H :    0.100333
  12 H :    0.095327
  13 O :    0.073535
  14 F :    0.360885
  15 C :   -0.263411
  16 C :   -0.262611
  17 H :    0.139111
  18 H :    0.130873
  19 C :   -0.270036
  20 H :    0.142885
  21 H :    0.134962
  22 H :    0.144739
  23 H :    0.137942
  24 H :    0.141014
  25 H :    0.144926
  26 H :    0.152262
  27 H :    0.143579

  Mayer bond orders larger than 0.100000
B(  0-C ,  6-C ) :   0.9809 B(  0-C , 15-C ) :   0.9628 B(  0-C , 26-H ) :   0.9860
B(  0-C , 27-H ) :   0.9564 B(  1-C ,  2-C ) :   1.0044 B(  1-C , 19-C ) :   1.0088
B(  1-C , 24-H ) :   0.9576 B(  1-C , 25-H ) :   0.9529 B(  2-C ,  3-H ) :   0.9475
B(  2-C ,  4-H ) :   0.9248 B(  2-C ,  5-C ) :   1.0242 B(  5-C , 13-O ) :   1.9534
B(  5-C , 14-F ) :   1.1759 B(  6-C ,  7-C ) :   1.7957 B(  6-C ,  8-N ) :   1.1275
B(  7-C , 11-H ) :   0.9613 B(  7-C , 12-H ) :   0.9814 B(  8-N ,  9-H ) :   0.9216
B(  8-N , 10-H ) :   0.9131 B( 15-C , 16-C ) :   0.9948 B( 15-C , 17-H ) :   0.9537
B( 15-C , 18-H ) :   0.9597 B( 16-C , 19-C ) :   0.9960 B( 16-C , 20-H ) :   0.9564
B( 16-C , 21-H ) :   0.9484 B( 19-C , 22-H ) :   0.9659 B( 19-C , 23-H ) :   0.9500

Dispersion correction           -0.027327490
FINAL SINGLE POINT ENERGY      -581.925750983217

DIPOLE MOMENT
-------------
                                X             Y             Z
Electronic contribution:     -1.71880       0.91093     -12.11447
Nuclear contribution   :      1.88979       0.56282      12.66056
                        -----------------------------------------
Total Dipole Moment    :      0.17098       1.47375       0.54609
                        -----------------------------------------
Magnitude (a.u.)       :      1.58095
Magnitude (Debye)      :      4.01845

Rotational constants in cm-1:     0.040271     0.025954     0.018866
Rotational constants in MHz :  1207.302496   778.083475   565.600538

                             ****ORCA TERMINATED NORMALLY****
TOTAL RUN TIME: 0 days 0 hours 0 minutes 43 seconds 904 msec
