                         Program Version 5.0.0 -  RELEASE  -
|  1> !M062X D3Zero RIJCOSX def2-SVPD def2/J TightSCF
|  2> *xyz -1 1
|  3> C         -2.45380        0.05510        6.94145
|  4> C         -2.07842        1.48042        6.56410
|  5> O         -0.90125        1.85816        6.82810
|  6> O         -2.93658        2.17731        5.96415
|  7> H         -3.47026       -0.13135        6.66407
|  8> H         -2.34265       -0.07527        7.99765
|  9> H         -1.81248       -0.63046        6.42801
| 10> *
| 11> %MaxCore 64000
| 12>
| 13> %pal nprocs 4
| 14> end
| 15>
| 16> %scf
| 17>   MaxIter 150
| 18> end
| 19>
| 20>
| 21>                          ****END OF INPUT****

CARTESIAN COORDINATES (ANGSTROEM)
---------------------------------
  C     -2.453800    0.055100    6.941450
  C     -2.078420    1.480420    6.564100
  O     -0.901250    1.858160    6.828100
  O     -2.936580    2.177310    5.964150
  H     -3.470260   -0.131350    6.664070
  H     -2.342650   -0.075270    7.997650
  H     -1.812480   -0.630460    6.428010

 Total Charge           Charge          ....   -1
 Multiplicity           Mult            ....    1
 Number of Electrons    NEL             ....   32
 Basis Dimension        Dim             ....  110

ORBITAL ENERGIES
----------------

  NO   OCC          E(Eh)            E(eV)
   0   2.0000     -19.369462      -527.0699
   1   2.0000     -19.366513      -526.9896
   2   2.0000     -10.437052      -284.0066
   3   2.0000     -10.362859      -281.9877
   4   2.0000      -0.922759       -25.1096
   5   2.0000      -0.822180       -22.3726
   6   2.0000      -0.631437       -17.1823
   7   2.0000      -0.380920       -10.3653
   8   2.0000      -0.329661        -8.9705
   9   2.0000      -0.316538        -8.6134
  10   2.0000      -0.302451        -8.2301
  11   2.0000      -0.255005        -6.9390
  12   2.0000      -0.233639        -6.3576
  13   2.0000      -0.109560        -2.9813
  14   2.0000      -0.106843        -2.9074
  15   2.0000      -0.097825        -2.6620
  16   0.0000       0.190796         5.1918
  17   0.0000       0.222921         6.0660
  18   0.0000       0.250384         6.8133
  19   0.0000       0.259310         7.0562
  20   0.0000       0.283346         7.7102

MULLIKEN ATOMIC CHARGES
-----------------------
   0 C :    0.468267
   1 C :    0.148553
   2 O :   -0.737101
   3 O :   -0.704601
   4 H :   -0.073962
   5 H :   -0.048737
   6 H :   -0.052419
Sum of atomic charges:   -1.0000000

LOEWDIN ATOMIC CHARGES
----------------------
   0 C :    0.142583
   1 C :   -0.321445
   2 O :   -0.360385
   3 O :   -0.351520
   4 H :   -0.041280
   5 H :   -0.034853
   6 H :   -0.033100

  Mayer bond orders larger than 0.100000
B(  0-C ,  1-C ) :   1.1939 B(  0-C ,  4-H ) :   0.8692 B(  0-C ,  5-H ) :   0.8129
B(  0-C ,  6-H ) :   0.8221 B(  1-C ,  2-O ) :   1.4171 B(  1-C ,  3-O ) :   1.4284
B(  1-C ,  4-H ) :   0.2486 B(  1-C ,  5-H ) :   0.1682 B(  1-C ,  6-H ) :   0.1631

Dispersion correction           -0.000017374
FINAL SINGLE POINT ENERGY      -228.267470675265

DIPOLE MOMENT
-------------
                                X             Y             Z
Electronic contribution:      0.85882       3.32562      -0.90093
Nuclear contribution   :     -1.26064      -4.68337       1.27880
                        -----------------------------------------
Total Dipole Moment    :     -0.40182      -1.35776       0.37787
                        -----------------------------------------
Magnitude (a.u.)       :      1.46552
Magnitude (Debye)      :      3.72506

Rotational constants in cm-1:     0.391994     0.333933     0.186475
Rotational constants in MHz : 11751.676689 10011.065304  5590.392476

                             ****ORCA TERMINATED NORMALLY****
TOTAL RUN TIME: 0 days 0 hours 0 minutes 8 seconds 218 msec
