                         Program Version 5.0.0 -  RELEASE  -
|  1> !M062X D3Zero RIJCOSX def2-SVPD def2/J TightSCF
|  2> *xyz 1 1
|  3> C         -0.69912        3.48945        3.75516
|  4> N         -1.08067        3.79296        5.15686
|  5> H         -0.87449        4.76274        5.42734
|  6> H         -0.68079        3.13476        5.83900
|  7> H         -2.05755        3.53169        5.34620
|  8> H         -1.14600        4.20803        3.10030
|  9> H         -1.04188        2.50941        3.49644
| 10> H          0.36562        3.53208        3.65813
| 11> *
| 12> %MaxCore 64000
| 13>
| 14> %pal nprocs 4
| 15> end
| 16>
| 17> %scf
| 18>   MaxIter 150
| 19> end
| 20>
| 21>
| 22>                          ****END OF INPUT****

CARTESIAN COORDINATES (ANGSTROEM)
---------------------------------
  C     -0.699120    3.489450    3.755160
  N     -1.080670    3.792960    5.156860
  H     -0.874490    4.762740    5.427340
  H     -0.680790    3.134760    5.839000
  H     -2.057550    3.531690    5.346200
  H     -1.146000    4.208030    3.100300
  H     -1.041880    2.509410    3.496440
  H      0.365620    3.532080    3.658130

 Total Charge           Charge          ....    1
 Multiplicity           Mult            ....    1
 Number of Electrons    NEL             ....   18
 Basis Dimension        Dim             ....   88

ORBITAL ENERGIES
----------------

  NO   OCC          E(Eh)            E(eV)
   0   2.0000     -15.110660      -411.1820
   1   2.0000     -10.810524      -294.1693
   2   2.0000      -1.324516       -36.0419
   3   2.0000      -1.027372       -27.9562
   4   2.0000      -0.900152       -24.4944
   5   2.0000      -0.861662       -23.4470
   6   2.0000      -0.786660       -21.4061
   7   2.0000      -0.695017       -18.9124
   8   2.0000      -0.688535       -18.7360
   9   0.0000      -0.178913        -4.8685
  10   0.0000      -0.110801        -3.0151
  11   0.0000      -0.108116        -2.9420
  12   0.0000      -0.107102        -2.9144
  13   0.0000      -0.060426        -1.6443

MULLIKEN ATOMIC CHARGES
-----------------------
   0 C :    0.854222
   1 N :   -0.931646
   2 H :    0.389124
   3 H :    0.367959
   4 H :    0.382850
   5 H :   -0.023932
   6 H :   -0.024886
   7 H :   -0.013691
Sum of atomic charges:    1.0000000

LOEWDIN ATOMIC CHARGES
----------------------
   0 C :    0.290922
   1 N :    0.296918
   2 H :    0.115465
   3 H :    0.109680
   4 H :    0.109292
   5 H :    0.026086
   6 H :    0.026139
   7 H :    0.025499

  Mayer bond orders larger than 0.100000
B(  0-C ,  1-N ) :   0.7473 B(  0-C ,  5-H ) :   0.9083 B(  0-C ,  6-H ) :   0.9054
B(  0-C ,  7-H ) :   0.9114 B(  1-N ,  2-H ) :   0.7402 B(  1-N ,  3-H ) :   0.7948
B(  1-N ,  4-H ) :   0.7672

Dispersion correction           -0.000006540
FINAL SINGLE POINT ENERGY       -96.083707985411

DIPOLE MOMENT
-------------
                                X             Y             Z
Electronic contribution:     -0.24734       0.28097       0.98533
Nuclear contribution   :     -0.00699      -0.18064      -0.14199
                        -----------------------------------------
Total Dipole Moment    :     -0.25432       0.10033       0.84334
                        -----------------------------------------
Magnitude (a.u.)       :      0.88655
Magnitude (Debye)      :      2.25342

Rotational constants in cm-1:     2.906310     0.688008     0.676648
Rotational constants in MHz : 87128.982229 20625.947414 20285.402367

                             ****ORCA TERMINATED NORMALLY****
TOTAL RUN TIME: 0 days 0 hours 0 minutes 5 seconds 164 msec
