                         Program Version 5.0.0 -  RELEASE  -
|  1> !M062X D3Zero RIJCOSX def2-SVPD def2/J TightSCF
|  2> *xyz 0 1
|  3> C         -2.45380        0.05510        6.94145
|  4> C         -2.07842        1.48042        6.56410
|  5> F         -0.90125        1.85816        6.82810
|  6> O         -2.93658        2.17731        5.96415
|  7> H         -3.47026       -0.13135        6.66407
|  8> H         -2.34265       -0.07527        7.99765
|  9> H         -1.81248       -0.63046        6.42801
| 10> *
| 11> %MaxCore 64000
| 12>
| 13> %pal nprocs 4
| 14> end
| 15>
| 16> %scf
| 17>   MaxIter 150
| 18> end
| 19>
| 20>
| 21>                          ****END OF INPUT****

CARTESIAN COORDINATES (ANGSTROEM)
---------------------------------
  C     -2.453800    0.055100    6.941450
  C     -2.078420    1.480420    6.564100
  F     -0.901250    1.858160    6.828100
  O     -2.936580    2.177310    5.964150
  H     -3.470260   -0.131350    6.664070
  H     -2.342650   -0.075270    7.997650
  H     -1.812480   -0.630460    6.428010

 Total Charge           Charge          ....    0
 Multiplicity           Mult            ....    1
 Number of Electrons    NEL             ....   32
 Basis Dimension        Dim             ....  110

ORBITAL ENERGIES
----------------

  NO   OCC          E(Eh)            E(eV)
   0   2.0000     -25.329519      -689.2513
   1   2.0000     -19.652545      -534.7729
   2   2.0000     -10.744924      -292.3843
   3   2.0000     -10.580797      -287.9181
   4   2.0000      -1.442880       -39.2628
   5   2.0000      -1.146034       -31.1852
   6   2.0000      -0.867523       -23.6065
   7   2.0000      -0.754280       -20.5250
   8   2.0000      -0.644305       -17.5324
   9   2.0000      -0.640064       -17.4170
  10   2.0000      -0.590109       -16.0577
  11   2.0000      -0.517989       -14.0952
  12   2.0000      -0.505421       -13.7532
  13   2.0000      -0.484676       -13.1887
  14   2.0000      -0.428159       -11.6508
  15   2.0000      -0.376175       -10.2362
  16   0.0000       0.012577         0.3422
  17   0.0000       0.026873         0.7313
  18   0.0000       0.065444         1.7808
  19   0.0000       0.096448         2.6245
  20   0.0000       0.103647         2.8204

MULLIKEN ATOMIC CHARGES
-----------------------
   0 C :    0.338442
   1 C :    0.482274
   2 F :   -0.406345
   3 O :   -0.505325
   4 H :   -0.017665
   5 H :    0.054317
   6 H :    0.054302
Sum of atomic charges:   -0.0000000

LOEWDIN ATOMIC CHARGES
----------------------
   0 C :    0.215727
   1 C :   -0.011994
   2 F :   -0.059022
   3 O :   -0.148962
   4 H :    0.001768
   5 H :    0.000232
   6 H :    0.002250

  Mayer bond orders larger than 0.100000
B(  0-C ,  1-C ) :   1.2491 B(  0-C ,  4-H ) :   0.8999 B(  0-C ,  5-H ) :   0.8108
B(  0-C ,  6-H ) :   0.8169 B(  1-C ,  2-F ) :   0.7018 B(  1-C ,  3-O ) :   1.7954
B(  1-C ,  4-H ) :   0.2061 B(  1-C ,  5-H ) :   0.1253 B(  1-C ,  6-H ) :   0.1219

Dispersion correction           -0.000021053
FINAL SINGLE POINT ENERGY      -252.802085149690

DIPOLE MOMENT
-------------
                                X             Y             Z
Electronic contribution:      2.80989       4.10562      -0.48721
Nuclear contribution   :     -2.49112      -5.16552       1.01592
                        -----------------------------------------
Total Dipole Moment    :      0.31878      -1.05989       0.52871
                        -----------------------------------------
Magnitude (a.u.)       :      1.22659
Magnitude (Debye)      :      3.11775

Rotational constants in cm-1:     0.367635     0.321184     0.176974
Rotational constants in MHz : 11021.414238  9628.842971  5305.560130

                             ****ORCA TERMINATED NORMALLY****
TOTAL RUN TIME: 0 days 0 hours 0 minutes 8 seconds 114 msec
