                         Program Version 5.0.0 -  RELEASE  -
|  1> !M062X D3Zero RIJCOSX def2-SVPD def2/J TightSCF
|  2> *xyz 0 1
|  3> C         -0.69912        3.48945        3.75516
|  4> C         -1.08067        3.79296        5.15686
|  5> H         -0.87449        4.76274        5.42734
|  6> H         -0.68079        3.13476        5.83900
|  7> H         -2.05755        3.53169        5.34620
|  8> H         -1.14600        4.20803        3.10030
|  9> H         -1.04188        2.50941        3.49644
| 10> H          0.36562        3.53208        3.65813
| 11> *
| 12> %MaxCore 64000
| 13>
| 14> %pal nprocs 4
| 15> end
| 16>
| 17> %scf
| 18>   MaxIter 150
| 19> end
| 20>
| 21>
| 22>                          ****END OF INPUT****

CARTESIAN COORDINATES (ANGSTROEM)
---------------------------------
  C     -0.699120    3.489450    3.755160
  C     -1.080670    3.792960    5.156860
  H     -0.874490    4.762740    5.427340
  H     -0.680790    3.134760    5.839000
  H     -2.057550    3.531690    5.346200
  H     -1.146000    4.208030    3.100300
  H     -1.041880    2.509410    3.496440
  H      0.365620    3.532080    3.658130

 Total Charge           Charge          ....    0
 Multiplicity           Mult            ....    1
 Number of Electrons    NEL             ....   18
 Basis Dimension        Dim             ....   88

ORBITAL ENERGIES
----------------

  NO   OCC          E(Eh)            E(eV)
   0   2.0000     -10.527690      -286.4730
   1   2.0000     -10.514014      -286.1009
   2   2.0000      -0.858959       -23.3735
   3   2.0000      -0.704869       -19.1804
   4   2.0000      -0.527229       -14.3466
   5   2.0000      -0.505417       -13.7531
   6   2.0000      -0.435422       -11.8484
   7   2.0000      -0.415988       -11.3196
   8   2.0000      -0.393146       -10.6981
   9   0.0000       0.045642         1.2420
  10   0.0000       0.075140         2.0447
  11   0.0000       0.125933         3.4268
  12   0.0000       0.132179         3.5968
  13   0.0000       0.148359         4.0370

MULLIKEN ATOMIC CHARGES
-----------------------
   0 C :    0.209495
   1 C :    0.452501
   2 H :   -0.183043
   3 H :   -0.190456
   4 H :   -0.177985
   5 H :   -0.044472
   6 H :   -0.027360
   7 H :   -0.038679
Sum of atomic charges:    0.0000000

LOEWDIN ATOMIC CHARGES
----------------------
   0 C :    0.078810
   1 C :    0.073967
   2 H :   -0.029979
   3 H :   -0.037440
   4 H :   -0.037353
   5 H :   -0.016166
   6 H :   -0.014876
   7 H :   -0.016962

  Mayer bond orders larger than 0.100000
B(  0-C ,  1-C ) :   1.4416 B(  0-C ,  2-H ) :   0.1513 B(  0-C ,  3-H ) :   0.1382
B(  0-C ,  4-H ) :   0.1408 B(  0-C ,  5-H ) :   0.8666 B(  0-C ,  6-H ) :   0.8715
B(  0-C ,  7-H ) :   0.8694 B(  1-C ,  2-H ) :   0.8352 B(  1-C ,  3-H ) :   0.7608
B(  1-C ,  4-H ) :   0.7613 B(  1-C ,  5-H ) :   0.1459 B(  1-C ,  6-H ) :   0.1526
B(  1-C ,  7-H ) :   0.1416 B(  3-H ,  4-H ) :   0.2671

Dispersion correction           -0.000006474
FINAL SINGLE POINT ENERGY       -79.696682601155

DIPOLE MOMENT
-------------
                                X             Y             Z
Electronic contribution:      0.05283       0.10235      -0.06149
Nuclear contribution   :     -0.07174      -0.12630       0.09844
                        -----------------------------------------
Total Dipole Moment    :     -0.01891      -0.02395       0.03696
                        -----------------------------------------
Magnitude (a.u.)       :      0.04793
Magnitude (Debye)      :      0.12182

Rotational constants in cm-1:     2.906543     0.717882     0.705537
Rotational constants in MHz : 87135.978289 21521.550473 21151.459355

                             ****ORCA TERMINATED NORMALLY****
TOTAL RUN TIME: 0 days 0 hours 0 minutes 5 seconds 128 msec
