                         Program Version 5.0.0 -  RELEASE  -
|  1> !M062X D3Zero RIJCOSX def2-SVPD def2/J TightSCF
|  2> *xyz 0 1
|  3> C         -2.45380        0.05510        6.94145
|  4> C         -2.07842        1.48042        6.56410
|  5> O         -0.90125        1.85816        6.82810
|  6> F         -2.93658        2.17731        5.96415
|  7> H         -3.47026       -0.13135        6.66407
|  8> H         -2.34265       -0.07527        7.99765
|  9> H         -1.81248       -0.63046        6.42801
| 10> *
| 11> %MaxCore 64000
| 12>
| 13> %pal nprocs 4
| 14> end
| 15>
| 16> %scf
| 17>   MaxIter 150
| 18> end
| 19>
| 20>
| 21>                          ****END OF INPUT****

CARTESIAN COORDINATES (ANGSTROEM)
---------------------------------
  C     -2.453800    0.055100    6.941450
  C     -2.078420    1.480420    6.564100
  O     -0.901250    1.858160    6.828100
  F     -2.936580    2.177310    5.964150
  H     -3.470260   -0.131350    6.664070
  H     -2.342650   -0.075270    7.997650
  H     -1.812480   -0.630460    6.428010

 Total Charge           Charge          ....    0
 Multiplicity           Mult            ....    1
 Number of Electrons    NEL             ....   32
 Basis Dimension        Dim             ....  110

ORBITAL ENERGIES
----------------

  NO   OCC          E(Eh)            E(eV)
   0   2.0000     -25.332309      -689.3272
   1   2.0000     -19.650721      -534.7233
   2   2.0000     -10.745683      -292.4049
   3   2.0000     -10.581074      -287.9257
   4   2.0000      -1.448091       -39.4046
   5   2.0000      -1.141540       -31.0629
   6   2.0000      -0.867522       -23.6065
   7   2.0000      -0.757607       -20.6155
   8   2.0000      -0.646708       -17.5978
   9   2.0000      -0.643281       -17.5046
  10   2.0000      -0.589784       -16.0488
  11   2.0000      -0.519143       -14.1266
  12   2.0000      -0.504736       -13.7346
  13   2.0000      -0.483769       -13.1640
  14   2.0000      -0.422575       -11.4989
  15   2.0000      -0.375452       -10.2166
  16   0.0000       0.008151         0.2218
  17   0.0000       0.026454         0.7199
  18   0.0000       0.065430         1.7804
  19   0.0000       0.099133         2.6975
  20   0.0000       0.102239         2.7821

MULLIKEN ATOMIC CHARGES
-----------------------
   0 C :    0.322991
   1 C :    0.475978
   2 O :   -0.534377
   3 F :   -0.379824
   4 H :    0.006393
   5 H :    0.054178
   6 H :    0.054661
Sum of atomic charges:    0.0000000

LOEWDIN ATOMIC CHARGES
----------------------
   0 C :    0.216123
   1 C :   -0.010033
   2 O :   -0.154830
   3 F :   -0.054771
   4 H :   -0.010664
   5 H :    0.006615
   6 H :    0.007560

  Mayer bond orders larger than 0.100000
B(  0-C ,  1-C ) :   1.2662 B(  0-C ,  4-H ) :   0.8864 B(  0-C ,  5-H ) :   0.8120
B(  0-C ,  6-H ) :   0.8211 B(  1-C ,  2-O ) :   1.7666 B(  1-C ,  3-F ) :   0.7434
B(  1-C ,  4-H ) :   0.1537 B(  1-C ,  5-H ) :   0.1419 B(  1-C ,  6-H ) :   0.1335

Dispersion correction           -0.000021194
FINAL SINGLE POINT ENERGY      -252.799122590053

DIPOLE MOMENT
-------------
                                X             Y             Z
Electronic contribution:     -0.48312       4.62193      -1.88460
Nuclear contribution   :     -0.38801      -5.49530       1.90863
                        -----------------------------------------
Total Dipole Moment    :     -0.87113      -0.87336       0.02403
                        -----------------------------------------
Magnitude (a.u.)       :      1.23378
Magnitude (Debye)      :      3.13603

Rotational constants in cm-1:     0.368583     0.320435     0.176966
Rotational constants in MHz : 11049.843408  9606.394840  5305.299921

                             ****ORCA TERMINATED NORMALLY****
TOTAL RUN TIME: 0 days 0 hours 0 minutes 8 seconds 152 msec
