                         Program Version 5.0.0 -  RELEASE  -
|  1> !LC-BLYP RIJCOSX def2-SVPD def2/J TightSCF
|  2> *xyz -1 1
|  3> C          4.90646       -3.10282       -5.95484
|  4> C          3.51177       -2.80621       -6.49228
|  5> H          2.73604       -3.37345       -5.97374
|  6> H          3.44490       -3.04083       -7.55528
|  7> S          3.00462       -1.09621       -6.38926
|  8> O          4.12886       -0.32965       -6.95372
|  9> O          1.78128       -1.00078       -7.13640
| 10> O          2.85155       -0.78368       -4.95679
| 11> H          5.62703       -2.52424       -6.49422
| 12> H          5.12164       -4.14387       -6.07654
| 13> H          4.95004       -2.84862       -4.91639
| 14> *
| 15>
| 16> %MaxCore 64000
| 17>
| 18> %pal nprocs 4
| 19> end
| 20>
| 21> %scf
| 22>   MaxIter 150
| 23> end
| 24>
| 25>
| 26>                          ****END OF INPUT****

CARTESIAN COORDINATES (ANGSTROEM)
---------------------------------
  C      4.906460   -3.102820   -5.954840
  C      3.511770   -2.806210   -6.492280
  H      2.736040   -3.373450   -5.973740
  H      3.444900   -3.040830   -7.555280
  S      3.004620   -1.096210   -6.389260
  O      4.128860   -0.329650   -6.953720
  O      1.781280   -1.000780   -7.136400
  O      2.851550   -0.783680   -4.956790
  H      5.627030   -2.524240   -6.494220
  H      5.121640   -4.143870   -6.076540
  H      4.950040   -2.848620   -4.916390

 Total Charge           Charge          ....   -1
 Multiplicity           Mult            ....    1
 Number of Electrons    NEL             ....   58
 Basis Dimension        Dim             ....  176

ORBITAL ENERGIES
----------------

  NO   OCC          E(Eh)            E(eV)
   0   2.0000     -88.309441     -2403.0221
   1   2.0000     -18.743002      -510.0230
   2   2.0000     -18.731279      -509.7040
   3   2.0000     -18.730893      -509.6935
   4   2.0000      -9.954010      -270.8624
   5   2.0000      -9.945696      -270.6361
   6   2.0000      -7.858507      -213.8409
   7   2.0000      -5.892838      -160.3523
   8   2.0000      -5.892771      -160.3505
   9   2.0000      -5.892173      -160.3342
  10   2.0000      -1.031047       -28.0562
  11   2.0000      -0.883782       -24.0489
  12   2.0000      -0.863088       -23.4858
  13   2.0000      -0.744933       -20.2707
  14   2.0000      -0.620158       -16.8754
  15   2.0000      -0.489689       -13.3251
  16   2.0000      -0.431502       -11.7418
  17   2.0000      -0.425222       -11.5709
  18   2.0000      -0.386906       -10.5282
  19   2.0000      -0.370847       -10.0913
  20   2.0000      -0.361255        -9.8302
  21   2.0000      -0.336663        -9.1611
  22   2.0000      -0.316796        -8.6204
  23   2.0000      -0.255960        -6.9650
  24   2.0000      -0.255209        -6.9446
  25   2.0000      -0.216859        -5.9010
  26   2.0000      -0.207724        -5.6525
  27   2.0000      -0.204039        -5.5522
  28   2.0000      -0.163807        -4.4574
  29   0.0000       0.189329         5.1519
  30   0.0000       0.211731         5.7615
  31   0.0000       0.216825         5.9001
  32   0.0000       0.223753         6.0886
  33   0.0000       0.244346         6.6490

MULLIKEN ATOMIC CHARGES
-----------------------
   0 C :    1.014636
   1 C :   -0.189941
   2 H :   -0.153173
   3 H :   -0.118639
   4 S :    1.089464
   5 O :   -0.753830
   6 O :   -0.698466
   7 O :   -0.749567
   8 H :   -0.122736
   9 H :   -0.189201
  10 H :   -0.128548
Sum of atomic charges:   -1.0000000

LOEWDIN ATOMIC CHARGES
----------------------
   0 C :    0.095974
   1 C :   -0.153718
   2 H :    0.012551
   3 H :    0.009346
   4 S :    0.798188
   5 O :   -0.571997
   6 O :   -0.555947
   7 O :   -0.575865
   8 H :   -0.018057
   9 H :   -0.028690
  10 H :   -0.011784

  Mayer bond orders larger than 0.100000
B(  0-C ,  1-C ) :   1.2688 B(  0-C ,  3-H ) :   0.1018 B(  0-C ,  8-H ) :   0.7643
B(  0-C ,  9-H ) :   0.6668 B(  0-C , 10-H ) :   0.7511 B(  1-C ,  2-H ) :   0.9521
B(  1-C ,  3-H ) :   0.9566 B(  1-C ,  4-S ) :   0.9243 B(  1-C ,  8-H ) :   0.2279
B(  1-C ,  9-H ) :   0.2680 B(  1-C , 10-H ) :   0.2206 B(  4-S ,  5-O ) :   1.3293
B(  4-S ,  6-O ) :   1.4111 B(  4-S ,  7-O ) :   1.3318

FINAL SINGLE POINT ENERGY      -701.946766681732

DIPOLE MOMENT
-------------
                                X             Y             Z
Electronic contribution:     -4.31846       6.27044      -0.66749
Nuclear contribution   :      5.05690      -8.21735       0.57889
                        -----------------------------------------
Total Dipole Moment    :      0.73844      -1.94692      -0.08859
                        -----------------------------------------
Magnitude (a.u.)       :      2.08414
Magnitude (Debye)      :      5.29746

Rotational constants in cm-1:     0.162547     0.083494     0.081672
Rotational constants in MHz :  4873.033504  2503.090885  2448.458543

                             ****ORCA TERMINATED NORMALLY****
TOTAL RUN TIME: 0 days 0 hours 0 minutes 17 seconds 976 msec
