                         Program Version 5.0.0 -  RELEASE  -
|  1> !LC-BLYP RIJCOSX def2-SVPD def2/J TightSCF
|  2> *xyz 1 1
|  3> C          4.49059        1.15590       -2.46929
|  4> N          4.30539        1.22276       -3.90832
|  5> C          4.63192        2.24637       -4.67096
|  6> N          4.54169        2.14399       -5.98714
|  7> N          5.08409        3.39358       -4.11855
|  8> H          4.92067        3.57050       -3.13587
|  9> H          5.25465        4.19739       -4.70696
| 10> H          3.82453        0.44911       -4.35093
| 11> H          4.34337        1.24932       -6.41665
| 12> H          4.67671        2.95662       -6.57411
| 13> C          5.94213        0.93950       -2.03689
| 14> H          3.86431        0.32853       -2.13661
| 15> H          4.07623        2.04999       -1.98901
| 16> H          6.32982        0.06401       -2.51451
| 17> H          5.98308        0.81426       -0.97504
| 18> H          6.52865        1.78889       -2.31873
| 19> *
| 20>
| 21> %MaxCore 64000
| 22>
| 23> %pal nprocs 4
| 24> end
| 25>
| 26> %scf
| 27>   MaxIter 150
| 28> end
| 29>
| 30>
| 31>                          ****END OF INPUT****

CARTESIAN COORDINATES (ANGSTROEM)
---------------------------------
  C      4.490590    1.155900   -2.469290
  N      4.305390    1.222760   -3.908320
  C      4.631920    2.246370   -4.670960
  N      4.541690    2.143990   -5.987140
  N      5.084090    3.393580   -4.118550
  H      4.920670    3.570500   -3.135870
  H      5.254650    4.197390   -4.706960
  H      3.824530    0.449110   -4.350930
  H      4.343370    1.249320   -6.416650
  H      4.676710    2.956620   -6.574110
  C      5.942130    0.939500   -2.036890
  H      3.864310    0.328530   -2.136610
  H      4.076230    2.049990   -1.989010
  H      6.329820    0.064010   -2.514510
  H      5.983080    0.814260   -0.975040
  H      6.528650    1.788890   -2.318730

 Total Charge           Charge          ....    1
 Multiplicity           Mult            ....    1
 Number of Electrons    NEL             ....   48
 Basis Dimension        Dim             ....  200

ORBITAL ENERGIES
----------------

  NO   OCC          E(Eh)            E(eV)
   0   2.0000     -14.413497      -392.2112
   1   2.0000     -14.412940      -392.1960
   2   2.0000     -14.410482      -392.1292
   3   2.0000     -10.424474      -283.6644
   4   2.0000     -10.292350      -280.0691
   5   2.0000     -10.219674      -278.0915
   6   2.0000      -1.311438       -35.6861
   7   2.0000      -1.201427       -32.6925
   8   2.0000      -1.184868       -32.2419
   9   2.0000      -1.034456       -28.1490
  10   2.0000      -0.947973       -25.7957
  11   2.0000      -0.907095       -24.6833
  12   2.0000      -0.894385       -24.3374
  13   2.0000      -0.846803       -23.0427
  14   2.0000      -0.796430       -21.6720
  15   2.0000      -0.792569       -21.5669
  16   2.0000      -0.768034       -20.8993
  17   2.0000      -0.733785       -19.9673
  18   2.0000      -0.708452       -19.2780
  19   2.0000      -0.661994       -18.0138
  20   2.0000      -0.630864       -17.1667
  21   2.0000      -0.609682       -16.5903
  22   2.0000      -0.576741       -15.6939
  23   2.0000      -0.549002       -14.9391
  24   0.0000      -0.095053        -2.5865
  25   0.0000      -0.092334        -2.5125
  26   0.0000      -0.060740        -1.6528
  27   0.0000      -0.056205        -1.5294
  28   0.0000      -0.027750        -0.7551

MULLIKEN ATOMIC CHARGES
-----------------------
   0 C :    0.345922
   1 N :   -0.185501
   2 C :    1.002023
   3 N :    0.181438
   4 N :    0.182386
   5 H :   -0.065246
   6 H :   -0.206221
   7 H :   -0.235168
   8 H :   -0.092358
   9 H :   -0.081097
  10 C :    0.935673
  11 H :   -0.405269
  12 H :   -0.070789
  13 H :   -0.128071
  14 H :   -0.065367
  15 H :   -0.112354
Sum of atomic charges:    1.0000000

LOEWDIN ATOMIC CHARGES
----------------------
   0 C :    0.018076
   1 N :    0.054397
   2 C :   -0.058487
   3 N :    0.271675
   4 N :    0.292073
   5 H :    0.016571
   6 H :    0.036715
   7 H :    0.064428
   8 H :    0.043058
   9 H :    0.042199
  10 C :    0.150650
  11 H :    0.046137
  12 H :    0.034008
  13 H :    0.000054
  14 H :    0.007460
  15 H :   -0.019014

  Mayer bond orders larger than 0.100000
B(  0-C ,  1-N ) :   1.0267 B(  0-C ,  2-C ) :  -0.1241 B(  0-C ,  7-H ) :  -0.1558
B(  0-C , 10-C ) :   1.2529 B(  0-C , 11-H ) :   0.8356 B(  0-C , 12-H ) :   0.8570
B(  0-C , 13-H ) :   0.2758 B(  0-C , 14-H ) :   0.1787 B(  0-C , 15-H ) :   0.2148
B(  1-N ,  2-C ) :   1.1162 B(  1-N ,  3-N ) :   0.2513 B(  1-N ,  4-N ) :   0.2425
B(  1-N ,  7-H ) :   1.2695 B(  1-N , 11-H ) :   0.1951 B(  2-C ,  3-N ) :   0.9555
B(  2-C ,  4-N ) :   1.0001 B(  2-C ,  5-H ) :  -0.1389 B(  2-C ,  6-H ) :  -0.1801
B(  2-C ,  7-H ) :  -0.2724 B(  2-C ,  8-H ) :  -0.1778 B(  2-C ,  9-H ) :  -0.1473
B(  3-N ,  4-N ) :   0.1498 B(  3-N ,  8-H ) :   1.2038 B(  3-N ,  9-H ) :   1.2287
B(  4-N ,  5-H ) :   1.1023 B(  4-N ,  6-H ) :   1.2721 B(  5-H ,  6-H ) :  -0.2186
B(  8-H ,  9-H ) :  -0.1908 B( 10-C , 13-H ) :   0.7385 B( 10-C , 14-H ) :   0.7822
B( 10-C , 15-H ) :   0.7611

FINAL SINGLE POINT ENERGY      -283.483916344354

DIPOLE MOMENT
-------------
                                X             Y             Z
Electronic contribution:     -1.81999       1.57867      -4.46285
Nuclear contribution   :      1.34333      -1.11039       3.43667
                        -----------------------------------------
Total Dipole Moment    :     -0.47666       0.46828      -1.02619
                        -----------------------------------------
Magnitude (a.u.)       :      1.22456
Magnitude (Debye)      :      3.11259

Rotational constants in cm-1:     0.227161     0.075356     0.065003
Rotational constants in MHz :  6810.114531  2259.122204  1948.738523

                             ****ORCA TERMINATED NORMALLY****
TOTAL RUN TIME: 0 days 0 hours 0 minutes 24 seconds 584 msec
