                         Program Version 5.0.0 -  RELEASE  -
|  1> !LC-BLYP RIJCOSX def2-SVPD def2/J TightSCF xyzfile
|  2>
|  3> *xyzfile 0 1 B.xyz
|  4>
|  5> %MaxCore 64000
|  6>
|  7> %pal nprocs 4
|  8> end
|  9>
| 10> %scf
| 11>   MaxIter 150
| 12> end
| 13>
| 14>
| 15>                          ****END OF INPUT****

CARTESIAN COORDINATES (ANGSTROEM)
---------------------------------
  C      4.490588    1.155899   -2.469290
  N      4.305394    1.222762   -3.908317
  C      4.906458   -3.102816   -5.954844
  C      3.511771   -2.806215   -6.492283
  H      2.736044   -3.373445   -5.973736
  H      3.444904   -3.040831   -7.555281
  S      3.004618   -1.096206   -6.389259
  C      4.631918    2.246365   -4.670958
  N      4.541686    2.143990   -5.987139
  N      5.084086    3.393584   -4.118545
  H      4.920675    3.570501   -3.135870
  H      5.254652    4.197390   -4.706956
  H      3.824530    0.449113   -4.350926
  H      4.343373    1.249318   -6.416646
  H      4.676712    2.956624   -6.574113
  O      4.128856   -0.329647   -6.953717
  O      1.781285   -1.000779   -7.136399
  C      5.942129    0.939500   -2.036893
  H      3.864305    0.328532   -2.136611
  H      4.076233    2.049994   -1.989010
  C      6.462677   -3.117775   -3.944671
  C      5.024977   -3.025679   -4.437625
  H      4.423321   -3.818693   -3.977648
  H      4.579350   -2.087131   -4.108727
  H      5.201533   -4.100207   -6.296905
  H      5.605922   -2.397822   -6.413368
  C      6.559957   -0.356290   -2.559086
  H      5.967976    0.952567   -0.942444
  H      6.547184    1.788331   -2.368849
  C      6.006283   -1.615917   -1.899301
  H      7.642360   -0.318000   -2.402059
  H      6.414855   -0.403433   -3.642587
  C      6.608718   -2.917014   -2.435655
  H      6.190324   -1.561115   -0.820948
  H      4.919250   -1.651245   -2.016586
  H      7.066975   -2.374258   -4.475514
  H      6.887808   -4.089747   -4.215332
  H      6.135197   -3.755573   -1.915159
  H      7.671142   -2.955503   -2.172291
  O      2.851546   -0.783683   -4.956789

 Total Charge           Charge          ....    0
 Multiplicity           Mult            ....    1
 Number of Electrons    NEL             ....  144
 Basis Dimension        Dim             ....  540

ORBITAL ENERGIES
----------------

  NO   OCC          E(Eh)            E(eV)
   0   2.0000     -88.466631     -2407.2994
   1   2.0000     -18.899702      -514.2870
   2   2.0000     -18.899646      -514.2855
   3   2.0000     -18.885902      -513.9115
   4   2.0000     -14.265563      -388.1857
   5   2.0000     -14.232660      -387.2904
   6   2.0000     -14.230312      -387.2265
   7   2.0000     -10.259803      -279.1834
   8   2.0000     -10.150448      -276.2077
   9   2.0000     -10.105303      -274.9793
  10   2.0000     -10.088937      -274.5339
  11   2.0000     -10.082203      -274.3507
  12   2.0000     -10.080173      -274.2954
  13   2.0000     -10.077127      -274.2126
  14   2.0000     -10.070569      -274.0341
  15   2.0000     -10.070303      -274.0269
  16   2.0000     -10.061742      -273.7939
  17   2.0000      -8.014762      -218.0928
  18   2.0000      -6.050007      -164.6291
  19   2.0000      -6.049069      -164.6035
  20   2.0000      -6.047562      -164.5625
  21   2.0000      -1.190888       -32.4057
  22   2.0000      -1.147943       -31.2371
  23   2.0000      -1.042988       -28.3811
  24   2.0000      -1.039636       -28.2899
  25   2.0000      -1.032523       -28.0964
  26   2.0000      -1.022321       -27.8188
  27   2.0000      -0.930104       -25.3094
  28   2.0000      -0.905003       -24.6264
  29   2.0000      -0.878982       -23.9183
  30   2.0000      -0.841145       -22.8887
  31   2.0000      -0.805964       -21.9314
  32   2.0000      -0.781498       -21.2656
  33   2.0000      -0.753736       -20.5102
  34   2.0000      -0.736173       -20.0323
  35   2.0000      -0.722638       -19.6640
  36   2.0000      -0.701835       -19.0979
  37   2.0000      -0.681460       -18.5435
  38   2.0000      -0.656091       -17.8532
  39   2.0000      -0.651695       -17.7335
  40   2.0000      -0.644135       -17.5278
  41   2.0000      -0.622880       -16.9494
  42   2.0000      -0.609317       -16.5804
  43   2.0000      -0.594364       -16.1735
  44   2.0000      -0.589652       -16.0453
  45   2.0000      -0.574999       -15.6465
  46   2.0000      -0.569583       -15.4991
  47   2.0000      -0.559870       -15.2348
  48   2.0000      -0.541635       -14.7386
  49   2.0000      -0.538838       -14.6625
  50   2.0000      -0.532603       -14.4929
  51   2.0000      -0.521064       -14.1789
  52   2.0000      -0.513273       -13.9669
  53   2.0000      -0.502333       -13.6692
  54   2.0000      -0.491907       -13.3855
  55   2.0000      -0.483143       -13.1470
  56   2.0000      -0.465778       -12.6745
  57   2.0000      -0.458894       -12.4872
  58   2.0000      -0.449684       -12.2365
  59   2.0000      -0.433944       -11.8082
  60   2.0000      -0.426030       -11.5929
  61   2.0000      -0.423031       -11.5113
  62   2.0000      -0.418627       -11.3914
  63   2.0000      -0.413780       -11.2595
  64   2.0000      -0.410791       -11.1782
  65   2.0000      -0.405967       -11.0469
  66   2.0000      -0.401185       -10.9168
  67   2.0000      -0.384369       -10.4592
  68   2.0000      -0.372568       -10.1381
  69   2.0000      -0.363570        -9.8932
  70   2.0000      -0.354160        -9.6372
  71   2.0000      -0.328518        -8.9394
  72   0.0000       0.034861         0.9486
  73   0.0000       0.057522         1.5653
  74   0.0000       0.067364         1.8331
  75   0.0000       0.079007         2.1499
  76   0.0000       0.083073         2.2605

MULLIKEN ATOMIC CHARGES
-----------------------
   0 C :    1.153486
   1 N :    0.427659
   2 C :    0.442566
   3 C :    0.481109
   4 H :   -0.091094
   5 H :   -0.106283
   6 S :    1.070155
   7 C :    0.810286
   8 N :    0.713959
   9 N :    0.372846
  10 H :   -0.083815
  11 H :   -0.245012
  12 H :   -1.143444
  13 H :   -0.519885
  14 H :   -0.193396
  15 O :   -0.699733
  16 O :   -0.673484
  17 C :    0.546367
  18 H :   -0.372364
  19 H :   -0.284098
  20 C :    0.219107
  21 C :    0.505017
  22 H :   -0.022446
  23 H :   -0.767839
  24 H :   -0.187275
  25 H :   -0.026549
  26 C :    0.343152
  27 H :   -0.193366
  28 H :   -0.137594
  29 C :    0.016516
  30 H :   -0.258377
  31 H :   -0.240889
  32 C :    0.824424
  33 H :   -0.453847
  34 H :    0.073341
  35 H :    0.033663
  36 H :   -0.445244
  37 H :   -0.122728
  38 H :   -0.071613
  39 O :   -0.693277
Sum of atomic charges:   -0.0000000

LOEWDIN ATOMIC CHARGES
----------------------
   0 C :    0.064113
   1 N :    0.094624
   2 C :   -0.047059
   3 C :   -0.074769
   4 H :    0.032377
   5 H :    0.027304
   6 S :    0.908536
   7 C :   -0.050241
   8 N :    0.298395
   9 N :    0.262908
  10 H :   -0.002107
  11 H :    0.016407
  12 H :   -0.089597
  13 H :   -0.111673
  14 H :    0.029348
  15 O :   -0.507112
  16 O :   -0.491952
  17 C :   -0.028414
  18 H :    0.037406
  19 H :    0.023175
  20 C :   -0.049009
  21 C :   -0.041181
  22 H :    0.046034
  23 H :   -0.019077
  24 H :    0.034101
  25 H :    0.026590
  26 C :   -0.039043
  27 H :    0.033090
  28 H :    0.013826
  29 C :   -0.047297
  30 H :    0.035197
  31 H :    0.016173
  32 C :   -0.040459
  33 H :    0.029081
  34 H :    0.013702
  35 H :    0.021187
  36 H :    0.029509
  37 H :    0.028940
  38 H :    0.026719
  39 O :   -0.509751

  Mayer bond orders larger than 0.100000
B(  0-C ,  1-N ) :   1.0453 B(  0-C , 12-H ) :  -0.5034 B(  0-C , 17-C ) :   1.0805
B(  0-C , 18-H ) :   0.5644 B(  0-C , 19-H ) :   0.7964 B(  0-C , 26-C ) :   0.1994
B(  0-C , 27-H ) :   0.1207 B(  1-N ,  7-C ) :   1.3612 B(  1-N ,  9-N ) :   0.2563
B(  1-N , 12-H ) :   0.9656 B(  1-N , 13-H ) :   0.1626 B(  1-N , 14-H ) :  -0.1446
B(  1-N , 18-H ) :   0.3233 B(  2-C ,  3-C ) :   1.1856 B(  2-C ,  5-H ) :   0.3067
B(  2-C , 20-C ) :   0.1737 B(  2-C , 21-C ) :   1.1389 B(  2-C , 22-H ) :   0.1205
B(  2-C , 24-H ) :   0.7274 B(  2-C , 25-H ) :   0.8019 B(  3-C ,  4-H ) :   0.8752
B(  3-C ,  5-H ) :   0.6443 B(  3-C ,  6-S ) :   0.9780 B(  3-C , 21-C ) :   0.1923
B(  3-C , 25-H ) :   0.1109 B(  5-H ,  6-S ) :   0.1161 B(  6-S , 15-O ) :   1.1773
B(  6-S , 16-O ) :   1.4776 B(  6-S , 39-O ) :   1.2083 B(  7-C ,  8-N ) :   1.0116
B(  7-C ,  9-N ) :   0.9979 B(  7-C , 10-H ) :  -0.1269 B(  7-C , 12-H ) :  -0.7654
B(  7-C , 13-H ) :  -0.3186 B(  7-C , 14-H ) :  -0.1066 B(  8-N ,  9-N ) :   0.1112
B(  8-N , 13-H ) :   1.1466 B(  8-N , 14-H ) :   1.2199 B(  9-N , 10-H ) :   1.1045
B(  9-N , 11-H ) :   1.2032 B( 10-H , 11-H ) :  -0.2132 B( 12-H , 39-O ) :   0.3130
B( 13-H , 14-H ) :  -0.2638 B( 13-H , 15-O ) :   0.2798 B( 17-C , 18-H ) :   0.1015
B( 17-C , 19-H ) :   0.1276 B( 17-C , 26-C ) :   1.2021 B( 17-C , 27-H ) :   0.8764
B( 17-C , 28-H ) :   0.6339 B( 17-C , 32-C ) :   0.1017 B( 18-H , 19-H ) :  -0.2293
B( 20-C , 21-C ) :   1.2028 B( 20-C , 22-H ) :   0.1151 B( 20-C , 23-H ) :   0.1333
B( 20-C , 29-C ) :   0.1974 B( 20-C , 32-C ) :   1.1058 B( 20-C , 35-H ) :   0.8329
B( 20-C , 36-H ) :   0.8552 B( 20-C , 37-H ) :   0.1016 B( 20-C , 38-H ) :   0.2736
B( 21-C , 22-H ) :   0.6536 B( 21-C , 23-H ) :   0.4959 B( 21-C , 24-H ) :   0.2133
B( 21-C , 25-H ) :   0.1030 B( 21-C , 35-H ) :   0.1090 B( 21-C , 36-H ) :   0.2162
B( 22-H , 23-H ) :   0.2077 B( 23-H , 34-H ) :   0.1423 B( 26-C , 28-H ) :   0.2669
B( 26-C , 29-C ) :   1.2190 B( 26-C , 30-H ) :   0.8194 B( 26-C , 31-H ) :   0.8289
B( 26-C , 33-H ) :   0.1477 B( 26-C , 34-H ) :   0.1266 B( 27-H , 28-H ) :  -0.1314
B( 29-C , 30-H ) :   0.1619 B( 29-C , 31-H ) :   0.1543 B( 29-C , 32-C ) :   1.1121
B( 29-C , 33-H ) :   0.9517 B( 29-C , 34-H ) :   0.8248 B( 29-C , 37-H ) :   0.3546
B( 29-C , 38-H ) :   0.1354 B( 31-H , 35-H ) :   0.1105 B( 32-C , 37-H ) :   0.5773
B( 32-C , 38-H ) :   0.6219 B( 37-H , 38-H ) :  -0.1451

FINAL SINGLE POINT ENERGY     -1180.282981629110

DIPOLE MOMENT
-------------
                                X             Y             Z
Electronic contribution:    -14.47539       8.26741     -15.29231
Nuclear contribution   :     16.79156      -5.47215      17.54258
                        -----------------------------------------
Total Dipole Moment    :      2.31617       2.79526       2.25027
                        -----------------------------------------
Magnitude (a.u.)       :      4.27105
Magnitude (Debye)      :     10.85614

Rotational constants in cm-1:     0.014207     0.012373     0.007472
Rotational constants in MHz :   425.900436   370.942493   224.006604

                             ****ORCA TERMINATED NORMALLY****
TOTAL RUN TIME: 0 days 0 hours 5 minutes 24 seconds 567 msec
