                         Program Version 5.0.0 -  RELEASE  -
|  1> !LC-BLYP RIJCOSX def2-SVPD def2/J TightSCF
|  2> *xyz 0 1
|  3> C          4.90646       -3.10282       -5.95484
|  4> C          3.51177       -2.80621       -6.49228
|  5> H          2.73604       -3.37345       -5.97374
|  6> H          3.44490       -3.04083       -7.55528
|  7> S          3.00462       -1.09621       -6.38926
|  8> F          4.12886       -0.32965       -6.95372
|  9> O          1.78128       -1.00078       -7.13640
| 10> O          2.85155       -0.78368       -4.95679
| 11> H          5.62703       -2.52424       -6.49422
| 12> H          5.12164       -4.14387       -6.07654
| 13> H          4.95004       -2.84862       -4.91639
| 14> *
| 15>
| 16> %MaxCore 64000
| 17>
| 18> %pal nprocs 4
| 19> end
| 20>
| 21> %scf
| 22>   MaxIter 150
| 23> end
| 24>
| 25>
| 26>                          ****END OF INPUT****

CARTESIAN COORDINATES (ANGSTROEM)
---------------------------------
  C      4.906460   -3.102820   -5.954840
  C      3.511770   -2.806210   -6.492280
  H      2.736040   -3.373450   -5.973740
  H      3.444900   -3.040830   -7.555280
  S      3.004620   -1.096210   -6.389260
  F      4.128860   -0.329650   -6.953720
  O      1.781280   -1.000780   -7.136400
  O      2.851550   -0.783680   -4.956790
  H      5.627030   -2.524240   -6.494220
  H      5.121640   -4.143870   -6.076540
  H      4.950040   -2.848620   -4.916390

 Total Charge           Charge          ....    0
 Multiplicity           Mult            ....    1
 Number of Electrons    NEL             ....   58
 Basis Dimension        Dim             ....  176

ORBITAL ENERGIES
----------------

  NO   OCC          E(Eh)            E(eV)
   0   2.0000     -88.565725     -2409.9959
   1   2.0000     -24.581921      -668.9081
   2   2.0000     -18.975690      -516.3548
   3   2.0000     -18.963485      -516.0227
   4   2.0000     -10.155091      -276.3341
   5   2.0000     -10.113545      -275.2035
   6   2.0000      -8.115611      -220.8370
   7   2.0000      -6.154441      -167.4709
   8   2.0000      -6.147691      -167.2872
   9   2.0000      -6.146150      -167.2452
  10   2.0000      -1.437228       -39.1090
  11   2.0000      -1.211577       -32.9687
  12   2.0000      -1.106758       -30.1164
  13   2.0000      -0.940978       -25.6053
  14   2.0000      -0.834184       -22.6993
  15   2.0000      -0.787747       -21.4357
  16   2.0000      -0.697807       -18.9883
  17   2.0000      -0.677635       -18.4394
  18   2.0000      -0.652712       -17.7612
  19   2.0000      -0.607809       -16.5393
  20   2.0000      -0.585718       -15.9382
  21   2.0000      -0.563199       -15.3254
  22   2.0000      -0.544339       -14.8122
  23   2.0000      -0.518382       -14.1059
  24   2.0000      -0.505632       -13.7590
  25   2.0000      -0.487116       -13.2551
  26   2.0000      -0.441108       -12.0032
  27   2.0000      -0.429855       -11.6970
  28   2.0000      -0.414397       -11.2763
  29   0.0000       0.044269         1.2046
  30   0.0000       0.074770         2.0346
  31   0.0000       0.078006         2.1226
  32   0.0000       0.081894         2.2284
  33   0.0000       0.108830         2.9614

MULLIKEN ATOMIC CHARGES
-----------------------
   0 C :    1.037518
   1 C :   -0.206338
   2 H :   -0.100224
   3 H :   -0.078154
   4 S :    1.252700
   5 F :   -0.360825
   6 O :   -0.553129
   7 O :   -0.608824
   8 H :   -0.121268
   9 H :   -0.155182
  10 H :   -0.106274
Sum of atomic charges:    0.0000000

LOEWDIN ATOMIC CHARGES
----------------------
   0 C :    0.125173
   1 C :   -0.105746
   2 H :    0.044415
   3 H :    0.029019
   4 S :    1.061459
   5 F :   -0.250025
   6 O :   -0.441628
   7 O :   -0.459778
   8 H :   -0.005955
   9 H :    0.000547
  10 H :    0.002517

  Mayer bond orders larger than 0.100000
B(  0-C ,  1-C ) :   1.2866 B(  0-C ,  8-H ) :   0.7531 B(  0-C ,  9-H ) :   0.6729
B(  0-C , 10-H ) :   0.7571 B(  1-C ,  2-H ) :   0.9515 B(  1-C ,  3-H ) :   0.9626
B(  1-C ,  4-S ) :   0.9842 B(  1-C ,  8-H ) :   0.2153 B(  1-C ,  9-H ) :   0.2596
B(  1-C , 10-H ) :   0.2166 B(  4-S ,  5-F ) :   0.7103 B(  4-S ,  6-O ) :   1.6231
B(  4-S ,  7-O ) :   1.5494

FINAL SINGLE POINT ENERGY      -726.428613327545

DIPOLE MOMENT
-------------
                                X             Y             Z
Electronic contribution:     -2.94999       8.10737      -1.75882
Nuclear contribution   :      4.18919      -9.36357       1.23251
                        -----------------------------------------
Total Dipole Moment    :      1.23921      -1.25620      -0.52631
                        -----------------------------------------
Magnitude (a.u.)       :      1.84138
Magnitude (Debye)      :      4.68041

Rotational constants in cm-1:     0.153152     0.082513     0.079874
Rotational constants in MHz :  4591.373714  2473.673397  2394.575279

                             ****ORCA TERMINATED NORMALLY****
TOTAL RUN TIME: 0 days 0 hours 0 minutes 18 seconds 711 msec
