                         Program Version 5.0.0 -  RELEASE  -
|  1> !LC-BLYP RIJCOSX def2-SVPD def2/J TightSCF
|  2> *xyz 0 1
|  3> C          4.49059        1.15590       -2.46929
|  4> C          4.30539        1.22276       -3.90832
|  5> C          4.63192        2.24637       -4.67096
|  6> N          4.54169        2.14399       -5.98714
|  7> N          5.08409        3.39358       -4.11855
|  8> H          4.92067        3.57050       -3.13587
|  9> H          5.25465        4.19739       -4.70696
| 10> H          3.82453        0.44911       -4.35093
| 11> H          4.34337        1.24932       -6.41665
| 12> H          4.67671        2.95662       -6.57411
| 13> C          5.94213        0.93950       -2.03689
| 14> H          3.86431        0.32853       -2.13661
| 15> H          4.07623        2.04999       -1.98901
| 16> H          6.32982        0.06401       -2.51451
| 17> H          5.98308        0.81426       -0.97504
| 18> H          6.52865        1.78889       -2.31873
| 19> *
| 20>
| 21> %MaxCore 64000
| 22>
| 23> %pal nprocs 4
| 24> end
| 25>
| 26> %scf
| 27>   MaxIter 150
| 28> end
| 29>
| 30>
| 31>                          ****END OF INPUT****

CARTESIAN COORDINATES (ANGSTROEM)
---------------------------------
  C      4.490590    1.155900   -2.469290
  C      4.305390    1.222760   -3.908320
  C      4.631920    2.246370   -4.670960
  N      4.541690    2.143990   -5.987140
  N      5.084090    3.393580   -4.118550
  H      4.920670    3.570500   -3.135870
  H      5.254650    4.197390   -4.706960
  H      3.824530    0.449110   -4.350930
  H      4.343370    1.249320   -6.416650
  H      4.676710    2.956620   -6.574110
  C      5.942130    0.939500   -2.036890
  H      3.864310    0.328530   -2.136610
  H      4.076230    2.049990   -1.989010
  H      6.329820    0.064010   -2.514510
  H      5.983080    0.814260   -0.975040
  H      6.528650    1.788890   -2.318730

 Total Charge           Charge          ....    0
 Multiplicity           Mult            ....    1
 Number of Electrons    NEL             ....   48
 Basis Dimension        Dim             ....  200

ORBITAL ENERGIES
----------------

  NO   OCC          E(Eh)            E(eV)
   0   2.0000     -14.189691      -386.1211
   1   2.0000     -14.187055      -386.0494
   2   2.0000     -10.129618      -275.6409
   3   2.0000     -10.059004      -273.7194
   4   2.0000     -10.048067      -273.4218
   5   2.0000     -10.006787      -272.2985
   6   2.0000      -1.054071       -28.6827
   7   2.0000      -0.962715       -26.1968
   8   2.0000      -0.875357       -23.8197
   9   2.0000      -0.796073       -21.6622
  10   2.0000      -0.720472       -19.6050
  11   2.0000      -0.682715       -18.5776
  12   2.0000      -0.647867       -17.6294
  13   2.0000      -0.611197       -16.6315
  14   2.0000      -0.576278       -15.6813
  15   2.0000      -0.540950       -14.7200
  16   2.0000      -0.528241       -14.3742
  17   2.0000      -0.493451       -13.4275
  18   2.0000      -0.489892       -13.3306
  19   2.0000      -0.451991       -12.2993
  20   2.0000      -0.426808       -11.6140
  21   2.0000      -0.413300       -11.2465
  22   2.0000      -0.365379        -9.9425
  23   2.0000      -0.254413        -6.9229
  24   0.0000       0.070558         1.9200
  25   0.0000       0.094141         2.5617
  26   0.0000       0.104805         2.8519
  27   0.0000       0.114389         3.1127
  28   0.0000       0.136016         3.7012

MULLIKEN ATOMIC CHARGES
-----------------------
   0 C :   -0.070324
   1 C :   -0.273359
   2 C :    0.833108
   3 N :    0.208379
   4 N :    0.195404
   5 H :   -0.083778
   6 H :   -0.306320
   7 H :   -0.565899
   8 H :   -0.081568
   9 H :   -0.202746
  10 C :    0.897557
  11 H :   -0.086008
  12 H :   -0.094613
  13 H :   -0.128440
  14 H :   -0.102721
  15 H :   -0.138671
Sum of atomic charges:   -0.0000000

LOEWDIN ATOMIC CHARGES
----------------------
   0 C :   -0.116557
   1 C :   -0.046338
   2 C :   -0.237235
   3 N :    0.187128
   4 N :    0.215681
   5 H :   -0.014208
   6 H :   -0.012819
   7 H :   -0.047185
   8 H :    0.008255
   9 H :   -0.009293
  10 C :    0.108980
  11 H :    0.020006
  12 H :    0.010415
  13 H :   -0.014775
  14 H :   -0.022777
  15 H :   -0.029278

  Mayer bond orders larger than 0.100000
B(  0-C ,  1-C ) :   1.2787 B(  0-C ,  7-H ) :   0.3128 B(  0-C , 10-C ) :   1.2375
B(  0-C , 11-H ) :   0.7607 B(  0-C , 12-H ) :   0.8347 B(  0-C , 13-H ) :   0.2065
B(  0-C , 14-H ) :   0.1972 B(  0-C , 15-H ) :   0.2379 B(  1-C ,  2-C ) :   1.4610
B(  1-C ,  3-N ) :   0.4133 B(  1-C ,  4-N ) :   0.2768 B(  1-C ,  7-H ) :   0.8821
B(  1-C , 11-H ) :   0.3706 B(  1-C , 12-H ) :   0.1738 B(  2-C ,  3-N ) :   0.9003
B(  2-C ,  4-N ) :   1.0087 B(  2-C ,  6-H ) :  -0.1678 B(  2-C ,  8-H ) :  -0.1047
B(  3-N ,  7-H ) :   0.1009 B(  3-N ,  8-H ) :   1.1866 B(  3-N ,  9-H ) :   1.2214
B(  4-N ,  5-H ) :   1.0851 B(  4-N ,  6-H ) :   1.2966 B(  5-H ,  6-H ) :  -0.2015
B(  7-H , 11-H ) :  -0.1357 B(  8-H ,  9-H ) :  -0.1816 B( 10-C , 13-H ) :   0.7879
B( 10-C , 14-H ) :   0.7686 B( 10-C , 15-H ) :   0.7540

FINAL SINGLE POINT ENERGY      -267.018522528300

DIPOLE MOMENT
-------------
                                X             Y             Z
Electronic contribution:     -1.27319       1.95982      -4.10067
Nuclear contribution   :      1.23062      -1.24683       3.43056
                        -----------------------------------------
Total Dipole Moment    :     -0.04257       0.71299      -0.67011
                        -----------------------------------------
Magnitude (a.u.)       :      0.97939
Magnitude (Debye)      :      2.48942

Rotational constants in cm-1:     0.231477     0.075416     0.065327
Rotational constants in MHz :  6939.497385  2260.912204  1958.442932

                             ****ORCA TERMINATED NORMALLY****
TOTAL RUN TIME: 0 days 0 hours 0 minutes 27 seconds 451 msec
