                         Program Version 5.0.0 -  RELEASE  -
|  1> !LC-BLYP RIJCOSX def2-SVPD def2/J TightSCF
|  2> *xyz 0 1
|  3> C          4.90646       -3.10282       -5.95484
|  4> C          3.51177       -2.80621       -6.49228
|  5> H          2.73604       -3.37345       -5.97374
|  6> H          3.44490       -3.04083       -7.55528
|  7> S          3.00462       -1.09621       -6.38926
|  8> O          4.12886       -0.32965       -6.95372
|  9> F          1.78128       -1.00078       -7.13640
| 10> O          2.85155       -0.78368       -4.95679
| 11> H          5.62703       -2.52424       -6.49422
| 12> H          5.12164       -4.14387       -6.07654
| 13> H          4.95004       -2.84862       -4.91639
| 14> *
| 15>
| 16> %MaxCore 64000
| 17>
| 18> %pal nprocs 4
| 19> end
| 20>
| 21> %scf
| 22>   MaxIter 150
| 23> end
| 24>
| 25>
| 26>                          ****END OF INPUT****

CARTESIAN COORDINATES (ANGSTROEM)
---------------------------------
  C      4.906460   -3.102820   -5.954840
  C      3.511770   -2.806210   -6.492280
  H      2.736040   -3.373450   -5.973740
  H      3.444900   -3.040830   -7.555280
  S      3.004620   -1.096210   -6.389260
  O      4.128860   -0.329650   -6.953720
  F      1.781280   -1.000780   -7.136400
  O      2.851550   -0.783680   -4.956790
  H      5.627030   -2.524240   -6.494220
  H      5.121640   -4.143870   -6.076540
  H      4.950040   -2.848620   -4.916390

 Total Charge           Charge          ....    0
 Multiplicity           Mult            ....    1
 Number of Electrons    NEL             ....   58
 Basis Dimension        Dim             ....  176

ORBITAL ENERGIES
----------------

  NO   OCC          E(Eh)            E(eV)
   0   2.0000     -88.567674     -2410.0489
   1   2.0000     -24.600312      -669.4085
   2   2.0000     -18.963817      -516.0317
   3   2.0000     -18.963721      -516.0291
   4   2.0000     -10.156081      -276.3610
   5   2.0000     -10.108513      -275.0666
   6   2.0000      -8.117645      -220.8924
   7   2.0000      -6.156533      -167.5278
   8   2.0000      -6.149553      -167.3378
   9   2.0000      -6.148072      -167.2975
  10   2.0000      -1.467927       -39.9443
  11   2.0000      -1.199269       -32.6338
  12   2.0000      -1.093177       -29.7469
  13   2.0000      -0.938003       -25.5244
  14   2.0000      -0.848739       -23.0954
  15   2.0000      -0.789092       -21.4723
  16   2.0000      -0.700183       -19.0529
  17   2.0000      -0.699129       -19.0243
  18   2.0000      -0.664591       -18.0845
  19   2.0000      -0.609039       -16.5728
  20   2.0000      -0.589747       -16.0478
  21   2.0000      -0.545016       -14.8306
  22   2.0000      -0.539696       -14.6859
  23   2.0000      -0.515763       -14.0346
  24   2.0000      -0.492672       -13.4063
  25   2.0000      -0.487005       -13.2521
  26   2.0000      -0.429894       -11.6980
  27   2.0000      -0.428155       -11.6507
  28   2.0000      -0.403218       -10.9721
  29   0.0000       0.044528         1.2117
  30   0.0000       0.070445         1.9169
  31   0.0000       0.078978         2.1491
  32   0.0000       0.081512         2.2180
  33   0.0000       0.108367         2.9488

MULLIKEN ATOMIC CHARGES
-----------------------
   0 C :    1.021964
   1 C :   -0.232530
   2 H :   -0.097603
   3 H :   -0.066575
   4 S :    1.281451
   5 O :   -0.600852
   6 F :   -0.343897
   7 O :   -0.597451
   8 H :   -0.101696
   9 H :   -0.153832
  10 H :   -0.108979
Sum of atomic charges:   -0.0000000

LOEWDIN ATOMIC CHARGES
----------------------
   0 C :    0.139479
   1 C :   -0.117688
   2 H :    0.031048
   3 H :    0.026778
   4 S :    1.066781
   5 O :   -0.459683
   6 F :   -0.234344
   7 O :   -0.460666
   8 H :    0.000111
   9 H :    0.002117
  10 H :    0.006066

  Mayer bond orders larger than 0.100000
B(  0-C ,  1-C ) :   1.3280 B(  0-C ,  3-H ) :   0.1023 B(  0-C ,  8-H ) :   0.7582
B(  0-C ,  9-H ) :   0.6798 B(  0-C , 10-H ) :   0.7480 B(  1-C ,  2-H ) :   0.9452
B(  1-C ,  3-H ) :   0.9383 B(  1-C ,  4-S ) :   0.9587 B(  1-C ,  8-H ) :   0.2237
B(  1-C ,  9-H ) :   0.2595 B(  1-C , 10-H ) :   0.2155 B(  4-S ,  5-O ) :   1.5418
B(  4-S ,  6-F ) :   0.7736 B(  4-S ,  7-O ) :   1.5389 B(  8-H , 10-H ) :   0.1019

FINAL SINGLE POINT ENERGY      -726.413018641273

DIPOLE MOMENT
-------------
                                X             Y             Z
Electronic contribution:     -6.94560       6.98465      -2.06736
Nuclear contribution   :      6.63544      -8.66423       1.42287
                        -----------------------------------------
Total Dipole Moment    :     -0.31015      -1.67958      -0.64449
                        -----------------------------------------
Magnitude (a.u.)       :      1.82553
Magnitude (Debye)      :      4.64012

Rotational constants in cm-1:     0.158118     0.080978     0.078216
Rotational constants in MHz :  4740.271775  2427.649826  2344.849020

                             ****ORCA TERMINATED NORMALLY****
TOTAL RUN TIME: 0 days 0 hours 0 minutes 18 seconds 716 msec
