                         Program Version 5.0.0 -  RELEASE  -
|  1> !LC-BLYP RIJCOSX def2-SVPD def2/J TightSCF
|  2> *xyz 0 1
|  3> C          4.49059        1.15590       -2.46929
|  4> N          4.30539        1.22276       -3.90832
|  5> C          4.63192        2.24637       -4.67096
|  6> C          4.54169        2.14399       -5.98714
|  7> N          5.08409        3.39358       -4.11855
|  8> H          4.92067        3.57050       -3.13587
|  9> H          5.25465        4.19739       -4.70696
| 10> H          3.82453        0.44911       -4.35093
| 11> H          4.34337        1.24932       -6.41665
| 12> H          4.67671        2.95662       -6.57411
| 13> C          5.94213        0.93950       -2.03689
| 14> H          3.86431        0.32853       -2.13661
| 15> H          4.07623        2.04999       -1.98901
| 16> H          6.32982        0.06401       -2.51451
| 17> H          5.98308        0.81426       -0.97504
| 18> H          6.52865        1.78889       -2.31873
| 19> *
| 20>
| 21> %MaxCore 64000
| 22>
| 23> %pal nprocs 4
| 24> end
| 25>
| 26> %scf
| 27>   MaxIter 150
| 28> end
| 29>
| 30>
| 31>                          ****END OF INPUT****

CARTESIAN COORDINATES (ANGSTROEM)
---------------------------------
  C      4.490590    1.155900   -2.469290
  N      4.305390    1.222760   -3.908320
  C      4.631920    2.246370   -4.670960
  C      4.541690    2.143990   -5.987140
  N      5.084090    3.393580   -4.118550
  H      4.920670    3.570500   -3.135870
  H      5.254650    4.197390   -4.706960
  H      3.824530    0.449110   -4.350930
  H      4.343370    1.249320   -6.416650
  H      4.676710    2.956620   -6.574110
  C      5.942130    0.939500   -2.036890
  H      3.864310    0.328530   -2.136610
  H      4.076230    2.049990   -1.989010
  H      6.329820    0.064010   -2.514510
  H      5.983080    0.814260   -0.975040
  H      6.528650    1.788890   -2.318730

 Total Charge           Charge          ....    0
 Multiplicity           Mult            ....    1
 Number of Electrons    NEL             ....   48
 Basis Dimension        Dim             ....  200

ORBITAL ENERGIES
----------------

  NO   OCC          E(Eh)            E(eV)
   0   2.0000     -14.188004      -386.0752
   1   2.0000     -14.187506      -386.0617
   2   2.0000     -10.131948      -275.7043
   3   2.0000     -10.125742      -275.5354
   4   2.0000     -10.073412      -274.1115
   5   2.0000      -9.995853      -272.0010
   6   2.0000      -1.062904       -28.9231
   7   2.0000      -0.975114       -26.5342
   8   2.0000      -0.874355       -23.7924
   9   2.0000      -0.803236       -21.8572
  10   2.0000      -0.734577       -19.9889
  11   2.0000      -0.702067       -19.1042
  12   2.0000      -0.641358       -17.4522
  13   2.0000      -0.603270       -16.4158
  14   2.0000      -0.582384       -15.8475
  15   2.0000      -0.552951       -15.0466
  16   2.0000      -0.528882       -14.3916
  17   2.0000      -0.505560       -13.7570
  18   2.0000      -0.482550       -13.1309
  19   2.0000      -0.475305       -12.9337
  20   2.0000      -0.461007       -12.5446
  21   2.0000      -0.451985       -12.2991
  22   2.0000      -0.354170        -9.6375
  23   2.0000      -0.256820        -6.9884
  24   0.0000       0.066309         1.8044
  25   0.0000       0.095226         2.5912
  26   0.0000       0.099362         2.7038
  27   0.0000       0.104528         2.8443
  28   0.0000       0.135564         3.6889

MULLIKEN ATOMIC CHARGES
-----------------------
   0 C :    0.349169
   1 N :   -0.091073
   2 C :    0.563752
   3 C :    0.452860
   4 N :    0.334956
   5 H :   -0.162628
   6 H :   -0.227722
   7 H :   -0.291230
   8 H :   -0.401492
   9 H :   -0.488992
  10 C :    0.931587
  11 H :   -0.464077
  12 H :   -0.113829
  13 H :   -0.142057
  14 H :   -0.131165
  15 H :   -0.118061
Sum of atomic charges:    0.0000000

LOEWDIN ATOMIC CHARGES
----------------------
   0 C :   -0.013244
   1 N :   -0.004721
   2 C :   -0.252277
   3 C :    0.132677
   4 N :    0.212704
   5 H :   -0.027325
   6 H :    0.003946
   7 H :    0.036938
   8 H :   -0.096794
   9 H :   -0.099358
  10 C :    0.123313
  11 H :    0.024635
  12 H :    0.014137
  13 H :   -0.011903
  14 H :   -0.016316
  15 H :   -0.026414

  Mayer bond orders larger than 0.100000
B(  0-C ,  1-N ) :   1.0050 B(  0-C ,  7-H ) :  -0.1764 B(  0-C , 10-C ) :   1.2380
B(  0-C , 11-H ) :   0.8347 B(  0-C , 12-H ) :   0.8581 B(  0-C , 13-H ) :   0.2806
B(  0-C , 14-H ) :   0.1946 B(  0-C , 15-H ) :   0.2220 B(  1-N ,  2-C ) :   1.1435
B(  1-N ,  3-C ) :   0.2515 B(  1-N ,  4-N ) :   0.1662 B(  1-N ,  7-H ) :   1.2528
B(  1-N , 11-H ) :   0.1955 B(  1-N , 12-H ) :   0.1131 B(  2-C ,  3-C ) :   1.2564
B(  2-C ,  4-N ) :   1.0070 B(  2-C ,  6-H ) :  -0.1237 B(  2-C ,  7-H ) :  -0.2329
B(  2-C ,  9-H ) :   0.1443 B(  3-C ,  4-N ) :   0.2052 B(  3-C ,  8-H ) :   0.7875
B(  3-C ,  9-H ) :   0.7251 B(  4-N ,  5-H ) :   1.0630 B(  4-N ,  6-H ) :   1.2095
B(  5-H ,  6-H ) :  -0.2064 B( 10-C , 13-H ) :   0.7399 B( 10-C , 14-H ) :   0.7854
B( 10-C , 15-H ) :   0.7669

FINAL SINGLE POINT ENERGY      -267.010179516686

DIPOLE MOMENT
-------------
                                X             Y             Z
Electronic contribution:     -1.42698       1.07865      -1.93674
Nuclear contribution   :      1.28075      -1.05140       2.98955
                        -----------------------------------------
Total Dipole Moment    :     -0.14623       0.02725       1.05282
                        -----------------------------------------
Magnitude (a.u.)       :      1.06327
Magnitude (Debye)      :      2.70262

Rotational constants in cm-1:     0.229858     0.078444     0.067377
Rotational constants in MHz :  6890.979812  2351.691803  2019.910665

                             ****ORCA TERMINATED NORMALLY****
TOTAL RUN TIME: 0 days 0 hours 0 minutes 25 seconds 912 msec
