                         Program Version 5.0.0 -  RELEASE  -
|  1> !LC-BLYP RIJCOSX def2-SVPD def2/J TightSCF
|  2> *xyz 0 1
|  3> C          4.90646       -3.10282       -5.95484
|  4> C          3.51177       -2.80621       -6.49228
|  5> H          2.73604       -3.37345       -5.97374
|  6> H          3.44490       -3.04083       -7.55528
|  7> S          3.00462       -1.09621       -6.38926
|  8> O          4.12886       -0.32965       -6.95372
|  9> O          1.78128       -1.00078       -7.13640
| 10> F          2.85155       -0.78368       -4.95679
| 11> H          5.62703       -2.52424       -6.49422
| 12> H          5.12164       -4.14387       -6.07654
| 13> H          4.95004       -2.84862       -4.91639
| 14> *
| 15>
| 16> %MaxCore 64000
| 17>
| 18> %pal nprocs 4
| 19> end
| 20>
| 21> %scf
| 22>   MaxIter 150
| 23> end
| 24>
| 25>
| 26>                          ****END OF INPUT****

CARTESIAN COORDINATES (ANGSTROEM)
---------------------------------
  C      4.906460   -3.102820   -5.954840
  C      3.511770   -2.806210   -6.492280
  H      2.736040   -3.373450   -5.973740
  H      3.444900   -3.040830   -7.555280
  S      3.004620   -1.096210   -6.389260
  O      4.128860   -0.329650   -6.953720
  O      1.781280   -1.000780   -7.136400
  F      2.851550   -0.783680   -4.956790
  H      5.627030   -2.524240   -6.494220
  H      5.121640   -4.143870   -6.076540
  H      4.950040   -2.848620   -4.916390

 Total Charge           Charge          ....    0
 Multiplicity           Mult            ....    1
 Number of Electrons    NEL             ....   58
 Basis Dimension        Dim             ....  176

ORBITAL ENERGIES
----------------

  NO   OCC          E(Eh)            E(eV)
   0   2.0000     -88.565813     -2409.9983
   1   2.0000     -24.581505      -668.8968
   2   2.0000     -18.975901      -516.3605
   3   2.0000     -18.963899      -516.0339
   4   2.0000     -10.154964      -276.3306
   5   2.0000     -10.110415      -275.1184
   6   2.0000      -8.115686      -220.8390
   7   2.0000      -6.154468      -167.4716
   8   2.0000      -6.147761      -167.2891
   9   2.0000      -6.146281      -167.2488
  10   2.0000      -1.436317       -39.0842
  11   2.0000      -1.211679       -32.9715
  12   2.0000      -1.108458       -30.1627
  13   2.0000      -0.938619       -25.5411
  14   2.0000      -0.833640       -22.6845
  15   2.0000      -0.786604       -21.4046
  16   2.0000      -0.694758       -18.9053
  17   2.0000      -0.676459       -18.4074
  18   2.0000      -0.654834       -17.8189
  19   2.0000      -0.606495       -16.5036
  20   2.0000      -0.588532       -16.0148
  21   2.0000      -0.563686       -15.3387
  22   2.0000      -0.540670       -14.7124
  23   2.0000      -0.514449       -13.9989
  24   2.0000      -0.506092       -13.7715
  25   2.0000      -0.484174       -13.1750
  26   2.0000      -0.441435       -12.0121
  27   2.0000      -0.430443       -11.7130
  28   2.0000      -0.415940       -11.3183
  29   0.0000       0.044064         1.1990
  30   0.0000       0.074892         2.0379
  31   0.0000       0.078159         2.1268
  32   0.0000       0.081196         2.2095
  33   0.0000       0.106838         2.9072

MULLIKEN ATOMIC CHARGES
-----------------------
   0 C :    1.048401
   1 C :   -0.220083
   2 H :   -0.110670
   3 H :   -0.064917
   4 S :    1.258394
   5 O :   -0.614035
   6 O :   -0.555264
   7 F :   -0.358883
   8 H :   -0.099519
   9 H :   -0.152392
  10 H :   -0.131032
Sum of atomic charges:   -0.0000000

LOEWDIN ATOMIC CHARGES
----------------------
   0 C :    0.125638
   1 C :   -0.107260
   2 H :    0.030839
   3 H :    0.040816
   4 S :    1.063224
   5 O :   -0.457784
   6 O :   -0.441953
   7 F :   -0.250111
   8 H :   -0.002025
   9 H :    0.000091
  10 H :   -0.001476

  Mayer bond orders larger than 0.100000
B(  0-C ,  1-C ) :   1.2936 B(  0-C ,  8-H ) :   0.7654 B(  0-C ,  9-H ) :   0.6717
B(  0-C , 10-H ) :   0.7370 B(  1-C ,  2-H ) :   0.9511 B(  1-C ,  3-H ) :   0.9554
B(  1-C ,  4-S ) :   0.9859 B(  1-C ,  8-H ) :   0.2255 B(  1-C ,  9-H ) :   0.2576
B(  1-C , 10-H ) :   0.2165 B(  4-S ,  5-O ) :   1.5494 B(  4-S ,  6-O ) :   1.6196
B(  4-S ,  7-F ) :   0.7048

FINAL SINGLE POINT ENERGY      -726.428986173683

DIPOLE MOMENT
-------------
                                X             Y             Z
Electronic contribution:     -5.13086       7.34596       1.65013
Nuclear contribution   :      5.52019      -8.89046      -0.84835
                        -----------------------------------------
Total Dipole Moment    :      0.38933      -1.54449       0.80178
                        -----------------------------------------
Magnitude (a.u.)       :      1.78322
Magnitude (Debye)      :      4.53259

Rotational constants in cm-1:     0.153332     0.082132     0.079755
Rotational constants in MHz :  4596.775407  2462.251277  2391.008596

                             ****ORCA TERMINATED NORMALLY****
TOTAL RUN TIME: 0 days 0 hours 0 minutes 18 seconds 889 msec
