                         Program Version 5.0.0 -  RELEASE  -
|  1> !LC-BLYP RIJCOSX def2-SVPD def2/J TightSCF
|  2> *xyz 0 1
|  3> C          4.49059        1.15590       -2.46929
|  4> N          4.30539        1.22276       -3.90832
|  5> C          4.63192        2.24637       -4.67096
|  6> N          4.54169        2.14399       -5.98714
|  7> C          5.08409        3.39358       -4.11855
|  8> H          4.92067        3.57050       -3.13587
|  9> H          5.25465        4.19739       -4.70696
| 10> H          3.82453        0.44911       -4.35093
| 11> H          4.34337        1.24932       -6.41665
| 12> H          4.67671        2.95662       -6.57411
| 13> C          5.94213        0.93950       -2.03689
| 14> H          3.86431        0.32853       -2.13661
| 15> H          4.07623        2.04999       -1.98901
| 16> H          6.32982        0.06401       -2.51451
| 17> H          5.98308        0.81426       -0.97504
| 18> H          6.52865        1.78889       -2.31873
| 19> *
| 20>
| 21> %MaxCore 64000
| 22>
| 23> %pal nprocs 4
| 24> end
| 25>
| 26> %scf
| 27>   MaxIter 150
| 28> end
| 29>
| 30>
| 31>                          ****END OF INPUT****

CARTESIAN COORDINATES (ANGSTROEM)
---------------------------------
  C      4.490590    1.155900   -2.469290
  N      4.305390    1.222760   -3.908320
  C      4.631920    2.246370   -4.670960
  N      4.541690    2.143990   -5.987140
  C      5.084090    3.393580   -4.118550
  H      4.920670    3.570500   -3.135870
  H      5.254650    4.197390   -4.706960
  H      3.824530    0.449110   -4.350930
  H      4.343370    1.249320   -6.416650
  H      4.676710    2.956620   -6.574110
  C      5.942130    0.939500   -2.036890
  H      3.864310    0.328530   -2.136610
  H      4.076230    2.049990   -1.989010
  H      6.329820    0.064010   -2.514510
  H      5.983080    0.814260   -0.975040
  H      6.528650    1.788890   -2.318730

 Total Charge           Charge          ....    0
 Multiplicity           Mult            ....    1
 Number of Electrons    NEL             ....   48
 Basis Dimension        Dim             ....  200

ORBITAL ENERGIES
----------------

  NO   OCC          E(Eh)            E(eV)
   0   2.0000     -14.192500      -386.1976
   1   2.0000     -14.189958      -386.1284
   2   2.0000     -10.135350      -275.7969
   3   2.0000     -10.117314      -275.3061
   4   2.0000     -10.063197      -273.8335
   5   2.0000      -9.997377      -272.0424
   6   2.0000      -1.066605       -29.0238
   7   2.0000      -0.982738       -26.7417
   8   2.0000      -0.854563       -23.2538
   9   2.0000      -0.809693       -22.0329
  10   2.0000      -0.744492       -20.2587
  11   2.0000      -0.664102       -18.0711
  12   2.0000      -0.660032       -17.9604
  13   2.0000      -0.624856       -17.0032
  14   2.0000      -0.576539       -15.6884
  15   2.0000      -0.543876       -14.7996
  16   2.0000      -0.519072       -14.1247
  17   2.0000      -0.499240       -13.5850
  18   2.0000      -0.480895       -13.0858
  19   2.0000      -0.465637       -12.6706
  20   2.0000      -0.463110       -12.6019
  21   2.0000      -0.442627       -12.0445
  22   2.0000      -0.349281        -9.5044
  23   2.0000      -0.258744        -7.0408
  24   0.0000       0.069755         1.8981
  25   0.0000       0.090871         2.4727
  26   0.0000       0.099316         2.7025
  27   0.0000       0.110880         3.0172
  28   0.0000       0.137848         3.7510

MULLIKEN ATOMIC CHARGES
-----------------------
   0 C :    0.342465
   1 N :   -0.162704
   2 C :    0.428922
   3 N :    0.299582
   4 C :    0.558149
   5 H :   -0.216445
   6 H :   -0.640951
   7 H :   -0.355878
   8 H :   -0.210334
   9 H :   -0.102267
  10 C :    0.952474
  11 H :   -0.457918
  12 H :   -0.005866
  13 H :   -0.164749
  14 H :   -0.111785
  15 H :   -0.152694
Sum of atomic charges:    0.0000000

LOEWDIN ATOMIC CHARGES
----------------------
   0 C :   -0.006763
   1 N :   -0.010129
   2 C :   -0.251926
   3 N :    0.193259
   4 C :    0.152782
   5 H :   -0.113518
   6 H :   -0.103868
   7 H :    0.023272
   8 H :   -0.006770
   9 H :    0.009347
  10 C :    0.126677
  11 H :    0.023162
  12 H :    0.021726
  13 H :   -0.015546
  14 H :   -0.015523
  15 H :   -0.026180

  Mayer bond orders larger than 0.100000
B(  0-C ,  1-N ) :   1.0258 B(  0-C ,  2-C ) :  -0.1240 B(  0-C ,  5-H ) :   0.1075
B(  0-C ,  7-H ) :  -0.1584 B(  0-C , 10-C ) :   1.2131 B(  0-C , 11-H ) :   0.8745
B(  0-C , 12-H ) :   0.8458 B(  0-C , 13-H ) :   0.2670 B(  0-C , 14-H ) :   0.1845
B(  0-C , 15-H ) :   0.2183 B(  1-N ,  2-C ) :   1.0824 B(  1-N ,  3-N ) :   0.1552
B(  1-N ,  4-C ) :   0.3953 B(  1-N ,  7-H ) :   1.3466 B(  1-N , 11-H ) :   0.1665
B(  2-C ,  3-N ) :   1.0075 B(  2-C ,  4-C ) :   1.6273 B(  2-C ,  5-H ) :   0.2750
B(  2-C ,  6-H ) :   0.1698 B(  2-C ,  7-H ) :  -0.3107 B(  3-N ,  4-C ) :   0.2465
B(  3-N ,  8-H ) :   1.1884 B(  3-N ,  9-H ) :   1.2028 B(  4-C ,  5-H ) :   0.6063
B(  4-C ,  6-H ) :   0.7571 B(  5-H ,  6-H ) :   0.1225 B(  8-H ,  9-H ) :  -0.1864
B( 10-C , 13-H ) :   0.7332 B( 10-C , 14-H ) :   0.7852 B( 10-C , 15-H ) :   0.7784
B( 11-H , 12-H ) :  -0.1046

FINAL SINGLE POINT ENERGY      -267.009887969657

DIPOLE MOMENT
-------------
                                X             Y             Z
Electronic contribution:     -1.90054      -0.12261      -3.82416
Nuclear contribution   :      1.39581      -0.78630       3.38596
                        -----------------------------------------
Total Dipole Moment    :     -0.50473      -0.90891      -0.43819
                        -----------------------------------------
Magnitude (a.u.)       :      1.12822
Magnitude (Debye)      :      2.86771

Rotational constants in cm-1:     0.239249     0.075811     0.066261
Rotational constants in MHz :  7172.504830  2272.756282  1986.457543

                             ****ORCA TERMINATED NORMALLY****
TOTAL RUN TIME: 0 days 0 hours 0 minutes 24 seconds 648 msec
