                         Program Version 5.0.0 -  RELEASE  -
|  1> !LC-BLYP RIJCOSX def2-SVPD def2/J TightSCF xyzfile
|  2>
|  3> *xyzfile 0 1 D5.xyz
|  4>
|  5> %MaxCore 64000
|  6>
|  7> %pal nprocs 4
|  8> end
|  9>
| 10> %scf
| 11>   MaxIter 150
| 12> end
| 13>
| 14>
| 15>                          ****END OF INPUT****

CARTESIAN COORDINATES (ANGSTROEM)
---------------------------------
  C      4.490588    1.155899   -2.469290
  N      4.305394    1.222762   -3.908317
  C      4.906458   -3.102816   -5.954844
  C      3.511771   -2.806215   -6.492283
  H      2.736044   -3.373445   -5.973736
  H      3.444904   -3.040831   -7.555281
  S      3.004618   -1.096206   -6.389259
  C      4.631918    2.246365   -4.670958
  C      4.541686    2.143990   -5.987139
  N      5.084086    3.393584   -4.118545
  H      4.920675    3.570501   -3.135870
  H      5.254652    4.197390   -4.706956
  H      3.824530    0.449113   -4.350926
  H      4.343373    1.249318   -6.416646
  H      4.676712    2.956624   -6.574113
  O      4.128856   -0.329647   -6.953717
  F      1.781285   -1.000779   -7.136399
  C      5.942129    0.939500   -2.036893
  H      3.864305    0.328532   -2.136611
  H      4.076233    2.049994   -1.989010
  C      6.462677   -3.117775   -3.944671
  C      5.024977   -3.025679   -4.437625
  H      4.423321   -3.818693   -3.977648
  H      4.579350   -2.087131   -4.108727
  H      5.201533   -4.100207   -6.296905
  H      5.605922   -2.397822   -6.413368
  C      6.559957   -0.356290   -2.559086
  H      5.967976    0.952567   -0.942444
  H      6.547184    1.788331   -2.368849
  C      6.006283   -1.615917   -1.899301
  H      7.642360   -0.318000   -2.402059
  H      6.414855   -0.403433   -3.642587
  C      6.608718   -2.917014   -2.435655
  H      6.190324   -1.561115   -0.820948
  H      4.919250   -1.651245   -2.016586
  H      7.066975   -2.374258   -4.475514
  H      6.887808   -4.089747   -4.215332
  H      6.135197   -3.755573   -1.915159
  H      7.671142   -2.955503   -2.172291
  O      2.851546   -0.783683   -4.956789

 Total Charge           Charge          ....    0
 Multiplicity           Mult            ....    1
 Number of Electrons    NEL             ....  144
 Basis Dimension        Dim             ....  540

ORBITAL ENERGIES
----------------

  NO   OCC          E(Eh)            E(eV)
   0   2.0000     -88.583704     -2410.4851
   1   2.0000     -24.610289      -669.6800
   2   2.0000     -18.983462      -516.5663
   3   2.0000     -18.972514      -516.2684
   4   2.0000     -14.162381      -385.3780
   5   2.0000     -14.145812      -384.9271
   6   2.0000     -10.159324      -276.4493
   7   2.0000     -10.117048      -275.2989
   8   2.0000     -10.100418      -274.8464
   9   2.0000     -10.099562      -274.8231
  10   2.0000     -10.088656      -274.5263
  11   2.0000     -10.082795      -274.3668
  12   2.0000     -10.078570      -274.2518
  13   2.0000     -10.072871      -274.0967
  14   2.0000     -10.066724      -273.9295
  15   2.0000     -10.065875      -273.9064
  16   2.0000      -9.955645      -270.9069
  17   2.0000      -8.131998      -221.2829
  18   2.0000      -6.170936      -167.9197
  19   2.0000      -6.164249      -167.7377
  20   2.0000      -6.162397      -167.6873
  21   2.0000      -1.477090       -40.1937
  22   2.0000      -1.217011       -33.1166
  23   2.0000      -1.111601       -30.2482
  24   2.0000      -1.032453       -28.0945
  25   2.0000      -0.955133       -25.9905
  26   2.0000      -0.948677       -25.8148
  27   2.0000      -0.916785       -24.9470
  28   2.0000      -0.887643       -24.1540
  29   2.0000      -0.857952       -23.3461
  30   2.0000      -0.832739       -22.6600
  31   2.0000      -0.805030       -21.9060
  32   2.0000      -0.775034       -21.0897
  33   2.0000      -0.748940       -20.3797
  34   2.0000      -0.728178       -19.8147
  35   2.0000      -0.712774       -19.3956
  36   2.0000      -0.698988       -19.0204
  37   2.0000      -0.697255       -18.9733
  38   2.0000      -0.684040       -18.6137
  39   2.0000      -0.665609       -18.1121
  40   2.0000      -0.652853       -17.7650
  41   2.0000      -0.621047       -16.8996
  42   2.0000      -0.614722       -16.7274
  43   2.0000      -0.598936       -16.2979
  44   2.0000      -0.586786       -15.9673
  45   2.0000      -0.582522       -15.8512
  46   2.0000      -0.570311       -15.5190
  47   2.0000      -0.565940       -15.4000
  48   2.0000      -0.554668       -15.0933
  49   2.0000      -0.547615       -14.9014
  50   2.0000      -0.536909       -14.6100
  51   2.0000      -0.528504       -14.3813
  52   2.0000      -0.520778       -14.1711
  53   2.0000      -0.500941       -13.6313
  54   2.0000      -0.492124       -13.3914
  55   2.0000      -0.489458       -13.3188
  56   2.0000      -0.478529       -13.0214
  57   2.0000      -0.473724       -12.8907
  58   2.0000      -0.460250       -12.5240
  59   2.0000      -0.458143       -12.4667
  60   2.0000      -0.454491       -12.3673
  61   2.0000      -0.447691       -12.1823
  62   2.0000      -0.436737       -11.8842
  63   2.0000      -0.432219       -11.7613
  64   2.0000      -0.424843       -11.5606
  65   2.0000      -0.417304       -11.3554
  66   2.0000      -0.407968       -11.1014
  67   2.0000      -0.404877       -11.0173
  68   2.0000      -0.399625       -10.8744
  69   2.0000      -0.387386       -10.5413
  70   2.0000      -0.325027        -8.8444
  71   2.0000      -0.225731        -6.1424
  72   0.0000       0.040430         1.1002
  73   0.0000       0.065809         1.7908
  74   0.0000       0.069555         1.8927
  75   0.0000       0.079565         2.1651
  76   0.0000       0.087948         2.3932

MULLIKEN ATOMIC CHARGES
-----------------------
   0 C :    1.164110
   1 N :    0.597262
   2 C :    0.414881
   3 C :    0.439747
   4 H :   -0.056518
   5 H :   -0.074641
   6 S :    1.372907
   7 C :    0.769833
   8 C :    0.842570
   9 N :    0.496027
  10 H :   -0.103054
  11 H :   -0.248229
  12 H :   -1.315538
  13 H :   -0.769519
  14 H :   -0.807323
  15 O :   -0.563828
  16 F :   -0.441270
  17 C :    0.534498
  18 H :   -0.435319
  19 H :   -0.283044
  20 C :    0.201957
  21 C :    0.501512
  22 H :   -0.015069
  23 H :   -0.775899
  24 H :   -0.171912
  25 H :   -0.015821
  26 C :    0.377245
  27 H :   -0.263612
  28 H :   -0.133881
  29 C :    0.029698
  30 H :   -0.263412
  31 H :   -0.248172
  32 C :    0.821600
  33 H :   -0.451323
  34 H :    0.057905
  35 H :    0.058260
  36 H :   -0.442217
  37 H :   -0.127447
  38 H :   -0.065930
  39 O :   -0.607030
Sum of atomic charges:    0.0000000

LOEWDIN ATOMIC CHARGES
----------------------
   0 C :    0.042097
   1 N :    0.027707
   2 C :   -0.027858
   3 C :   -0.059958
   4 H :    0.036597
   5 H :    0.031953
   6 S :    1.148313
   7 C :   -0.226440
   8 C :    0.164012
   9 N :    0.207947
  10 H :   -0.031716
  11 H :   -0.001125
  12 H :   -0.095358
  13 H :   -0.199638
  14 H :   -0.096221
  15 O :   -0.424878
  16 F :   -0.215417
  17 C :   -0.032208
  18 H :    0.020893
  19 H :    0.013818
  20 C :   -0.044489
  21 C :   -0.036343
  22 H :    0.047172
  23 H :   -0.012384
  24 H :    0.046289
  25 H :    0.039103
  26 C :   -0.040558
  27 H :    0.024583
  28 H :    0.015748
  29 C :   -0.049447
  30 H :    0.032090
  31 H :    0.015384
  32 C :   -0.040230
  33 H :    0.029482
  34 H :    0.010224
  35 H :    0.025824
  36 H :    0.029478
  37 H :    0.026885
  38 H :    0.028896
  39 O :   -0.430226

  Mayer bond orders larger than 0.100000
B(  0-C ,  1-N ) :   1.0708 B(  0-C , 12-H ) :  -0.6104 B(  0-C , 17-C ) :   1.0799
B(  0-C , 18-H ) :   0.5155 B(  0-C , 19-H ) :   0.8034 B(  0-C , 26-C ) :   0.2214
B(  0-C , 27-H ) :   0.1240 B(  1-N ,  7-C ) :   1.2975 B(  1-N ,  8-C ) :   0.1201
B(  1-N ,  9-N ) :   0.3195 B(  1-N , 12-H ) :   0.6850 B(  1-N , 18-H ) :   0.3073
B(  2-C ,  3-C ) :   1.2060 B(  2-C ,  5-H ) :   0.3209 B(  2-C , 20-C ) :   0.1790
B(  2-C , 21-C ) :   1.1288 B(  2-C , 22-H ) :   0.1208 B(  2-C , 24-H ) :   0.7318
B(  2-C , 25-H ) :   0.8172 B(  3-C ,  4-H ) :   0.8791 B(  3-C ,  5-H ) :   0.6093
B(  3-C ,  6-S ) :   0.9817 B(  3-C , 21-C ) :   0.2013 B(  3-C , 25-H ) :   0.1057
B(  5-H ,  6-S ) :   0.1034 B(  6-S , 15-O ) :   1.4745 B(  6-S , 16-F ) :   0.6550
B(  6-S , 39-O ) :   1.3931 B(  7-C ,  8-C ) :   1.2712 B(  7-C ,  9-N ) :   0.8982
B(  7-C , 12-H ) :  -0.9251 B(  7-C , 14-H ) :   0.1972 B(  7-C , 17-C ) :   0.1017
B(  8-C ,  9-N ) :   0.2991 B(  8-C , 12-H ) :   0.1065 B(  8-C , 13-H ) :   0.4079
B(  8-C , 14-H ) :   0.5314 B(  9-N , 10-H ) :   0.9686 B(  9-N , 11-H ) :   1.1791
B(  9-N , 18-H ) :  -0.1012 B(  9-N , 19-H ) :   0.1029 B( 10-H , 11-H ) :  -0.2004
B( 12-H , 18-H ) :   0.1429 B( 12-H , 39-O ) :   0.2096 B( 13-H , 14-H ) :  -0.2262
B( 13-H , 15-O ) :   0.2214 B( 15-O , 39-O ) :   0.1114 B( 17-C , 18-H ) :   0.1123
B( 17-C , 19-H ) :   0.1352 B( 17-C , 26-C ) :   1.1961 B( 17-C , 27-H ) :   0.8813
B( 17-C , 28-H ) :   0.6485 B( 17-C , 31-H ) :   0.1260 B( 17-C , 32-C ) :   0.1056
B( 18-H , 19-H ) :  -0.2377 B( 18-H , 26-C ) :  -0.1166 B( 20-C , 21-C ) :   1.2182
B( 20-C , 22-H ) :   0.1167 B( 20-C , 23-H ) :   0.1426 B( 20-C , 29-C ) :   0.1986
B( 20-C , 32-C ) :   1.1125 B( 20-C , 35-H ) :   0.8244 B( 20-C , 36-H ) :   0.8579
B( 20-C , 37-H ) :   0.1007 B( 20-C , 38-H ) :   0.2746 B( 21-C , 22-H ) :   0.6509
B( 21-C , 23-H ) :   0.5000 B( 21-C , 24-H ) :   0.2132 B( 21-C , 25-H ) :   0.1028
B( 21-C , 35-H ) :   0.1095 B( 21-C , 36-H ) :   0.2161 B( 22-H , 23-H ) :   0.2186
B( 23-H , 34-H ) :   0.1539 B( 26-C , 28-H ) :   0.2721 B( 26-C , 29-C ) :   1.2099
B( 26-C , 30-H ) :   0.7964 B( 26-C , 31-H ) :   0.8388 B( 26-C , 33-H ) :   0.1479
B( 26-C , 34-H ) :   0.1208 B( 27-H , 28-H ) :  -0.1445 B( 29-C , 30-H ) :   0.1697
B( 29-C , 31-H ) :   0.1465 B( 29-C , 32-C ) :   1.1053 B( 29-C , 33-H ) :   0.9505
B( 29-C , 34-H ) :   0.8295 B( 29-C , 37-H ) :   0.3505 B( 29-C , 38-H ) :   0.1362
B( 31-H , 35-H ) :   0.1115 B( 32-C , 37-H ) :   0.5807 B( 32-C , 38-H ) :   0.6215
B( 37-H , 38-H ) :  -0.1444

FINAL SINGLE POINT ENERGY     -1188.088256623194

DIPOLE MOMENT
-------------
                                X             Y             Z
Electronic contribution:    -20.60787       2.57937     -20.18522
Nuclear contribution   :     20.03262      -4.53368      20.24480
                        -----------------------------------------
Total Dipole Moment    :     -0.57525      -1.95431       0.05957
                        -----------------------------------------
Magnitude (a.u.)       :      2.03809
Magnitude (Debye)      :      5.18040

Rotational constants in cm-1:     0.014367     0.012055     0.007393
Rotational constants in MHz :   430.711297   361.391195   221.649333

                             ****ORCA TERMINATED NORMALLY****
TOTAL RUN TIME: 0 days 0 hours 6 minutes 17 seconds 388 msec
