                         Program Version 5.0.0 -  RELEASE  -
|  1> !LC-BLYP RIJCOSX def2-SVPD def2/J TightSCF xyzfile
|  2>
|  3> *xyzfile 0 1 D6.xyz
|  4>
|  5> %MaxCore 64000
|  6>
|  7> %pal nprocs 4
|  8> end
|  9>
| 10> %scf
| 11>   MaxIter 150
| 12> end
| 13>
| 14>
| 15>                          ****END OF INPUT****

CARTESIAN COORDINATES (ANGSTROEM)
---------------------------------
  C      4.490588    1.155899   -2.469290
  N      4.305394    1.222762   -3.908317
  C      4.906458   -3.102816   -5.954844
  C      3.511771   -2.806215   -6.492283
  H      2.736044   -3.373445   -5.973736
  H      3.444904   -3.040831   -7.555281
  S      3.004618   -1.096206   -6.389259
  C      4.631918    2.246365   -4.670958
  N      4.541686    2.143990   -5.987139
  C      5.084086    3.393584   -4.118545
  H      4.920675    3.570501   -3.135870
  H      5.254652    4.197390   -4.706956
  H      3.824530    0.449113   -4.350926
  H      4.343373    1.249318   -6.416646
  H      4.676712    2.956624   -6.574113
  O      4.128856   -0.329647   -6.953717
  F      1.781285   -1.000779   -7.136399
  C      5.942129    0.939500   -2.036893
  H      3.864305    0.328532   -2.136611
  H      4.076233    2.049994   -1.989010
  C      6.462677   -3.117775   -3.944671
  C      5.024977   -3.025679   -4.437625
  H      4.423321   -3.818693   -3.977648
  H      4.579350   -2.087131   -4.108727
  H      5.201533   -4.100207   -6.296905
  H      5.605922   -2.397822   -6.413368
  C      6.559957   -0.356290   -2.559086
  H      5.967976    0.952567   -0.942444
  H      6.547184    1.788331   -2.368849
  C      6.006283   -1.615917   -1.899301
  H      7.642360   -0.318000   -2.402059
  H      6.414855   -0.403433   -3.642587
  C      6.608718   -2.917014   -2.435655
  H      6.190324   -1.561115   -0.820948
  H      4.919250   -1.651245   -2.016586
  H      7.066975   -2.374258   -4.475514
  H      6.887808   -4.089747   -4.215332
  H      6.135197   -3.755573   -1.915159
  H      7.671142   -2.955503   -2.172291
  O      2.851546   -0.783683   -4.956789

 Total Charge           Charge          ....    0
 Multiplicity           Mult            ....    1
 Number of Electrons    NEL             ....  144
 Basis Dimension        Dim             ....  540

ORBITAL ENERGIES
----------------

  NO   OCC          E(Eh)            E(eV)
   0   2.0000     -88.602969     -2411.0094
   1   2.0000     -24.627250      -670.1415
   2   2.0000     -18.999517      -517.0031
   3   2.0000     -18.999479      -517.0021
   4   2.0000     -14.148914      -385.0115
   5   2.0000     -14.145270      -384.9124
   6   2.0000     -10.173201      -276.8269
   7   2.0000     -10.126768      -275.5634
   8   2.0000     -10.103001      -274.9166
   9   2.0000     -10.094830      -274.6943
  10   2.0000     -10.091111      -274.5931
  11   2.0000     -10.086284      -274.4617
  12   2.0000     -10.079244      -274.2702
  13   2.0000     -10.071076      -274.0479
  14   2.0000     -10.062740      -273.8211
  15   2.0000     -10.056029      -273.6385
  16   2.0000      -9.967606      -271.2323
  17   2.0000      -8.151458      -221.8124
  18   2.0000      -6.190332      -168.4475
  19   2.0000      -6.183903      -168.2725
  20   2.0000      -6.181690      -168.2123
  21   2.0000      -1.494365       -40.6637
  22   2.0000      -1.237563       -33.6758
  23   2.0000      -1.132879       -30.8272
  24   2.0000      -1.031605       -28.0714
  25   2.0000      -0.967326       -26.3223
  26   2.0000      -0.949115       -25.8267
  27   2.0000      -0.921010       -25.0620
  28   2.0000      -0.889135       -24.1946
  29   2.0000      -0.861913       -23.4538
  30   2.0000      -0.834173       -22.6990
  31   2.0000      -0.797318       -21.6961
  32   2.0000      -0.781396       -21.2629
  33   2.0000      -0.762392       -20.7457
  34   2.0000      -0.736676       -20.0460
  35   2.0000      -0.729999       -19.8643
  36   2.0000      -0.711019       -19.3478
  37   2.0000      -0.699757       -19.0414
  38   2.0000      -0.692383       -18.8407
  39   2.0000      -0.660873       -17.9833
  40   2.0000      -0.644167       -17.5287
  41   2.0000      -0.628369       -17.0988
  42   2.0000      -0.625274       -17.0146
  43   2.0000      -0.610864       -16.6224
  44   2.0000      -0.601966       -16.3803
  45   2.0000      -0.586344       -15.9552
  46   2.0000      -0.581303       -15.8180
  47   2.0000      -0.567953       -15.4548
  48   2.0000      -0.557396       -15.1675
  49   2.0000      -0.543475       -14.7887
  50   2.0000      -0.535713       -14.5775
  51   2.0000      -0.533600       -14.5200
  52   2.0000      -0.524292       -14.2667
  53   2.0000      -0.508250       -13.8302
  54   2.0000      -0.494194       -13.4477
  55   2.0000      -0.488074       -13.2812
  56   2.0000      -0.485445       -13.2096
  57   2.0000      -0.473686       -12.8896
  58   2.0000      -0.466659       -12.6984
  59   2.0000      -0.461276       -12.5520
  60   2.0000      -0.453326       -12.3356
  61   2.0000      -0.447147       -12.1675
  62   2.0000      -0.441518       -12.0143
  63   2.0000      -0.436343       -11.8735
  64   2.0000      -0.430836       -11.7236
  65   2.0000      -0.428889       -11.6707
  66   2.0000      -0.419894       -11.4259
  67   2.0000      -0.405966       -11.0469
  68   2.0000      -0.402374       -10.9491
  69   2.0000      -0.393998       -10.7212
  70   2.0000      -0.313966        -8.5435
  71   2.0000      -0.228743        -6.2244
  72   0.0000       0.029661         0.8071
  73   0.0000       0.056760         1.5445
  74   0.0000       0.060433         1.6445
  75   0.0000       0.073877         2.0103
  76   0.0000       0.085059         2.3146

MULLIKEN ATOMIC CHARGES
-----------------------
   0 C :    1.108893
   1 N :    0.681511
   2 C :    0.417172
   3 C :    0.430836
   4 H :   -0.044303
   5 H :   -0.069558
   6 S :    1.347796
   7 C :    0.329388
   8 N :    0.951035
   9 C :    0.651176
  10 H :    0.020883
  11 H :   -0.833198
  12 H :   -1.450259
  13 H :   -0.639575
  14 H :   -0.237957
  15 O :   -0.584206
  16 F :   -0.429817
  17 C :    0.565729
  18 H :   -0.463305
  19 H :   -0.194426
  20 C :    0.192607
  21 C :    0.509445
  22 H :   -0.016539
  23 H :   -0.775153
  24 H :   -0.170223
  25 H :   -0.014569
  26 C :    0.343984
  27 H :   -0.223619
  28 H :   -0.156815
  29 C :    0.022893
  30 H :   -0.266810
  31 H :   -0.255495
  32 C :    0.829860
  33 H :   -0.447063
  34 H :    0.049504
  35 H :    0.065143
  36 H :   -0.446025
  37 H :   -0.128379
  38 H :   -0.064751
  39 O :   -0.605807
Sum of atomic charges:    0.0000000

LOEWDIN ATOMIC CHARGES
----------------------
   0 C :    0.048881
   1 N :    0.026874
   2 C :   -0.027180
   3 C :   -0.055708
   4 H :    0.039983
   5 H :    0.033123
   6 S :    1.153440
   7 C :   -0.229887
   8 N :    0.225204
   9 C :    0.142160
  10 H :   -0.120263
  11 H :   -0.111888
  12 H :   -0.102875
  13 H :   -0.136164
  14 H :    0.008996
  15 O :   -0.420071
  16 F :   -0.211816
  17 C :   -0.024526
  18 H :    0.019127
  19 H :    0.021449
  20 C :   -0.044363
  21 C :   -0.035945
  22 H :    0.047947
  23 H :   -0.012154
  24 H :    0.047981
  25 H :    0.038734
  26 C :   -0.042299
  27 H :    0.026587
  28 H :    0.016106
  29 C :   -0.049995
  30 H :    0.031891
  31 H :    0.011806
  32 C :   -0.040208
  33 H :    0.030139
  34 H :    0.009467
  35 H :    0.025546
  36 H :    0.029485
  37 H :    0.026642
  38 H :    0.029376
  39 O :   -0.425603

  Mayer bond orders larger than 0.100000
B(  0-C ,  1-N ) :   1.1348 B(  0-C , 10-H ) :   0.1310 B(  0-C , 12-H ) :  -0.6038
B(  0-C , 17-C ) :   1.0583 B(  0-C , 18-H ) :   0.5915 B(  0-C , 19-H ) :   0.8188
B(  0-C , 26-C ) :   0.2127 B(  0-C , 27-H ) :   0.1081 B(  1-N ,  7-C ) :   1.1203
B(  1-N ,  9-C ) :   0.2988 B(  1-N , 11-H ) :   0.1420 B(  1-N , 12-H ) :   0.4232
B(  1-N , 13-H ) :   0.1597 B(  1-N , 14-H ) :  -0.1413 B(  1-N , 18-H ) :   0.3345
B(  1-N , 28-H ) :   0.1106 B(  2-C ,  3-C ) :   1.2079 B(  2-C ,  5-H ) :   0.3253
B(  2-C , 20-C ) :   0.1791 B(  2-C , 21-C ) :   1.1222 B(  2-C , 22-H ) :   0.1182
B(  2-C , 24-H ) :   0.7362 B(  2-C , 25-H ) :   0.8088 B(  3-C ,  4-H ) :   0.8783
B(  3-C ,  5-H ) :   0.6016 B(  3-C ,  6-S ) :   1.0065 B(  3-C , 21-C ) :   0.2036
B(  3-C , 25-H ) :   0.1092 B(  5-H ,  6-S ) :   0.1030 B(  6-S , 15-O ) :   1.4189
B(  6-S , 16-F ) :   0.6803 B(  6-S , 39-O ) :   1.4174 B(  7-C ,  8-N ) :   1.0407
B(  7-C ,  9-C ) :   1.5506 B(  7-C , 10-H ) :   0.4045 B(  7-C , 11-H ) :   0.3868
B(  7-C , 12-H ) :  -0.8022 B(  7-C , 13-H ) :  -0.1826 B(  7-C , 18-H ) :   0.1684
B(  8-N ,  9-C ) :   0.1729 B(  8-N , 13-H ) :   0.8300 B(  8-N , 14-H ) :   1.1974
B(  9-C , 10-H ) :   0.4992 B(  9-C , 11-H ) :   0.4985 B( 10-H , 13-H ) :   0.1782
B( 10-H , 18-H ) :  -0.1485 B( 10-H , 19-H ) :   0.1393 B( 11-H , 12-H ) :  -0.1144
B( 12-H , 13-H ) :   0.1260 B( 12-H , 39-O ) :   0.2672 B( 13-H , 14-H ) :  -0.2657
B( 13-H , 15-O ) :   0.2166 B( 17-C , 18-H ) :   0.1114 B( 17-C , 19-H ) :   0.1086
B( 17-C , 26-C ) :   1.1620 B( 17-C , 27-H ) :   0.8594 B( 17-C , 28-H ) :   0.6907
B( 17-C , 31-H ) :   0.1294 B( 18-H , 19-H ) :  -0.2758 B( 20-C , 21-C ) :   1.2188
B( 20-C , 22-H ) :   0.1160 B( 20-C , 23-H ) :   0.1473 B( 20-C , 29-C ) :   0.1981
B( 20-C , 32-C ) :   1.1122 B( 20-C , 35-H ) :   0.8245 B( 20-C , 36-H ) :   0.8636
B( 20-C , 37-H ) :   0.1027 B( 20-C , 38-H ) :   0.2749 B( 21-C , 22-H ) :   0.6533
B( 21-C , 23-H ) :   0.4919 B( 21-C , 24-H ) :   0.2081 B( 21-C , 25-H ) :   0.1024
B( 21-C , 35-H ) :   0.1147 B( 21-C , 36-H ) :   0.2174 B( 22-H , 23-H ) :   0.2164
B( 23-H , 34-H ) :   0.1516 B( 26-C , 28-H ) :   0.2791 B( 26-C , 29-C ) :   1.2076
B( 26-C , 30-H ) :   0.8095 B( 26-C , 31-H ) :   0.8424 B( 26-C , 33-H ) :   0.1499
B( 26-C , 34-H ) :   0.1255 B( 27-H , 28-H ) :  -0.1757 B( 29-C , 30-H ) :   0.1701
B( 29-C , 31-H ) :   0.1570 B( 29-C , 32-C ) :   1.1064 B( 29-C , 33-H ) :   0.9526
B( 29-C , 34-H ) :   0.8373 B( 29-C , 37-H ) :   0.3549 B( 29-C , 38-H ) :   0.1368
B( 31-H , 35-H ) :   0.1080 B( 32-C , 37-H ) :   0.5777 B( 32-C , 38-H ) :   0.6229
B( 37-H , 38-H ) :  -0.1448

FINAL SINGLE POINT ENERGY     -1188.103775451113

DIPOLE MOMENT
-------------
                                X             Y             Z
Electronic contribution:    -21.13495       1.23845     -21.87446
Nuclear contribution   :     20.11362      -4.34709      20.52383
                        -----------------------------------------
Total Dipole Moment    :     -1.02133      -3.10863      -1.35064
                        -----------------------------------------
Magnitude (a.u.)       :      3.53990
Magnitude (Debye)      :      8.99772

Rotational constants in cm-1:     0.014449     0.012108     0.007447
Rotational constants in MHz :   433.168496   362.988632   223.260798

                             ****ORCA TERMINATED NORMALLY****
TOTAL RUN TIME: 0 days 0 hours 5 minutes 54 seconds 936 msec
