                         Program Version 5.0.0 -  RELEASE  -
|  1> !LC-BLYP RIJCOSX def2-SVPD def2/J TightSCF xyzfile
|  2>
|  3> *xyzfile 0 1 D7.xyz
|  4>
|  5> %MaxCore 64000
|  6>
|  7> %pal nprocs 4
|  8> end
|  9>
| 10> %scf
| 11>   MaxIter 150
| 12> end
| 13>
| 14>
| 15>                          ****END OF INPUT****

CARTESIAN COORDINATES (ANGSTROEM)
---------------------------------
  C      4.490588    1.155899   -2.469290
  C      4.305394    1.222762   -3.908317
  C      4.906458   -3.102816   -5.954844
  C      3.511771   -2.806215   -6.492283
  H      2.736044   -3.373445   -5.973736
  H      3.444904   -3.040831   -7.555281
  S      3.004618   -1.096206   -6.389259
  C      4.631918    2.246365   -4.670958
  N      4.541686    2.143990   -5.987139
  N      5.084086    3.393584   -4.118545
  H      4.920675    3.570501   -3.135870
  H      5.254652    4.197390   -4.706956
  H      3.824530    0.449113   -4.350926
  H      4.343373    1.249318   -6.416646
  H      4.676712    2.956624   -6.574113
  O      4.128856   -0.329647   -6.953717
  O      1.781285   -1.000779   -7.136399
  C      5.942129    0.939500   -2.036893
  H      3.864305    0.328532   -2.136611
  H      4.076233    2.049994   -1.989010
  C      6.462677   -3.117775   -3.944671
  C      5.024977   -3.025679   -4.437625
  H      4.423321   -3.818693   -3.977648
  H      4.579350   -2.087131   -4.108727
  H      5.201533   -4.100207   -6.296905
  H      5.605922   -2.397822   -6.413368
  C      6.559957   -0.356290   -2.559086
  H      5.967976    0.952567   -0.942444
  H      6.547184    1.788331   -2.368849
  C      6.006283   -1.615917   -1.899301
  H      7.642360   -0.318000   -2.402059
  H      6.414855   -0.403433   -3.642587
  C      6.608718   -2.917014   -2.435655
  H      6.190324   -1.561115   -0.820948
  H      4.919250   -1.651245   -2.016586
  H      7.066975   -2.374258   -4.475514
  H      6.887808   -4.089747   -4.215332
  H      6.135197   -3.755573   -1.915159
  H      7.671142   -2.955503   -2.172291
  F      2.851546   -0.783683   -4.956789

 Total Charge           Charge          ....    0
 Multiplicity           Mult            ....    1
 Number of Electrons    NEL             ....  144
 Basis Dimension        Dim             ....  540

ORBITAL ENERGIES
----------------

  NO   OCC          E(Eh)            E(eV)
   0   2.0000     -88.578864     -2410.3534
   1   2.0000     -24.587308      -669.0547
   2   2.0000     -18.984633      -516.5981
   3   2.0000     -18.980024      -516.4727
   4   2.0000     -14.178921      -385.8281
   5   2.0000     -14.155320      -385.1858
   6   2.0000     -10.155264      -276.3388
   7   2.0000     -10.116858      -275.2937
   8   2.0000     -10.114036      -275.2169
   9   2.0000     -10.094829      -274.6943
  10   2.0000     -10.084445      -274.4117
  11   2.0000     -10.077896      -274.2335
  12   2.0000     -10.070048      -274.0199
  13   2.0000     -10.061069      -273.7756
  14   2.0000     -10.056368      -273.6477
  15   2.0000     -10.052987      -273.5557
  16   2.0000      -9.990444      -271.8538
  17   2.0000      -8.127049      -221.1483
  18   2.0000      -6.165906      -167.7828
  19   2.0000      -6.159484      -167.6081
  20   2.0000      -6.157542      -167.5552
  21   2.0000      -1.445263       -39.3276
  22   2.0000      -1.223366       -33.2895
  23   2.0000      -1.124143       -30.5895
  24   2.0000      -1.037511       -28.2321
  25   2.0000      -0.955046       -25.9881
  26   2.0000      -0.944531       -25.7020
  27   2.0000      -0.917249       -24.9596
  28   2.0000      -0.887515       -24.1505
  29   2.0000      -0.862573       -23.4718
  30   2.0000      -0.826474       -22.4895
  31   2.0000      -0.813697       -22.1418
  32   2.0000      -0.776236       -21.1225
  33   2.0000      -0.750506       -20.4223
  34   2.0000      -0.730736       -19.8843
  35   2.0000      -0.700383       -19.0584
  36   2.0000      -0.696902       -18.9637
  37   2.0000      -0.686421       -18.6785
  38   2.0000      -0.682107       -18.5611
  39   2.0000      -0.658341       -17.9144
  40   2.0000      -0.651302       -17.7228
  41   2.0000      -0.631559       -17.1856
  42   2.0000      -0.609773       -16.5928
  43   2.0000      -0.594906       -16.1882
  44   2.0000      -0.593648       -16.1540
  45   2.0000      -0.585525       -15.9330
  46   2.0000      -0.581976       -15.8364
  47   2.0000      -0.566260       -15.4087
  48   2.0000      -0.556227       -15.1357
  49   2.0000      -0.545843       -14.8531
  50   2.0000      -0.535167       -14.5626
  51   2.0000      -0.529143       -14.3987
  52   2.0000      -0.527191       -14.3456
  53   2.0000      -0.510247       -13.8845
  54   2.0000      -0.499307       -13.5868
  55   2.0000      -0.488676       -13.2975
  56   2.0000      -0.479774       -13.0553
  57   2.0000      -0.473881       -12.8949
  58   2.0000      -0.470352       -12.7989
  59   2.0000      -0.457412       -12.4468
  60   2.0000      -0.449115       -12.2210
  61   2.0000      -0.443310       -12.0631
  62   2.0000      -0.437706       -11.9106
  63   2.0000      -0.431648       -11.7457
  64   2.0000      -0.427343       -11.6286
  65   2.0000      -0.425245       -11.5715
  66   2.0000      -0.419040       -11.4027
  67   2.0000      -0.402698       -10.9580
  68   2.0000      -0.395815       -10.7707
  69   2.0000      -0.390372       -10.6226
  70   2.0000      -0.347405        -9.4534
  71   2.0000      -0.242149        -6.5892
  72   0.0000       0.049101         1.3361
  73   0.0000       0.067708         1.8424
  74   0.0000       0.073830         2.0090
  75   0.0000       0.077613         2.1120
  76   0.0000       0.090535         2.4636

MULLIKEN ATOMIC CHARGES
-----------------------
   0 C :    0.339802
   1 C :    0.624984
   2 C :    0.483721
   3 C :    0.436964
   4 H :   -0.071710
   5 H :   -0.080768
   6 S :    1.291924
   7 C :    0.581466
   8 N :    0.546710
   9 N :    0.238934
  10 H :   -0.075636
  11 H :   -0.305464
  12 H :   -1.197326
  13 H :   -0.461064
  14 H :   -0.242631
  15 O :   -0.551267
  16 O :   -0.567446
  17 C :    0.590165
  18 H :    0.049581
  19 H :   -0.261246
  20 C :    0.198094
  21 C :    0.561398
  22 H :   -0.019804
  23 H :   -0.854758
  24 H :   -0.167828
  25 H :   -0.011344
  26 C :    0.327625
  27 H :   -0.151928
  28 H :   -0.216614
  29 C :    0.107598
  30 H :   -0.209856
  31 H :   -0.213551
  32 C :    0.812343
  33 H :   -0.439505
  34 H :   -0.002632
  35 H :    0.056347
  36 H :   -0.447947
  37 H :   -0.127981
  38 H :   -0.066048
  39 F :   -0.503303
Sum of atomic charges:    0.0000000

LOEWDIN ATOMIC CHARGES
----------------------
   0 C :   -0.057890
   1 C :   -0.028738
   2 C :   -0.041728
   3 C :   -0.050067
   4 H :    0.038820
   5 H :    0.044073
   6 S :    1.112866
   7 C :   -0.205914
   8 N :    0.220171
   9 N :    0.217128
  10 H :   -0.016068
  11 H :   -0.012756
  12 H :   -0.120746
  13 H :   -0.125651
  14 H :   -0.003909
  15 O :   -0.420330
  16 O :   -0.418887
  17 C :   -0.039438
  18 H :    0.013119
  19 H :    0.012625
  20 C :   -0.043473
  21 C :   -0.040315
  22 H :    0.046810
  23 H :   -0.009109
  24 H :    0.044398
  25 H :    0.035612
  26 C :   -0.041307
  27 H :    0.021762
  28 H :    0.016198
  29 C :   -0.048441
  30 H :    0.030992
  31 H :    0.012039
  32 C :   -0.041155
  33 H :    0.029842
  34 H :    0.008794
  35 H :    0.025844
  36 H :    0.030634
  37 H :    0.026416
  38 H :    0.028877
  39 F :   -0.251100

  Mayer bond orders larger than 0.100000
B(  0-C ,  1-C ) :   1.0702 B(  0-C , 12-H ) :   0.9860 B(  0-C , 17-C ) :   1.0618
B(  0-C , 18-H ) :   0.6483 B(  0-C , 19-H ) :   0.8087 B(  0-C , 26-C ) :   0.1929
B(  0-C , 27-H ) :   0.2203 B(  0-C , 28-H ) :   0.1248 B(  0-C , 30-H ) :  -0.1448
B(  1-C ,  7-C ) :   1.7424 B(  1-C ,  8-N ) :   0.2923 B(  1-C ,  9-N ) :   0.3417
B(  1-C , 12-H ) :  -1.0189 B(  1-C , 17-C ) :   0.1416 B(  1-C , 18-H ) :   0.4982
B(  1-C , 19-H ) :   0.1755 B(  2-C ,  3-C ) :   1.1772 B(  2-C ,  5-H ) :   0.2968
B(  2-C , 20-C ) :   0.1718 B(  2-C , 21-C ) :   1.1262 B(  2-C , 22-H ) :   0.1153
B(  2-C , 24-H ) :   0.7239 B(  2-C , 25-H ) :   0.8196 B(  3-C ,  4-H ) :   0.8886
B(  3-C ,  5-H ) :   0.6434 B(  3-C ,  6-S ) :   0.9752 B(  3-C , 21-C ) :   0.2033
B(  3-C , 25-H ) :   0.1103 B(  6-S , 15-O ) :   1.4423 B(  6-S , 16-O ) :   1.6030
B(  6-S , 39-F ) :   0.7088 B(  7-C ,  8-N ) :   0.9139 B(  7-C ,  9-N ) :   0.9219
B(  7-C , 11-H ) :  -0.1416 B(  7-C , 12-H ) :  -0.1355 B(  7-C , 13-H ) :  -0.2805
B(  7-C , 14-H ) :  -0.1093 B(  8-N ,  9-N ) :   0.1001 B(  8-N , 13-H ) :   1.2400
B(  8-N , 14-H ) :   1.2631 B(  9-N , 10-H ) :   1.0806 B(  9-N , 11-H ) :   1.2801
B( 10-H , 11-H ) :  -0.2046 B( 12-H , 14-H ) :  -0.1047 B( 12-H , 18-H ) :  -0.2456
B( 12-H , 39-F ) :   0.3381 B( 13-H , 14-H ) :  -0.2469 B( 13-H , 15-O ) :   0.1777
B( 17-C , 18-H ) :   0.1352 B( 17-C , 26-C ) :   1.2603 B( 17-C , 27-H ) :   0.7283
B( 17-C , 28-H ) :   0.6278 B( 17-C , 30-H ) :   0.1134 B( 17-C , 31-H ) :   0.1801
B( 17-C , 32-C ) :   0.1005 B( 18-H , 19-H ) :  -0.1201 B( 20-C , 21-C ) :   1.2137
B( 20-C , 22-H ) :   0.1149 B( 20-C , 23-H ) :   0.1701 B( 20-C , 29-C ) :   0.1981
B( 20-C , 32-C ) :   1.1063 B( 20-C , 35-H ) :   0.8248 B( 20-C , 36-H ) :   0.8670
B( 20-C , 38-H ) :   0.2787 B( 21-C , 22-H ) :   0.6465 B( 21-C , 23-H ) :   0.3533
B( 21-C , 24-H ) :   0.2089 B( 21-C , 25-H ) :   0.1061 B( 21-C , 35-H ) :   0.1139
B( 21-C , 36-H ) :   0.2146 B( 22-H , 23-H ) :   0.2424 B( 23-H , 34-H ) :   0.1553
B( 26-C , 27-H ) :   0.1273 B( 26-C , 28-H ) :   0.2799 B( 26-C , 29-C ) :   1.2047
B( 26-C , 30-H ) :   0.7660 B( 26-C , 31-H ) :   0.8130 B( 26-C , 33-H ) :   0.1438
B( 26-C , 34-H ) :   0.1183 B( 27-H , 28-H ) :  -0.1621 B( 29-C , 30-H ) :   0.1532
B( 29-C , 31-H ) :   0.1361 B( 29-C , 32-C ) :   1.1021 B( 29-C , 33-H ) :   0.9389
B( 29-C , 34-H ) :   0.8275 B( 29-C , 37-H ) :   0.3532 B( 29-C , 38-H ) :   0.1356
B( 31-H , 35-H ) :   0.1047 B( 32-C , 37-H ) :   0.5868 B( 32-C , 38-H ) :   0.6206
B( 37-H , 38-H ) :  -0.1413

FINAL SINGLE POINT ENERGY     -1188.116616556286

DIPOLE MOMENT
-------------
                                X             Y             Z
Electronic contribution:    -18.39548       3.96805     -17.97306
Nuclear contribution   :     18.74089      -4.92611      17.99644
                        -----------------------------------------
Total Dipole Moment    :      0.34541      -0.95806       0.02338
                        -----------------------------------------
Magnitude (a.u.)       :      1.01869
Magnitude (Debye)      :      2.58930

Rotational constants in cm-1:     0.014210     0.012324     0.007480
Rotational constants in MHz :   425.991442   369.455467   224.259162

                             ****ORCA TERMINATED NORMALLY****
TOTAL RUN TIME: 0 days 0 hours 5 minutes 51 seconds 551 msec
