                         Program Version 5.0.0 -  RELEASE  -
|  1> !LC-BLYP RIJCOSX def2-SVPD def2/J TightSCF xyzfile
|  2>
|  3> *xyzfile 0 1 D9.xyz
|  4>
|  5> %MaxCore 64000
|  6>
|  7> %pal nprocs 4
|  8> end
|  9>
| 10> %scf
| 11>   MaxIter 150
| 12> end
| 13>
| 14>
| 15>                          ****END OF INPUT****

CARTESIAN COORDINATES (ANGSTROEM)
---------------------------------
  C      4.490588    1.155899   -2.469290
  N      4.305394    1.222762   -3.908317
  C      4.906458   -3.102816   -5.954844
  C      3.511771   -2.806215   -6.492283
  H      2.736044   -3.373445   -5.973736
  H      3.444904   -3.040831   -7.555281
  S      3.004618   -1.096206   -6.389259
  C      4.631918    2.246365   -4.670958
  N      4.541686    2.143990   -5.987139
  C      5.084086    3.393584   -4.118545
  H      4.920675    3.570501   -3.135870
  H      5.254652    4.197390   -4.706956
  H      3.824530    0.449113   -4.350926
  H      4.343373    1.249318   -6.416646
  H      4.676712    2.956624   -6.574113
  O      4.128856   -0.329647   -6.953717
  O      1.781285   -1.000779   -7.136399
  C      5.942129    0.939500   -2.036893
  H      3.864305    0.328532   -2.136611
  H      4.076233    2.049994   -1.989010
  C      6.462677   -3.117775   -3.944671
  C      5.024977   -3.025679   -4.437625
  H      4.423321   -3.818693   -3.977648
  H      4.579350   -2.087131   -4.108727
  H      5.201533   -4.100207   -6.296905
  H      5.605922   -2.397822   -6.413368
  C      6.559957   -0.356290   -2.559086
  H      5.967976    0.952567   -0.942444
  H      6.547184    1.788331   -2.368849
  C      6.006283   -1.615917   -1.899301
  H      7.642360   -0.318000   -2.402059
  H      6.414855   -0.403433   -3.642587
  C      6.608718   -2.917014   -2.435655
  H      6.190324   -1.561115   -0.820948
  H      4.919250   -1.651245   -2.016586
  H      7.066975   -2.374258   -4.475514
  H      6.887808   -4.089747   -4.215332
  H      6.135197   -3.755573   -1.915159
  H      7.671142   -2.955503   -2.172291
  F      2.851546   -0.783683   -4.956789

 Total Charge           Charge          ....    0
 Multiplicity           Mult            ....    1
 Number of Electrons    NEL             ....  144
 Basis Dimension        Dim             ....  540

ORBITAL ENERGIES
----------------

  NO   OCC          E(Eh)            E(eV)
   0   2.0000     -88.593485     -2410.7513
   1   2.0000     -24.613580      -669.7696
   2   2.0000     -18.998671      -516.9801
   3   2.0000     -18.994334      -516.8621
   4   2.0000     -14.175738      -385.7414
   5   2.0000     -14.154176      -385.1547
   6   2.0000     -10.167889      -276.6823
   7   2.0000     -10.125379      -275.5256
   8   2.0000     -10.117159      -275.3019
   9   2.0000     -10.108722      -275.0723
  10   2.0000     -10.107702      -275.0446
  11   2.0000     -10.094845      -274.6947
  12   2.0000     -10.088046      -274.5097
  13   2.0000     -10.082282      -274.3529
  14   2.0000     -10.074306      -274.1358
  15   2.0000     -10.068977      -273.9908
  16   2.0000      -9.980879      -271.5935
  17   2.0000      -8.142109      -221.5580
  18   2.0000      -6.181159      -168.1979
  19   2.0000      -6.174388      -168.0136
  20   2.0000      -6.172394      -167.9594
  21   2.0000      -1.469879       -39.9974
  22   2.0000      -1.238630       -33.7048
  23   2.0000      -1.138469       -30.9793
  24   2.0000      -1.049767       -28.5656
  25   2.0000      -0.967826       -26.3359
  26   2.0000      -0.963225       -26.2107
  27   2.0000      -0.927062       -25.2266
  28   2.0000      -0.893378       -24.3101
  29   2.0000      -0.862232       -23.4625
  30   2.0000      -0.841517       -22.8988
  31   2.0000      -0.805823       -21.9276
  32   2.0000      -0.793190       -21.5838
  33   2.0000      -0.770497       -20.9663
  34   2.0000      -0.748270       -20.3615
  35   2.0000      -0.722868       -19.6702
  36   2.0000      -0.711580       -19.3631
  37   2.0000      -0.703950       -19.1554
  38   2.0000      -0.687849       -18.7173
  39   2.0000      -0.670250       -18.2384
  40   2.0000      -0.641324       -17.4513
  41   2.0000      -0.633678       -17.2433
  42   2.0000      -0.625008       -17.0073
  43   2.0000      -0.615033       -16.7359
  44   2.0000      -0.602491       -16.3946
  45   2.0000      -0.601303       -16.3623
  46   2.0000      -0.581792       -15.8314
  47   2.0000      -0.579884       -15.7794
  48   2.0000      -0.561287       -15.2734
  49   2.0000      -0.557084       -15.1590
  50   2.0000      -0.545200       -14.8356
  51   2.0000      -0.542819       -14.7708
  52   2.0000      -0.524849       -14.2819
  53   2.0000      -0.516113       -14.0441
  54   2.0000      -0.502733       -13.6801
  55   2.0000      -0.495753       -13.4901
  56   2.0000      -0.487863       -13.2754
  57   2.0000      -0.480561       -13.0767
  58   2.0000      -0.473472       -12.8838
  59   2.0000      -0.466892       -12.7048
  60   2.0000      -0.461940       -12.5700
  61   2.0000      -0.456488       -12.4217
  62   2.0000      -0.450785       -12.2665
  63   2.0000      -0.445985       -12.1359
  64   2.0000      -0.442933       -12.0528
  65   2.0000      -0.437843       -11.9143
  66   2.0000      -0.433723       -11.8022
  67   2.0000      -0.417929       -11.3724
  68   2.0000      -0.414681       -11.2840
  69   2.0000      -0.406467       -11.0605
  70   2.0000      -0.330119        -8.9830
  71   2.0000      -0.242448        -6.5973
  72   0.0000       0.037436         1.0187
  73   0.0000       0.058141         1.5821
  74   0.0000       0.065746         1.7890
  75   0.0000       0.072949         1.9851
  76   0.0000       0.083061         2.2602

MULLIKEN ATOMIC CHARGES
-----------------------
   0 C :    1.112085
   1 N :    0.764334
   2 C :    0.464716
   3 C :    0.440525
   4 H :   -0.070517
   5 H :   -0.058056
   6 S :    1.203405
   7 C :    0.348240
   8 N :    0.927507
   9 C :    0.664935
  10 H :    0.020930
  11 H :   -0.824020
  12 H :   -1.479984
  13 H :   -0.627811
  14 H :   -0.226571
  15 O :   -0.595626
  16 O :   -0.559427
  17 C :    0.561935
  18 H :   -0.476031
  19 H :   -0.194522
  20 C :    0.183168
  21 C :    0.506230
  22 H :   -0.015956
  23 H :   -0.805171
  24 H :   -0.163709
  25 H :   -0.003510
  26 C :    0.349556
  27 H :   -0.215368
  28 H :   -0.153098
  29 C :    0.031409
  30 H :   -0.262849
  31 H :   -0.255549
  32 C :    0.826490
  33 H :   -0.444837
  34 H :    0.033056
  35 H :    0.065359
  36 H :   -0.443319
  37 H :   -0.127071
  38 H :   -0.061515
  39 F :   -0.439361
Sum of atomic charges:    0.0000000

LOEWDIN ATOMIC CHARGES
----------------------
   0 C :    0.047430
   1 N :    0.020251
   2 C :   -0.040649
   3 C :   -0.047821
   4 H :    0.039736
   5 H :    0.046424
   6 S :    1.112647
   7 C :   -0.230175
   8 N :    0.227374
   9 C :    0.148255
  10 H :   -0.117174
  11 H :   -0.106022
  12 H :   -0.070390
  13 H :   -0.135561
  14 H :    0.013488
  15 O :   -0.419564
  16 O :   -0.411438
  17 C :   -0.022595
  18 H :    0.017101
  19 H :    0.023940
  20 C :   -0.042134
  21 C :   -0.042017
  22 H :    0.047850
  23 H :   -0.012722
  24 H :    0.046462
  25 H :    0.036572
  26 C :   -0.041948
  27 H :    0.028644
  28 H :    0.018045
  29 C :   -0.051289
  30 H :    0.033935
  31 H :    0.011297
  32 C :   -0.039207
  33 H :    0.031326
  34 H :    0.006109
  35 H :    0.026625
  36 H :    0.032442
  37 H :    0.027597
  38 H :    0.030756
  39 F :   -0.243599

  Mayer bond orders larger than 0.100000
B(  0-C ,  1-N ) :   1.1476 B(  0-C , 10-H ) :   0.1265 B(  0-C , 12-H ) :  -0.5896
B(  0-C , 17-C ) :   1.0637 B(  0-C , 18-H ) :   0.5783 B(  0-C , 19-H ) :   0.8194
B(  0-C , 26-C ) :   0.2101 B(  0-C , 27-H ) :   0.1078 B(  1-N ,  7-C ) :   1.1376
B(  1-N ,  9-C ) :   0.3120 B(  1-N , 11-H ) :   0.1352 B(  1-N , 12-H ) :   0.2031
B(  1-N , 13-H ) :   0.1573 B(  1-N , 14-H ) :  -0.1417 B(  1-N , 18-H ) :   0.3317
B(  1-N , 28-H ) :   0.1051 B(  2-C ,  3-C ) :   1.1833 B(  2-C ,  5-H ) :   0.2983
B(  2-C , 20-C ) :   0.1735 B(  2-C , 21-C ) :   1.1353 B(  2-C , 22-H ) :   0.1157
B(  2-C , 24-H ) :   0.7323 B(  2-C , 25-H ) :   0.8200 B(  3-C ,  4-H ) :   0.8882
B(  3-C ,  5-H ) :   0.6373 B(  3-C ,  6-S ) :   0.9879 B(  3-C , 21-C ) :   0.2010
B(  3-C , 25-H ) :   0.1109 B(  6-S , 15-O ) :   1.4574 B(  6-S , 16-O ) :   1.6303
B(  6-S , 39-F ) :   0.6582 B(  7-C ,  8-N ) :   1.0333 B(  7-C ,  9-C ) :   1.5761
B(  7-C , 10-H ) :   0.3986 B(  7-C , 11-H ) :   0.3782 B(  7-C , 12-H ) :  -0.7827
B(  7-C , 13-H ) :  -0.1909 B(  7-C , 18-H ) :   0.1601 B(  8-N ,  9-C ) :   0.1791
B(  8-N , 13-H ) :   0.8504 B(  8-N , 14-H ) :   1.2000 B(  9-C , 10-H ) :   0.4961
B(  9-C , 11-H ) :   0.4978 B( 10-H , 13-H ) :   0.1789 B( 10-H , 18-H ) :  -0.1489
B( 10-H , 19-H ) :   0.1432 B( 11-H , 12-H ) :  -0.1058 B( 12-H , 13-H ) :   0.1211
B( 12-H , 39-F ) :   0.3232 B( 13-H , 14-H ) :  -0.2723 B( 13-H , 15-O ) :   0.2029
B( 17-C , 18-H ) :   0.1124 B( 17-C , 19-H ) :   0.1054 B( 17-C , 26-C ) :   1.1653
B( 17-C , 27-H ) :   0.8620 B( 17-C , 28-H ) :   0.6893 B( 17-C , 31-H ) :   0.1309
B( 18-H , 19-H ) :  -0.2718 B( 20-C , 21-C ) :   1.2268 B( 20-C , 22-H ) :   0.1158
B( 20-C , 23-H ) :   0.1667 B( 20-C , 29-C ) :   0.2036 B( 20-C , 32-C ) :   1.1098
B( 20-C , 35-H ) :   0.8260 B( 20-C , 36-H ) :   0.8657 B( 20-C , 37-H ) :   0.1002
B( 20-C , 38-H ) :   0.2762 B( 21-C , 22-H ) :   0.6562 B( 21-C , 23-H ) :   0.4335
B( 21-C , 24-H ) :   0.2081 B( 21-C , 25-H ) :   0.1060 B( 21-C , 35-H ) :   0.1096
B( 21-C , 36-H ) :   0.2155 B( 22-H , 23-H ) :   0.2241 B( 23-H , 34-H ) :   0.1596
B( 26-C , 28-H ) :   0.2759 B( 26-C , 29-C ) :   1.2043 B( 26-C , 30-H ) :   0.8131
B( 26-C , 31-H ) :   0.8420 B( 26-C , 33-H ) :   0.1497 B( 26-C , 34-H ) :   0.1219
B( 27-H , 28-H ) :  -0.1722 B( 29-C , 30-H ) :   0.1686 B( 29-C , 31-H ) :   0.1545
B( 29-C , 32-C ) :   1.1075 B( 29-C , 33-H ) :   0.9525 B( 29-C , 34-H ) :   0.8355
B( 29-C , 37-H ) :   0.3558 B( 29-C , 38-H ) :   0.1359 B( 31-H , 35-H ) :   0.1074
B( 32-C , 37-H ) :   0.5783 B( 32-C , 38-H ) :   0.6248 B( 37-H , 38-H ) :  -0.1445

FINAL SINGLE POINT ENERGY     -1188.110825047032

DIPOLE MOMENT
-------------
                                X             Y             Z
Electronic contribution:    -18.93779       1.79776     -17.81685
Nuclear contribution   :     18.85717      -4.60195      17.96505
                        -----------------------------------------
Total Dipole Moment    :     -0.08062      -2.80419       0.14820
                        -----------------------------------------
Magnitude (a.u.)       :      2.80926
Magnitude (Debye)      :      7.14058

Rotational constants in cm-1:     0.014436     0.012382     0.007563
Rotational constants in MHz :   432.785702   371.214592   226.743759

                             ****ORCA TERMINATED NORMALLY****
TOTAL RUN TIME: 0 days 0 hours 5 minutes 54 seconds 755 msec
