                         Program Version 5.0.0 -  RELEASE  -
|  1> !B3LYP D3BJ RIJCOSX def2-SVPD def2/J TightSCF
|  2> *xyz -1 1
|  3> C          3.51177       -2.80621       -6.49228
|  4> S          3.00462       -1.09621       -6.38926
|  5> O          4.12886       -0.32965       -6.95372
|  6> O          1.78128       -1.00078       -7.13640
|  7> O          2.85155       -0.78368       -4.95679
|  8> H          3.63615       -3.08010       -7.51913
|  9> H          2.76397       -3.42755       -6.04548
| 10> H          4.43892       -2.93511       -5.97393
| 11> *
| 12>
| 13> %MaxCore 64000
| 14>
| 15> %pal nprocs 8
| 16> end
| 17>
| 18> %scf
| 19>   MaxIter 150
| 20> end
| 21>
| 22>
| 23>                          ****END OF INPUT****

CARTESIAN COORDINATES (ANGSTROEM)
---------------------------------
  C      3.511770   -2.806210   -6.492280
  S      3.004620   -1.096210   -6.389260
  O      4.128860   -0.329650   -6.953720
  O      1.781280   -1.000780   -7.136400
  O      2.851550   -0.783680   -4.956790
  H      3.636150   -3.080100   -7.519130
  H      2.763970   -3.427550   -6.045480
  H      4.438920   -2.935110   -5.973930

 Total Charge           Charge          ....   -1
 Multiplicity           Mult            ....    1
 Number of Electrons    NEL             ....   50
 Basis Dimension        Dim             ....  140

ORBITAL ENERGIES
----------------

  NO   OCC          E(Eh)            E(eV)
   0   2.0000     -88.881615     -2418.5917
   1   2.0000     -18.920452      -514.8517
   2   2.0000     -18.909975      -514.5666
   3   2.0000     -18.909442      -514.5521
   4   2.0000     -10.039102      -273.1778
   5   2.0000      -7.935195      -215.9276
   6   2.0000      -5.904108      -160.6589
   7   2.0000      -5.903975      -160.6553
   8   2.0000      -5.903615      -160.6455
   9   2.0000      -0.927406       -25.2360
  10   2.0000      -0.786459       -21.4006
  11   2.0000      -0.765897       -20.8411
  12   2.0000      -0.583096       -15.8669
  13   2.0000      -0.388373       -10.5682
  14   2.0000      -0.300915        -8.1883
  15   2.0000      -0.292509        -7.9596
  16   2.0000      -0.291306        -7.9268
  17   2.0000      -0.247991        -6.7482
  18   2.0000      -0.246079        -6.6962
  19   2.0000      -0.149852        -4.0777
  20   2.0000      -0.149134        -4.0581
  21   2.0000      -0.115412        -3.1405
  22   2.0000      -0.109109        -2.9690
  23   2.0000      -0.101263        -2.7555
  24   2.0000      -0.063196        -1.7196
  25   0.0000       0.149467         4.0672
  26   0.0000       0.185952         5.0600
  27   0.0000       0.186089         5.0637
  28   0.0000       0.190043         5.1713
  29   0.0000       0.213731         5.8159

MULLIKEN ATOMIC CHARGES
-----------------------
   0 C :    0.718270
   1 S :    1.105959
   2 O :   -0.797431
   3 O :   -0.758122
   4 O :   -0.795220
   5 H :   -0.153493
   6 H :   -0.162204
   7 H :   -0.157758
Sum of atomic charges:   -1.0000000

LOEWDIN ATOMIC CHARGES
----------------------
   0 C :    0.060516
   1 S :    0.836315
   2 O :   -0.598876
   3 O :   -0.579974
   4 O :   -0.597177
   5 H :   -0.040181
   6 H :   -0.041141
   7 H :   -0.039481

  Mayer bond orders larger than 0.100000
B(  0-C ,  1-S ) :   0.9315 B(  0-C ,  5-H ) :   0.8773 B(  0-C ,  6-H ) :   0.8786
B(  0-C ,  7-H ) :   0.8819 B(  1-S ,  2-O ) :   1.3026 B(  1-S ,  3-O ) :   1.3359
B(  1-S ,  4-O ) :   1.3012 B(  1-S ,  5-H ) :   0.1270 B(  1-S ,  6-H ) :   0.1275
B(  1-S ,  7-H ) :   0.1352

Dispersion correction           -0.011087626
FINAL SINGLE POINT ENERGY      -663.324876822586

DIPOLE MOMENT
-------------
                                X             Y             Z
Electronic contribution:     -1.28515       4.00584       0.18173
Nuclear contribution   :      1.59265      -5.51967      -0.35565
                        -----------------------------------------
Total Dipole Moment    :      0.30750      -1.51383      -0.17392
                        -----------------------------------------
Magnitude (a.u.)       :      1.55451
Magnitude (Debye)      :      3.95124

Rotational constants in cm-1:     0.172598     0.157065     0.154689
Rotational constants in MHz :  5174.362736  4708.699947  4637.458896

                             ****ORCA TERMINATED NORMALLY****
TOTAL RUN TIME: 0 days 0 hours 0 minutes 6 seconds 944 msec
