                         Program Version 5.0.0 -  RELEASE  -
|  1> !B3LYP D3BJ RIJCOSX def2-SVPD def2/J TightSCF
|  2> *xyz 1 1
|  3> C          4.49059        1.15590       -2.46929
|  4> N          4.30539        1.22276       -3.90832
|  5> C          4.63192        2.24637       -4.67096
|  6> N          4.54169        2.14399       -5.98714
|  7> N          5.08409        3.39358       -4.11855
|  8> H          4.92067        3.57050       -3.13587
|  9> H          5.25465        4.19739       -4.70696
| 10> H          3.82453        0.44911       -4.35093
| 11> H          4.34337        1.24932       -6.41665
| 12> H          4.67671        2.95662       -6.57411
| 13> H          5.00867        2.03053       -2.13534
| 14> H          5.06354        0.28631       -2.22344
| 15> H          3.53600        1.10160       -1.98897
| 16> *
| 17>
| 18> %MaxCore 64000
| 19>
| 20> %pal nprocs 8
| 21> end
| 22>
| 23> %scf
| 24>   MaxIter 150
| 25> end
| 26>
| 27>
| 28>                          ****END OF INPUT****

CARTESIAN COORDINATES (ANGSTROEM)
---------------------------------
  C      4.490590    1.155900   -2.469290
  N      4.305390    1.222760   -3.908320
  C      4.631920    2.246370   -4.670960
  N      4.541690    2.143990   -5.987140
  N      5.084090    3.393580   -4.118550
  H      4.920670    3.570500   -3.135870
  H      5.254650    4.197390   -4.706960
  H      3.824530    0.449110   -4.350930
  H      4.343370    1.249320   -6.416650
  H      4.676710    2.956620   -6.574110
  H      5.008670    2.030530   -2.135340
  H      5.063540    0.286310   -2.223440
  H      3.536000    1.101600   -1.988970

 Total Charge           Charge          ....    1
 Multiplicity           Mult            ....    1
 Number of Electrons    NEL             ....   40
 Basis Dimension        Dim             ....  164

ORBITAL ENERGIES
----------------

  NO   OCC          E(Eh)            E(eV)
   0   2.0000     -14.561112      -396.2280
   1   2.0000     -14.557590      -396.1322
   2   2.0000     -14.554433      -396.0462
   3   2.0000     -10.522809      -286.3402
   4   2.0000     -10.390882      -282.7503
   5   2.0000      -1.211614       -32.9697
   6   2.0000      -1.102341       -29.9962
   7   2.0000      -1.086209       -29.5573
   8   2.0000      -0.906444       -24.6656
   9   2.0000      -0.828616       -22.5478
  10   2.0000      -0.793298       -21.5867
  11   2.0000      -0.759609       -20.6700
  12   2.0000      -0.697292       -18.9743
  13   2.0000      -0.695267       -18.9192
  14   2.0000      -0.657676       -17.8963
  15   2.0000      -0.645522       -17.5655
  16   2.0000      -0.595236       -16.1972
  17   2.0000      -0.585415       -15.9300
  18   2.0000      -0.481518       -13.1028
  19   2.0000      -0.458900       -12.4873
  20   0.0000      -0.172781        -4.7016
  21   0.0000      -0.158510        -4.3133
  22   0.0000      -0.125386        -3.4119
  23   0.0000      -0.118325        -3.2198
  24   0.0000      -0.094568        -2.5733

MULLIKEN ATOMIC CHARGES
-----------------------
   0 C :    1.435734
   1 N :   -0.516879
   2 C :    1.297762
   3 N :    0.081635
   4 N :    0.062755
   5 H :   -0.081471
   6 H :   -0.161308
   7 H :   -0.308705
   8 H :   -0.100184
   9 H :   -0.071317
  10 H :   -0.282684
  11 H :   -0.164204
  12 H :   -0.191134
Sum of atomic charges:    1.0000000

LOEWDIN ATOMIC CHARGES
----------------------
   0 C :    0.275783
   1 N :    0.020807
   2 C :   -0.037472
   3 N :    0.267964
   4 N :    0.280349
   5 H :    0.009840
   6 H :    0.034757
   7 H :    0.062561
   8 H :    0.040558
   9 H :    0.040099
  10 H :   -0.019587
  11 H :    0.012900
  12 H :    0.011442

  Mayer bond orders larger than 0.100000
B(  0-C ,  1-N ) :   0.9380 B(  0-C ,  7-H ) :  -0.1975 B(  0-C , 10-H ) :   0.7794
B(  0-C , 11-H ) :   0.7120 B(  0-C , 12-H ) :   0.7329 B(  1-N ,  2-C ) :   1.0456
B(  1-N ,  3-N ) :   0.2342 B(  1-N ,  4-N ) :   0.2497 B(  1-N ,  7-H ) :   1.3532
B(  1-N , 10-H ) :   0.2098 B(  1-N , 11-H ) :   0.2066 B(  1-N , 12-H ) :   0.1856
B(  2-C ,  3-N ) :   0.9045 B(  2-C ,  4-N ) :   0.9498 B(  2-C ,  5-H ) :  -0.1212
B(  2-C ,  6-H ) :  -0.1607 B(  2-C ,  7-H ) :  -0.2572 B(  2-C ,  8-H ) :  -0.1783
B(  2-C ,  9-H ) :  -0.1284 B(  3-N ,  4-N ) :   0.1697 B(  3-N ,  8-H ) :   1.2134
B(  3-N ,  9-H ) :   1.2043 B(  4-N ,  5-H ) :   1.1024 B(  4-N ,  6-H ) :   1.2280
B(  5-H ,  6-H ) :  -0.1619 B(  5-H , 10-H ) :   0.1040 B(  8-H ,  9-H ) :  -0.1808

Dispersion correction           -0.014971341
FINAL SINGLE POINT ENERGY      -244.789489826924

DIPOLE MOMENT
-------------
                                X             Y             Z
Electronic contribution:      0.02776       0.68818      -2.67840
Nuclear contribution   :     -0.23495      -0.48067       2.19509
                        -----------------------------------------
Total Dipole Moment    :     -0.20719       0.20752      -0.48332
                        -----------------------------------------
Magnitude (a.u.)       :      0.56532
Magnitude (Debye)      :      1.43692

Rotational constants in cm-1:     0.315679     0.134071     0.096006
Rotational constants in MHz :  9463.824527  4019.347586  2878.182223

                             ****ORCA TERMINATED NORMALLY****
TOTAL RUN TIME: 0 days 0 hours 0 minutes 9 seconds 321 msec
