                         Program Version 5.0.0 -  RELEASE  -
|  1> !B3LYP D3BJ RIJCOSX def2-SVPD def2/J TightSCF
|  2> *xyz 0 1
|  3> C          3.51177       -2.80621       -6.49228
|  4> S          3.00462       -1.09621       -6.38926
|  5> F          4.12886       -0.32965       -6.95372
|  6> O          1.78128       -1.00078       -7.13640
|  7> O          2.85155       -0.78368       -4.95679
|  8> H          3.63615       -3.08010       -7.51913
|  9> H          2.76397       -3.42755       -6.04548
| 10> H          4.43892       -2.93511       -5.97393
| 11> *
| 12>
| 13> %MaxCore 64000
| 14>
| 15> %pal nprocs 8
| 16> end
| 17>
| 18> %scf
| 19>   MaxIter 150
| 20> end
| 21>
| 22>
| 23>                          ****END OF INPUT****

CARTESIAN COORDINATES (ANGSTROEM)
---------------------------------
  C      3.511770   -2.806210   -6.492280
  S      3.004620   -1.096210   -6.389260
  F      4.128860   -0.329650   -6.953720
  O      1.781280   -1.000780   -7.136400
  O      2.851550   -0.783680   -4.956790
  H      3.636150   -3.080100   -7.519130
  H      2.763970   -3.427550   -6.045480
  H      4.438920   -2.935110   -5.973930

 Total Charge           Charge          ....    0
 Multiplicity           Mult            ....    1
 Number of Electrons    NEL             ....   50
 Basis Dimension        Dim             ....  140

ORBITAL ENERGIES
----------------

  NO   OCC          E(Eh)            E(eV)
   0   2.0000     -89.145743     -2425.7790
   1   2.0000     -24.806262      -675.0127
   2   2.0000     -19.159395      -521.3537
   3   2.0000     -19.148573      -521.0592
   4   2.0000     -10.248571      -278.8778
   5   2.0000      -8.199926      -223.1313
   6   2.0000      -6.172794      -167.9703
   7   2.0000      -6.166613      -167.8021
   8   2.0000      -6.165533      -167.7727
   9   2.0000      -1.357064       -36.9276
  10   2.0000      -1.117594       -30.4113
  11   2.0000      -1.015149       -27.6236
  12   2.0000      -0.806082       -21.9346
  13   2.0000      -0.711856       -19.3706
  14   2.0000      -0.599196       -16.3049
  15   2.0000      -0.577719       -15.7205
  16   2.0000      -0.558983       -15.2107
  17   2.0000      -0.485705       -13.2167
  18   2.0000      -0.483337       -13.1523
  19   2.0000      -0.472886       -12.8679
  20   2.0000      -0.446560       -12.1515
  21   2.0000      -0.394148       -10.7253
  22   2.0000      -0.348292        -9.4775
  23   2.0000      -0.337195        -9.1755
  24   2.0000      -0.317932        -8.6514
  25   0.0000      -0.011154        -0.3035
  26   0.0000       0.027984         0.7615
  27   0.0000       0.031857         0.8669
  28   0.0000       0.044898         1.2217
  29   0.0000       0.045634         1.2418

MULLIKEN ATOMIC CHARGES
-----------------------
   0 C :    0.679421
   1 S :    1.267364
   2 F :   -0.393323
   3 O :   -0.620611
   4 O :   -0.655478
   5 H :   -0.084509
   6 H :   -0.100306
   7 H :   -0.092558
Sum of atomic charges:    0.0000000

LOEWDIN ATOMIC CHARGES
----------------------
   0 C :    0.128925
   1 S :    1.107169
   2 F :   -0.270794
   3 O :   -0.461540
   4 O :   -0.477162
   5 H :   -0.013182
   6 H :   -0.000178
   7 H :   -0.013239

  Mayer bond orders larger than 0.100000
B(  0-C ,  1-S ) :   0.9893 B(  0-C ,  5-H ) :   0.8797 B(  0-C ,  6-H ) :   0.8782
B(  0-C ,  7-H ) :   0.8838 B(  1-S ,  2-F ) :   0.6723 B(  1-S ,  3-O ) :   1.5452
B(  1-S ,  4-O ) :   1.5095 B(  1-S ,  5-H ) :   0.1021 B(  1-S ,  6-H ) :   0.1291
B(  1-S ,  7-H ) :   0.1085

Dispersion correction           -0.010383239
FINAL SINGLE POINT ENERGY      -687.820457890717

DIPOLE MOMENT
-------------
                                X             Y             Z
Electronic contribution:      0.58890       5.22152      -0.77960
Nuclear contribution   :      0.51040      -6.36905       0.21167
                        -----------------------------------------
Total Dipole Moment    :      1.09930      -1.14752      -0.56793
                        -----------------------------------------
Magnitude (a.u.)       :      1.68755
Magnitude (Debye)      :      4.28940

Rotational constants in cm-1:     0.163860     0.154073     0.147119
Rotational constants in MHz :  4912.396151  4618.979177  4410.507958

                             ****ORCA TERMINATED NORMALLY****
TOTAL RUN TIME: 0 days 0 hours 0 minutes 7 seconds 119 msec
