                         Program Version 5.0.0 -  RELEASE  -
|  1> !B3LYP D3BJ RIJCOSX def2-SVPD def2/J TightSCF
|  2> *xyz 0 1
|  3> C          4.49059        1.15590       -2.46929
|  4> C          4.30539        1.22276       -3.90832
|  5> C          4.63192        2.24637       -4.67096
|  6> N          4.54169        2.14399       -5.98714
|  7> N          5.08409        3.39358       -4.11855
|  8> H          4.92067        3.57050       -3.13587
|  9> H          5.25465        4.19739       -4.70696
| 10> H          3.82453        0.44911       -4.35093
| 11> H          4.34337        1.24932       -6.41665
| 12> H          4.67671        2.95662       -6.57411
| 13> H          5.00867        2.03053       -2.13534
| 14> H          5.06354        0.28631       -2.22344
| 15> H          3.53600        1.10160       -1.98897
| 16> *
| 17>
| 18> %MaxCore 64000
| 19>
| 20> %pal nprocs 8
| 21> end
| 22>
| 23> %scf
| 24>   MaxIter 150
| 25> end
| 26>
| 27>
| 28>                          ****END OF INPUT****

CARTESIAN COORDINATES (ANGSTROEM)
---------------------------------
  C      4.490590    1.155900   -2.469290
  C      4.305390    1.222760   -3.908320
  C      4.631920    2.246370   -4.670960
  N      4.541690    2.143990   -5.987140
  N      5.084090    3.393580   -4.118550
  H      4.920670    3.570500   -3.135870
  H      5.254650    4.197390   -4.706960
  H      3.824530    0.449110   -4.350930
  H      4.343370    1.249320   -6.416650
  H      4.676710    2.956620   -6.574110
  H      5.008670    2.030530   -2.135340
  H      5.063540    0.286310   -2.223440
  H      3.536000    1.101600   -1.988970

 Total Charge           Charge          ....    0
 Multiplicity           Mult            ....    1
 Number of Electrons    NEL             ....   40
 Basis Dimension        Dim             ....  164

ORBITAL ENERGIES
----------------

  NO   OCC          E(Eh)            E(eV)
   0   2.0000     -14.327452      -389.8698
   1   2.0000     -14.326853      -389.8535
   2   2.0000     -10.221418      -278.1389
   3   2.0000     -10.147204      -276.1195
   4   2.0000     -10.104747      -274.9641
   5   2.0000      -0.947885       -25.7933
   6   2.0000      -0.858513       -23.3613
   7   2.0000      -0.745325       -20.2813
   8   2.0000      -0.651578       -17.7303
   9   2.0000      -0.580369       -15.7926
  10   2.0000      -0.539524       -14.6812
  11   2.0000      -0.510681       -13.8963
  12   2.0000      -0.474142       -12.9021
  13   2.0000      -0.423597       -11.5267
  14   2.0000      -0.406488       -11.0611
  15   2.0000      -0.374167       -10.1816
  16   2.0000      -0.361214        -9.8291
  17   2.0000      -0.343769        -9.3544
  18   2.0000      -0.262916        -7.1543
  19   2.0000      -0.156750        -4.2654
  20   0.0000       0.013827         0.3763
  21   0.0000       0.041435         1.1275
  22   0.0000       0.052952         1.4409
  23   0.0000       0.079907         2.1744
  24   0.0000       0.082318         2.2400

MULLIKEN ATOMIC CHARGES
-----------------------
   0 C :    1.215176
   1 C :   -0.688476
   2 C :    1.004333
   3 N :    0.172652
   4 N :    0.118011
   5 H :   -0.104400
   6 H :   -0.303912
   7 H :   -0.480786
   8 H :   -0.120327
   9 H :   -0.201394
  10 H :   -0.374362
  11 H :   -0.087690
  12 H :   -0.148826
Sum of atomic charges:    0.0000000

LOEWDIN ATOMIC CHARGES
----------------------
   0 C :    0.108112
   1 C :   -0.064898
   2 C :   -0.228308
   3 N :    0.179424
   4 N :    0.198481
   5 H :   -0.022462
   6 H :   -0.016930
   7 H :   -0.052002
   8 H :    0.005043
   9 H :   -0.013155
  10 H :   -0.048911
  11 H :   -0.021742
  12 H :   -0.022652

  Mayer bond orders larger than 0.100000
B(  0-C ,  1-C ) :   1.0662 B(  0-C ,  7-H ) :   0.1810 B(  0-C , 10-H ) :   0.6634
B(  0-C , 11-H ) :   0.6324 B(  0-C , 12-H ) :   0.6602 B(  1-C ,  2-C ) :   1.4768
B(  1-C ,  3-N ) :   0.4127 B(  1-C ,  4-N ) :   0.2854 B(  1-C ,  7-H ) :   0.9373
B(  1-C , 10-H ) :   0.4704 B(  1-C , 11-H ) :   0.2252 B(  1-C , 12-H ) :   0.1939
B(  2-C ,  3-N ) :   0.8884 B(  2-C ,  4-N ) :   0.9820 B(  2-C ,  6-H ) :  -0.1574
B(  2-C ,  7-H ) :   0.1150 B(  2-C ,  8-H ) :  -0.1089 B(  2-C , 10-H ) :  -0.1479
B(  3-N ,  4-N ) :   0.1183 B(  3-N ,  8-H ) :   1.2004 B(  3-N ,  9-H ) :   1.1806
B(  4-N ,  5-H ) :   1.0851 B(  4-N ,  6-H ) :   1.2599 B(  5-H ,  6-H ) :  -0.1499
B(  8-H ,  9-H ) :  -0.1695 B( 10-H , 11-H ) :   0.1568

Dispersion correction           -0.015755049
FINAL SINGLE POINT ENERGY      -228.323779518705

DIPOLE MOMENT
-------------
                                X             Y             Z
Electronic contribution:      0.29662       1.33302      -2.86630
Nuclear contribution   :     -0.29662      -0.64714       2.26125
                        -----------------------------------------
Total Dipole Moment    :      0.00000       0.68587      -0.60505
                        -----------------------------------------
Magnitude (a.u.)       :      0.91461
Magnitude (Debye)      :      2.32475

Rotational constants in cm-1:     0.320965     0.135060     0.096994
Rotational constants in MHz :  9622.302637  4048.999301  2907.812202

                             ****ORCA TERMINATED NORMALLY****
TOTAL RUN TIME: 0 days 0 hours 0 minutes 10 seconds 339 msec
