                         Program Version 5.0.0 -  RELEASE  -
|  1> !B3LYP D3BJ RIJCOSX def2-SVPD def2/J TightSCF
|  2> *xyz 0 1
|  3> C          3.51177       -2.80621       -6.49228
|  4> S          3.00462       -1.09621       -6.38926
|  5> O          4.12886       -0.32965       -6.95372
|  6> F          1.78128       -1.00078       -7.13640
|  7> O          2.85155       -0.78368       -4.95679
|  8> H          3.63615       -3.08010       -7.51913
|  9> H          2.76397       -3.42755       -6.04548
| 10> H          4.43892       -2.93511       -5.97393
| 11> *
| 12>
| 13> %MaxCore 64000
| 14>
| 15> %pal nprocs 8
| 16> end
| 17>
| 18> %scf
| 19>   MaxIter 150
| 20> end
| 21>
| 22>
| 23>                          ****END OF INPUT****

CARTESIAN COORDINATES (ANGSTROEM)
---------------------------------
  C      3.511770   -2.806210   -6.492280
  S      3.004620   -1.096210   -6.389260
  O      4.128860   -0.329650   -6.953720
  F      1.781280   -1.000780   -7.136400
  O      2.851550   -0.783680   -4.956790
  H      3.636150   -3.080100   -7.519130
  H      2.763970   -3.427550   -6.045480
  H      4.438920   -2.935110   -5.973930

 Total Charge           Charge          ....    0
 Multiplicity           Mult            ....    1
 Number of Electrons    NEL             ....   50
 Basis Dimension        Dim             ....  140

ORBITAL ENERGIES
----------------

  NO   OCC          E(Eh)            E(eV)
   0   2.0000     -89.147660     -2425.8312
   1   2.0000     -24.823901      -675.4927
   2   2.0000     -19.149040      -521.0719
   3   2.0000     -19.148349      -521.0531
   4   2.0000     -10.249242      -278.8960
   5   2.0000      -8.201869      -223.1842
   6   2.0000      -6.174966      -168.0294
   7   2.0000      -6.168320      -167.8485
   8   2.0000      -6.167304      -167.8209
   9   2.0000      -1.388082       -37.7716
  10   2.0000      -1.104288       -30.0492
  11   2.0000      -1.001428       -27.2502
  12   2.0000      -0.808268       -21.9941
  13   2.0000      -0.726940       -19.7810
  14   2.0000      -0.613865       -16.7041
  15   2.0000      -0.599210       -16.3053
  16   2.0000      -0.562697       -15.3118
  17   2.0000      -0.485490       -13.2109
  18   2.0000      -0.480420       -13.0729
  19   2.0000      -0.473810       -12.8930
  20   2.0000      -0.440925       -11.9982
  21   2.0000      -0.386664       -10.5217
  22   2.0000      -0.339078        -9.2268
  23   2.0000      -0.332579        -9.0499
  24   2.0000      -0.307496        -8.3674
  25   0.0000      -0.012449        -0.3387
  26   0.0000       0.030110         0.8193
  27   0.0000       0.030798         0.8381
  28   0.0000       0.043538         1.1847
  29   0.0000       0.045789         1.2460

MULLIKEN ATOMIC CHARGES
-----------------------
   0 C :    0.680604
   1 S :    1.261628
   2 O :   -0.646791
   3 F :   -0.373980
   4 O :   -0.645808
   5 H :   -0.085008
   6 H :   -0.093001
   7 H :   -0.097645
Sum of atomic charges:   -0.0000000

LOEWDIN ATOMIC CHARGES
----------------------
   0 C :    0.128318
   1 S :    1.108993
   2 O :   -0.478495
   3 F :   -0.255456
   4 O :   -0.476687
   5 H :   -0.013458
   6 H :   -0.014113
   7 H :    0.000898

  Mayer bond orders larger than 0.100000
B(  0-C ,  1-S ) :   0.9897 B(  0-C ,  5-H ) :   0.8780 B(  0-C ,  6-H ) :   0.8804
B(  0-C ,  7-H ) :   0.8824 B(  1-S ,  2-O ) :   1.5152 B(  1-S ,  3-F ) :   0.7143
B(  1-S ,  4-O ) :   1.5123 B(  1-S ,  5-H ) :   0.1006 B(  1-S ,  6-H ) :   0.1014
B(  1-S ,  7-H ) :   0.1350

Dispersion correction           -0.010382699
FINAL SINGLE POINT ENERGY      -687.805476416773

DIPOLE MOMENT
-------------
                                X             Y             Z
Electronic contribution:     -3.31683       4.10430      -1.07205
Nuclear contribution   :      2.85578      -5.69854       0.39418
                        -----------------------------------------
Total Dipole Moment    :     -0.46105      -1.59424      -0.67788
                        -----------------------------------------
Magnitude (a.u.)       :      1.79268
Magnitude (Debye)      :      4.55663

Rotational constants in cm-1:     0.163257     0.155833     0.146211
Rotational constants in MHz :  4894.333085  4671.750883  4383.281537

                             ****ORCA TERMINATED NORMALLY****
TOTAL RUN TIME: 0 days 0 hours 0 minutes 7 seconds 242 msec
