                         Program Version 5.0.0 -  RELEASE  -
|  1> !B3LYP D3BJ RIJCOSX def2-SVPD def2/J TightSCF
|  2> *xyz 0 1
|  3> C          4.49059        1.15590       -2.46929
|  4> N          4.30539        1.22276       -3.90832
|  5> C          4.63192        2.24637       -4.67096
|  6> C          4.54169        2.14399       -5.98714
|  7> N          5.08409        3.39358       -4.11855
|  8> H          4.92067        3.57050       -3.13587
|  9> H          5.25465        4.19739       -4.70696
| 10> H          3.82453        0.44911       -4.35093
| 11> H          4.34337        1.24932       -6.41665
| 12> H          4.67671        2.95662       -6.57411
| 13> H          5.00867        2.03053       -2.13534
| 14> H          5.06354        0.28631       -2.22344
| 15> H          3.53600        1.10160       -1.98897
| 16> *
| 17>
| 18> %MaxCore 64000
| 19>
| 20> %pal nprocs 8
| 21> end
| 22>
| 23> %scf
| 24>   MaxIter 150
| 25> end
| 26>
| 27>
| 28>                          ****END OF INPUT****

CARTESIAN COORDINATES (ANGSTROEM)
---------------------------------
  C      4.490590    1.155900   -2.469290
  N      4.305390    1.222760   -3.908320
  C      4.631920    2.246370   -4.670960
  C      4.541690    2.143990   -5.987140
  N      5.084090    3.393580   -4.118550
  H      4.920670    3.570500   -3.135870
  H      5.254650    4.197390   -4.706960
  H      3.824530    0.449110   -4.350930
  H      4.343370    1.249320   -6.416650
  H      4.676710    2.956620   -6.574110
  H      5.008670    2.030530   -2.135340
  H      5.063540    0.286310   -2.223440
  H      3.536000    1.101600   -1.988970

 Total Charge           Charge          ....    0
 Multiplicity           Mult            ....    1
 Number of Electrons    NEL             ....   40
 Basis Dimension        Dim             ....  164

ORBITAL ENERGIES
----------------

  NO   OCC          E(Eh)            E(eV)
   0   2.0000     -14.330459      -389.9516
   1   2.0000     -14.328516      -389.8988
   2   2.0000     -10.226349      -278.2731
   3   2.0000     -10.215930      -277.9896
   4   2.0000     -10.092855      -274.6405
   5   2.0000      -0.958282       -26.0762
   6   2.0000      -0.871092       -23.7036
   7   2.0000      -0.738909       -20.1067
   8   2.0000      -0.660486       -17.9727
   9   2.0000      -0.600541       -16.3415
  10   2.0000      -0.536974       -14.6118
  11   2.0000      -0.492117       -13.3912
  12   2.0000      -0.475777       -12.9466
  13   2.0000      -0.453676       -12.3451
  14   2.0000      -0.410249       -11.1635
  15   2.0000      -0.393205       -10.6996
  16   2.0000      -0.382532       -10.4092
  17   2.0000      -0.359947        -9.7946
  18   2.0000      -0.253436        -6.8963
  19   2.0000      -0.161152        -4.3852
  20   0.0000       0.011744         0.3196
  21   0.0000       0.043189         1.1752
  22   0.0000       0.046579         1.2675
  23   0.0000       0.074907         2.0383
  24   0.0000       0.086981         2.3669

MULLIKEN ATOMIC CHARGES
-----------------------
   0 C :    1.483379
   1 N :   -0.449687
   2 C :    0.823015
   3 C :    0.436587
   4 N :    0.146649
   5 H :   -0.177236
   6 H :   -0.179867
   7 H :   -0.365718
   8 H :   -0.425409
   9 H :   -0.464527
  10 H :   -0.328299
  11 H :   -0.235298
  12 H :   -0.263589
Sum of atomic charges:   -0.0000000

LOEWDIN ATOMIC CHARGES
----------------------
   0 C :    0.223398
   1 N :   -0.038921
   2 C :   -0.239291
   3 C :    0.143088
   4 N :    0.199540
   5 H :   -0.036819
   6 H :    0.002296
   7 H :    0.036144
   8 H :   -0.105246
   9 H :   -0.107269
  10 H :   -0.038161
  11 H :   -0.018793
  12 H :   -0.019965

  Mayer bond orders larger than 0.100000
B(  0-C ,  1-N ) :   0.9073 B(  0-C ,  7-H ) :  -0.2017 B(  0-C , 10-H ) :   0.7705
B(  0-C , 11-H ) :   0.6968 B(  0-C , 12-H ) :   0.7186 B(  1-N ,  2-C ) :   1.0555
B(  1-N ,  3-C ) :   0.2368 B(  1-N ,  4-N ) :   0.1925 B(  1-N ,  7-H ) :   1.3235
B(  1-N , 10-H ) :   0.2374 B(  1-N , 11-H ) :   0.2094 B(  1-N , 12-H ) :   0.2045
B(  2-C ,  3-C ) :   1.3025 B(  2-C ,  4-N ) :   0.9567 B(  2-C ,  6-H ) :  -0.1061
B(  2-C ,  7-H ) :  -0.2375 B(  2-C ,  9-H ) :   0.1666 B(  3-C ,  4-N ) :   0.2303
B(  3-C ,  8-H ) :   0.8198 B(  3-C ,  9-H ) :   0.7365 B(  4-N ,  5-H ) :   1.0930
B(  4-N ,  6-H ) :   1.1883 B(  5-H ,  6-H ) :  -0.1521

Dispersion correction           -0.015620584
FINAL SINGLE POINT ENERGY      -228.312745096247

DIPOLE MOMENT
-------------
                                X             Y             Z
Electronic contribution:      0.09242       0.50206      -0.77221
Nuclear contribution   :     -0.24876      -0.46055       1.84019
                        -----------------------------------------
Total Dipole Moment    :     -0.15634       0.04151       1.06798
                        -----------------------------------------
Magnitude (a.u.)       :      1.08016
Magnitude (Debye)      :      2.74555

Rotational constants in cm-1:     0.322158     0.139919     0.099594
Rotational constants in MHz :  9658.057362  4194.660927  2985.745059

                             ****ORCA TERMINATED NORMALLY****
TOTAL RUN TIME: 0 days 0 hours 0 minutes 9 seconds 233 msec
