                         Program Version 5.0.0 -  RELEASE  -
|  1> !B3LYP D3BJ RIJCOSX def2-SVPD def2/J TightSCF
|  2> *xyz 0 1
|  3> C          3.51177       -2.80621       -6.49228
|  4> S          3.00462       -1.09621       -6.38926
|  5> O          4.12886       -0.32965       -6.95372
|  6> O          1.78128       -1.00078       -7.13640
|  7> F          2.85155       -0.78368       -4.95679
|  8> H          3.63615       -3.08010       -7.51913
|  9> H          2.76397       -3.42755       -6.04548
| 10> H          4.43892       -2.93511       -5.97393
| 11> *
| 12>
| 13> %MaxCore 64000
| 14>
| 15> %pal nprocs 8
| 16> end
| 17>
| 18> %scf
| 19>   MaxIter 150
| 20> end
| 21>
| 22>
| 23>                          ****END OF INPUT****

CARTESIAN COORDINATES (ANGSTROEM)
---------------------------------
  C      3.511770   -2.806210   -6.492280
  S      3.004620   -1.096210   -6.389260
  O      4.128860   -0.329650   -6.953720
  O      1.781280   -1.000780   -7.136400
  F      2.851550   -0.783680   -4.956790
  H      3.636150   -3.080100   -7.519130
  H      2.763970   -3.427550   -6.045480
  H      4.438920   -2.935110   -5.973930

 Total Charge           Charge          ....    0
 Multiplicity           Mult            ....    1
 Number of Electrons    NEL             ....   50
 Basis Dimension        Dim             ....  140

ORBITAL ENERGIES
----------------

  NO   OCC          E(Eh)            E(eV)
   0   2.0000     -89.145744     -2425.7790
   1   2.0000     -24.806431      -675.0173
   2   2.0000     -19.159608      -521.3594
   3   2.0000     -19.148127      -521.0470
   4   2.0000     -10.248402      -278.8732
   5   2.0000      -8.199922      -223.1312
   6   2.0000      -6.172783      -167.9700
   7   2.0000      -6.166568      -167.8008
   8   2.0000      -6.165574      -167.7738
   9   2.0000      -1.356557       -36.9138
  10   2.0000      -1.117496       -30.4086
  11   2.0000      -1.016315       -27.6553
  12   2.0000      -0.804835       -21.9007
  13   2.0000      -0.711926       -19.3725
  14   2.0000      -0.599142       -16.3035
  15   2.0000      -0.577085       -15.7033
  16   2.0000      -0.559052       -15.2126
  17   2.0000      -0.485379       -13.2078
  18   2.0000      -0.482579       -13.1316
  19   2.0000      -0.474167       -12.9027
  20   2.0000      -0.446668       -12.1544
  21   2.0000      -0.393604       -10.7105
  22   2.0000      -0.348144        -9.4735
  23   2.0000      -0.336216        -9.1489
  24   2.0000      -0.318968        -8.6796
  25   0.0000      -0.012114        -0.3296
  26   0.0000       0.025586         0.6962
  27   0.0000       0.031854         0.8668
  28   0.0000       0.044984         1.2241
  29   0.0000       0.045532         1.2390

MULLIKEN ATOMIC CHARGES
-----------------------
   0 C :    0.680611
   1 S :    1.269326
   2 O :   -0.657910
   3 O :   -0.621960
   4 F :   -0.392584
   5 H :   -0.092445
   6 H :   -0.094240
   7 H :   -0.090797
Sum of atomic charges:    0.0000000

LOEWDIN ATOMIC CHARGES
----------------------
   0 C :    0.128835
   1 S :    1.107714
   2 O :   -0.478874
   3 O :   -0.461551
   4 F :   -0.269257
   5 H :    0.000456
   6 H :   -0.014427
   7 H :   -0.012896

  Mayer bond orders larger than 0.100000
B(  0-C ,  1-S ) :   0.9903 B(  0-C ,  5-H ) :   0.8764 B(  0-C ,  6-H ) :   0.8803
B(  0-C ,  7-H ) :   0.8844 B(  1-S ,  2-O ) :   1.5114 B(  1-S ,  3-O ) :   1.5444
B(  1-S ,  4-F ) :   0.6681 B(  1-S ,  5-H ) :   0.1279 B(  1-S ,  6-H ) :   0.1017
B(  1-S ,  7-H ) :   0.1086

Dispersion correction           -0.010386854
FINAL SINGLE POINT ENERGY      -687.820148087920

DIPOLE MOMENT
-------------
                                X             Y             Z
Electronic contribution:     -1.54578       4.45982       2.56175
Nuclear contribution   :      1.78651      -5.91544      -1.78339
                        -----------------------------------------
Total Dipole Moment    :      0.24073      -1.45562       0.77836
                        -----------------------------------------
Magnitude (a.u.)       :      1.66812
Magnitude (Debye)      :      4.24003

Rotational constants in cm-1:     0.165193     0.152051     0.147788
Rotational constants in MHz :  4952.361749  4558.380225  4430.570551

                             ****ORCA TERMINATED NORMALLY****
TOTAL RUN TIME: 0 days 0 hours 0 minutes 7 seconds 147 msec
