                         Program Version 5.0.0 -  RELEASE  -
|  1> !B3LYP D3BJ RIJCOSX def2-SVPD def2/J TightSCF
|  2> *xyz 0 1
|  3> C          4.49059        1.15590       -2.46929
|  4> N          4.30539        1.22276       -3.90832
|  5> C          4.63192        2.24637       -4.67096
|  6> N          4.54169        2.14399       -5.98714
|  7> C          5.08409        3.39358       -4.11855
|  8> H          4.92067        3.57050       -3.13587
|  9> H          5.25465        4.19739       -4.70696
| 10> H          3.82453        0.44911       -4.35093
| 11> H          4.34337        1.24932       -6.41665
| 12> H          4.67671        2.95662       -6.57411
| 13> H          5.00867        2.03053       -2.13534
| 14> H          5.06354        0.28631       -2.22344
| 15> H          3.53600        1.10160       -1.98897
| 16> *
| 17>
| 18> %MaxCore 64000
| 19>
| 20> %pal nprocs 8
| 21> end
| 22>
| 23> %scf
| 24>   MaxIter 150
| 25> end
| 26>
| 27>
| 28>                          ****END OF INPUT****

CARTESIAN COORDINATES (ANGSTROEM)
---------------------------------
  C      4.490590    1.155900   -2.469290
  N      4.305390    1.222760   -3.908320
  C      4.631920    2.246370   -4.670960
  N      4.541690    2.143990   -5.987140
  C      5.084090    3.393580   -4.118550
  H      4.920670    3.570500   -3.135870
  H      5.254650    4.197390   -4.706960
  H      3.824530    0.449110   -4.350930
  H      4.343370    1.249320   -6.416650
  H      4.676710    2.956620   -6.574110
  H      5.008670    2.030530   -2.135340
  H      5.063540    0.286310   -2.223440
  H      3.536000    1.101600   -1.988970

 Total Charge           Charge          ....    0
 Multiplicity           Mult            ....    1
 Number of Electrons    NEL             ....   40
 Basis Dimension        Dim             ....  164

ORBITAL ENERGIES
----------------

  NO   OCC          E(Eh)            E(eV)
   0   2.0000     -14.333644      -390.0383
   1   2.0000     -14.331716      -389.9858
   2   2.0000     -10.229604      -278.3617
   3   2.0000     -10.206024      -277.7200
   4   2.0000     -10.093408      -274.6556
   5   2.0000      -0.962095       -26.1799
   6   2.0000      -0.877786       -23.8858
   7   2.0000      -0.712138       -19.3783
   8   2.0000      -0.689920       -18.7737
   9   2.0000      -0.569075       -15.4853
  10   2.0000      -0.552464       -15.0333
  11   2.0000      -0.520107       -14.1528
  12   2.0000      -0.455820       -12.4035
  13   2.0000      -0.444424       -12.0934
  14   2.0000      -0.416147       -11.3239
  15   2.0000      -0.384844       -10.4721
  16   2.0000      -0.376078       -10.2336
  17   2.0000      -0.358861        -9.7651
  18   2.0000      -0.251122        -6.8334
  19   2.0000      -0.161482        -4.3942
  20   0.0000       0.013264         0.3609
  21   0.0000       0.037324         1.0156
  22   0.0000       0.051162         1.3922
  23   0.0000       0.072039         1.9603
  24   0.0000       0.082419         2.2427

MULLIKEN ATOMIC CHARGES
-----------------------
   0 C :    1.447024
   1 N :   -0.438405
   2 C :    0.739154
   3 N :    0.214920
   4 C :    0.384140
   5 H :   -0.263165
   6 H :   -0.580554
   7 H :   -0.435845
   8 H :   -0.238328
   9 H :   -0.089825
  10 H :   -0.267854
  11 H :   -0.216186
  12 H :   -0.255075
Sum of atomic charges:   -0.0000000

LOEWDIN ATOMIC CHARGES
----------------------
   0 C :    0.231126
   1 N :   -0.046931
   2 C :   -0.240076
   3 N :    0.186868
   4 C :    0.159262
   5 H :   -0.127605
   6 H :   -0.112523
   7 H :    0.020509
   8 H :   -0.010153
   9 H :    0.007699
  10 H :   -0.035287
  11 H :   -0.016904
  12 H :   -0.015985

  Mayer bond orders larger than 0.100000
B(  0-C ,  1-N ) :   0.9127 B(  0-C ,  7-H ) :  -0.1836 B(  0-C , 10-H ) :   0.8052
B(  0-C , 11-H ) :   0.6682 B(  0-C , 12-H ) :   0.6883 B(  1-N ,  2-C ) :   1.0088
B(  1-N ,  3-N ) :   0.1420 B(  1-N ,  4-C ) :   0.3218 B(  1-N ,  7-H ) :   1.3680
B(  1-N , 10-H ) :   0.1888 B(  1-N , 11-H ) :   0.2474 B(  1-N , 12-H ) :   0.2273
B(  2-C ,  3-N ) :   0.9948 B(  2-C ,  4-C ) :   1.5834 B(  2-C ,  5-H ) :   0.2077
B(  2-C ,  6-H ) :   0.1290 B(  2-C ,  7-H ) :  -0.2687 B(  2-C ,  8-H ) :  -0.1049
B(  3-N ,  4-C ) :   0.2348 B(  3-N ,  8-H ) :   1.2139 B(  3-N ,  9-H ) :   1.1797
B(  4-C ,  5-H ) :   0.6872 B(  4-C ,  6-H ) :   0.8964 B(  5-H ,  6-H ) :   0.1107
B(  5-H , 10-H ) :   0.1555 B(  8-H ,  9-H ) :  -0.1761

Dispersion correction           -0.015703870
FINAL SINGLE POINT ENERGY      -228.311671039956

DIPOLE MOMENT
-------------
                                X             Y             Z
Electronic contribution:     -0.38781      -0.72292      -2.63921
Nuclear contribution   :     -0.13890      -0.20745       2.21867
                        -----------------------------------------
Total Dipole Moment    :     -0.52671      -0.93038      -0.42054
                        -----------------------------------------
Magnitude (a.u.)       :      1.14886
Magnitude (Debye)      :      2.92017

Rotational constants in cm-1:     0.339212     0.134625     0.098371
Rotational constants in MHz : 10169.318272  4035.946597  2949.073953

                             ****ORCA TERMINATED NORMALLY****
TOTAL RUN TIME: 0 days 0 hours 0 minutes 9 seconds 430 msec
