                         Program Version 5.0.0 -  RELEASE  -
|  1> !B3LYP D3BJ RIJCOSX def2-SVPD def2/J TightSCF xyzfile
|  2>
|  3> *xyzfile 0 1 D2.xyz
|  4>
|  5> %MaxCore 64000
|  6>
|  7> %pal nprocs 4
|  8> end
|  9>
| 10> %scf
| 11>   MaxIter 150
| 12> end
| 13>
| 14>
| 15>                          ****END OF INPUT****

CARTESIAN COORDINATES (ANGSTROEM)
---------------------------------
  C      4.490588    1.155899   -2.469290
  N      4.305394    1.222762   -3.908317
  C      4.906458   -3.102816   -5.954844
  C      3.511771   -2.806215   -6.492283
  H      2.736044   -3.373445   -5.973736
  H      3.444904   -3.040831   -7.555281
  S      3.004618   -1.096206   -6.389259
  C      4.631918    2.246365   -4.670958
  C      4.541686    2.143990   -5.987139
  N      5.084086    3.393584   -4.118545
  H      4.920675    3.570501   -3.135870
  H      5.254652    4.197390   -4.706956
  H      3.824530    0.449113   -4.350926
  H      4.343373    1.249318   -6.416646
  H      4.676712    2.956624   -6.574113
  F      4.128856   -0.329647   -6.953717
  O      1.781285   -1.000779   -7.136399
  C      5.942129    0.939500   -2.036893
  H      3.864305    0.328532   -2.136611
  H      4.076233    2.049994   -1.989010
  C      6.462677   -3.117775   -3.944671
  C      5.024977   -3.025679   -4.437625
  H      4.423321   -3.818693   -3.977648
  H      4.579350   -2.087131   -4.108727
  H      5.201533   -4.100207   -6.296905
  H      5.605922   -2.397822   -6.413368
  C      6.559957   -0.356290   -2.559086
  H      5.967976    0.952567   -0.942444
  H      6.547184    1.788331   -2.368849
  C      6.006283   -1.615917   -1.899301
  H      7.642360   -0.318000   -2.402059
  H      6.414855   -0.403433   -3.642587
  C      6.608718   -2.917014   -2.435655
  H      6.190324   -1.561115   -0.820948
  H      4.919250   -1.651245   -2.016586
  H      7.066975   -2.374258   -4.475514
  H      6.887808   -4.089747   -4.215332
  H      6.135197   -3.755573   -1.915159
  H      7.671142   -2.955503   -2.172291
  O      2.851546   -0.783683   -4.956789

 Total Charge           Charge          ....    0
 Multiplicity           Mult            ....    1
 Number of Electrons    NEL             ....  144
 Basis Dimension        Dim             ....  540

ORBITAL ENERGIES
----------------

  NO   OCC          E(Eh)            E(eV)
   0   2.0000     -89.150586     -2425.9108
   1   2.0000     -24.807402      -675.0437
   2   2.0000     -19.163832      -521.4744
   3   2.0000     -19.160926      -521.3953
   4   2.0000     -14.317289      -389.5932
   5   2.0000     -14.299359      -389.1054
   6   2.0000     -10.252445      -278.9832
   7   2.0000     -10.217199      -278.0241
   8   2.0000     -10.212300      -277.8908
   9   2.0000     -10.205891      -277.7164
  10   2.0000     -10.189930      -277.2821
  11   2.0000     -10.185122      -277.1513
  12   2.0000     -10.180656      -277.0297
  13   2.0000     -10.175820      -276.8981
  14   2.0000     -10.171878      -276.7909
  15   2.0000     -10.171167      -276.7715
  16   2.0000     -10.077814      -274.2313
  17   2.0000      -8.203750      -223.2354
  18   2.0000      -6.176734      -168.0775
  19   2.0000      -6.170837      -167.9170
  20   2.0000      -6.168967      -167.8661
  21   2.0000      -1.361262       -37.0418
  22   2.0000      -1.124835       -30.6083
  23   2.0000      -1.027616       -27.9628
  24   2.0000      -0.941768       -25.6268
  25   2.0000      -0.857919       -23.3452
  26   2.0000      -0.843906       -22.9639
  27   2.0000      -0.807876       -21.9834
  28   2.0000      -0.779220       -21.2036
  29   2.0000      -0.746063       -20.3014
  30   2.0000      -0.725618       -19.7451
  31   2.0000      -0.699009       -19.0210
  32   2.0000      -0.674880       -18.3644
  33   2.0000      -0.644546       -17.5390
  34   2.0000      -0.621457       -16.9107
  35   2.0000      -0.601265       -16.3613
  36   2.0000      -0.592420       -16.1206
  37   2.0000      -0.586089       -15.9483
  38   2.0000      -0.578252       -15.7350
  39   2.0000      -0.557713       -15.1761
  40   2.0000      -0.552070       -15.0226
  41   2.0000      -0.517387       -14.0788
  42   2.0000      -0.503331       -13.6963
  43   2.0000      -0.493693       -13.4341
  44   2.0000      -0.485294       -13.2055
  45   2.0000      -0.480320       -13.0702
  46   2.0000      -0.468633       -12.7522
  47   2.0000      -0.467673       -12.7260
  48   2.0000      -0.460940       -12.5428
  49   2.0000      -0.445178       -12.1139
  50   2.0000      -0.437564       -11.9067
  51   2.0000      -0.433535       -11.7971
  52   2.0000      -0.422009       -11.4834
  53   2.0000      -0.401891       -10.9360
  54   2.0000      -0.395655       -10.7663
  55   2.0000      -0.394128       -10.7248
  56   2.0000      -0.384681       -10.4677
  57   2.0000      -0.374508       -10.1909
  58   2.0000      -0.370424       -10.0798
  59   2.0000      -0.364776        -9.9261
  60   2.0000      -0.358896        -9.7661
  61   2.0000      -0.352781        -9.5997
  62   2.0000      -0.346056        -9.4167
  63   2.0000      -0.341775        -9.3002
  64   2.0000      -0.336225        -9.1492
  65   2.0000      -0.329533        -8.9671
  66   2.0000      -0.326473        -8.8838
  67   2.0000      -0.316843        -8.6217
  68   2.0000      -0.315092        -8.5741
  69   2.0000      -0.310947        -8.4613
  70   2.0000      -0.238346        -6.4857
  71   2.0000      -0.149384        -4.0650
  72   0.0000      -0.008783        -0.2390
  73   0.0000       0.018058         0.4914
  74   0.0000       0.020337         0.5534
  75   0.0000       0.022815         0.6208
  76   0.0000       0.028291         0.7698

MULLIKEN ATOMIC CHARGES
-----------------------
   0 C :    1.206630
   1 N :    0.395329
   2 C :    0.442885
   3 C :    0.457084
   4 H :   -0.050807
   5 H :   -0.114814
   6 S :    1.454683
   7 C :    0.959623
   8 C :    0.787857
   9 N :    0.368018
  10 H :   -0.108295
  11 H :   -0.267042
  12 H :   -1.113674
  13 H :   -0.581310
  14 H :   -0.753886
  15 F :   -0.503026
  16 O :   -0.705564
  17 C :    0.493865
  18 H :   -0.421693
  19 H :   -0.278031
  20 C :    0.195923
  21 C :    0.461626
  22 H :   -0.026825
  23 H :   -0.624138
  24 H :   -0.200155
  25 H :   -0.052884
  26 C :    0.329763
  27 H :   -0.259682
  28 H :   -0.132622
  29 C :    0.018724
  30 H :   -0.254610
  31 H :   -0.213171
  32 C :    0.830911
  33 H :   -0.447473
  34 H :    0.075224
  35 H :    0.049792
  36 H :   -0.445523
  37 H :   -0.129723
  38 H :   -0.085760
  39 O :   -0.757226
Sum of atomic charges:    0.0000000

LOEWDIN ATOMIC CHARGES
----------------------
   0 C :    0.066375
   1 N :    0.017004
   2 C :   -0.027174
   3 C :   -0.032421
   4 H :    0.040522
   5 H :    0.024291
   6 S :    1.167606
   7 C :   -0.207867
   8 C :    0.173591
   9 N :    0.207436
  10 H :   -0.029383
  11 H :   -0.000406
  12 H :   -0.093411
  13 H :   -0.169885
  14 H :   -0.101247
  15 F :   -0.268154
  16 O :   -0.434668
  17 C :   -0.015123
  18 H :    0.015282
  19 H :    0.006712
  20 C :   -0.029287
  21 C :   -0.022311
  22 H :    0.040070
  23 H :   -0.018837
  24 H :    0.034748
  25 H :    0.026104
  26 C :   -0.025237
  27 H :    0.016750
  28 H :    0.007815
  29 C :   -0.031635
  30 H :    0.023602
  31 H :    0.005771
  32 C :   -0.022958
  33 H :    0.021433
  34 H :    0.003826
  35 H :    0.015688
  36 H :    0.020908
  37 H :    0.018977
  38 H :    0.020220
  39 O :   -0.444727

  Mayer bond orders larger than 0.100000
B(  0-C ,  1-N ) :   0.9985 B(  0-C , 12-H ) :  -0.5282 B(  0-C , 17-C ) :   1.0875
B(  0-C , 18-H ) :   0.5388 B(  0-C , 19-H ) :   0.7902 B(  0-C , 26-C ) :   0.1608
B(  0-C , 27-H ) :   0.1314 B(  0-C , 28-H ) :   0.1078 B(  1-N ,  7-C ) :   1.1763
B(  1-N ,  8-C ) :   0.1175 B(  1-N ,  9-N ) :   0.3108 B(  1-N , 12-H ) :   0.7462
B(  1-N , 18-H ) :   0.2871 B(  2-C ,  3-C ) :   1.1713 B(  2-C ,  5-H ) :   0.2679
B(  2-C , 20-C ) :   0.1359 B(  2-C , 21-C ) :   1.1075 B(  2-C , 22-H ) :   0.1188
B(  2-C , 24-H ) :   0.7513 B(  2-C , 25-H ) :   0.8086 B(  3-C ,  4-H ) :   0.8718
B(  3-C ,  5-H ) :   0.6984 B(  3-C ,  6-S ) :   1.0000 B(  3-C , 21-C ) :   0.1178
B(  3-C , 25-H ) :   0.1015 B(  5-H ,  6-S ) :   0.1139 B(  6-S , 15-F ) :   0.6239
B(  6-S , 16-O ) :   1.4459 B(  6-S , 39-O ) :   1.3922 B(  7-C ,  8-C ) :   1.2572
B(  7-C ,  9-N ) :   0.8469 B(  7-C , 12-H ) :  -0.7999 B(  7-C , 14-H ) :   0.2274
B(  8-C ,  9-N ) :   0.3103 B(  8-C , 13-H ) :   0.2108 B(  8-C , 14-H ) :   0.6099
B(  9-N , 10-H ) :   0.9775 B(  9-N , 11-H ) :   1.2039 B( 10-H , 11-H ) :  -0.1944
B( 12-H , 18-H ) :   0.1132 B( 12-H , 39-O ) :   0.1290 B( 13-H , 14-H ) :  -0.2056
B( 13-H , 15-F ) :   0.2172 B( 16-O , 39-O ) :   0.1461 B( 17-C , 18-H ) :   0.1198
B( 17-C , 19-H ) :   0.1319 B( 17-C , 26-C ) :   1.1949 B( 17-C , 27-H ) :   0.8645
B( 17-C , 28-H ) :   0.6593 B( 17-C , 31-H ) :   0.1368 B( 18-H , 19-H ) :  -0.2200
B( 20-C , 21-C ) :   1.1991 B( 20-C , 22-H ) :   0.1270 B( 20-C , 23-H ) :   0.1370
B( 20-C , 29-C ) :   0.1592 B( 20-C , 32-C ) :   1.1224 B( 20-C , 35-H ) :   0.8265
B( 20-C , 36-H ) :   0.8490 B( 20-C , 37-H ) :   0.1203 B( 20-C , 38-H ) :   0.2573
B( 21-C , 22-H ) :   0.6586 B( 21-C , 23-H ) :   0.6595 B( 21-C , 24-H ) :   0.2010
B( 21-C , 25-H ) :   0.1190 B( 21-C , 35-H ) :   0.1144 B( 21-C , 36-H ) :   0.2002
B( 22-H , 23-H ) :   0.1928 B( 23-H , 34-H ) :   0.1270 B( 26-C , 28-H ) :   0.2462
B( 26-C , 29-C ) :   1.2135 B( 26-C , 30-H ) :   0.7872 B( 26-C , 31-H ) :   0.8522
B( 26-C , 33-H ) :   0.1508 B( 26-C , 34-H ) :   0.1163 B( 27-H , 28-H ) :  -0.1346
B( 29-C , 30-H ) :   0.1673 B( 29-C , 31-H ) :   0.1362 B( 29-C , 32-C ) :   1.1102
B( 29-C , 33-H ) :   0.9324 B( 29-C , 34-H ) :   0.8234 B( 29-C , 37-H ) :   0.3335
B( 29-C , 38-H ) :   0.1487 B( 32-C , 37-H ) :   0.5859 B( 32-C , 38-H ) :   0.6276
B( 37-H , 38-H ) :  -0.1349

Dispersion correction           -0.079177476
FINAL SINGLE POINT ENERGY     -1189.789919976460

DIPOLE MOMENT
-------------
                                X             Y             Z
Electronic contribution:    -16.36218       3.91508     -19.59984
Nuclear contribution   :     17.27667      -5.32157      20.03034
                        -----------------------------------------
Total Dipole Moment    :      0.91449      -1.40649       0.43050
                        -----------------------------------------
Magnitude (a.u.)       :      1.73200
Magnitude (Debye)      :      4.40239

Rotational constants in cm-1:     0.014355     0.012269     0.007481
Rotational constants in MHz :   430.360270   367.823451   224.273399

                             ****ORCA TERMINATED NORMALLY****
TOTAL RUN TIME: 0 days 0 hours 5 minutes 4 seconds 675 msec
