                         Program Version 5.0.0 -  RELEASE  -
|  1> !B3LYP D3BJ RIJCOSX def2-SVPD def2/J TightSCF xyzfile
|  2>
|  3> *xyzfile 0 1 D8.xyz
|  4>
|  5> %MaxCore 64000
|  6>
|  7> %pal nprocs 4
|  8> end
|  9>
| 10> %scf
| 11>   MaxIter 150
| 12> end
| 13>
| 14>
| 15>                          ****END OF INPUT****

CARTESIAN COORDINATES (ANGSTROEM)
---------------------------------
  C      4.490588    1.155899   -2.469290
  N      4.305394    1.222762   -3.908317
  C      4.906458   -3.102816   -5.954844
  C      3.511771   -2.806215   -6.492283
  H      2.736044   -3.373445   -5.973736
  H      3.444904   -3.040831   -7.555281
  S      3.004618   -1.096206   -6.389259
  C      4.631918    2.246365   -4.670958
  C      4.541686    2.143990   -5.987139
  N      5.084086    3.393584   -4.118545
  H      4.920675    3.570501   -3.135870
  H      5.254652    4.197390   -4.706956
  H      3.824530    0.449113   -4.350926
  H      4.343373    1.249318   -6.416646
  H      4.676712    2.956624   -6.574113
  O      4.128856   -0.329647   -6.953717
  O      1.781285   -1.000779   -7.136399
  C      5.942129    0.939500   -2.036893
  H      3.864305    0.328532   -2.136611
  H      4.076233    2.049994   -1.989010
  C      6.462677   -3.117775   -3.944671
  C      5.024977   -3.025679   -4.437625
  H      4.423321   -3.818693   -3.977648
  H      4.579350   -2.087131   -4.108727
  H      5.201533   -4.100207   -6.296905
  H      5.605922   -2.397822   -6.413368
  C      6.559957   -0.356290   -2.559086
  H      5.967976    0.952567   -0.942444
  H      6.547184    1.788331   -2.368849
  C      6.006283   -1.615917   -1.899301
  H      7.642360   -0.318000   -2.402059
  H      6.414855   -0.403433   -3.642587
  C      6.608718   -2.917014   -2.435655
  H      6.190324   -1.561115   -0.820948
  H      4.919250   -1.651245   -2.016586
  H      7.066975   -2.374258   -4.475514
  H      6.887808   -4.089747   -4.215332
  H      6.135197   -3.755573   -1.915159
  H      7.671142   -2.955503   -2.172291
  F      2.851546   -0.783683   -4.956789

 Total Charge           Charge          ....    0
 Multiplicity           Mult            ....    1
 Number of Electrons    NEL             ....  144
 Basis Dimension        Dim             ....  540

ORBITAL ENERGIES
----------------

  NO   OCC          E(Eh)            E(eV)
   0   2.0000     -89.145280     -2425.7664
   1   2.0000     -24.818997      -675.3592
   2   2.0000     -19.161429      -521.4090
   3   2.0000     -19.147924      -521.0415
   4   2.0000     -14.314729      -389.5236
   5   2.0000     -14.312721      -389.4689
   6   2.0000     -10.250489      -278.9300
   7   2.0000     -10.214464      -277.9497
   8   2.0000     -10.212967      -277.9090
   9   2.0000     -10.207344      -277.7560
  10   2.0000     -10.198870      -277.5254
  11   2.0000     -10.188919      -277.2546
  12   2.0000     -10.184825      -277.1432
  13   2.0000     -10.181467      -277.0518
  14   2.0000     -10.175821      -276.8982
  15   2.0000     -10.175672      -276.8941
  16   2.0000     -10.064789      -273.8768
  17   2.0000      -8.198870      -223.1026
  18   2.0000      -6.172034      -167.9496
  19   2.0000      -6.165610      -167.7748
  20   2.0000      -6.164023      -167.7316
  21   2.0000      -1.370571       -37.2951
  22   2.0000      -1.120224       -30.4829
  23   2.0000      -1.020040       -27.7567
  24   2.0000      -0.945857       -25.7381
  25   2.0000      -0.860895       -23.4261
  26   2.0000      -0.842910       -22.9367
  27   2.0000      -0.811049       -22.0698
  28   2.0000      -0.783260       -21.3136
  29   2.0000      -0.750182       -20.4135
  30   2.0000      -0.729612       -19.8537
  31   2.0000      -0.705442       -19.1961
  32   2.0000      -0.672171       -18.2907
  33   2.0000      -0.648669       -17.6512
  34   2.0000      -0.628588       -17.1047
  35   2.0000      -0.610610       -16.6155
  36   2.0000      -0.596989       -16.2449
  37   2.0000      -0.587970       -15.9995
  38   2.0000      -0.571123       -15.5411
  39   2.0000      -0.562199       -15.2982
  40   2.0000      -0.554372       -15.0852
  41   2.0000      -0.517389       -14.0789
  42   2.0000      -0.503819       -13.7096
  43   2.0000      -0.491366       -13.3708
  44   2.0000      -0.485432       -13.2093
  45   2.0000      -0.483485       -13.1563
  46   2.0000      -0.472778       -12.8650
  47   2.0000      -0.469617       -12.7789
  48   2.0000      -0.463515       -12.6129
  49   2.0000      -0.446850       -12.1594
  50   2.0000      -0.442840       -12.0503
  51   2.0000      -0.434264       -11.8169
  52   2.0000      -0.418201       -11.3798
  53   2.0000      -0.404681       -11.0119
  54   2.0000      -0.395292       -10.7564
  55   2.0000      -0.393271       -10.7014
  56   2.0000      -0.386989       -10.5305
  57   2.0000      -0.378581       -10.3017
  58   2.0000      -0.371304       -10.1037
  59   2.0000      -0.366151        -9.9635
  60   2.0000      -0.364809        -9.9270
  61   2.0000      -0.349942        -9.5224
  62   2.0000      -0.347785        -9.4637
  63   2.0000      -0.343320        -9.3422
  64   2.0000      -0.339014        -9.2250
  65   2.0000      -0.323726        -8.8090
  66   2.0000      -0.322556        -8.7772
  67   2.0000      -0.321778        -8.7560
  68   2.0000      -0.316017        -8.5993
  69   2.0000      -0.296397        -8.0654
  70   2.0000      -0.242317        -6.5938
  71   2.0000      -0.144167        -3.9230
  72   0.0000      -0.009351        -0.2545
  73   0.0000       0.012691         0.3453
  74   0.0000       0.015388         0.4187
  75   0.0000       0.021379         0.5818
  76   0.0000       0.029109         0.7921

MULLIKEN ATOMIC CHARGES
-----------------------
   0 C :    1.219463
   1 N :    0.452918
   2 C :    0.419580
   3 C :    0.451393
   4 H :   -0.074127
   5 H :   -0.068732
   6 S :    1.476174
   7 C :    0.959745
   8 C :    0.646115
   9 N :    0.356508
  10 H :   -0.109387
  11 H :   -0.265545
  12 H :   -1.163035
  13 H :   -0.445583
  14 H :   -0.755279
  15 O :   -0.714680
  16 O :   -0.701580
  17 C :    0.485743
  18 H :   -0.442952
  19 H :   -0.277491
  20 C :    0.179166
  21 C :    0.432358
  22 H :   -0.028400
  23 H :   -0.669931
  24 H :   -0.174030
  25 H :   -0.001276
  26 C :    0.346856
  27 H :   -0.259906
  28 H :   -0.127745
  29 C :    0.027647
  30 H :   -0.251604
  31 H :   -0.215947
  32 C :    0.826730
  33 H :   -0.449222
  34 H :    0.062302
  35 H :    0.056438
  36 H :   -0.444887
  37 H :   -0.129835
  38 H :   -0.079437
  39 F :   -0.548526
Sum of atomic charges:    0.0000000

LOEWDIN ATOMIC CHARGES
----------------------
   0 C :    0.061824
   1 N :    0.009900
   2 C :   -0.025875
   3 C :   -0.035028
   4 H :    0.026273
   5 H :    0.035746
   6 S :    1.160918
   7 C :   -0.213286
   8 C :    0.183139
   9 N :    0.203185
  10 H :   -0.032571
  11 H :   -0.000078
  12 H :   -0.056906
  13 H :   -0.193942
  14 H :   -0.096838
  15 O :   -0.443640
  16 O :   -0.437550
  17 C :   -0.013927
  18 H :    0.010691
  19 H :    0.007327
  20 C :   -0.025732
  21 C :   -0.026371
  22 H :    0.037890
  23 H :   -0.017078
  24 H :    0.035963
  25 H :    0.029374
  26 C :   -0.024072
  27 H :    0.017229
  28 H :    0.009636
  29 C :   -0.033942
  30 H :    0.025084
  31 H :    0.007708
  32 C :   -0.022765
  33 H :    0.021779
  34 H :   -0.000438
  35 H :    0.018984
  36 H :    0.023374
  37 H :    0.018849
  38 H :    0.021341
  39 F :   -0.266175

  Mayer bond orders larger than 0.100000
B(  0-C ,  1-N ) :   1.0021 B(  0-C , 12-H ) :  -0.5246 B(  0-C , 17-C ) :   1.0893
B(  0-C , 18-H ) :   0.5173 B(  0-C , 19-H ) :   0.7981 B(  0-C , 26-C ) :   0.1631
B(  0-C , 27-H ) :   0.1302 B(  0-C , 28-H ) :   0.1140 B(  1-N ,  7-C ) :   1.1705
B(  1-N ,  8-C ) :   0.1369 B(  1-N ,  9-N ) :   0.3237 B(  1-N , 12-H ) :   0.5539
B(  1-N , 18-H ) :   0.2788 B(  1-N , 39-F ) :  -0.1146 B(  2-C ,  3-C ) :   1.2011
B(  2-C ,  5-H ) :   0.2831 B(  2-C , 20-C ) :   0.1403 B(  2-C , 21-C ) :   1.1398
B(  2-C , 22-H ) :   0.1175 B(  2-C , 24-H ) :   0.7284 B(  2-C , 25-H ) :   0.8395
B(  3-C ,  4-H ) :   0.8822 B(  3-C ,  5-H ) :   0.6590 B(  3-C ,  6-S ) :   0.9650
B(  3-C , 16-O ) :   0.1055 B(  3-C , 21-C ) :   0.1430 B(  3-C , 25-H ) :   0.1131
B(  6-S , 15-O ) :   1.4561 B(  6-S , 16-O ) :   1.4497 B(  6-S , 39-F ) :   0.5700
B(  7-C ,  8-C ) :   1.2164 B(  7-C ,  9-N ) :   0.8243 B(  7-C , 12-H ) :  -0.7655
B(  7-C , 14-H ) :   0.1846 B(  8-C ,  9-N ) :   0.3232 B(  8-C , 13-H ) :   0.4861
B(  8-C , 14-H ) :   0.6289 B(  9-N , 10-H ) :   0.9783 B(  9-N , 11-H ) :   1.2058
B( 10-H , 11-H ) :  -0.1952 B( 12-H , 18-H ) :   0.1358 B( 12-H , 39-F ) :   0.2167
B( 13-H , 14-H ) :  -0.1915 B( 17-C , 18-H ) :   0.1251 B( 17-C , 19-H ) :   0.1289
B( 17-C , 26-C ) :   1.1959 B( 17-C , 27-H ) :   0.8711 B( 17-C , 28-H ) :   0.6616
B( 17-C , 31-H ) :   0.1385 B( 18-H , 19-H ) :  -0.2170 B( 20-C , 21-C ) :   1.2182
B( 20-C , 22-H ) :   0.1263 B( 20-C , 23-H ) :   0.1545 B( 20-C , 29-C ) :   0.1648
B( 20-C , 32-C ) :   1.1207 B( 20-C , 35-H ) :   0.8268 B( 20-C , 36-H ) :   0.8476
B( 20-C , 37-H ) :   0.1189 B( 20-C , 38-H ) :   0.2584 B( 21-C , 22-H ) :   0.6581
B( 21-C , 23-H ) :   0.6143 B( 21-C , 24-H ) :   0.2029 B( 21-C , 25-H ) :   0.1175
B( 21-C , 35-H ) :   0.1165 B( 21-C , 36-H ) :   0.2008 B( 22-H , 23-H ) :   0.2120
B( 23-H , 34-H ) :   0.1328 B( 26-C , 28-H ) :   0.2434 B( 26-C , 29-C ) :   1.2078
B( 26-C , 30-H ) :   0.7877 B( 26-C , 31-H ) :   0.8464 B( 26-C , 33-H ) :   0.1477
B( 26-C , 34-H ) :   0.1131 B( 27-H , 28-H ) :  -0.1324 B( 29-C , 30-H ) :   0.1672
B( 29-C , 31-H ) :   0.1323 B( 29-C , 32-C ) :   1.1108 B( 29-C , 33-H ) :   0.9328
B( 29-C , 34-H ) :   0.8220 B( 29-C , 37-H ) :   0.3345 B( 29-C , 38-H ) :   0.1485
B( 32-C , 37-H ) :   0.5854 B( 32-C , 38-H ) :   0.6301 B( 37-H , 38-H ) :  -0.1344

Dispersion correction           -0.079032039
FINAL SINGLE POINT ENERGY     -1189.776196673111

DIPOLE MOMENT
-------------
                                X             Y             Z
Electronic contribution:    -18.42627       3.14008     -16.19378
Nuclear contribution   :     18.77618      -4.78855      17.68602
                        -----------------------------------------
Total Dipole Moment    :      0.34991      -1.64847       1.49224
                        -----------------------------------------
Magnitude (a.u.)       :      2.25093
Magnitude (Debye)      :      5.72140

Rotational constants in cm-1:     0.014368     0.012319     0.007509
Rotational constants in MHz :   430.738566   369.302170   225.105103

                             ****ORCA TERMINATED NORMALLY****
TOTAL RUN TIME: 0 days 0 hours 5 minutes 0 seconds 453 msec
