                         Program Version 5.0.0 -  RELEASE  -
|  1> !BLYP D3BJ RIJCOSX def2-SVPD def2/J TightSCF
|  2> *xyz -1 1
|  3> C          4.99986       -1.59613       -5.92488
|  4> C          3.76678       -2.26611       -6.51175
|  5> C          2.49670       -1.84416       -5.73570
|  6> H          1.62642       -2.21743       -6.30895
|  7> H          2.48182       -2.45607       -4.79341
|  8> O          2.45973       -0.50920       -5.50576
|  9> H          3.88619       -3.35708       -6.53360
| 10> H          3.68560       -1.92217       -7.54713
| 11> H          5.86637       -1.89999       -6.47418
| 12> H          5.10830       -1.88372       -4.89997
| 13> H          4.89230       -0.53341       -5.98765
| 14> *
| 15>
| 16> %MaxCore 64000
| 17>
| 18> %pal nprocs 4
| 19> end
| 20>
| 21> %scf
| 22>   MaxIter 150
| 23> end
| 24>
| 25>
| 26>                          ****END OF INPUT****

CARTESIAN COORDINATES (ANGSTROEM)
---------------------------------
  C      4.999860   -1.596130   -5.924880
  C      3.766780   -2.266110   -6.511750
  C      2.496700   -1.844160   -5.735700
  H      1.626420   -2.217430   -6.308950
  H      2.481820   -2.456070   -4.793410
  O      2.459730   -0.509200   -5.505760
  H      3.886190   -3.357080   -6.533600
  H      3.685600   -1.922170   -7.547130
  H      5.866370   -1.899990   -6.474180
  H      5.108300   -1.883720   -4.899970
  H      4.892300   -0.533410   -5.987650

 Total Charge           Charge          ....   -1
 Multiplicity           Mult            ....    1
 Number of Electrons    NEL             ....   34
 Basis Dimension        Dim             ....  139

ORBITAL ENERGIES
----------------

  NO   OCC          E(Eh)            E(eV)
   0   2.0000     -18.474734      -502.7231
   1   2.0000      -9.741573      -265.0817
   2   2.0000      -9.733673      -264.8667
   3   2.0000      -9.729325      -264.7484
   4   2.0000      -0.599763       -16.3204
   5   2.0000      -0.496736       -13.5169
   6   2.0000      -0.388659       -10.5759
   7   2.0000      -0.297224        -8.0879
   8   2.0000      -0.221606        -6.0302
   9   2.0000      -0.212503        -5.7825
  10   2.0000      -0.163519        -4.4496
  11   2.0000      -0.141626        -3.8538
  12   2.0000      -0.114747        -3.1224
  13   2.0000      -0.105308        -2.8656
  14   2.0000      -0.073707        -2.0057
  15   2.0000       0.061628         1.6770
  16   2.0000       0.065583         1.7846
  17   0.0000       0.151043         4.1101
  18   0.0000       0.174438         4.7467
  19   0.0000       0.190092         5.1727
  20   0.0000       0.211011         5.7419
  21   0.0000       0.231368         6.2959

MULLIKEN ATOMIC CHARGES
-----------------------
   0 C :    0.961117
   1 C :   -0.268370
   2 C :    0.611557
   3 H :   -0.331412
   4 H :   -0.198945
   5 O :   -0.781084
   6 H :   -0.237425
   7 H :   -0.164753
   8 H :   -0.270679
   9 H :   -0.199135
  10 H :   -0.120872
Sum of atomic charges:   -1.0000000

LOEWDIN ATOMIC CHARGES
----------------------
   0 C :    0.085448
   1 C :   -0.105115
   2 C :   -0.219046
   3 H :   -0.047948
   4 H :   -0.038212
   5 O :   -0.501623
   6 H :   -0.022827
   7 H :   -0.010707
   8 H :   -0.058408
   9 H :   -0.038378
  10 H :   -0.043183

  Mayer bond orders larger than 0.100000
B(  0-C ,  1-C ) :   1.2839 B(  0-C ,  6-H ) :   0.1184 B(  0-C ,  7-H ) :   0.1399
B(  0-C ,  8-H ) :   0.6936 B(  0-C ,  9-H ) :   0.7352 B(  0-C , 10-H ) :   0.7349
B(  1-C ,  2-C ) :   1.0057 B(  1-C ,  3-H ) :   0.2054 B(  1-C ,  4-H ) :   0.2006
B(  1-C ,  5-O ) :   0.1961 B(  1-C ,  6-H ) :   0.9781 B(  1-C ,  7-H ) :   0.8730
B(  1-C ,  8-H ) :   0.2736 B(  1-C ,  9-H ) :   0.2487 B(  1-C , 10-H ) :   0.2597
B(  2-C ,  3-H ) :   0.8996 B(  2-C ,  4-H ) :   0.8837 B(  2-C ,  5-O ) :   1.1926
B(  2-C ,  6-H ) :   0.1148 B(  2-C ,  7-H ) :   0.1269 B(  3-H ,  4-H ) :   0.1171

Dispersion correction           -0.013689561
FINAL SINGLE POINT ENERGY      -193.535084305607

DIPOLE MOMENT
-------------
                                X             Y             Z
Electronic contribution:     -2.06327       2.14173       0.59756
Nuclear contribution   :      3.33375      -3.25054      -1.09297
                        -----------------------------------------
Total Dipole Moment    :      1.27048      -1.10881      -0.49541
                        -----------------------------------------
Magnitude (a.u.)       :      1.75756
Magnitude (Debye)      :      4.46736

Rotational constants in cm-1:     0.478390     0.193336     0.154822
Rotational constants in MHz : 14341.777399  5796.063993  4641.443060

                             ****ORCA TERMINATED NORMALLY****
TOTAL RUN TIME: 0 days 0 hours 0 minutes 4 seconds 758 msec
