                         Program Version 5.0.0 -  RELEASE  -
|  1> !BLYP D3BJ RIJCOSX def2-SVPD def2/J TightSCF
|  2> *xyz 1 1
|  3> C          4.99986       -1.59613       -5.92488
|  4> N          5.28156       -1.97413       -4.53576
|  5> C          3.76678       -2.26611       -6.51175
|  6> C          2.49670       -1.84416       -5.73570
|  7> C          4.79250       -1.36132       -3.45730
|  8> N          3.93990       -0.37492       -3.55736
|  9> N          5.25986       -1.75422       -2.23913
| 10> H          5.92282       -2.52145       -2.18672
| 11> H          4.65468       -1.64040       -1.44202
| 12> H          5.70914       -2.87560       -4.38702
| 13> H          3.33010       -0.31764       -4.36125
| 14> H          3.69849        0.11447       -2.70833
| 15> H          4.84333       -0.51793       -5.94302
| 16> H          5.90170       -1.82250       -6.49647
| 17> H          3.88619       -3.35708       -6.53360
| 18> H          3.68560       -1.92217       -7.54713
| 19> H          1.64155       -2.32499       -6.16281
| 20> H          2.37707       -0.78268       -5.79763
| 21> H          2.59306       -2.13299       -4.70994
| 22> *
| 23>
| 24> %MaxCore 64000
| 25>
| 26> %pal nprocs 4
| 27> end
| 28>
| 29> %scf
| 30>   MaxIter 150
| 31> end
| 32>
| 33>
| 34>                          ****END OF INPUT****

CARTESIAN COORDINATES (ANGSTROEM)
---------------------------------
  C      4.999860   -1.596130   -5.924880
  N      5.281560   -1.974130   -4.535760
  C      3.766780   -2.266110   -6.511750
  C      2.496700   -1.844160   -5.735700
  C      4.792500   -1.361320   -3.457300
  N      3.939900   -0.374920   -3.557360
  N      5.259860   -1.754220   -2.239130
  H      5.922820   -2.521450   -2.186720
  H      4.654680   -1.640400   -1.442020
  H      5.709140   -2.875600   -4.387020
  H      3.330100   -0.317640   -4.361250
  H      3.698490    0.114470   -2.708330
  H      4.843330   -0.517930   -5.943020
  H      5.901700   -1.822500   -6.496470
  H      3.886190   -3.357080   -6.533600
  H      3.685600   -1.922170   -7.547130
  H      1.641550   -2.324990   -6.162810
  H      2.377070   -0.782680   -5.797630
  H      2.593060   -2.132990   -4.709940

 Total Charge           Charge          ....    1
 Multiplicity           Mult            ....    1
 Number of Electrons    NEL             ....   56
 Basis Dimension        Dim             ....  236

ORBITAL ENERGIES
----------------

  NO   OCC          E(Eh)            E(eV)
   0   2.0000     -14.242485      -387.5577
   1   2.0000     -14.241627      -387.5344
   2   2.0000     -14.238571      -387.4512
   3   2.0000     -10.242839      -278.7218
   4   2.0000     -10.122678      -275.4521
   5   2.0000     -10.072936      -274.0985
   6   2.0000     -10.061195      -273.7790
   7   2.0000      -1.110162       -30.2091
   8   2.0000      -1.008700       -27.4481
   9   2.0000      -0.995091       -27.0778
  10   2.0000      -0.862371       -23.4663
  11   2.0000      -0.792105       -21.5543
  12   2.0000      -0.758927       -20.6515
  13   2.0000      -0.726220       -19.7615
  14   2.0000      -0.698440       -19.0055
  15   2.0000      -0.671374       -18.2690
  16   2.0000      -0.640611       -17.4319
  17   2.0000      -0.635699       -17.2982
  18   2.0000      -0.589239       -16.0340
  19   2.0000      -0.576885       -15.6978
  20   2.0000      -0.554741       -15.0953
  21   2.0000      -0.529299       -14.4030
  22   2.0000      -0.513239       -13.9659
  23   2.0000      -0.475152       -12.9295
  24   2.0000      -0.456649       -12.4261
  25   2.0000      -0.454133       -12.3576
  26   2.0000      -0.428047       -11.6477
  27   2.0000      -0.405453       -11.0329
  28   0.0000      -0.202538        -5.5113
  29   0.0000      -0.170202        -4.6314
  30   0.0000      -0.138263        -3.7623
  31   0.0000      -0.126278        -3.4362
  32   0.0000      -0.116888        -3.1807

MULLIKEN ATOMIC CHARGES
-----------------------
   0 C :    0.986540
   1 N :   -0.218035
   2 C :    0.247769
   3 C :    0.916648
   4 C :    0.885538
   5 N :    0.503317
   6 N :    0.202232
   7 H :   -0.116108
   8 H :   -0.096596
   9 H :   -0.301441
  10 H :   -0.459249
  11 H :   -0.163116
  12 H :   -0.062253
  13 H :   -0.549721
  14 H :   -0.263547
  15 H :   -0.114433
  16 H :   -0.534237
  17 H :    0.125706
  18 H :    0.010986
Sum of atomic charges:    1.0000000

LOEWDIN ATOMIC CHARGES
----------------------
   0 C :    0.077379
   1 N :    0.074891
   2 C :   -0.013796
   3 C :    0.151570
   4 C :   -0.065122
   5 N :    0.311903
   6 N :    0.282937
   7 H :    0.026668
   8 H :    0.021186
   9 H :    0.051261
  10 H :   -0.039531
  11 H :    0.043749
  12 H :    0.028382
  13 H :    0.036018
  14 H :    0.029635
  15 H :    0.035263
  16 H :   -0.001824
  17 H :   -0.016610
  18 H :   -0.033960

  Mayer bond orders larger than 0.100000
B(  0-C ,  1-N ) :   1.0272 B(  0-C ,  2-C ) :   1.0968 B(  0-C ,  9-H ) :  -0.2199
B(  0-C , 12-H ) :   0.6472 B(  0-C , 13-H ) :   0.7877 B(  0-C , 14-H ) :   0.1727
B(  0-C , 15-H ) :   0.1437 B(  1-N ,  4-C ) :   1.0790 B(  1-N ,  5-N ) :   0.1885
B(  1-N ,  6-N ) :   0.2161 B(  1-N ,  9-H ) :   1.2540 B(  1-N , 12-H ) :   0.2039
B(  1-N , 13-H ) :   0.1589 B(  2-C ,  3-C ) :   1.2760 B(  2-C , 12-H ) :   0.1426
B(  2-C , 14-H ) :   0.8396 B(  2-C , 15-H ) :   0.7802 B(  2-C , 16-H ) :   0.2237
B(  2-C , 17-H ) :   0.1843 B(  2-C , 18-H ) :   0.1916 B(  3-C , 10-H ) :   0.1359
B(  3-C , 15-H ) :   0.1251 B(  3-C , 16-H ) :   0.8242 B(  3-C , 17-H ) :   0.6562
B(  3-C , 18-H ) :   0.7852 B(  4-C ,  5-N ) :   1.1691 B(  4-C ,  6-N ) :   0.9260
B(  4-C ,  7-H ) :  -0.1125 B(  4-C ,  9-H ) :  -0.2336 B(  4-C , 10-H ) :  -0.1316
B(  4-C , 11-H ) :  -0.1233 B(  5-N ,  6-N ) :   0.1865 B(  5-N , 10-H ) :   1.1440
B(  5-N , 11-H ) :   1.2083 B(  5-N , 12-H ) :   0.1261 B(  6-N ,  7-H ) :   1.0989
B(  6-N ,  8-H ) :   1.1466 B(  7-H ,  8-H ) :  -0.1530 B( 10-H , 11-H ) :  -0.2338
B( 10-H , 17-H ) :   0.2006 B( 12-H , 13-H ) :  -0.2131 B( 16-H , 17-H ) :  -0.1771
B( 16-H , 18-H ) :  -0.1207

Dispersion correction           -0.033648399
FINAL SINGLE POINT ENERGY      -323.370596951367

DIPOLE MOMENT
-------------
                                X             Y             Z
Electronic contribution:      3.87072       0.80214       4.80510
Nuclear contribution   :     -3.69451      -0.93313      -3.60402
                        -----------------------------------------
Total Dipole Moment    :      0.17621      -0.13099       1.20108
                        -----------------------------------------
Magnitude (a.u.)       :      1.22098
Magnitude (Debye)      :      3.10349

Rotational constants in cm-1:     0.152547     0.057272     0.048491
Rotational constants in MHz :  4573.230603  1716.968614  1453.721796

                             ****ORCA TERMINATED NORMALLY****
TOTAL RUN TIME: 0 days 0 hours 0 minutes 11 seconds 130 msec
