                         Program Version 5.0.0 -  RELEASE  -
|  1> !BLYP D3BJ RIJCOSX def2-SVPD def2/J TightSCF
|  2> *xyz 0 1
|  3> C          4.99986       -1.59613       -5.92488
|  4> C          3.76678       -2.26611       -6.51175
|  5> C          2.49670       -1.84416       -5.73570
|  6> H          1.62642       -2.21743       -6.30895
|  7> H          2.48182       -2.45607       -4.79341
|  8> F          2.45973       -0.50920       -5.50576
|  9> H          3.88619       -3.35708       -6.53360
| 10> H          3.68560       -1.92217       -7.54713
| 11> H          5.86637       -1.89999       -6.47418
| 12> H          5.10830       -1.88372       -4.89997
| 13> H          4.89230       -0.53341       -5.98765
| 14> *
| 15>
| 16> %MaxCore 64000
| 17>
| 18> %pal nprocs 4
| 19> end
| 20>
| 21> %scf
| 22>   MaxIter 150
| 23> end
| 24>
| 25>
| 26>                          ****END OF INPUT****

CARTESIAN COORDINATES (ANGSTROEM)
---------------------------------
  C      4.999860   -1.596130   -5.924880
  C      3.766780   -2.266110   -6.511750
  C      2.496700   -1.844160   -5.735700
  H      1.626420   -2.217430   -6.308950
  H      2.481820   -2.456070   -4.793410
  F      2.459730   -0.509200   -5.505760
  H      3.886190   -3.357080   -6.533600
  H      3.685600   -1.922170   -7.547130
  H      5.866370   -1.899990   -6.474180
  H      5.108300   -1.883720   -4.899970
  H      4.892300   -0.533410   -5.987650

 Total Charge           Charge          ....    0
 Multiplicity           Mult            ....    1
 Number of Electrons    NEL             ....   34
 Basis Dimension        Dim             ....  139

ORBITAL ENERGIES
----------------

  NO   OCC          E(Eh)            E(eV)
   0   2.0000     -24.299189      -661.2145
   1   2.0000      -9.999927      -272.1119
   2   2.0000      -9.927136      -270.1311
   3   2.0000      -9.907644      -269.6007
   4   2.0000      -1.087564       -29.5941
   5   2.0000      -0.703042       -19.1307
   6   2.0000      -0.611113       -16.6292
   7   2.0000      -0.526257       -14.3202
   8   2.0000      -0.456549       -12.4233
   9   2.0000      -0.437722       -11.9110
  10   2.0000      -0.420787       -11.4502
  11   2.0000      -0.383974       -10.4485
  12   2.0000      -0.344096        -9.3633
  13   2.0000      -0.324858        -8.8398
  14   2.0000      -0.309714        -8.4277
  15   2.0000      -0.279289        -7.5998
  16   2.0000      -0.276706        -7.5296
  17   0.0000       0.002376         0.0646
  18   0.0000       0.026964         0.7337
  19   0.0000       0.037847         1.0299
  20   0.0000       0.047673         1.2973
  21   0.0000       0.067021         1.8237

MULLIKEN ATOMIC CHARGES
-----------------------
   0 C :    0.985689
   1 C :   -0.152165
   2 C :    0.922139
   3 H :   -0.257678
   4 H :   -0.130589
   5 F :   -0.372117
   6 H :   -0.244174
   7 H :   -0.181019
   8 H :   -0.249978
   9 H :   -0.193177
  10 H :   -0.126931
Sum of atomic charges:    0.0000000

LOEWDIN ATOMIC CHARGES
----------------------
   0 C :    0.126952
   1 C :   -0.054492
   2 C :    0.085124
   3 H :    0.020764
   4 H :    0.032692
   5 F :   -0.180100
   6 H :    0.021987
   7 H :    0.014762
   8 H :   -0.024066
   9 H :   -0.020257
  10 H :   -0.023367

  Mayer bond orders larger than 0.100000
B(  0-C ,  1-C ) :   1.3412 B(  0-C ,  7-H ) :   0.1120 B(  0-C ,  8-H ) :   0.7134
B(  0-C ,  9-H ) :   0.7243 B(  0-C , 10-H ) :   0.7366 B(  1-C ,  2-C ) :   1.1678
B(  1-C ,  3-H ) :   0.1542 B(  1-C ,  4-H ) :   0.1508 B(  1-C ,  6-H ) :   0.8929
B(  1-C ,  7-H ) :   0.8367 B(  1-C ,  8-H ) :   0.2548 B(  1-C ,  9-H ) :   0.2216
B(  1-C , 10-H ) :   0.2263 B(  2-C ,  3-H ) :   0.8420 B(  2-C ,  4-H ) :   0.8240
B(  2-C ,  5-F ) :   0.8132

Dispersion correction           -0.012885255
FINAL SINGLE POINT ENERGY      -218.142089263131

DIPOLE MOMENT
-------------
                                X             Y             Z
Electronic contribution:     -4.39678       3.89209       1.42321
Nuclear contribution   :      4.50596      -4.50325      -1.58424
                        -----------------------------------------
Total Dipole Moment    :      0.10919      -0.61116      -0.16103
                        -----------------------------------------
Magnitude (a.u.)       :      0.64138
Magnitude (Debye)      :      1.63025

Rotational constants in cm-1:     0.464063     0.182606     0.146573
Rotational constants in MHz : 13912.251583  5474.398056  4394.141907

                             ****ORCA TERMINATED NORMALLY****
TOTAL RUN TIME: 0 days 0 hours 0 minutes 3 seconds 993 msec
