                         Program Version 5.0.0 -  RELEASE  -
|  1> !BLYP D3BJ RIJCOSX def2-SVPD def2/J TightSCF
|  2> *xyz 0 1
|  3> C          4.99986       -1.59613       -5.92488
|  4> C          5.28156       -1.97413       -4.53576
|  5> C          3.76678       -2.26611       -6.51175
|  6> C          2.49670       -1.84416       -5.73570
|  7> C          4.79250       -1.36132       -3.45730
|  8> N          3.93990       -0.37492       -3.55736
|  9> N          5.25986       -1.75422       -2.23913
| 10> H          5.92282       -2.52145       -2.18672
| 11> H          4.65468       -1.64040       -1.44202
| 12> H          5.70914       -2.87560       -4.38702
| 13> H          3.33010       -0.31764       -4.36125
| 14> H          3.69849        0.11447       -2.70833
| 15> H          4.84333       -0.51793       -5.94302
| 16> H          5.90170       -1.82250       -6.49647
| 17> H          3.88619       -3.35708       -6.53360
| 18> H          3.68560       -1.92217       -7.54713
| 19> H          1.64155       -2.32499       -6.16281
| 20> H          2.37707       -0.78268       -5.79763
| 21> H          2.59306       -2.13299       -4.70994
| 22> *
| 23>
| 24> %MaxCore 64000
| 25>
| 26> %pal nprocs 4
| 27> end
| 28>
| 29> %scf
| 30>   MaxIter 150
| 31> end
| 32>
| 33>
| 34>                          ****END OF INPUT****

CARTESIAN COORDINATES (ANGSTROEM)
---------------------------------
  C      4.999860   -1.596130   -5.924880
  C      5.281560   -1.974130   -4.535760
  C      3.766780   -2.266110   -6.511750
  C      2.496700   -1.844160   -5.735700
  C      4.792500   -1.361320   -3.457300
  N      3.939900   -0.374920   -3.557360
  N      5.259860   -1.754220   -2.239130
  H      5.922820   -2.521450   -2.186720
  H      4.654680   -1.640400   -1.442020
  H      5.709140   -2.875600   -4.387020
  H      3.330100   -0.317640   -4.361250
  H      3.698490    0.114470   -2.708330
  H      4.843330   -0.517930   -5.943020
  H      5.901700   -1.822500   -6.496470
  H      3.886190   -3.357080   -6.533600
  H      3.685600   -1.922170   -7.547130
  H      1.641550   -2.324990   -6.162810
  H      2.377070   -0.782680   -5.797630
  H      2.593060   -2.132990   -4.709940

 Total Charge           Charge          ....    0
 Multiplicity           Mult            ....    1
 Number of Electrons    NEL             ....   56
 Basis Dimension        Dim             ....  236

ORBITAL ENERGIES
----------------

  NO   OCC          E(Eh)            E(eV)
   0   2.0000     -14.024593      -381.6286
   1   2.0000     -14.020904      -381.5282
   2   2.0000      -9.959110      -271.0012
   3   2.0000      -9.905139      -269.5325
   4   2.0000      -9.904562      -269.5168
   5   2.0000      -9.894229      -269.2357
   6   2.0000      -9.848246      -267.9844
   7   2.0000      -0.864072       -23.5126
   8   2.0000      -0.779544       -21.2125
   9   2.0000      -0.702092       -19.1049
  10   2.0000      -0.641919       -17.4675
  11   2.0000      -0.584519       -15.9056
  12   2.0000      -0.539098       -14.6696
  13   2.0000      -0.498004       -13.5514
  14   2.0000      -0.486156       -13.2290
  15   2.0000      -0.449653       -12.2357
  16   2.0000      -0.428425       -11.6580
  17   2.0000      -0.395460       -10.7610
  18   2.0000      -0.384703       -10.4683
  19   2.0000      -0.368415       -10.0251
  20   2.0000      -0.337982        -9.1970
  21   2.0000      -0.325260        -8.8508
  22   2.0000      -0.309228        -8.4145
  23   2.0000      -0.290378        -7.9016
  24   2.0000      -0.276526        -7.5247
  25   2.0000      -0.272362        -7.4113
  26   2.0000      -0.217795        -5.9265
  27   2.0000      -0.130130        -3.5410
  28   0.0000      -0.004591        -0.1249
  29   0.0000       0.018606         0.5063
  30   0.0000       0.028021         0.7625
  31   0.0000       0.040151         1.0926
  32   0.0000       0.041907         1.1404

MULLIKEN ATOMIC CHARGES
-----------------------
   0 C :    0.475290
   1 C :   -0.173844
   2 C :    0.192530
   3 C :    0.931708
   4 C :    0.662502
   5 N :    0.604833
   6 N :    0.160266
   7 H :   -0.117631
   8 H :   -0.169389
   9 H :   -0.437030
  10 H :   -0.498234
  11 H :   -0.302495
  12 H :   -0.072092
  13 H :   -0.359997
  14 H :   -0.281873
  15 H :   -0.182728
  16 H :   -0.522856
  17 H :    0.115619
  18 H :   -0.024580
Sum of atomic charges:    0.0000000

LOEWDIN ATOMIC CHARGES
----------------------
   0 C :   -0.057460
   1 C :   -0.008931
   2 C :   -0.046563
   3 C :    0.133144
   4 C :   -0.235690
   5 N :    0.233262
   6 N :    0.204445
   7 H :   -0.007469
   8 H :   -0.032353
   9 H :   -0.057831
  10 H :   -0.064360
  11 H :   -0.006247
  12 H :    0.005342
  13 H :    0.007080
  14 H :    0.016641
  15 H :    0.007054
  16 H :   -0.025722
  17 H :   -0.028478
  18 H :   -0.035864

  Mayer bond orders larger than 0.100000
B(  0-C ,  1-C ) :   1.1290 B(  0-C ,  2-C ) :   1.1073 B(  0-C ,  4-C ) :   0.1148
B(  0-C ,  9-H ) :   0.3077 B(  0-C , 12-H ) :   0.6450 B(  0-C , 13-H ) :   0.7487
B(  0-C , 14-H ) :   0.2105 B(  0-C , 15-H ) :   0.1678 B(  1-C ,  2-C ) :   0.1299
B(  1-C ,  4-C ) :   1.3844 B(  1-C ,  5-N ) :   0.3209 B(  1-C ,  6-N ) :   0.3526
B(  1-C ,  9-H ) :   0.7651 B(  1-C , 10-H ) :  -0.1168 B(  1-C , 12-H ) :   0.3476
B(  1-C , 13-H ) :   0.2151 B(  2-C ,  3-C ) :   1.2692 B(  2-C , 12-H ) :   0.1408
B(  2-C , 14-H ) :   0.8458 B(  2-C , 15-H ) :   0.7656 B(  2-C , 16-H ) :   0.2476
B(  2-C , 17-H ) :   0.2000 B(  2-C , 18-H ) :   0.2275 B(  3-C , 10-H ) :   0.1262
B(  3-C , 15-H ) :   0.1463 B(  3-C , 16-H ) :   0.7674 B(  3-C , 17-H ) :   0.6625
B(  3-C , 18-H ) :   0.7580 B(  4-C ,  5-N ) :   1.0867 B(  4-C ,  6-N ) :   0.8070
B(  4-C ,  9-H ) :   0.1231 B(  4-C , 11-H ) :  -0.1277 B(  4-C , 12-H ) :  -0.1745
B(  5-N ,  6-N ) :   0.1286 B(  5-N , 10-H ) :   1.0752 B(  5-N , 11-H ) :   1.2246
B(  6-N ,  7-H ) :   1.1209 B(  6-N ,  8-H ) :   1.1176 B(  6-N ,  9-H ) :   0.1081
B(  7-H ,  8-H ) :  -0.1402 B( 10-H , 11-H ) :  -0.2146 B( 10-H , 17-H ) :   0.1979
B( 16-H , 17-H ) :  -0.1432 B( 16-H , 18-H ) :  -0.1145

Dispersion correction           -0.034934344
FINAL SINGLE POINT ENERGY      -306.889876570725

DIPOLE MOMENT
-------------
                                X             Y             Z
Electronic contribution:      2.91249       1.03965       4.31515
Nuclear contribution   :     -3.49027      -1.01686      -3.60427
                        -----------------------------------------
Total Dipole Moment    :     -0.57778       0.02279       0.71088
                        -----------------------------------------
Magnitude (a.u.)       :      0.91635
Magnitude (Debye)      :      2.32918

Rotational constants in cm-1:     0.155200     0.057307     0.048781
Rotational constants in MHz :  4652.781345  1718.017305  1462.410307

                             ****ORCA TERMINATED NORMALLY****
TOTAL RUN TIME: 0 days 0 hours 0 minutes 11 seconds 469 msec
