                         Program Version 5.0.0 -  RELEASE  -
|  1> !BLYP D3BJ RIJCOSX def2-SVPD def2/J TightSCF
|  2> *xyz 0 1
|  3> C          4.99986       -1.59613       -5.92488
|  4> N          5.28156       -1.97413       -4.53576
|  5> C          3.76678       -2.26611       -6.51175
|  6> C          2.49670       -1.84416       -5.73570
|  7> C          4.79250       -1.36132       -3.45730
|  8> C          3.93990       -0.37492       -3.55736
|  9> N          5.25986       -1.75422       -2.23913
| 10> H          5.92282       -2.52145       -2.18672
| 11> H          4.65468       -1.64040       -1.44202
| 12> H          5.70914       -2.87560       -4.38702
| 13> H          3.33010       -0.31764       -4.36125
| 14> H          3.69849        0.11447       -2.70833
| 15> H          4.84333       -0.51793       -5.94302
| 16> H          5.90170       -1.82250       -6.49647
| 17> H          3.88619       -3.35708       -6.53360
| 18> H          3.68560       -1.92217       -7.54713
| 19> H          1.64155       -2.32499       -6.16281
| 20> H          2.37707       -0.78268       -5.79763
| 21> H          2.59306       -2.13299       -4.70994
| 22> *
| 23>
| 24> %MaxCore 64000
| 25>
| 26> %pal nprocs 4
| 27> end
| 28>
| 29> %scf
| 30>   MaxIter 150
| 31> end
| 32>
| 33>
| 34>                          ****END OF INPUT****

CARTESIAN COORDINATES (ANGSTROEM)
---------------------------------
  C      4.999860   -1.596130   -5.924880
  N      5.281560   -1.974130   -4.535760
  C      3.766780   -2.266110   -6.511750
  C      2.496700   -1.844160   -5.735700
  C      4.792500   -1.361320   -3.457300
  C      3.939900   -0.374920   -3.557360
  N      5.259860   -1.754220   -2.239130
  H      5.922820   -2.521450   -2.186720
  H      4.654680   -1.640400   -1.442020
  H      5.709140   -2.875600   -4.387020
  H      3.330100   -0.317640   -4.361250
  H      3.698490    0.114470   -2.708330
  H      4.843330   -0.517930   -5.943020
  H      5.901700   -1.822500   -6.496470
  H      3.886190   -3.357080   -6.533600
  H      3.685600   -1.922170   -7.547130
  H      1.641550   -2.324990   -6.162810
  H      2.377070   -0.782680   -5.797630
  H      2.593060   -2.132990   -4.709940

 Total Charge           Charge          ....    0
 Multiplicity           Mult            ....    1
 Number of Electrons    NEL             ....   56
 Basis Dimension        Dim             ....  236

ORBITAL ENERGIES
----------------

  NO   OCC          E(Eh)            E(eV)
   0   2.0000     -14.025400      -381.6505
   1   2.0000     -14.021754      -381.5513
   2   2.0000      -9.960124      -271.0287
   3   2.0000      -9.949523      -270.7403
   4   2.0000      -9.919028      -269.9105
   5   2.0000      -9.899757      -269.3861
   6   2.0000      -9.835297      -267.6320
   7   2.0000      -0.864876       -23.5345
   8   2.0000      -0.787944       -21.4410
   9   2.0000      -0.691802       -18.8249
  10   2.0000      -0.642802       -17.4915
  11   2.0000      -0.604178       -16.4405
  12   2.0000      -0.537977       -14.6391
  13   2.0000      -0.500414       -13.6169
  14   2.0000      -0.479724       -13.0540
  15   2.0000      -0.456640       -12.4258
  16   2.0000      -0.414848       -11.2886
  17   2.0000      -0.403181       -10.9711
  18   2.0000      -0.381902       -10.3921
  19   2.0000      -0.354715        -9.6523
  20   2.0000      -0.345874        -9.4117
  21   2.0000      -0.329022        -8.9531
  22   2.0000      -0.323863        -8.8128
  23   2.0000      -0.299706        -8.1554
  24   2.0000      -0.295883        -8.0514
  25   2.0000      -0.284343        -7.7374
  26   2.0000      -0.206170        -5.6102
  27   2.0000      -0.137912        -3.7528
  28   0.0000      -0.006700        -0.1823
  29   0.0000       0.016543         0.4502
  30   0.0000       0.024283         0.6608
  31   0.0000       0.035285         0.9602
  32   0.0000       0.044869         1.2209

MULLIKEN ATOMIC CHARGES
-----------------------
   0 C :    0.968887
   1 N :   -0.249660
   2 C :    0.182022
   3 C :    0.780727
   4 C :    0.559008
   5 C :    1.010034
   6 N :    0.285310
   7 H :   -0.201092
   8 H :   -0.082939
   9 H :   -0.403880
  10 H :   -1.100556
  11 H :   -0.552829
  12 H :    0.006164
  13 H :   -0.581941
  14 H :   -0.281511
  15 H :   -0.161381
  16 H :   -0.612026
  17 H :    0.321522
  18 H :    0.114142
Sum of atomic charges:   -0.0000000

LOEWDIN ATOMIC CHARGES
----------------------
   0 C :    0.050896
   1 N :    0.011796
   2 C :   -0.038116
   3 C :    0.135798
   4 C :   -0.240903
   5 C :    0.175736
   6 N :    0.208729
   7 H :   -0.024309
   8 H :   -0.012683
   9 H :    0.010075
  10 H :   -0.151148
  11 H :   -0.092245
  12 H :    0.018512
  13 H :    0.010086
  14 H :    0.011750
  15 H :    0.011534
  16 H :   -0.027794
  17 H :   -0.023203
  18 H :   -0.034511

  Mayer bond orders larger than 0.100000
B(  0-C ,  1-N ) :   1.0068 B(  0-C ,  2-C ) :   1.0682 B(  0-C ,  4-C ) :  -0.1353
B(  0-C ,  5-C ) :   0.1178 B(  0-C ,  9-H ) :  -0.2047 B(  0-C , 12-H ) :   0.6385
B(  0-C , 13-H ) :   0.7998 B(  0-C , 14-H ) :   0.1617 B(  0-C , 15-H ) :   0.1488
B(  1-N ,  4-C ) :   1.0226 B(  1-N ,  5-C ) :   0.3568 B(  1-N ,  6-N ) :   0.1539
B(  1-N ,  9-H ) :   1.3135 B(  1-N , 12-H ) :   0.1833 B(  1-N , 13-H ) :   0.1553
B(  2-C ,  3-C ) :   1.2978 B(  2-C , 12-H ) :   0.1711 B(  2-C , 14-H ) :   0.8491
B(  2-C , 15-H ) :   0.7835 B(  2-C , 16-H ) :   0.2300 B(  2-C , 17-H ) :   0.1723
B(  2-C , 18-H ) :   0.1858 B(  3-C , 10-H ) :   0.3161 B(  3-C , 15-H ) :   0.1398
B(  3-C , 16-H ) :   0.8264 B(  3-C , 17-H ) :   0.6092 B(  3-C , 18-H ) :   0.8012
B(  4-C ,  5-C ) :   1.5919 B(  4-C ,  6-N ) :   0.9093 B(  4-C ,  9-H ) :  -0.2511
B(  4-C , 10-H ) :   0.1190 B(  4-C , 11-H ) :   0.4413 B(  5-C ,  6-N ) :   0.3658
B(  5-C , 10-H ) :   0.1263 B(  5-C , 11-H ) :   0.3565 B(  6-N ,  7-H ) :   1.0257
B(  6-N ,  8-H ) :   1.0777 B(  6-N , 11-H ) :   0.2289 B(  7-H ,  8-H ) :  -0.1508
B( 10-H , 12-H ) :   0.1191 B( 10-H , 17-H ) :   0.1950 B( 12-H , 13-H ) :  -0.2280
B( 16-H , 17-H ) :  -0.2524 B( 16-H , 18-H ) :  -0.1444

Dispersion correction           -0.034843864
FINAL SINGLE POINT ENERGY      -306.878222731029

DIPOLE MOMENT
-------------
                                X             Y             Z
Electronic contribution:      4.04827      -0.33548       3.37866
Nuclear contribution   :     -3.78417      -0.66655      -3.38995
                        -----------------------------------------
Total Dipole Moment    :      0.26410      -1.00203      -0.01128
                        -----------------------------------------
Magnitude (a.u.)       :      1.03631
Magnitude (Debye)      :      2.63408

Rotational constants in cm-1:     0.157710     0.057795     0.049101
Rotational constants in MHz :  4728.033540  1732.635996  1472.015132

                             ****ORCA TERMINATED NORMALLY****
TOTAL RUN TIME: 0 days 0 hours 0 minutes 11 seconds 516 msec
