                         Program Version 5.0.0 -  RELEASE  -
|  1> !BLYP D3BJ RIJCOSX def2-SVPD def2/J TightSCF
|  2> *xyz 0 1
|  3> C          4.99986       -1.59613       -5.92488
|  4> N          5.28156       -1.97413       -4.53576
|  5> C          3.76678       -2.26611       -6.51175
|  6> C          2.49670       -1.84416       -5.73570
|  7> C          4.79250       -1.36132       -3.45730
|  8> N          3.93990       -0.37492       -3.55736
|  9> C          5.25986       -1.75422       -2.23913
| 10> H          5.92282       -2.52145       -2.18672
| 11> H          4.65468       -1.64040       -1.44202
| 12> H          5.70914       -2.87560       -4.38702
| 13> H          3.33010       -0.31764       -4.36125
| 14> H          3.69849        0.11447       -2.70833
| 15> H          4.84333       -0.51793       -5.94302
| 16> H          5.90170       -1.82250       -6.49647
| 17> H          3.88619       -3.35708       -6.53360
| 18> H          3.68560       -1.92217       -7.54713
| 19> H          1.64155       -2.32499       -6.16281
| 20> H          2.37707       -0.78268       -5.79763
| 21> H          2.59306       -2.13299       -4.70994
| 22> *
| 23>
| 24> %MaxCore 64000
| 25>
| 26> %pal nprocs 4
| 27> end
| 28>
| 29> %scf
| 30>   MaxIter 150
| 31> end
| 32>
| 33>
| 34>                          ****END OF INPUT****

CARTESIAN COORDINATES (ANGSTROEM)
---------------------------------
  C      4.999860   -1.596130   -5.924880
  N      5.281560   -1.974130   -4.535760
  C      3.766780   -2.266110   -6.511750
  C      2.496700   -1.844160   -5.735700
  C      4.792500   -1.361320   -3.457300
  N      3.939900   -0.374920   -3.557360
  C      5.259860   -1.754220   -2.239130
  H      5.922820   -2.521450   -2.186720
  H      4.654680   -1.640400   -1.442020
  H      5.709140   -2.875600   -4.387020
  H      3.330100   -0.317640   -4.361250
  H      3.698490    0.114470   -2.708330
  H      4.843330   -0.517930   -5.943020
  H      5.901700   -1.822500   -6.496470
  H      3.886190   -3.357080   -6.533600
  H      3.685600   -1.922170   -7.547130
  H      1.641550   -2.324990   -6.162810
  H      2.377070   -0.782680   -5.797630
  H      2.593060   -2.132990   -4.709940

 Total Charge           Charge          ....    0
 Multiplicity           Mult            ....    1
 Number of Electrons    NEL             ....   56
 Basis Dimension        Dim             ....  236

ORBITAL ENERGIES
----------------

  NO   OCC          E(Eh)            E(eV)
   0   2.0000     -14.023984      -381.6120
   1   2.0000     -14.022668      -381.5762
   2   2.0000      -9.962343      -271.0891
   3   2.0000      -9.957921      -270.9688
   4   2.0000      -9.930378      -270.2193
   5   2.0000      -9.921916      -269.9891
   6   2.0000      -9.832347      -267.5518
   7   2.0000      -0.872948       -23.7541
   8   2.0000      -0.795847       -21.6561
   9   2.0000      -0.710776       -19.3412
  10   2.0000      -0.638199       -17.3663
  11   2.0000      -0.598444       -16.2845
  12   2.0000      -0.539885       -14.6910
  13   2.0000      -0.531972       -14.4757
  14   2.0000      -0.487293       -13.2599
  15   2.0000      -0.446454       -12.1486
  16   2.0000      -0.427610       -11.6358
  17   2.0000      -0.408793       -11.1238
  18   2.0000      -0.401019       -10.9123
  19   2.0000      -0.360339        -9.8053
  20   2.0000      -0.343914        -9.3584
  21   2.0000      -0.336127        -9.1465
  22   2.0000      -0.327861        -8.9215
  23   2.0000      -0.310276        -8.4430
  24   2.0000      -0.306556        -8.3418
  25   2.0000      -0.296942        -8.0802
  26   2.0000      -0.210723        -5.7341
  27   2.0000      -0.124075        -3.3762
  28   0.0000      -0.005272        -0.1435
  29   0.0000       0.013975         0.3803
  30   0.0000       0.022701         0.6177
  31   0.0000       0.029148         0.7932
  32   0.0000       0.039780         1.0825

MULLIKEN ATOMIC CHARGES
-----------------------
   0 C :    0.974974
   1 N :    0.008138
   2 C :    0.220635
   3 C :    0.900070
   4 C :    0.138193
   5 N :    0.678716
   6 C :    0.627432
   7 H :   -0.452822
   8 H :   -0.438550
   9 H :   -0.380622
  10 H :   -0.576916
  11 H :   -0.158982
  12 H :   -0.094619
  13 H :   -0.620982
  14 H :   -0.277618
  15 H :   -0.142329
  16 H :   -0.569351
  17 H :    0.114756
  18 H :    0.049878
Sum of atomic charges:    0.0000000

LOEWDIN ATOMIC CHARGES
----------------------
   0 C :    0.045626
   1 N :    0.022253
   2 C :   -0.039507
   3 C :    0.137684
   4 C :   -0.253115
   5 N :    0.231007
   6 C :    0.158525
   7 H :   -0.117926
   8 H :   -0.123488
   9 H :    0.025930
  10 H :   -0.073481
  11 H :    0.011216
  12 H :    0.012350
  13 H :    0.010706
  14 H :    0.016591
  15 H :    0.013169
  16 H :   -0.022140
  17 H :   -0.025943
  18 H :   -0.029457

  Mayer bond orders larger than 0.100000
B(  0-C ,  1-N ) :   1.0214 B(  0-C ,  2-C ) :   1.0719 B(  0-C ,  9-H ) :  -0.2430
B(  0-C , 12-H ) :   0.6645 B(  0-C , 13-H ) :   0.7729 B(  0-C , 14-H ) :   0.1877
B(  0-C , 15-H ) :   0.1610 B(  1-N ,  4-C ) :   1.1580 B(  1-N ,  5-N ) :   0.1343
B(  1-N ,  6-C ) :   0.2108 B(  1-N ,  9-H ) :   1.1402 B(  1-N , 12-H ) :   0.2144
B(  1-N , 13-H ) :   0.1588 B(  2-C ,  3-C ) :   1.2669 B(  2-C , 12-H ) :   0.1464
B(  2-C , 14-H ) :   0.8326 B(  2-C , 15-H ) :   0.7776 B(  2-C , 16-H ) :   0.2281
B(  2-C , 17-H ) :   0.1914 B(  2-C , 18-H ) :   0.2007 B(  3-C , 10-H ) :   0.1252
B(  3-C , 15-H ) :   0.1265 B(  3-C , 16-H ) :   0.7921 B(  3-C , 17-H ) :   0.6701
B(  3-C , 18-H ) :   0.7875 B(  4-C ,  5-N ) :   1.1858 B(  4-C ,  6-C ) :   1.5854
B(  4-C ,  7-H ) :   0.2179 B(  4-C ,  8-H ) :   0.2614 B(  4-C ,  9-H ) :  -0.1595
B(  4-C , 12-H ) :  -0.1013 B(  4-C , 18-H ) :   0.1032 B(  5-N ,  6-C ) :   0.1825
B(  5-N , 10-H ) :   0.9930 B(  5-N , 11-H ) :   1.1807 B(  5-N , 12-H ) :   0.1325
B(  6-C ,  7-H ) :   0.6222 B(  6-C ,  8-H ) :   0.6562 B(  7-H ,  8-H ) :   0.2147
B( 10-H , 11-H ) :  -0.2116 B( 10-H , 17-H ) :   0.1876 B( 12-H , 13-H ) :  -0.2217
B( 16-H , 17-H ) :  -0.1829 B( 16-H , 18-H ) :  -0.1144

Dispersion correction           -0.034518618
FINAL SINGLE POINT ENERGY      -306.877019160135

DIPOLE MOMENT
-------------
                                X             Y             Z
Electronic contribution:      2.76940       0.91704       1.95881
Nuclear contribution   :     -3.49502      -0.96869      -3.10119
                        -----------------------------------------
Total Dipole Moment    :     -0.72562      -0.05165      -1.14238
                        -----------------------------------------
Magnitude (a.u.)       :      1.35433
Magnitude (Debye)      :      3.44244

Rotational constants in cm-1:     0.153385     0.059790     0.050215
Rotational constants in MHz :  4598.376479  1792.462869  1505.410199

                             ****ORCA TERMINATED NORMALLY****
TOTAL RUN TIME: 0 days 0 hours 0 minutes 11 seconds 554 msec
