                         Program Version 5.0.0 -  RELEASE  -
|  1> !wB97X-D3 RIJCOSX def2-SVP def2/J TightSCF
|  2> *xyz -1 1
|  3> C          0.96805        1.63064       -3.71575
|  4> C         -0.50835        1.72268       -4.12430
|  5> S         -1.32861        0.14674       -4.43578
|  6> H         -0.59151        2.29496       -5.04722
|  7> H         -1.11411        2.23561       -3.37436
|  8> O         -2.57135        0.47573       -5.06834
|  9> O         -1.51496       -0.40051       -3.06342
| 10> O         -0.37793       -0.62756       -5.20114
| 11> H          1.51840        1.12197       -4.47946
| 12> H          1.05062        1.08971       -2.79625
| 13> H          1.36450        2.61606       -3.58668
| 14> *
| 15> %MaxCore 64000
| 16>
| 17> %pal nprocs 4
| 18> end
| 19>
| 20> %scf
| 21>   MaxIter 150
| 22> end
| 23>
| 24>
| 25>                          ****END OF INPUT****

CARTESIAN COORDINATES (ANGSTROEM)
---------------------------------
  C      0.968050    1.630640   -3.715750
  C     -0.508350    1.722680   -4.124300
  S     -1.328610    0.146740   -4.435780
  H     -0.591510    2.294960   -5.047220
  H     -1.114110    2.235610   -3.374360
  O     -2.571350    0.475730   -5.068340
  O     -1.514960   -0.400510   -3.063420
  O     -0.377930   -0.627560   -5.201140
  H      1.518400    1.121970   -4.479460
  H      1.050620    1.089710   -2.796250
  H      1.364500    2.616060   -3.586680

 Total Charge           Charge          ....   -1
 Multiplicity           Mult            ....    1
 Number of Electrons    NEL             ....   58
 Basis Dimension        Dim             ....  113

ORBITAL ENERGIES
----------------

  NO   OCC          E(Eh)            E(eV)
   0   2.0000     -88.938255     -2420.1330
   1   2.0000     -18.995179      -516.8851
   2   2.0000     -18.991843      -516.7943
   3   2.0000     -18.972609      -516.2709
   4   2.0000     -10.139012      -275.8965
   5   2.0000     -10.133472      -275.7458
   6   2.0000      -8.018941      -218.2065
   7   2.0000      -5.977963      -162.6686
   8   2.0000      -5.977756      -162.6630
   9   2.0000      -5.977677      -162.6608
  10   2.0000      -1.023196       -27.8426
  11   2.0000      -0.883766       -24.0485
  12   2.0000      -0.850221       -23.1357
  13   2.0000      -0.730425       -19.8759
  14   2.0000      -0.602553       -16.3963
  15   2.0000      -0.466801       -12.7023
  16   2.0000      -0.407767       -11.0959
  17   2.0000      -0.401663       -10.9298
  18   2.0000      -0.361647        -9.8409
  19   2.0000      -0.343531        -9.3479
  20   2.0000      -0.338391        -9.2081
  21   2.0000      -0.312756        -8.5105
  22   2.0000      -0.297604        -8.0982
  23   2.0000      -0.222801        -6.0627
  24   2.0000      -0.221574        -6.0293
  25   2.0000      -0.189009        -5.1432
  26   2.0000      -0.177028        -4.8172
  27   2.0000      -0.162744        -4.4285
  28   2.0000      -0.130828        -3.5600
  29   0.0000       0.289562         7.8794
  30   0.0000       0.342000         9.3063
  31   0.0000       0.348548         9.4845
  32   0.0000       0.355199         9.6654
  33   0.0000       0.383151        10.4261

MULLIKEN ATOMIC CHARGES
-----------------------
   0 C :   -0.007243
   1 C :   -0.134066
   2 S :    0.883132
   3 H :    0.005256
   4 H :    0.017629
   5 O :   -0.569357
   6 O :   -0.636084
   7 O :   -0.583971
   8 H :    0.023082
   9 H :    0.020971
  10 H :   -0.019348
Sum of atomic charges:   -1.0000000

LOEWDIN ATOMIC CHARGES
----------------------
   0 C :   -0.074424
   1 C :   -0.192109
   2 S :    1.099309
   3 H :    0.003217
   4 H :    0.010013
   5 O :   -0.601986
   6 O :   -0.668690
   7 O :   -0.614958
   8 H :    0.018317
   9 H :    0.018542
  10 H :    0.002769

  Mayer bond orders larger than 0.100000
B(  0-C ,  1-C ) :   1.0493 B(  0-C ,  8-H ) :   0.9704 B(  0-C ,  9-H ) :   0.9717
B(  0-C , 10-H ) :   0.9685 B(  1-C ,  2-S ) :   0.8996 B(  1-C ,  3-H ) :   0.9472
B(  1-C ,  4-H ) :   0.9501 B(  2-S ,  5-O ) :   1.6545 B(  2-S ,  6-O ) :   1.5794
B(  2-S ,  7-O ) :   1.6292

Dispersion correction           -0.002915926
FINAL SINGLE POINT ENERGY      -702.636717188356

DIPOLE MOMENT
-------------
                                X             Y             Z
Electronic contribution:     -5.65384      -5.37723      -1.96434
Nuclear contribution   :      6.64523       6.80157       2.07300
                        -----------------------------------------
Total Dipole Moment    :      0.99138       1.42434       0.10866
                        -----------------------------------------
Magnitude (a.u.)       :      1.73879
Magnitude (Debye)      :      4.41965

Rotational constants in cm-1:     0.163070     0.082807     0.081541
Rotational constants in MHz :  4888.719902  2482.497026  2444.541148

                             ****ORCA TERMINATED NORMALLY****
TOTAL RUN TIME: 0 days 0 hours 0 minutes 18 seconds 291 msec
