                         Program Version 5.0.0 -  RELEASE  -
|  1> !wB97X-D3 RIJCOSX def2-SVP def2/J TightSCF
|  2> *xyz 1 1
|  3> C          1.36401        0.46874       -2.81376
|  4> N          0.42884        0.32140       -1.65531
|  5> C          0.96805        1.63064       -3.71575
|  6> H          0.74858       -0.40054       -1.00134
|  7> H         -0.46105        0.02333       -2.07773
|  8> H          0.31026        1.20137       -1.13495
|  9> H          1.29485       -0.46874       -3.36468
| 10> H          2.37622        0.59740       -2.43149
| 11> H          1.65923        1.70213       -4.52942
| 12> H          0.98421        2.54058       -3.15304
| 13> H         -0.01744        1.46536       -4.09838
| 14> *
| 15> %MaxCore 64000
| 16>
| 17> %pal nprocs 4
| 18> end
| 19>
| 20> %scf
| 21>   MaxIter 150
| 22> end
| 23>
| 24>
| 25>                          ****END OF INPUT****

CARTESIAN COORDINATES (ANGSTROEM)
---------------------------------
  C      1.364010    0.468740   -2.813760
  N      0.428840    0.321400   -1.655310
  C      0.968050    1.630640   -3.715750
  H      0.748580   -0.400540   -1.001340
  H     -0.461050    0.023330   -2.077730
  H      0.310260    1.201370   -1.134950
  H      1.294850   -0.468740   -3.364680
  H      2.376220    0.597400   -2.431490
  H      1.659230    1.702130   -4.529420
  H      0.984210    2.540580   -3.153040
  H     -0.017440    1.465360   -4.098380

 Total Charge           Charge          ....    1
 Multiplicity           Mult            ....    1
 Number of Electrons    NEL             ....   26
 Basis Dimension        Dim             ....   82

ORBITAL ENERGIES
----------------

  NO   OCC          E(Eh)            E(eV)
   0   2.0000     -14.776627      -402.0925
   1   2.0000     -10.544234      -286.9232
   2   2.0000     -10.465363      -284.7770
   3   2.0000      -1.326974       -36.1088
   4   2.0000      -1.075904       -29.2768
   5   2.0000      -0.950369       -25.8608
   6   2.0000      -0.910689       -24.7811
   7   2.0000      -0.893713       -24.3192
   8   2.0000      -0.795776       -21.6542
   9   2.0000      -0.745141       -20.2763
  10   2.0000      -0.681340       -18.5402
  11   2.0000      -0.663859       -18.0645
  12   2.0000      -0.648160       -17.6373
  13   0.0000      -0.094229        -2.5641
  14   0.0000      -0.033434        -0.9098
  15   0.0000      -0.028873        -0.7857
  16   0.0000      -0.000587        -0.0160
  17   0.0000       0.037795         1.0285

MULLIKEN ATOMIC CHARGES
-----------------------
   0 C :   -0.075921
   1 N :   -0.029606
   2 C :   -0.068638
   3 H :    0.228428
   4 H :    0.225454
   5 H :    0.225302
   6 H :    0.116112
   7 H :    0.122008
   8 H :    0.113018
   9 H :    0.073843
  10 H :    0.070001
Sum of atomic charges:    1.0000000

LOEWDIN ATOMIC CHARGES
----------------------
   0 C :    0.051640
   1 N :    0.290467
   2 C :   -0.043502
   3 H :    0.148612
   4 H :    0.148667
   5 H :    0.146436
   6 H :    0.054916
   7 H :    0.055845
   8 H :    0.066074
   9 H :    0.040915
  10 H :    0.039932

  Mayer bond orders larger than 0.100000
B(  0-C ,  1-N ) :   0.9058 B(  0-C ,  2-C ) :   1.0836 B(  0-C ,  6-H ) :   0.9558
B(  0-C ,  7-H ) :   0.9547 B(  1-N ,  3-H ) :   0.9298 B(  1-N ,  4-H ) :   0.9352
B(  1-N ,  5-H ) :   0.9296 B(  2-C ,  8-H ) :   0.9603 B(  2-C ,  9-H ) :   0.9710
B(  2-C , 10-H ) :   0.9711

Dispersion correction           -0.001498295
FINAL SINGLE POINT ENERGY      -135.400537760944

DIPOLE MOMENT
-------------
                                X             Y             Z
Electronic contribution:     -0.37446      -0.96823       1.62214
Nuclear contribution   :     -0.20470       0.31427      -0.31587
                        -----------------------------------------
Total Dipole Moment    :     -0.57916      -0.65396       1.30628
                        -----------------------------------------
Magnitude (a.u.)       :      1.57145
Magnitude (Debye)      :      3.99431

Rotational constants in cm-1:     1.011480     0.279280     0.248378
Rotational constants in MHz : 30323.408050  8372.602834  7446.185305

                             ****ORCA TERMINATED NORMALLY****
TOTAL RUN TIME: 0 days 0 hours 0 minutes 11 seconds 4 msec
