                         Program Version 5.0.0 -  RELEASE  -
|  1> !wB97X-D3 RIJCOSX def2-SVP def2/J TightSCF
|  2> *xyz 0 1
|  3> C          0.96805        1.63064       -3.71575
|  4> C         -0.50835        1.72268       -4.12430
|  5> S         -1.32861        0.14674       -4.43578
|  6> H         -0.59151        2.29496       -5.04722
|  7> H         -1.11411        2.23561       -3.37436
|  8> F         -2.57135        0.47573       -5.06834
|  9> O         -1.51496       -0.40051       -3.06342
| 10> O         -0.37793       -0.62756       -5.20114
| 11> H          1.51840        1.12197       -4.47946
| 12> H          1.05062        1.08971       -2.79625
| 13> H          1.36450        2.61606       -3.58668
| 14> *
| 15> %MaxCore 64000
| 16>
| 17> %pal nprocs 4
| 18> end
| 19>
| 20> %scf
| 21>   MaxIter 150
| 22> end
| 23>
| 24>
| 25>                          ****END OF INPUT****

CARTESIAN COORDINATES (ANGSTROEM)
---------------------------------
  C      0.968050    1.630640   -3.715750
  C     -0.508350    1.722680   -4.124300
  S     -1.328610    0.146740   -4.435780
  H     -0.591510    2.294960   -5.047220
  H     -1.114110    2.235610   -3.374360
  F     -2.571350    0.475730   -5.068340
  O     -1.514960   -0.400510   -3.063420
  O     -0.377930   -0.627560   -5.201140
  H      1.518400    1.121970   -4.479460
  H      1.050620    1.089710   -2.796250
  H      1.364500    2.616060   -3.586680

 Total Charge           Charge          ....    0
 Multiplicity           Mult            ....    1
 Number of Electrons    NEL             ....   58
 Basis Dimension        Dim             ....  113

ORBITAL ENERGIES
----------------

  NO   OCC          E(Eh)            E(eV)
   0   2.0000     -89.213644     -2427.6267
   1   2.0000     -24.914273      -677.9518
   2   2.0000     -19.243851      -523.6518
   3   2.0000     -19.225927      -523.1641
   4   2.0000     -10.345908      -281.5265
   5   2.0000     -10.307164      -280.4722
   6   2.0000      -8.296767      -225.7665
   7   2.0000      -6.259928      -170.3413
   8   2.0000      -6.253178      -170.1576
   9   2.0000      -6.252082      -170.1278
  10   2.0000      -1.498058       -40.7642
  11   2.0000      -1.213833       -33.0301
  12   2.0000      -1.104133       -30.0450
  13   2.0000      -0.929322       -25.2881
  14   2.0000      -0.844887       -22.9905
  15   2.0000      -0.783498       -21.3201
  16   2.0000      -0.696185       -18.9442
  17   2.0000      -0.695340       -18.9212
  18   2.0000      -0.653873       -17.7928
  19   2.0000      -0.592796       -16.1308
  20   2.0000      -0.579162       -15.7598
  21   2.0000      -0.531669       -14.4675
  22   2.0000      -0.526422       -14.3247
  23   2.0000      -0.503251       -13.6942
  24   2.0000      -0.481627       -13.1057
  25   2.0000      -0.474084       -12.9005
  26   2.0000      -0.419986       -11.4284
  27   2.0000      -0.402156       -10.9432
  28   2.0000      -0.388765       -10.5788
  29   0.0000       0.122629         3.3369
  30   0.0000       0.133032         3.6200
  31   0.0000       0.160528         4.3682
  32   0.0000       0.174464         4.7474
  33   0.0000       0.185613         5.0508

MULLIKEN ATOMIC CHARGES
-----------------------
   0 C :   -0.019815
   1 C :   -0.172783
   2 S :    0.957621
   3 H :    0.070164
   4 H :    0.085941
   5 F :   -0.163395
   6 O :   -0.494554
   7 O :   -0.445409
   8 H :    0.063937
   9 H :    0.065019
  10 H :    0.053275
Sum of atomic charges:    0.0000000

LOEWDIN ATOMIC CHARGES
----------------------
   0 C :   -0.047284
   1 C :   -0.156774
   2 S :    1.156928
   3 H :    0.029336
   4 H :    0.038130
   5 F :   -0.106991
   6 O :   -0.537574
   7 O :   -0.486354
   8 H :    0.035999
   9 H :    0.037372
  10 H :    0.037212

  Mayer bond orders larger than 0.100000
B(  0-C ,  1-C ) :   1.0585 B(  0-C ,  8-H ) :   0.9714 B(  0-C ,  9-H ) :   0.9743
B(  0-C , 10-H ) :   0.9682 B(  1-C ,  2-S ) :   0.9248 B(  1-C ,  3-H ) :   0.9362
B(  1-C ,  4-H ) :   0.9370 B(  2-S ,  5-F ) :   1.0383 B(  2-S ,  6-O ) :   1.7313
B(  2-S ,  7-O ) :   1.7792

Dispersion correction           -0.002913711
FINAL SINGLE POINT ENERGY      -727.129837834261

DIPOLE MOMENT
-------------
                                X             Y             Z
Electronic contribution:     -8.36894      -5.15220      -3.26737
Nuclear contribution   :      8.31000       6.74109       2.87442
                        -----------------------------------------
Total Dipole Moment    :     -0.05893       1.58889      -0.39295
                        -----------------------------------------
Magnitude (a.u.)       :      1.63782
Magnitude (Debye)      :      4.16300

Rotational constants in cm-1:     0.158705     0.080192     0.078179
Rotational constants in MHz :  4757.865601  2404.095079  2343.752507

                             ****ORCA TERMINATED NORMALLY****
TOTAL RUN TIME: 0 days 0 hours 0 minutes 18 seconds 828 msec
