                         Program Version 5.0.0 -  RELEASE  -
|  1> !wB97X-D3 RIJCOSX def2-SVP def2/J TightSCF
|  2> *xyz 0 1
|  3> C          1.36401        0.46874       -2.81376
|  4> C          0.42884        0.32140       -1.65531
|  5> C          0.96805        1.63064       -3.71575
|  6> H          0.74858       -0.40054       -1.00134
|  7> H         -0.46105        0.02333       -2.07773
|  8> H          0.31026        1.20137       -1.13495
|  9> H          1.29485       -0.46874       -3.36468
| 10> H          2.37622        0.59740       -2.43149
| 11> H          1.65923        1.70213       -4.52942
| 12> H          0.98421        2.54058       -3.15304
| 13> H         -0.01744        1.46536       -4.09838
| 14> *
| 15> %MaxCore 64000
| 16>
| 17> %pal nprocs 4
| 18> end
| 19>
| 20> %scf
| 21>   MaxIter 150
| 22> end
| 23>
| 24>
| 25>                          ****END OF INPUT****

CARTESIAN COORDINATES (ANGSTROEM)
---------------------------------
  C      1.364010    0.468740   -2.813760
  C      0.428840    0.321400   -1.655310
  C      0.968050    1.630640   -3.715750
  H      0.748580   -0.400540   -1.001340
  H     -0.461050    0.023330   -2.077730
  H      0.310260    1.201370   -1.134950
  H      1.294850   -0.468740   -3.364680
  H      2.376220    0.597400   -2.431490
  H      1.659230    1.702130   -4.529420
  H      0.984210    2.540580   -3.153040
  H     -0.017440    1.465360   -4.098380

 Total Charge           Charge          ....    0
 Multiplicity           Mult            ....    1
 Number of Electrons    NEL             ....   26
 Basis Dimension        Dim             ....   82

ORBITAL ENERGIES
----------------

  NO   OCC          E(Eh)            E(eV)
   0   2.0000     -10.274068      -279.5716
   1   2.0000     -10.267102      -279.3821
   2   2.0000     -10.250263      -278.9238
   3   2.0000      -0.900657       -24.5081
   4   2.0000      -0.795780       -21.6543
   5   2.0000      -0.686726       -18.6868
   6   2.0000      -0.571616       -15.5544
   7   2.0000      -0.544217       -14.8089
   8   2.0000      -0.499273       -13.5859
   9   2.0000      -0.486305       -13.2330
  10   2.0000      -0.429915       -11.6986
  11   2.0000      -0.424947       -11.5634
  12   2.0000      -0.420843       -11.4517
  13   0.0000       0.149989         4.0814
  14   0.0000       0.200677         5.4607
  15   0.0000       0.201328         5.4784
  16   0.0000       0.206775         5.6266
  17   0.0000       0.234529         6.3818

MULLIKEN ATOMIC CHARGES
-----------------------
   0 C :   -0.130135
   1 C :    0.030870
   2 C :   -0.030838
   3 H :    0.007373
   4 H :    0.002179
   5 H :    0.004095
   6 H :    0.023080
   7 H :    0.024177
   8 H :    0.027316
   9 H :    0.021964
  10 H :    0.019918
Sum of atomic charges:   -0.0000000

LOEWDIN ATOMIC CHARGES
----------------------
   0 C :   -0.043842
   1 C :   -0.045014
   2 C :   -0.055669
   3 H :    0.015214
   4 H :    0.015588
   5 H :    0.012554
   6 H :    0.020694
   7 H :    0.017772
   8 H :    0.022178
   9 H :    0.020328
  10 H :    0.020197

  Mayer bond orders larger than 0.100000
B(  0-C ,  1-C ) :   1.0854 B(  0-C ,  2-C ) :   1.0856 B(  0-C ,  6-H ) :   0.9628
B(  0-C ,  7-H ) :   0.9626 B(  1-C ,  3-H ) :   0.9701 B(  1-C ,  4-H ) :   0.9753
B(  1-C ,  5-H ) :   0.9757 B(  2-C ,  8-H ) :   0.9751 B(  2-C ,  9-H ) :   0.9773
B(  2-C , 10-H ) :   0.9774

Dispersion correction           -0.001445409
FINAL SINGLE POINT ENERGY      -119.007229370078

DIPOLE MOMENT
-------------
                                X             Y             Z
Electronic contribution:      0.35446      -0.17535      -0.01716
Nuclear contribution   :     -0.35842       0.15752       0.02695
                        -----------------------------------------
Total Dipole Moment    :     -0.00396      -0.01783       0.00979
                        -----------------------------------------
Magnitude (a.u.)       :      0.02073
Magnitude (Debye)      :      0.05268

Rotational constants in cm-1:     1.019891     0.293671     0.260247
Rotational constants in MHz : 30575.551403  8804.039097  7802.009261

                             ****ORCA TERMINATED NORMALLY****
TOTAL RUN TIME: 0 days 0 hours 0 minutes 9 seconds 369 msec
