                         Program Version 5.0.0 -  RELEASE  -
|  1> !wB97X-D3 RIJCOSX def2-SVP def2/J TightSCF
|  2> *xyz 0 1
|  3> C          0.96805        1.63064       -3.71575
|  4> C         -0.50835        1.72268       -4.12430
|  5> S         -1.32861        0.14674       -4.43578
|  6> H         -0.59151        2.29496       -5.04722
|  7> H         -1.11411        2.23561       -3.37436
|  8> O         -2.57135        0.47573       -5.06834
|  9> F         -1.51496       -0.40051       -3.06342
| 10> O         -0.37793       -0.62756       -5.20114
| 11> H          1.51840        1.12197       -4.47946
| 12> H          1.05062        1.08971       -2.79625
| 13> H          1.36450        2.61606       -3.58668
| 14> *
| 15> %MaxCore 64000
| 16>
| 17> %pal nprocs 4
| 18> end
| 19>
| 20> %scf
| 21>   MaxIter 150
| 22> end
| 23>
| 24>
| 25>                          ****END OF INPUT****

CARTESIAN COORDINATES (ANGSTROEM)
---------------------------------
  C      0.968050    1.630640   -3.715750
  C     -0.508350    1.722680   -4.124300
  S     -1.328610    0.146740   -4.435780
  H     -0.591510    2.294960   -5.047220
  H     -1.114110    2.235610   -3.374360
  O     -2.571350    0.475730   -5.068340
  F     -1.514960   -0.400510   -3.063420
  O     -0.377930   -0.627560   -5.201140
  H      1.518400    1.121970   -4.479460
  H      1.050620    1.089710   -2.796250
  H      1.364500    2.616060   -3.586680

 Total Charge           Charge          ....    0
 Multiplicity           Mult            ....    1
 Number of Electrons    NEL             ....   58
 Basis Dimension        Dim             ....  113

ORBITAL ENERGIES
----------------

  NO   OCC          E(Eh)            E(eV)
   0   2.0000     -89.211965     -2427.5810
   1   2.0000     -24.884525      -677.1423
   2   2.0000     -19.247812      -523.7596
   3   2.0000     -19.244611      -523.6725
   4   2.0000     -10.344914      -281.4994
   5   2.0000     -10.309112      -280.5252
   6   2.0000      -8.294837      -225.7140
   7   2.0000      -6.257767      -170.2825
   8   2.0000      -6.251600      -170.1147
   9   2.0000      -6.250399      -170.0820
  10   2.0000      -1.448974       -39.4286
  11   2.0000      -1.229936       -33.4682
  12   2.0000      -1.132871       -30.8270
  13   2.0000      -0.931480       -25.3469
  14   2.0000      -0.825473       -22.4623
  15   2.0000      -0.774981       -21.0883
  16   2.0000      -0.680670       -18.5220
  17   2.0000      -0.661231       -17.9930
  18   2.0000      -0.645088       -17.5537
  19   2.0000      -0.592894       -16.1335
  20   2.0000      -0.576058       -15.6753
  21   2.0000      -0.551479       -15.0065
  22   2.0000      -0.529858       -14.4182
  23   2.0000      -0.501102       -13.6357
  24   2.0000      -0.497340       -13.5333
  25   2.0000      -0.475647       -12.9430
  26   2.0000      -0.431606       -11.7446
  27   2.0000      -0.418527       -11.3887
  28   2.0000      -0.410423       -11.1682
  29   0.0000       0.117515         3.1977
  30   0.0000       0.144584         3.9343
  31   0.0000       0.162843         4.4312
  32   0.0000       0.176438         4.8011
  33   0.0000       0.185047         5.0354

MULLIKEN ATOMIC CHARGES
-----------------------
   0 C :   -0.031720
   1 C :   -0.183901
   2 S :    0.969667
   3 H :    0.103674
   4 H :    0.081640
   5 O :   -0.433854
   6 F :   -0.222216
   7 O :   -0.450163
   8 H :    0.068039
   9 H :    0.045619
  10 H :    0.053215
Sum of atomic charges:   -0.0000000

LOEWDIN ATOMIC CHARGES
----------------------
   0 C :   -0.060339
   1 C :   -0.158257
   2 S :    1.165018
   3 H :    0.050126
   4 H :    0.035333
   5 O :   -0.476680
   6 F :   -0.166760
   7 O :   -0.489588
   8 H :    0.036008
   9 H :    0.028488
  10 H :    0.036651

  Mayer bond orders larger than 0.100000
B(  0-C ,  1-C ) :   1.0399 B(  0-C ,  8-H ) :   0.9712 B(  0-C ,  9-H ) :   0.9770
B(  0-C , 10-H ) :   0.9671 B(  1-C ,  2-S ) :   0.9222 B(  1-C ,  3-H ) :   0.9417
B(  1-C ,  4-H ) :   0.9394 B(  2-S ,  5-O ) :   1.8074 B(  2-S ,  6-F ) :   0.9689
B(  2-S ,  7-O ) :   1.7851

Dispersion correction           -0.002883582
FINAL SINGLE POINT ENERGY      -727.156621150258

DIPOLE MOMENT
-------------
                                X             Y             Z
Electronic contribution:     -6.57500      -6.65192       0.17162
Nuclear contribution   :      7.20921       7.65416       0.78523
                        -----------------------------------------
Total Dipole Moment    :      0.63421       1.00224       0.95685
                        -----------------------------------------
Magnitude (a.u.)       :      1.52390
Magnitude (Debye)      :      3.87344

Rotational constants in cm-1:     0.153780     0.081282     0.079816
Rotational constants in MHz :  4610.199589  2436.778679  2392.820729

                             ****ORCA TERMINATED NORMALLY****
TOTAL RUN TIME: 0 days 0 hours 0 minutes 18 seconds 627 msec
