                         Program Version 5.0.0 -  RELEASE  -
|  1> !wB97X-D3 RIJCOSX def2-SVP def2/J TightSCF
|  2> *xyz 0 1
|  3> C          0.96805        1.63064       -3.71575
|  4> C         -0.50835        1.72268       -4.12430
|  5> S         -1.32861        0.14674       -4.43578
|  6> H         -0.59151        2.29496       -5.04722
|  7> H         -1.11411        2.23561       -3.37436
|  8> O         -2.57135        0.47573       -5.06834
|  9> O         -1.51496       -0.40051       -3.06342
| 10> F         -0.37793       -0.62756       -5.20114
| 11> H          1.51840        1.12197       -4.47946
| 12> H          1.05062        1.08971       -2.79625
| 13> H          1.36450        2.61606       -3.58668
| 14> *
| 15> %MaxCore 64000
| 16>
| 17> %pal nprocs 4
| 18> end
| 19>
| 20> %scf
| 21>   MaxIter 150
| 22> end
| 23>
| 24>
| 25>                          ****END OF INPUT****

CARTESIAN COORDINATES (ANGSTROEM)
---------------------------------
  C      0.968050    1.630640   -3.715750
  C     -0.508350    1.722680   -4.124300
  S     -1.328610    0.146740   -4.435780
  H     -0.591510    2.294960   -5.047220
  H     -1.114110    2.235610   -3.374360
  O     -2.571350    0.475730   -5.068340
  O     -1.514960   -0.400510   -3.063420
  F     -0.377930   -0.627560   -5.201140
  H      1.518400    1.121970   -4.479460
  H      1.050620    1.089710   -2.796250
  H      1.364500    2.616060   -3.586680

 Total Charge           Charge          ....    0
 Multiplicity           Mult            ....    1
 Number of Electrons    NEL             ....   58
 Basis Dimension        Dim             ....  113

ORBITAL ENERGIES
----------------

  NO   OCC          E(Eh)            E(eV)
   0   2.0000     -89.212919     -2427.6069
   1   2.0000     -24.908272      -677.7886
   2   2.0000     -19.247715      -523.7569
   3   2.0000     -19.226219      -523.1720
   4   2.0000     -10.345641      -281.5192
   5   2.0000     -10.312831      -280.6264
   6   2.0000      -8.296030      -225.7465
   7   2.0000      -6.259253      -170.3229
   8   2.0000      -6.252472      -170.1384
   9   2.0000      -6.251336      -170.1075
  10   2.0000      -1.487050       -40.4647
  11   2.0000      -1.219994       -33.1977
  12   2.0000      -1.107279       -30.1306
  13   2.0000      -0.933671       -25.4065
  14   2.0000      -0.837484       -22.7891
  15   2.0000      -0.786260       -21.3952
  16   2.0000      -0.701910       -19.1000
  17   2.0000      -0.687864       -18.7177
  18   2.0000      -0.643873       -17.5207
  19   2.0000      -0.593916       -16.1613
  20   2.0000      -0.575116       -15.6497
  21   2.0000      -0.547647       -14.9022
  22   2.0000      -0.530443       -14.4341
  23   2.0000      -0.506822       -13.7913
  24   2.0000      -0.490492       -13.3470
  25   2.0000      -0.474095       -12.9008
  26   2.0000      -0.423009       -11.5107
  27   2.0000      -0.403108       -10.9691
  28   2.0000      -0.391844       -10.6626
  29   0.0000       0.112006         3.0478
  30   0.0000       0.145927         3.9709
  31   0.0000       0.158019         4.2999
  32   0.0000       0.180497         4.9116
  33   0.0000       0.185573         5.0497

MULLIKEN ATOMIC CHARGES
-----------------------
   0 C :   -0.039835
   1 C :   -0.175079
   2 S :    0.958612
   3 H :    0.079637
   4 H :    0.111545
   5 O :   -0.427706
   6 O :   -0.494774
   7 F :   -0.178314
   8 H :    0.043865
   9 H :    0.064262
  10 H :    0.057786
Sum of atomic charges:    0.0000000

LOEWDIN ATOMIC CHARGES
----------------------
   0 C :   -0.063329
   1 C :   -0.153205
   2 S :    1.158818
   3 H :    0.033748
   4 H :    0.054578
   5 O :   -0.472077
   6 O :   -0.537880
   7 F :   -0.120226
   8 H :    0.026256
   9 H :    0.034742
  10 H :    0.038574

  Mayer bond orders larger than 0.100000
B(  0-C ,  1-C ) :   1.0374 B(  0-C ,  8-H ) :   0.9763 B(  0-C ,  9-H ) :   0.9732
B(  0-C , 10-H ) :   0.9675 B(  1-C ,  2-S ) :   0.9278 B(  1-C ,  3-H ) :   0.9400
B(  1-C ,  4-H ) :   0.9396 B(  2-S ,  5-O ) :   1.8029 B(  2-S ,  6-O ) :   1.7317
B(  2-S ,  7-F ) :   1.0170

Dispersion correction           -0.002897389
FINAL SINGLE POINT ENERGY      -727.135103102811

DIPOLE MOMENT
-------------
                                X             Y             Z
Electronic contribution:     -4.62922      -7.01847      -3.47681
Nuclear contribution   :      6.02439       7.89075       3.01280
                        -----------------------------------------
Total Dipole Moment    :      1.39517       0.87228      -0.46401
                        -----------------------------------------
Magnitude (a.u.)       :      1.70959
Magnitude (Debye)      :      4.34542

Rotational constants in cm-1:     0.153652     0.082400     0.079295
Rotational constants in MHz :  4606.361242  2470.285703  2377.214112

                             ****ORCA TERMINATED NORMALLY****
TOTAL RUN TIME: 0 days 0 hours 0 minutes 19 seconds 352 msec
