                         Program Version 5.0.0 -  RELEASE  -
|  1> !TPSS D3BJ RIJCOSX def2-TZVP def2/J TightSCF
|  2> *xyz -1 1
|  3> C          0.96805        1.63064       -3.71575
|  4> C         -0.50835        1.72268       -4.12430
|  5> S         -1.32861        0.14674       -4.43578
|  6> H         -0.59151        2.29496       -5.04722
|  7> H         -1.11411        2.23561       -3.37436
|  8> O         -2.57135        0.47573       -5.06834
|  9> O         -1.51496       -0.40051       -3.06342
| 10> O         -0.37793       -0.62756       -5.20114
| 11> H          1.51840        1.12197       -4.47946
| 12> H          1.05062        1.08971       -2.79625
| 13> H          1.36450        2.61606       -3.58668
| 14> *
| 15> %MaxCore 64000
| 16>
| 17> %pal nprocs 4
| 18> end
| 19>
| 20> %scf
| 21>   MaxIter 150
| 22> end
| 23>
| 24>
| 25>                          ****END OF INPUT****

CARTESIAN COORDINATES (ANGSTROEM)
---------------------------------
  C      0.968050    1.630640   -3.715750
  C     -0.508350    1.722680   -4.124300
  S     -1.328610    0.146740   -4.435780
  H     -0.591510    2.294960   -5.047220
  H     -1.114110    2.235610   -3.374360
  O     -2.571350    0.475730   -5.068340
  O     -1.514960   -0.400510   -3.063420
  O     -0.377930   -0.627560   -5.201140
  H      1.518400    1.121970   -4.479460
  H      1.050620    1.089710   -2.796250
  H      1.364500    2.616060   -3.586680

 Total Charge           Charge          ....   -1
 Multiplicity           Mult            ....    1
 Number of Electrons    NEL             ....   58
 Basis Dimension        Dim             ....  222

ORBITAL ENERGIES
----------------

  NO   OCC          E(Eh)            E(eV)
   0   2.0000     -88.317547     -2403.2426
   1   2.0000     -18.657222      -507.6888
   2   2.0000     -18.653874      -507.5977
   3   2.0000     -18.637950      -507.1644
   4   2.0000      -9.835128      -267.6274
   5   2.0000      -9.834279      -267.6043
   6   2.0000      -7.666213      -208.6083
   7   2.0000      -5.645787      -153.6297
   8   2.0000      -5.644873      -153.6048
   9   2.0000      -5.644661      -153.5990
  10   2.0000      -0.841637       -22.9021
  11   2.0000      -0.722450       -19.6589
  12   2.0000      -0.692792       -18.8518
  13   2.0000      -0.565356       -15.3841
  14   2.0000      -0.446983       -12.1630
  15   2.0000      -0.322724        -8.7818
  16   2.0000      -0.266957        -7.2643
  17   2.0000      -0.260165        -7.0795
  18   2.0000      -0.221751        -6.0342
  19   2.0000      -0.206986        -5.6324
  20   2.0000      -0.203320        -5.5326
  21   2.0000      -0.180161        -4.9024
  22   2.0000      -0.169072        -4.6007
  23   2.0000      -0.099266        -2.7012
  24   2.0000      -0.097913        -2.6643
  25   2.0000      -0.069066        -1.8794
  26   2.0000      -0.061386        -1.6704
  27   2.0000      -0.046568        -1.2672
  28   2.0000      -0.013816        -0.3760
  29   0.0000       0.167160         4.5487
  30   0.0000       0.209055         5.6887
  31   0.0000       0.224097         6.0980
  32   0.0000       0.229055         6.2329
  33   0.0000       0.254594         6.9278

MULLIKEN ATOMIC CHARGES
-----------------------
   0 C :   -0.315615
   1 C :   -0.207574
   2 S :    0.754251
   3 H :    0.057076
   4 H :    0.067176
   5 O :   -0.514248
   6 O :   -0.577979
   7 O :   -0.530378
   8 H :    0.108295
   9 H :    0.099977
  10 H :    0.059019
Sum of atomic charges:   -1.0000000

LOEWDIN ATOMIC CHARGES
----------------------
   0 C :   -0.337274
   1 C :   -0.431104
   2 S :    0.366713
   3 H :    0.108672
   4 H :    0.112877
   5 O :   -0.348947
   6 O :   -0.422533
   7 O :   -0.362336
   8 H :    0.110086
   9 H :    0.109415
  10 H :    0.094430

  Mayer bond orders larger than 0.100000
B(  0-C ,  1-C ) :   0.9943 B(  0-C ,  8-H ) :   0.9678 B(  0-C ,  9-H ) :   0.9699
B(  0-C , 10-H ) :   0.9556 B(  1-C ,  2-S ) :   0.8674 B(  1-C ,  3-H ) :   0.9420
B(  1-C ,  4-H ) :   0.9521 B(  2-S ,  5-O ) :   1.8396 B(  2-S ,  6-O ) :   1.7508
B(  2-S ,  7-O ) :   1.7780

Dispersion correction           -0.012099658
FINAL SINGLE POINT ENERGY      -703.372002837612

DIPOLE MOMENT
-------------
                                X             Y             Z
Electronic contribution:     -5.68952      -5.43543      -1.95788
Nuclear contribution   :      6.64523       6.80157       2.07300
                        -----------------------------------------
Total Dipole Moment    :      0.95571       1.36614       0.11512
                        -----------------------------------------
Magnitude (a.u.)       :      1.67122
Magnitude (Debye)      :      4.24789

Rotational constants in cm-1:     0.163070     0.082807     0.081541
Rotational constants in MHz :  4888.719902  2482.497026  2444.541148

                             ****ORCA TERMINATED NORMALLY****
TOTAL RUN TIME: 0 days 0 hours 0 minutes 15 seconds 36 msec
