                         Program Version 5.0.0 -  RELEASE  -
|  1> !TPSS D3BJ RIJCOSX def2-TZVP def2/J TightSCF
|  2> *xyz 1 1
|  3> C          1.36401        0.46874       -2.81376
|  4> N          0.42884        0.32140       -1.65531
|  5> C          0.96805        1.63064       -3.71575
|  6> H          0.74858       -0.40054       -1.00134
|  7> H         -0.46105        0.02333       -2.07773
|  8> H          0.31026        1.20137       -1.13495
|  9> H          1.29485       -0.46874       -3.36468
| 10> H          2.37622        0.59740       -2.43149
| 11> H          1.65923        1.70213       -4.52942
| 12> H          0.98421        2.54058       -3.15304
| 13> H         -0.01744        1.46536       -4.09838
| 14> *
| 15> %MaxCore 64000
| 16>
| 17> %pal nprocs 4
| 18> end
| 19>
| 20> %scf
| 21>   MaxIter 150
| 22> end
| 23>
| 24>
| 25>                          ****END OF INPUT****

CARTESIAN COORDINATES (ANGSTROEM)
---------------------------------
  C      1.364010    0.468740   -2.813760
  N      0.428840    0.321400   -1.655310
  C      0.968050    1.630640   -3.715750
  H      0.748580   -0.400540   -1.001340
  H     -0.461050    0.023330   -2.077730
  H      0.310260    1.201370   -1.134950
  H      1.294850   -0.468740   -3.364680
  H      2.376220    0.597400   -2.431490
  H      1.659230    1.702130   -4.529420
  H      0.984210    2.540580   -3.153040
  H     -0.017440    1.465360   -4.098380

 Total Charge           Charge          ....    1
 Multiplicity           Mult            ....    1
 Number of Electrons    NEL             ....   26
 Basis Dimension        Dim             ....  141

ORBITAL ENERGIES
----------------

  NO   OCC          E(Eh)            E(eV)
   0   2.0000     -14.435519      -392.8104
   1   2.0000     -10.239569      -278.6328
   2   2.0000     -10.162272      -276.5295
   3   2.0000      -1.154946       -31.4277
   4   2.0000      -0.911643       -24.8071
   5   2.0000      -0.794952       -21.6318
   6   2.0000      -0.759255       -20.6604
   7   2.0000      -0.743749       -20.2384
   8   2.0000      -0.652441       -17.7538
   9   2.0000      -0.605454       -16.4752
  10   2.0000      -0.547055       -14.8861
  11   2.0000      -0.531173       -14.4540
  12   2.0000      -0.518796       -14.1172
  13   0.0000      -0.209376        -5.6974
  14   0.0000      -0.149351        -4.0640
  15   0.0000      -0.144779        -3.9396
  16   0.0000      -0.124677        -3.3926
  17   0.0000      -0.087733        -2.3873

MULLIKEN ATOMIC CHARGES
-----------------------
   0 C :   -0.198853
   1 N :   -0.288184
   2 C :   -0.343084
   3 H :    0.331577
   4 H :    0.326296
   5 H :    0.324017
   6 H :    0.185045
   7 H :    0.187248
   8 H :    0.182132
   9 H :    0.148060
  10 H :    0.145747
Sum of atomic charges:    1.0000000

LOEWDIN ATOMIC CHARGES
----------------------
   0 C :   -0.270518
   1 N :    0.172493
   2 C :   -0.268315
   3 H :    0.219122
   4 H :    0.225044
   5 H :    0.219228
   6 H :    0.150685
   7 H :    0.149583
   8 H :    0.146748
   9 H :    0.128206
  10 H :    0.127725

  Mayer bond orders larger than 0.100000
B(  0-C ,  1-N ) :   0.8839 B(  0-C ,  2-C ) :   1.0457 B(  0-C ,  6-H ) :   0.9423
B(  0-C ,  7-H ) :   0.9392 B(  1-N ,  3-H ) :   0.8733 B(  1-N ,  4-H ) :   0.8782
B(  1-N ,  5-H ) :   0.8719 B(  2-C ,  8-H ) :   0.9499 B(  2-C ,  9-H ) :   0.9552
B(  2-C , 10-H ) :   0.9537

Dispersion correction           -0.007456270
FINAL SINGLE POINT ENERGY      -135.613772590862

DIPOLE MOMENT
-------------
                                X             Y             Z
Electronic contribution:     -0.34330      -0.94147       1.56331
Nuclear contribution   :     -0.20470       0.31427      -0.31587
                        -----------------------------------------
Total Dipole Moment    :     -0.54800      -0.62720       1.24745
                        -----------------------------------------
Magnitude (a.u.)       :      1.49994
Magnitude (Debye)      :      3.81254

Rotational constants in cm-1:     1.011480     0.279280     0.248378
Rotational constants in MHz : 30323.408050  8372.602834  7446.185305

                             ****ORCA TERMINATED NORMALLY****
TOTAL RUN TIME: 0 days 0 hours 0 minutes 6 seconds 77 msec
