                         Program Version 5.0.0 -  RELEASE  -
|  1> !TPSS D3BJ RIJCOSX def2-TZVP def2/J TightSCF
|  2> *xyz 0 1
|  3> C          0.96805        1.63064       -3.71575
|  4> C         -0.50835        1.72268       -4.12430
|  5> S         -1.32861        0.14674       -4.43578
|  6> H         -0.59151        2.29496       -5.04722
|  7> H         -1.11411        2.23561       -3.37436
|  8> F         -2.57135        0.47573       -5.06834
|  9> O         -1.51496       -0.40051       -3.06342
| 10> O         -0.37793       -0.62756       -5.20114
| 11> H          1.51840        1.12197       -4.47946
| 12> H          1.05062        1.08971       -2.79625
| 13> H          1.36450        2.61606       -3.58668
| 14> *
| 15> %MaxCore 64000
| 16>
| 17> %pal nprocs 4
| 18> end
| 19>
| 20> %scf
| 21>   MaxIter 150
| 22> end
| 23>
| 24>
| 25>                          ****END OF INPUT****

CARTESIAN COORDINATES (ANGSTROEM)
---------------------------------
  C      0.968050    1.630640   -3.715750
  C     -0.508350    1.722680   -4.124300
  S     -1.328610    0.146740   -4.435780
  H     -0.591510    2.294960   -5.047220
  H     -1.114110    2.235610   -3.374360
  F     -2.571350    0.475730   -5.068340
  O     -1.514960   -0.400510   -3.063420
  O     -0.377930   -0.627560   -5.201140
  H      1.518400    1.121970   -4.479460
  H      1.050620    1.089710   -2.796250
  H      1.364500    2.616060   -3.586680

 Total Charge           Charge          ....    0
 Multiplicity           Mult            ....    1
 Number of Electrons    NEL             ....   58
 Basis Dimension        Dim             ....  222

ORBITAL ENERGIES
----------------

  NO   OCC          E(Eh)            E(eV)
   0   2.0000     -88.582196     -2410.4441
   1   2.0000     -24.529670      -667.4863
   2   2.0000     -18.893279      -514.1123
   3   2.0000     -18.878010      -513.6968
   4   2.0000     -10.040253      -273.2092
   5   2.0000     -10.001260      -272.1481
   6   2.0000      -7.931659      -215.8314
   7   2.0000      -5.914861      -160.9516
   8   2.0000      -5.908072      -160.7668
   9   2.0000      -5.907875      -160.7614
  10   2.0000      -1.307229       -35.5715
  11   2.0000      -1.026501       -27.9325
  12   2.0000      -0.930978       -25.3332
  13   2.0000      -0.757323       -20.6078
  14   2.0000      -0.678470       -18.4621
  15   2.0000      -0.620839       -16.8939
  16   2.0000      -0.533014       -14.5040
  17   2.0000      -0.530164       -14.4265
  18   2.0000      -0.502245       -13.6668
  19   2.0000      -0.447003       -12.1636
  20   2.0000      -0.432104       -11.7581
  21   2.0000      -0.393214       -10.6999
  22   2.0000      -0.385589       -10.4924
  23   2.0000      -0.366750        -9.9798
  24   2.0000      -0.349934        -9.5222
  25   2.0000      -0.336369        -9.1531
  26   2.0000      -0.289973        -7.8906
  27   2.0000      -0.274368        -7.4659
  28   2.0000      -0.258643        -7.0380
  29   0.0000      -0.005172        -0.1407
  30   0.0000       0.016499         0.4489
  31   0.0000       0.037862         1.0303
  32   0.0000       0.048183         1.3111
  33   0.0000       0.060187         1.6378

MULLIKEN ATOMIC CHARGES
-----------------------
   0 C :   -0.338455
   1 C :   -0.218827
   2 S :    0.764389
   3 H :    0.117224
   4 H :    0.133635
   5 F :   -0.064996
   6 O :   -0.422796
   7 O :   -0.378892
   8 H :    0.142083
   9 H :    0.140425
  10 H :    0.126210
Sum of atomic charges:    0.0000000

LOEWDIN ATOMIC CHARGES
----------------------
   0 C :   -0.294090
   1 C :   -0.396035
   2 S :    0.482846
   3 H :    0.128186
   4 H :    0.134359
   5 F :    0.119299
   6 O :   -0.299265
   7 O :   -0.244588
   8 H :    0.123352
   9 H :    0.124004
  10 H :    0.121933

  Mayer bond orders larger than 0.100000
B(  0-C ,  1-C ) :   1.0187 B(  0-C ,  8-H ) :   0.9628 B(  0-C ,  9-H ) :   0.9653
B(  0-C , 10-H ) :   0.9513 B(  1-C ,  2-S ) :   0.9131 B(  1-C ,  3-H ) :   0.9262
B(  1-C ,  4-H ) :   0.9304 B(  2-S ,  5-F ) :   1.1683 B(  2-S ,  6-O ) :   1.8965
B(  2-S ,  7-O ) :   1.9316

Dispersion correction           -0.011574661
FINAL SINGLE POINT ENERGY      -727.894046733776

DIPOLE MOMENT
-------------
                                X             Y             Z
Electronic contribution:     -8.34202      -5.23140      -3.22712
Nuclear contribution   :      8.31000       6.74109       2.87442
                        -----------------------------------------
Total Dipole Moment    :     -0.03202       1.50968      -0.35270
                        -----------------------------------------
Magnitude (a.u.)       :      1.55067
Magnitude (Debye)      :      3.94148

Rotational constants in cm-1:     0.158705     0.080192     0.078179
Rotational constants in MHz :  4757.865601  2404.095079  2343.752507

                             ****ORCA TERMINATED NORMALLY****
TOTAL RUN TIME: 0 days 0 hours 0 minutes 11 seconds 354 msec
