                         Program Version 5.0.0 -  RELEASE  -
|  1> !TPSS D3BJ RIJCOSX def2-TZVP def2/J TightSCF
|  2> *xyz 0 1
|  3> C          1.36401        0.46874       -2.81376
|  4> C          0.42884        0.32140       -1.65531
|  5> C          0.96805        1.63064       -3.71575
|  6> H          0.74858       -0.40054       -1.00134
|  7> H         -0.46105        0.02333       -2.07773
|  8> H          0.31026        1.20137       -1.13495
|  9> H          1.29485       -0.46874       -3.36468
| 10> H          2.37622        0.59740       -2.43149
| 11> H          1.65923        1.70213       -4.52942
| 12> H          0.98421        2.54058       -3.15304
| 13> H         -0.01744        1.46536       -4.09838
| 14> *
| 15> %MaxCore 64000
| 16>
| 17> %pal nprocs 4
| 18> end
| 19>
| 20> %scf
| 21>   MaxIter 150
| 22> end
| 23>
| 24>
| 25>                          ****END OF INPUT****

CARTESIAN COORDINATES (ANGSTROEM)
---------------------------------
  C      1.364010    0.468740   -2.813760
  C      0.428840    0.321400   -1.655310
  C      0.968050    1.630640   -3.715750
  H      0.748580   -0.400540   -1.001340
  H     -0.461050    0.023330   -2.077730
  H      0.310260    1.201370   -1.134950
  H      1.294850   -0.468740   -3.364680
  H      2.376220    0.597400   -2.431490
  H      1.659230    1.702130   -4.529420
  H      0.984210    2.540580   -3.153040
  H     -0.017440    1.465360   -4.098380

 Total Charge           Charge          ....    0
 Multiplicity           Mult            ....    1
 Number of Electrons    NEL             ....   26
 Basis Dimension        Dim             ....  141

ORBITAL ENERGIES
----------------

  NO   OCC          E(Eh)            E(eV)
   0   2.0000      -9.970480      -271.3106
   1   2.0000      -9.962944      -271.1055
   2   2.0000      -9.945333      -270.6263
   3   2.0000      -0.733438       -19.9579
   4   2.0000      -0.637804       -17.3555
   5   2.0000      -0.536995       -14.6124
   6   2.0000      -0.428507       -11.6603
   7   2.0000      -0.402926       -10.9642
   8   2.0000      -0.362824        -9.8729
   9   2.0000      -0.352697        -9.5974
  10   2.0000      -0.298928        -8.1342
  11   2.0000      -0.296596        -8.0708
  12   2.0000      -0.293133        -7.9765
  13   0.0000       0.031398         0.8544
  14   0.0000       0.074709         2.0329
  15   0.0000       0.081383         2.2146
  16   0.0000       0.084104         2.2886
  17   0.0000       0.101994         2.7754

MULLIKEN ATOMIC CHARGES
-----------------------
   0 C :   -0.141650
   1 C :   -0.319252
   2 C :   -0.322345
   3 H :    0.111831
   4 H :    0.100000
   5 H :    0.100538
   6 H :    0.078750
   7 H :    0.079788
   8 H :    0.110316
   9 H :    0.101374
  10 H :    0.100649
Sum of atomic charges:   -0.0000000

LOEWDIN ATOMIC CHARGES
----------------------
   0 C :   -0.315215
   1 C :   -0.295831
   2 C :   -0.299358
   3 H :    0.104506
   4 H :    0.110370
   5 H :    0.104106
   6 H :    0.129551
   7 H :    0.125153
   8 H :    0.112135
   9 H :    0.112139
  10 H :    0.112444

  Mayer bond orders larger than 0.100000
B(  0-C ,  1-C ) :   1.0159 B(  0-C ,  2-C ) :   1.0220 B(  0-C ,  6-H ) :   0.9599
B(  0-C ,  7-H ) :   0.9563 B(  1-C ,  3-H ) :   0.9729 B(  1-C ,  4-H ) :   0.9764
B(  1-C ,  5-H ) :   0.9740 B(  2-C ,  8-H ) :   0.9709 B(  2-C ,  9-H ) :   0.9724
B(  2-C , 10-H ) :   0.9716

Dispersion correction           -0.007480986
FINAL SINGLE POINT ENERGY      -119.198332363668

DIPOLE MOMENT
-------------
                                X             Y             Z
Electronic contribution:      0.36620      -0.18290      -0.01552
Nuclear contribution   :     -0.35842       0.15752       0.02695
                        -----------------------------------------
Total Dipole Moment    :      0.00778      -0.02538       0.01143
                        -----------------------------------------
Magnitude (a.u.)       :      0.02890
Magnitude (Debye)      :      0.07346

Rotational constants in cm-1:     1.019891     0.293671     0.260247
Rotational constants in MHz : 30575.551403  8804.039097  7802.009261

                             ****ORCA TERMINATED NORMALLY****
TOTAL RUN TIME: 0 days 0 hours 0 minutes 5 seconds 842 msec
