                         Program Version 5.0.0 -  RELEASE  -
|  1> !TPSS D3BJ RIJCOSX def2-TZVP def2/J TightSCF
|  2> *xyz 0 1
|  3> C          0.96805        1.63064       -3.71575
|  4> C         -0.50835        1.72268       -4.12430
|  5> S         -1.32861        0.14674       -4.43578
|  6> H         -0.59151        2.29496       -5.04722
|  7> H         -1.11411        2.23561       -3.37436
|  8> O         -2.57135        0.47573       -5.06834
|  9> F         -1.51496       -0.40051       -3.06342
| 10> O         -0.37793       -0.62756       -5.20114
| 11> H          1.51840        1.12197       -4.47946
| 12> H          1.05062        1.08971       -2.79625
| 13> H          1.36450        2.61606       -3.58668
| 14> *
| 15> %MaxCore 64000
| 16>
| 17> %pal nprocs 4
| 18> end
| 19>
| 20> %scf
| 21>   MaxIter 150
| 22> end
| 23>
| 24>
| 25>                          ****END OF INPUT****

CARTESIAN COORDINATES (ANGSTROEM)
---------------------------------
  C      0.968050    1.630640   -3.715750
  C     -0.508350    1.722680   -4.124300
  S     -1.328610    0.146740   -4.435780
  H     -0.591510    2.294960   -5.047220
  H     -1.114110    2.235610   -3.374360
  O     -2.571350    0.475730   -5.068340
  F     -1.514960   -0.400510   -3.063420
  O     -0.377930   -0.627560   -5.201140
  H      1.518400    1.121970   -4.479460
  H      1.050620    1.089710   -2.796250
  H      1.364500    2.616060   -3.586680

 Total Charge           Charge          ....    0
 Multiplicity           Mult            ....    1
 Number of Electrons    NEL             ....   58
 Basis Dimension        Dim             ....  222

ORBITAL ENERGIES
----------------

  NO   OCC          E(Eh)            E(eV)
   0   2.0000     -88.579398     -2410.3680
   1   2.0000     -24.501505      -666.7199
   2   2.0000     -18.896684      -514.2049
   3   2.0000     -18.893467      -514.1174
   4   2.0000     -10.039517      -273.1892
   5   2.0000     -10.002223      -272.1743
   6   2.0000      -7.929017      -215.7595
   7   2.0000      -5.912308      -160.8821
   8   2.0000      -5.905503      -160.6969
   9   2.0000      -5.905224      -160.6893
  10   2.0000      -1.261708       -34.3328
  11   2.0000      -1.041799       -28.3488
  12   2.0000      -0.956548       -26.0290
  13   2.0000      -0.759054       -20.6549
  14   2.0000      -0.661214       -17.9926
  15   2.0000      -0.613414       -16.6919
  16   2.0000      -0.519514       -14.1367
  17   2.0000      -0.498576       -13.5669
  18   2.0000      -0.492819       -13.4103
  19   2.0000      -0.446859       -12.1597
  20   2.0000      -0.427801       -11.6411
  21   2.0000      -0.406896       -11.0722
  22   2.0000      -0.389232       -10.5915
  23   2.0000      -0.363929        -9.9030
  24   2.0000      -0.361217        -9.8292
  25   2.0000      -0.340692        -9.2707
  26   2.0000      -0.298543        -8.1238
  27   2.0000      -0.290693        -7.9102
  28   2.0000      -0.278361        -7.5746
  29   0.0000      -0.005614        -0.1528
  30   0.0000       0.025148         0.6843
  31   0.0000       0.034510         0.9391
  32   0.0000       0.054929         1.4947
  33   0.0000       0.065308         1.7771

MULLIKEN ATOMIC CHARGES
-----------------------
   0 C :   -0.336079
   1 C :   -0.234527
   2 S :    0.776403
   3 H :    0.146072
   4 H :    0.129031
   5 O :   -0.372325
   6 F :   -0.111250
   7 O :   -0.389666
   8 H :    0.147709
   9 H :    0.119269
  10 H :    0.125364
Sum of atomic charges:    0.0000000

LOEWDIN ATOMIC CHARGES
----------------------
   0 C :   -0.306722
   1 C :   -0.391596
   2 S :    0.493605
   3 H :    0.143557
   4 H :    0.132052
   5 O :   -0.235003
   6 F :    0.050794
   7 O :   -0.247486
   8 H :    0.123255
   9 H :    0.116848
  10 H :    0.120696

  Mayer bond orders larger than 0.100000
B(  0-C ,  1-C ) :   1.0060 B(  0-C ,  8-H ) :   0.9617 B(  0-C ,  9-H ) :   0.9667
B(  0-C , 10-H ) :   0.9535 B(  1-C ,  2-S ) :   0.9060 B(  1-C ,  3-H ) :   0.9348
B(  1-C ,  4-H ) :   0.9367 B(  2-S ,  5-O ) :   1.9720 B(  2-S ,  6-F ) :   1.1062
B(  2-S ,  7-O ) :   1.9279

Dispersion correction           -0.011522931
FINAL SINGLE POINT ENERGY      -727.917525942010

DIPOLE MOMENT
-------------
                                X             Y             Z
Electronic contribution:     -6.59106      -6.69645       0.13120
Nuclear contribution   :      7.20921       7.65416       0.78523
                        -----------------------------------------
Total Dipole Moment    :      0.61816       0.95771       0.91644
                        -----------------------------------------
Magnitude (a.u.)       :      1.46259
Magnitude (Debye)      :      3.71761

Rotational constants in cm-1:     0.153780     0.081282     0.079816
Rotational constants in MHz :  4610.199589  2436.778679  2392.820729

                             ****ORCA TERMINATED NORMALLY****
TOTAL RUN TIME: 0 days 0 hours 0 minutes 10 seconds 214 msec
