                         Program Version 5.0.0 -  RELEASE  -
|  1> !TPSS D3BJ RIJCOSX def2-TZVP def2/J TightSCF
|  2> *xyz 0 1
|  3> C          0.96805        1.63064       -3.71575
|  4> C         -0.50835        1.72268       -4.12430
|  5> S         -1.32861        0.14674       -4.43578
|  6> H         -0.59151        2.29496       -5.04722
|  7> H         -1.11411        2.23561       -3.37436
|  8> O         -2.57135        0.47573       -5.06834
|  9> O         -1.51496       -0.40051       -3.06342
| 10> F         -0.37793       -0.62756       -5.20114
| 11> H          1.51840        1.12197       -4.47946
| 12> H          1.05062        1.08971       -2.79625
| 13> H          1.36450        2.61606       -3.58668
| 14> *
| 15> %MaxCore 64000
| 16>
| 17> %pal nprocs 4
| 18> end
| 19>
| 20> %scf
| 21>   MaxIter 150
| 22> end
| 23>
| 24>
| 25>                          ****END OF INPUT****

CARTESIAN COORDINATES (ANGSTROEM)
---------------------------------
  C      0.968050    1.630640   -3.715750
  C     -0.508350    1.722680   -4.124300
  S     -1.328610    0.146740   -4.435780
  H     -0.591510    2.294960   -5.047220
  H     -1.114110    2.235610   -3.374360
  O     -2.571350    0.475730   -5.068340
  O     -1.514960   -0.400510   -3.063420
  F     -0.377930   -0.627560   -5.201140
  H      1.518400    1.121970   -4.479460
  H      1.050620    1.089710   -2.796250
  H      1.364500    2.616060   -3.586680

 Total Charge           Charge          ....    0
 Multiplicity           Mult            ....    1
 Number of Electrons    NEL             ....   58
 Basis Dimension        Dim             ....  222

ORBITAL ENERGIES
----------------

  NO   OCC          E(Eh)            E(eV)
   0   2.0000     -88.581602     -2410.4279
   1   2.0000     -24.523823      -667.3271
   2   2.0000     -18.896995      -514.2134
   3   2.0000     -18.878335      -513.7056
   4   2.0000     -10.040244      -273.2089
   5   2.0000     -10.005609      -272.2665
   6   2.0000      -7.931114      -215.8166
   7   2.0000      -5.914456      -160.9405
   8   2.0000      -5.907501      -160.7513
   9   2.0000      -5.907261      -160.7447
  10   2.0000      -1.297214       -35.2990
  11   2.0000      -1.032475       -28.0951
  12   2.0000      -0.933843       -25.4111
  13   2.0000      -0.761057       -20.7094
  14   2.0000      -0.671985       -18.2856
  15   2.0000      -0.623691       -16.9715
  16   2.0000      -0.537926       -14.6377
  17   2.0000      -0.522742       -14.2245
  18   2.0000      -0.494106       -13.4453
  19   2.0000      -0.448456       -12.2031
  20   2.0000      -0.427740       -11.6394
  21   2.0000      -0.403540       -10.9809
  22   2.0000      -0.391652       -10.6574
  23   2.0000      -0.369798       -10.0627
  24   2.0000      -0.356276        -9.6948
  25   2.0000      -0.337858        -9.1936
  26   2.0000      -0.293433        -7.9847
  27   2.0000      -0.274887        -7.4801
  28   2.0000      -0.261523        -7.1164
  29   0.0000      -0.010928        -0.2974
  30   0.0000       0.024737         0.6731
  31   0.0000       0.032131         0.8743
  32   0.0000       0.053761         1.4629
  33   0.0000       0.060644         1.6502

MULLIKEN ATOMIC CHARGES
-----------------------
   0 C :   -0.348413
   1 C :   -0.222136
   2 S :    0.766759
   3 H :    0.129240
   4 H :    0.151851
   5 O :   -0.362812
   6 O :   -0.425516
   7 F :   -0.079115
   8 H :    0.119559
   9 H :    0.142456
  10 H :    0.128126
Sum of atomic charges:   -0.0000000

LOEWDIN ATOMIC CHARGES
----------------------
   0 C :   -0.309244
   1 C :   -0.389226
   2 S :    0.485951
   3 H :    0.132170
   4 H :    0.145970
   5 O :   -0.230981
   6 O :   -0.299407
   7 F :    0.105581
   8 H :    0.115073
   9 H :    0.122214
  10 H :    0.121899

  Mayer bond orders larger than 0.100000
B(  0-C ,  1-C ) :   1.0049 B(  0-C ,  8-H ) :   0.9663 B(  0-C ,  9-H ) :   0.9636
B(  0-C , 10-H ) :   0.9546 B(  1-C ,  2-S ) :   0.9076 B(  1-C ,  3-H ) :   0.9318
B(  1-C ,  4-H ) :   0.9353 B(  2-S ,  5-O ) :   1.9748 B(  2-S ,  6-O ) :   1.8925
B(  2-S ,  7-F ) :   1.1424

Dispersion correction           -0.011502317
FINAL SINGLE POINT ENERGY      -727.898654033173

DIPOLE MOMENT
-------------
                                X             Y             Z
Electronic contribution:     -4.69345      -7.05249      -3.43557
Nuclear contribution   :      6.02439       7.89075       3.01280
                        -----------------------------------------
Total Dipole Moment    :      1.33094       0.83826      -0.42277
                        -----------------------------------------
Magnitude (a.u.)       :      1.62874
Magnitude (Debye)      :      4.13994

Rotational constants in cm-1:     0.153652     0.082400     0.079295
Rotational constants in MHz :  4606.361242  2470.285703  2377.214112

                             ****ORCA TERMINATED NORMALLY****
TOTAL RUN TIME: 0 days 0 hours 0 minutes 10 seconds 264 msec
