                         Program Version 5.0.0 -  RELEASE  -
|  1> !TPSS D3BJ RIJCOSX def2-TZVP def2/J TightSCF xyzfile
|  2>
|  3> *xyzfile 0 1 D1.xyz
|  4>
|  5> %MaxCore 64000
|  6>
|  7> %pal nprocs 18
|  8> end
|  9>
| 10> %scf
| 11>   MaxIter 150
| 12> end
| 13>
| 14>
| 15>                          ****END OF INPUT****

CARTESIAN COORDINATES (ANGSTROEM)
---------------------------------
  C      1.364014    0.468742   -2.813764
  C      0.428844    0.321402   -1.655312
  C      0.968045    1.630639   -3.715749
  C     -0.508347    1.722679   -4.124300
  S     -1.328608    0.146737   -4.435781
  H     -0.591511    2.294958   -5.047219
  H     -1.114114    2.235610   -3.374362
  H      0.748578   -0.400542   -1.001345
  H     -0.461053    0.023332   -2.077731
  H      0.310258    1.201375   -1.134948
  F     -2.571347    0.475733   -5.068341
  O     -1.514963   -0.400512   -3.063420
  H      1.294847   -0.468742   -3.364684
  H      2.376216    0.597400   -2.431495
  H      1.578688    1.520652   -4.612733
  H      1.266653    2.575988   -3.250448
  O     -0.377928   -0.627558   -5.201141

 Total Charge           Charge          ....    0
 Multiplicity           Mult            ....    1
 Number of Electrons    NEL             ....   74
 Basis Dimension        Dim             ....  308

ORBITAL ENERGIES
----------------

  NO   OCC          E(Eh)            E(eV)
   0   2.0000     -88.587974     -2410.6013
   1   2.0000     -24.532694      -667.5685
   2   2.0000     -18.898225      -514.2468
   3   2.0000     -18.886677      -513.9326
   4   2.0000     -10.041276      -273.2370
   5   2.0000     -10.005021      -272.2505
   6   2.0000      -9.969867      -271.2939
   7   2.0000      -9.914805      -269.7956
   8   2.0000      -7.937656      -215.9946
   9   2.0000      -5.920870      -161.1151
  10   2.0000      -5.914300      -160.9363
  11   2.0000      -5.913633      -160.9181
  12   2.0000      -1.310611       -35.6635
  13   2.0000      -1.035537       -28.1784
  14   2.0000      -0.944771       -25.7085
  15   2.0000      -0.769797       -20.9472
  16   2.0000      -0.715296       -19.4642
  17   2.0000      -0.663986       -18.0680
  18   2.0000      -0.623133       -16.9563
  19   2.0000      -0.554385       -15.0856
  20   2.0000      -0.536130       -14.5888
  21   2.0000      -0.522280       -14.2120
  22   2.0000      -0.499035       -13.5794
  23   2.0000      -0.458028       -12.4636
  24   2.0000      -0.450060       -12.2468
  25   2.0000      -0.412926       -11.2363
  26   2.0000      -0.409144       -11.1334
  27   2.0000      -0.382076       -10.3968
  28   2.0000      -0.364337        -9.9141
  29   2.0000      -0.359211        -9.7746
  30   2.0000      -0.341521        -9.2933
  31   2.0000      -0.315517        -8.5857
  32   2.0000      -0.306627        -8.3438
  33   2.0000      -0.285729        -7.7751
  34   2.0000      -0.281650        -7.6641
  35   2.0000      -0.270065        -7.3489
  36   2.0000      -0.240791        -6.5522
  37   0.0000      -0.009547        -0.2598
  38   0.0000       0.010091         0.2746
  39   0.0000       0.034083         0.9274
  40   0.0000       0.042779         1.1641
  41   0.0000       0.052129         1.4185

MULLIKEN ATOMIC CHARGES
-----------------------
   0 C :   -0.214260
   1 C :   -0.339641
   2 C :   -0.159259
   3 C :   -0.265430
   4 S :    0.746382
   5 H :    0.134844
   6 H :    0.143305
   7 H :    0.093968
   8 H :    0.172973
   9 H :    0.071893
  10 F :   -0.063258
  11 O :   -0.382332
  12 H :    0.128090
  13 H :    0.085032
  14 H :    0.106672
  15 H :    0.107609
  16 O :   -0.366586
Sum of atomic charges:   -0.0000000

LOEWDIN ATOMIC CHARGES
----------------------
   0 C :   -0.299006
   1 C :   -0.307202
   2 C :   -0.269836
   3 C :   -0.366333
   4 S :    0.495512
   5 H :    0.133584
   6 H :    0.139168
   7 H :    0.102348
   8 H :    0.084362
   9 H :    0.097669
  10 F :    0.120393
  11 O :   -0.250561
  12 H :    0.139944
  13 H :    0.130116
  14 H :    0.142009
  15 H :    0.143562
  16 O :   -0.235729

  Mayer bond orders larger than 0.100000
B(  0-C ,  1-C ) :   0.9993 B(  0-C ,  2-C ) :   1.0307 B(  0-C , 12-H ) :   0.9618
B(  0-C , 13-H ) :   0.9439 B(  1-C ,  7-H ) :   0.9592 B(  1-C ,  8-H ) :   0.9481
B(  1-C ,  9-H ) :   0.9640 B(  2-C ,  3-C ) :   1.0083 B(  2-C , 14-H ) :   0.9499
B(  2-C , 15-H ) :   0.9351 B(  3-C ,  4-S ) :   0.9285 B(  3-C ,  5-H ) :   0.9271
B(  3-C ,  6-H ) :   0.9273 B(  4-S , 10-F ) :   1.1689 B(  4-S , 11-O ) :   1.8076
B(  4-S , 16-O ) :   1.9261

Dispersion correction           -0.022309584
FINAL SINGLE POINT ENERGY      -806.524067287213

DIPOLE MOMENT
-------------
                                X             Y             Z
Electronic contribution:    -12.48260      -4.15871      -9.71083
Nuclear contribution   :     12.25227       5.48563       9.26621
                        -----------------------------------------
Total Dipole Moment    :     -0.23033       1.32692      -0.44462
                        -----------------------------------------
Magnitude (a.u.)       :      1.41826
Magnitude (Debye)      :      3.60494

Rotational constants in cm-1:     0.103176     0.044975     0.040960
Rotational constants in MHz :  3093.138469  1348.317425  1227.945122

                             ****ORCA TERMINATED NORMALLY****
TOTAL RUN TIME: 0 days 0 hours 0 minutes 8 seconds 556 msec
