                         Program Version 5.0.0 -  RELEASE  -
|  1> !TPSS D3BJ RIJCOSX def2-TZVP def2/J TightSCF xyzfile
|  2>
|  3> *xyzfile 0 1 D3.xyz
|  4>
|  5> %MaxCore 64000
|  6>
|  7> %pal nprocs 18
|  8> end
|  9>
| 10> %scf
| 11>   MaxIter 150
| 12> end
| 13>
| 14>
| 15>                          ****END OF INPUT****

CARTESIAN COORDINATES (ANGSTROEM)
---------------------------------
  C      1.364014    0.468742   -2.813764
  C      0.428844    0.321402   -1.655312
  C      0.968045    1.630639   -3.715749
  C     -0.508347    1.722679   -4.124300
  S     -1.328608    0.146737   -4.435781
  H     -0.591511    2.294958   -5.047219
  H     -1.114114    2.235610   -3.374362
  H      0.748578   -0.400542   -1.001345
  H     -0.461053    0.023332   -2.077731
  H      0.310258    1.201375   -1.134948
  O     -2.571347    0.475733   -5.068341
  O     -1.514963   -0.400512   -3.063420
  H      1.294847   -0.468742   -3.364684
  H      2.376216    0.597400   -2.431495
  H      1.578688    1.520652   -4.612733
  H      1.266653    2.575988   -3.250448
  F     -0.377928   -0.627558   -5.201141

 Total Charge           Charge          ....    0
 Multiplicity           Mult            ....    1
 Number of Electrons    NEL             ....   74
 Basis Dimension        Dim             ....  308

ORBITAL ENERGIES
----------------

  NO   OCC          E(Eh)            E(eV)
   0   2.0000     -88.588213     -2410.6078
   1   2.0000     -24.528445      -667.4529
   2   2.0000     -18.901330      -514.3313
   3   2.0000     -18.886122      -513.9175
   4   2.0000     -10.041183      -273.2345
   5   2.0000     -10.008303      -272.3398
   6   2.0000      -9.981155      -271.6010
   7   2.0000      -9.918564      -269.8979
   8   2.0000      -7.937871      -216.0005
   9   2.0000      -5.921228      -161.1248
  10   2.0000      -5.914536      -160.9427
  11   2.0000      -5.913711      -160.9203
  12   2.0000      -1.302205       -35.4348
  13   2.0000      -1.040226       -28.3060
  14   2.0000      -0.948411       -25.8076
  15   2.0000      -0.775535       -21.1034
  16   2.0000      -0.715172       -19.4608
  17   2.0000      -0.663580       -18.0569
  18   2.0000      -0.625784       -17.0285
  19   2.0000      -0.559101       -15.2139
  20   2.0000      -0.532518       -14.4906
  21   2.0000      -0.527149       -14.3444
  22   2.0000      -0.495631       -13.4868
  23   2.0000      -0.453912       -12.3516
  24   2.0000      -0.451106       -12.2752
  25   2.0000      -0.422662       -11.5012
  26   2.0000      -0.410301       -11.1649
  27   2.0000      -0.387397       -10.5416
  28   2.0000      -0.370013       -10.0686
  29   2.0000      -0.358003        -9.7418
  30   2.0000      -0.346147        -9.4191
  31   2.0000      -0.325210        -8.8494
  32   2.0000      -0.307295        -8.3619
  33   2.0000      -0.296606        -8.0711
  34   2.0000      -0.289102        -7.8669
  35   2.0000      -0.280568        -7.6346
  36   2.0000      -0.234299        -6.3756
  37   0.0000      -0.013359        -0.3635
  38   0.0000       0.016548         0.4503
  39   0.0000       0.026801         0.7293
  40   0.0000       0.041536         1.1303
  41   0.0000       0.048331         1.3152

MULLIKEN ATOMIC CHARGES
-----------------------
   0 C :   -0.216067
   1 C :   -0.334569
   2 C :   -0.185577
   3 C :   -0.261926
   4 S :    0.758800
   5 H :    0.145452
   6 H :    0.159631
   7 H :    0.093619
   8 H :    0.179033
   9 H :    0.076478
  10 O :   -0.363236
  11 O :   -0.383420
  12 H :    0.096005
  13 H :    0.092486
  14 H :    0.105511
  15 H :    0.107537
  16 F :   -0.069757
Sum of atomic charges:    0.0000000

LOEWDIN ATOMIC CHARGES
----------------------
   0 C :   -0.304319
   1 C :   -0.309323
   2 C :   -0.282684
   3 C :   -0.358093
   4 S :    0.502966
   5 H :    0.137504
   6 H :    0.150560
   7 H :    0.102199
   8 H :    0.082646
   9 H :    0.099305
  10 O :   -0.227243
  11 O :   -0.246560
  12 H :    0.129363
  13 H :    0.132254
  14 H :    0.136826
  15 H :    0.142839
  16 F :    0.111759

  Mayer bond orders larger than 0.100000
B(  0-C ,  1-C ) :   0.9937 B(  0-C ,  2-C ) :   1.0153 B(  0-C , 12-H ) :   0.9700
B(  0-C , 13-H ) :   0.9439 B(  1-C ,  7-H ) :   0.9585 B(  1-C ,  8-H ) :   0.9426
B(  1-C ,  9-H ) :   0.9630 B(  2-C ,  3-C ) :   0.9979 B(  2-C , 14-H ) :   0.9566
B(  2-C , 15-H ) :   0.9339 B(  3-C ,  4-S ) :   0.9244 B(  3-C ,  5-H ) :   0.9332
B(  3-C ,  6-H ) :   0.9307 B(  4-S , 10-O ) :   1.9796 B(  4-S , 11-O ) :   1.7986
B(  4-S , 16-F ) :   1.1466

Dispersion correction           -0.022129072
FINAL SINGLE POINT ENERGY      -806.527462700584

DIPOLE MOMENT
-------------
                                X             Y             Z
Electronic contribution:     -8.73323      -6.01771      -9.89508
Nuclear contribution   :      9.83476       6.70164       9.41257
                        -----------------------------------------
Total Dipole Moment    :      1.10153       0.68392      -0.48251
                        -----------------------------------------
Magnitude (a.u.)       :      1.38345
Magnitude (Debye)      :      3.51646

Rotational constants in cm-1:     0.099832     0.045916     0.042219
Rotational constants in MHz :  2992.874960  1376.530174  1265.693813

                             ****ORCA TERMINATED NORMALLY****
TOTAL RUN TIME: 0 days 0 hours 0 minutes 8 seconds 707 msec
