                         Program Version 5.0.0 -  RELEASE  -
|  1> !M062X D3Zero RIJCOSX def2-SVPD def2/J TightSCF
|  2> *xyz -1 1
|  3> C         -1.91658       -2.48508       -3.64367
|  4> C         -1.36353       -1.98134       -2.29361
|  5> O         -0.35039       -2.74969       -1.79601
|  6> H         -2.22622       -1.90839       -1.60204
|  7> H         -1.05135       -0.91567       -2.44333
|  8> H         -1.11522       -2.57167       -4.34739
|  9> H         -2.64227       -1.79099       -4.01314
| 10> H         -2.37564       -3.44180       -3.50640
| 11> *
| 12>
| 13> %MaxCore 64000
| 14> %pal nprocs 4
| 15> end
| 16>
| 17> %scf
| 18>   MaxIter 150
| 19> end
| 20>
| 21>
| 22>                          ****END OF INPUT****

CARTESIAN COORDINATES (ANGSTROEM)
---------------------------------
  C     -1.916580   -2.485080   -3.643670
  C     -1.363530   -1.981340   -2.293610
  O     -0.350390   -2.749690   -1.796010
  H     -2.226220   -1.908390   -1.602040
  H     -1.051350   -0.915670   -2.443330
  H     -1.115220   -2.571670   -4.347390
  H     -2.642270   -1.790990   -4.013140
  H     -2.375640   -3.441800   -3.506400

 Total Charge           Charge          ....   -1
 Multiplicity           Mult            ....    1
 Number of Electrons    NEL             ....   26
 Basis Dimension        Dim             ....  103

ORBITAL ENERGIES
----------------

  NO   OCC          E(Eh)            E(eV)
   0   2.0000     -19.298952      -525.1512
   1   2.0000     -10.364478      -282.0318
   2   2.0000     -10.341298      -281.4010
   3   2.0000      -0.778280       -21.1781
   4   2.0000      -0.610893       -16.6232
   5   2.0000      -0.446809       -12.1583
   6   2.0000      -0.317476        -8.6390
   7   2.0000      -0.294320        -8.0088
   8   2.0000      -0.236187        -6.4270
   9   2.0000      -0.219186        -5.9644
  10   2.0000      -0.177639        -4.8338
  11   2.0000      -0.032215        -0.8766
  12   2.0000      -0.029912        -0.8139
  13   0.0000       0.200906         5.4669
  14   0.0000       0.231997         6.3130
  15   0.0000       0.272842         7.4244
  16   0.0000       0.284569         7.7435
  17   0.0000       0.297035         8.0827

MULLIKEN ATOMIC CHARGES
-----------------------
   0 C :    0.334698
   1 C :    0.144417
   2 O :   -0.898656
   3 H :   -0.167125
   4 H :   -0.134644
   5 H :   -0.110733
   6 H :   -0.068208
   7 H :   -0.099750
Sum of atomic charges:   -1.0000000

LOEWDIN ATOMIC CHARGES
----------------------
   0 C :    0.063124
   1 C :   -0.259187
   2 O :   -0.595143
   3 H :   -0.033931
   4 H :   -0.029170
   5 H :   -0.042584
   6 H :   -0.059140
   7 H :   -0.043969

  Mayer bond orders larger than 0.100000
B(  0-C ,  1-C ) :   1.1760 B(  0-C ,  2-O ) :   0.1289 B(  0-C ,  3-H ) :   0.1150
B(  0-C ,  4-H ) :   0.1111 B(  0-C ,  5-H ) :   0.8995 B(  0-C ,  6-H ) :   0.8934
B(  0-C ,  7-H ) :   0.8964 B(  1-C ,  2-O ) :   1.1388 B(  1-C ,  3-H ) :   0.9879
B(  1-C ,  4-H ) :   0.9816 B(  1-C ,  5-H ) :   0.1813 B(  1-C ,  6-H ) :   0.1191
B(  1-C ,  7-H ) :   0.1665

Dispersion correction           -0.000015225
FINAL SINGLE POINT ENERGY      -154.234367401498

DIPOLE MOMENT
-------------
                                X             Y             Z
Electronic contribution:      1.99865      -0.85291       1.79628
Nuclear contribution   :     -3.14382       1.30299      -2.83231
                        -----------------------------------------
Total Dipole Moment    :     -1.14518       0.45008      -1.03603
                        -----------------------------------------
Magnitude (a.u.)       :      1.60853
Magnitude (Debye)      :      4.08855

Rotational constants in cm-1:     1.288206     0.322942     0.285188
Rotational constants in MHz : 38619.437223  9681.562038  8549.712012

                             ****ORCA TERMINATED NORMALLY****
TOTAL RUN TIME: 0 days 0 hours 0 minutes 11 seconds 588 msec
