                         Program Version 5.0.0 -  RELEASE  -
|  1> !M062X D3Zero RIJCOSX def2-SVPD def2/J TightSCF
|  2> *xyz 1 1
|  3> C          1.64703       -2.34528       -5.02041
|  4> C          2.20996       -2.81239       -3.66571
|  5> C          2.48901       -1.66851       -2.73754
|  6> N          3.59631       -0.94761       -2.95225
|  7> N          1.66394       -1.41369       -1.77781
|  8> H          0.81164       -1.96318       -1.70275
|  9> H          1.84550       -0.63508       -1.15875
| 10> H          4.20535       -1.17600       -3.73383
| 11> H          3.81723       -0.12585       -2.40604
| 12> H          3.14311       -3.36280       -3.81152
| 13> H          1.48768       -3.45893       -3.16521
| 14> H          1.46566       -3.19589       -5.64368
| 15> H          2.35406       -1.69850       -5.49654
| 16> H          0.73014       -1.81680       -4.86253
| 17> *
| 18>
| 19> %MaxCore 64000
| 20> %pal nprocs 4
| 21> end
| 22>
| 23> %scf
| 24>   MaxIter 150
| 25> end
| 26>
| 27>
| 28>                          ****END OF INPUT****

CARTESIAN COORDINATES (ANGSTROEM)
---------------------------------
  C      1.647030   -2.345280   -5.020410
  C      2.209960   -2.812390   -3.665710
  C      2.489010   -1.668510   -2.737540
  N      3.596310   -0.947610   -2.952250
  N      1.663940   -1.413690   -1.777810
  H      0.811640   -1.963180   -1.702750
  H      1.845500   -0.635080   -1.158750
  H      4.205350   -1.176000   -3.733830
  H      3.817230   -0.125850   -2.406040
  H      3.143110   -3.362800   -3.811520
  H      1.487680   -3.458930   -3.165210
  H      1.465660   -3.195890   -5.643680
  H      2.354060   -1.698500   -5.496540
  H      0.730140   -1.816800   -4.862530

 Total Charge           Charge          ....    1
 Multiplicity           Mult            ....    1
 Number of Electrons    NEL             ....   40
 Basis Dimension        Dim             ....  172

ORBITAL ENERGIES
----------------

  NO   OCC          E(Eh)            E(eV)
   0   2.0000     -15.015558      -408.5941
   1   2.0000     -15.005489      -408.3201
   2   2.0000     -10.877961      -296.0044
   3   2.0000     -10.750344      -292.5317
   4   2.0000     -10.707680      -291.3708
   5   2.0000      -1.307552       -35.5803
   6   2.0000      -1.203624       -32.7523
   7   2.0000      -1.058605       -28.8061
   8   2.0000      -0.943459       -25.6728
   9   2.0000      -0.898131       -24.4394
  10   2.0000      -0.852974       -23.2106
  11   2.0000      -0.827424       -22.5153
  12   2.0000      -0.775840       -21.1117
  13   2.0000      -0.722584       -19.6625
  14   2.0000      -0.692051       -18.8317
  15   2.0000      -0.682658       -18.5761
  16   2.0000      -0.607390       -16.5279
  17   2.0000      -0.598605       -16.2889
  18   2.0000      -0.593664       -16.1544
  19   2.0000      -0.555307       -15.1107
  20   0.0000      -0.169835        -4.6214
  21   0.0000      -0.138160        -3.7595
  22   0.0000      -0.095334        -2.5942
  23   0.0000      -0.094263        -2.5650
  24   0.0000      -0.066425        -1.8075

MULLIKEN ATOMIC CHARGES
-----------------------
   0 C :    0.593358
   1 C :   -0.354322
   2 C :    0.738239
   3 N :   -0.023401
   4 N :    0.020235
   5 H :    0.071955
   6 H :   -0.095833
   7 H :    0.055499
   8 H :   -0.135877
   9 H :    0.044054
  10 H :    0.037982
  11 H :    0.056962
  12 H :   -0.000224
  13 H :   -0.008628
Sum of atomic charges:    1.0000000

LOEWDIN ATOMIC CHARGES
----------------------
   0 C :    0.175593
   1 C :    0.011472
   2 C :   -0.044525
   3 N :    0.275638
   4 N :    0.280986
   5 H :    0.063817
   6 H :    0.056368
   7 H :    0.053009
   8 H :    0.043903
   9 H :    0.048912
  10 H :    0.036599
  11 H :    0.008278
  12 H :   -0.008844
  13 H :   -0.001206

  Mayer bond orders larger than 0.100000
B(  0-C ,  1-C ) :   1.2645 B(  0-C , 11-H ) :   0.8555 B(  0-C , 12-H ) :   0.7998
B(  0-C , 13-H ) :   0.8602 B(  1-C ,  2-C ) :   1.1530 B(  1-C ,  9-H ) :   0.9168
B(  1-C , 10-H ) :   0.9008 B(  1-C , 11-H ) :   0.1382 B(  1-C , 12-H ) :   0.1876
B(  1-C , 13-H ) :   0.1571 B(  2-C ,  3-N ) :   1.0578 B(  2-C ,  4-N ) :   1.1078
B(  2-C ,  6-H ) :  -0.1697 B(  2-C ,  8-H ) :  -0.1840 B(  2-C , 10-H ) :   0.1515
B(  3-N ,  4-N ) :   0.1463 B(  3-N ,  7-H ) :   1.0867 B(  3-N ,  8-H ) :   1.2964
B(  4-N ,  5-H ) :   1.0775 B(  4-N ,  6-H ) :   1.2925 B(  5-H ,  6-H ) :  -0.1744
B(  7-H ,  8-H ) :  -0.1836

Dispersion correction           -0.000201902
FINAL SINGLE POINT ENERGY      -228.757611015484

DIPOLE MOMENT
-------------
                                X             Y             Z
Electronic contribution:      1.18711       1.64788       3.61755
Nuclear contribution   :     -0.98617      -1.03178      -2.77619
                        -----------------------------------------
Total Dipole Moment    :      0.20094       0.61611       0.84136
                        -----------------------------------------
Magnitude (a.u.)       :      1.06201
Magnitude (Debye)      :      2.69941

Rotational constants in cm-1:     0.257311     0.127495     0.099037
Rotational constants in MHz :  7713.982239  3822.189706  2969.039713

                             ****ORCA TERMINATED NORMALLY****
TOTAL RUN TIME: 0 days 0 hours 0 minutes 23 seconds 934 msec
