                         Program Version 5.0.0 -  RELEASE  -
|  1> !M062X D3Zero RIJCOSX def2-SVPD def2/J TightSCF
|  2> *xyz 0 1
|  3> C         -1.91658       -2.48508       -3.64367
|  4> C         -1.36353       -1.98134       -2.29361
|  5> F         -0.35039       -2.74969       -1.79601
|  6> H         -2.22622       -1.90839       -1.60204
|  7> H         -1.05135       -0.91567       -2.44333
|  8> H         -1.11522       -2.57167       -4.34739
|  9> H         -2.64227       -1.79099       -4.01314
| 10> H         -2.37564       -3.44180       -3.50640
| 11> *
| 12>
| 13> %MaxCore 64000
| 14> %pal nprocs 4
| 15> end
| 16>
| 17> %scf
| 18>   MaxIter 150
| 19> end
| 20>
| 21>
| 22>                          ****END OF INPUT****

CARTESIAN COORDINATES (ANGSTROEM)
---------------------------------
  C     -1.916580   -2.485080   -3.643670
  C     -1.363530   -1.981340   -2.293610
  F     -0.350390   -2.749690   -1.796010
  H     -2.226220   -1.908390   -1.602040
  H     -1.051350   -0.915670   -2.443330
  H     -1.115220   -2.571670   -4.347390
  H     -2.642270   -1.790990   -4.013140
  H     -2.375640   -3.441800   -3.506400

 Total Charge           Charge          ....    0
 Multiplicity           Mult            ....    1
 Number of Electrons    NEL             ....   26
 Basis Dimension        Dim             ....  103

ORBITAL ENERGIES
----------------

  NO   OCC          E(Eh)            E(eV)
   0   2.0000     -25.246529      -686.9930
   1   2.0000     -10.633636      -289.3559
   2   2.0000     -10.548040      -287.0268
   3   2.0000      -1.322775       -35.9945
   4   2.0000      -0.854104       -23.2413
   5   2.0000      -0.716696       -19.5023
   6   2.0000      -0.592993       -16.1362
   7   2.0000      -0.581685       -15.8284
   8   2.0000      -0.547156       -14.8889
   9   2.0000      -0.483086       -13.1454
  10   2.0000      -0.469369       -12.7722
  11   2.0000      -0.406625       -11.0648
  12   2.0000      -0.398905       -10.8548
  13   0.0000       0.039670         1.0795
  14   0.0000       0.069665         1.8957
  15   0.0000       0.100516         2.7352
  16   0.0000       0.105687         2.8759
  17   0.0000       0.133892         3.6434

MULLIKEN ATOMIC CHARGES
-----------------------
   0 C :    0.251036
   1 C :    0.371648
   2 F :   -0.467883
   3 H :   -0.049955
   4 H :   -0.018136
   5 H :   -0.045104
   6 H :   -0.009171
   7 H :   -0.032434
Sum of atomic charges:   -0.0000000

LOEWDIN ATOMIC CHARGES
----------------------
   0 C :    0.136515
   1 C :    0.073215
   2 F :   -0.230647
   3 H :    0.028885
   4 H :    0.035411
   5 H :   -0.014507
   6 H :   -0.013390
   7 H :   -0.015482

  Mayer bond orders larger than 0.100000
B(  0-C ,  1-C ) :   1.3366 B(  0-C ,  5-H ) :   0.9051 B(  0-C ,  6-H ) :   0.8722
B(  0-C ,  7-H ) :   0.9025 B(  1-C ,  2-F ) :   0.6886 B(  1-C ,  3-H ) :   0.9655
B(  1-C ,  4-H ) :   0.9571 B(  1-C ,  5-H ) :   0.1383 B(  1-C ,  6-H ) :   0.1100
B(  1-C ,  7-H ) :   0.1271

Dispersion correction           -0.000019349
FINAL SINGLE POINT ENERGY      -178.847625162169

DIPOLE MOMENT
-------------
                                X             Y             Z
Electronic contribution:      3.59219      -1.33861       3.41372
Nuclear contribution   :     -4.15401       1.70894      -3.75000
                        -----------------------------------------
Total Dipole Moment    :     -0.56182       0.37032      -0.33627
                        -----------------------------------------
Magnitude (a.u.)       :      0.75224
Magnitude (Debye)      :      1.91204

Rotational constants in cm-1:     1.266842     0.300492     0.266603
Rotational constants in MHz : 37978.968232  9008.526876  7992.551454

                             ****ORCA TERMINATED NORMALLY****
TOTAL RUN TIME: 0 days 0 hours 0 minutes 11 seconds 20 msec
