                         Program Version 5.0.0 -  RELEASE  -
|  1> !M062X D3Zero RIJCOSX def2-SVPD def2/J TightSCF
|  2> *xyz 0 1
|  3> C          1.64703       -2.34528       -5.02041
|  4> C          2.20996       -2.81239       -3.66571
|  5> C          2.48901       -1.66851       -2.73754
|  6> C          3.59631       -0.94761       -2.95225
|  7> N          1.66394       -1.41369       -1.77781
|  8> H          0.81164       -1.96318       -1.70275
|  9> H          1.84550       -0.63508       -1.15875
| 10> H          4.20535       -1.17600       -3.73383
| 11> H          3.81723       -0.12585       -2.40604
| 12> H          3.14311       -3.36280       -3.81152
| 13> H          1.48768       -3.45893       -3.16521
| 14> H          1.46566       -3.19589       -5.64368
| 15> H          2.35406       -1.69850       -5.49654
| 16> H          0.73014       -1.81680       -4.86253
| 17> *
| 18>
| 19> %MaxCore 64000
| 20> %pal nprocs 4
| 21> end
| 22>
| 23> %scf
| 24>   MaxIter 150
| 25> end
| 26>
| 27>
| 28>                          ****END OF INPUT****

CARTESIAN COORDINATES (ANGSTROEM)
---------------------------------
  C      1.647030   -2.345280   -5.020410
  C      2.209960   -2.812390   -3.665710
  C      2.489010   -1.668510   -2.737540
  C      3.596310   -0.947610   -2.952250
  N      1.663940   -1.413690   -1.777810
  H      0.811640   -1.963180   -1.702750
  H      1.845500   -0.635080   -1.158750
  H      4.205350   -1.176000   -3.733830
  H      3.817230   -0.125850   -2.406040
  H      3.143110   -3.362800   -3.811520
  H      1.487680   -3.458930   -3.165210
  H      1.465660   -3.195890   -5.643680
  H      2.354060   -1.698500   -5.496540
  H      0.730140   -1.816800   -4.862530

 Total Charge           Charge          ....    0
 Multiplicity           Mult            ....    1
 Number of Electrons    NEL             ....   40
 Basis Dimension        Dim             ....  172

ORBITAL ENERGIES
----------------

  NO   OCC          E(Eh)            E(eV)
   0   2.0000     -14.767370      -401.8406
   1   2.0000     -10.571088      -287.6539
   2   2.0000     -10.550379      -287.0904
   3   2.0000     -10.535672      -286.6902
   4   2.0000     -10.480637      -285.1926
   5   2.0000      -1.037837       -28.2410
   6   2.0000      -0.868445       -23.6316
   7   2.0000      -0.794081       -21.6080
   8   2.0000      -0.719598       -19.5813
   9   2.0000      -0.644521       -17.5383
  10   2.0000      -0.606344       -16.4995
  11   2.0000      -0.551788       -15.0149
  12   2.0000      -0.510666       -13.8959
  13   2.0000      -0.478606       -13.0235
  14   2.0000      -0.460622       -12.5342
  15   2.0000      -0.447403       -12.1745
  16   2.0000      -0.413015       -11.2387
  17   2.0000      -0.399941       -10.8829
  18   2.0000      -0.394691       -10.7401
  19   2.0000      -0.236504        -6.4356
  20   0.0000       0.035333         0.9615
  21   0.0000       0.064162         1.7459
  22   0.0000       0.071872         1.9557
  23   0.0000       0.076344         2.0774
  24   0.0000       0.090051         2.4504

MULLIKEN ATOMIC CHARGES
-----------------------
   0 C :    0.591815
   1 C :   -0.116986
   2 C :   -0.034861
   3 C :    0.452213
   4 N :    0.116033
   5 H :   -0.071538
   6 H :   -0.127617
   7 H :   -0.189812
   8 H :   -0.519179
   9 H :    0.064437
  10 H :   -0.076722
  11 H :    0.015974
  12 H :   -0.054969
  13 H :   -0.048788
Sum of atomic charges:   -0.0000000

LOEWDIN ATOMIC CHARGES
----------------------
   0 C :    0.137653
   1 C :   -0.031266
   2 C :   -0.272454
   3 C :    0.177360
   4 N :    0.159651
   5 H :    0.010151
   6 H :    0.017378
   7 H :   -0.083836
   8 H :   -0.094780
   9 H :    0.027538
  10 H :    0.010158
  11 H :   -0.020709
  12 H :   -0.020217
  13 H :   -0.016626

  Mayer bond orders larger than 0.100000
B(  0-C ,  1-C ) :   1.2740 B(  0-C , 11-H ) :   0.8263 B(  0-C , 12-H ) :   0.8470
B(  0-C , 13-H ) :   0.8498 B(  1-C ,  2-C ) :   1.0949 B(  1-C ,  3-C ) :   0.1532
B(  1-C ,  9-H ) :   0.8524 B(  1-C , 10-H ) :   0.8367 B(  1-C , 11-H ) :   0.1444
B(  1-C , 12-H ) :   0.1945 B(  1-C , 13-H ) :   0.1850 B(  2-C ,  3-C ) :   1.7488
B(  2-C ,  4-N ) :   1.1739 B(  2-C ,  7-H ) :   0.1114 B(  2-C ,  8-H ) :   0.1517
B(  2-C ,  9-H ) :   0.1133 B(  2-C , 10-H ) :   0.1982 B(  3-C ,  4-N ) :   0.2304
B(  3-C ,  7-H ) :   0.8343 B(  3-C ,  8-H ) :   0.8094 B(  4-N ,  5-H ) :   1.1002
B(  4-N ,  6-H ) :   1.2421 B(  5-H ,  6-H ) :  -0.1573 B(  7-H ,  8-H ) :  -0.1636

Dispersion correction           -0.000198648
FINAL SINGLE POINT ENERGY      -212.302142935060

DIPOLE MOMENT
-------------
                                X             Y             Z
Electronic contribution:     -0.03735       0.65898       3.01661
Nuclear contribution   :     -0.69146      -0.83112      -2.71336
                        -----------------------------------------
Total Dipole Moment    :     -0.72882      -0.17214       0.30325
                        -----------------------------------------
Magnitude (a.u.)       :      0.80794
Magnitude (Debye)      :      2.05363

Rotational constants in cm-1:     0.270661     0.129240     0.102040
Rotational constants in MHz :  8114.202941  3874.518141  3059.074383

                             ****ORCA TERMINATED NORMALLY****
TOTAL RUN TIME: 0 days 0 hours 0 minutes 24 seconds 798 msec
