                         Program Version 5.0.0 -  RELEASE  -
|  1> !M062X D3Zero RIJCOSX def2-SVPD def2/J TightSCF
|  2> *xyz 0 1
|  3> C          1.64703       -2.34528       -5.02041
|  4> C          2.20996       -2.81239       -3.66571
|  5> C          2.48901       -1.66851       -2.73754
|  6> N          3.59631       -0.94761       -2.95225
|  7> C          1.66394       -1.41369       -1.77781
|  8> H          0.81164       -1.96318       -1.70275
|  9> H          1.84550       -0.63508       -1.15875
| 10> H          4.20535       -1.17600       -3.73383
| 11> H          3.81723       -0.12585       -2.40604
| 12> H          3.14311       -3.36280       -3.81152
| 13> H          1.48768       -3.45893       -3.16521
| 14> H          1.46566       -3.19589       -5.64368
| 15> H          2.35406       -1.69850       -5.49654
| 16> H          0.73014       -1.81680       -4.86253
| 17> *
| 18>
| 19> %MaxCore 64000
| 20> %pal nprocs 4
| 21> end
| 22>
| 23> %scf
| 24>   MaxIter 150
| 25> end
| 26>
| 27>
| 28>                          ****END OF INPUT****

CARTESIAN COORDINATES (ANGSTROEM)
---------------------------------
  C      1.647030   -2.345280   -5.020410
  C      2.209960   -2.812390   -3.665710
  C      2.489010   -1.668510   -2.737540
  N      3.596310   -0.947610   -2.952250
  C      1.663940   -1.413690   -1.777810
  H      0.811640   -1.963180   -1.702750
  H      1.845500   -0.635080   -1.158750
  H      4.205350   -1.176000   -3.733830
  H      3.817230   -0.125850   -2.406040
  H      3.143110   -3.362800   -3.811520
  H      1.487680   -3.458930   -3.165210
  H      1.465660   -3.195890   -5.643680
  H      2.354060   -1.698500   -5.496540
  H      0.730140   -1.816800   -4.862530

 Total Charge           Charge          ....    0
 Multiplicity           Mult            ....    1
 Number of Electrons    NEL             ....   40
 Basis Dimension        Dim             ....  172

ORBITAL ENERGIES
----------------

  NO   OCC          E(Eh)            E(eV)
   0   2.0000     -14.760421      -401.6515
   1   2.0000     -10.567966      -287.5690
   2   2.0000     -10.548786      -287.0471
   3   2.0000     -10.536696      -286.7181
   4   2.0000     -10.483973      -285.2834
   5   2.0000      -1.018386       -27.7117
   6   2.0000      -0.868701       -23.6386
   7   2.0000      -0.809105       -22.0169
   8   2.0000      -0.714737       -19.4490
   9   2.0000      -0.640236       -17.4217
  10   2.0000      -0.594031       -16.1644
  11   2.0000      -0.552036       -15.0217
  12   2.0000      -0.502602       -13.6765
  13   2.0000      -0.490633       -13.3508
  14   2.0000      -0.463613       -12.6155
  15   2.0000      -0.449396       -12.2287
  16   2.0000      -0.413084       -11.2406
  17   2.0000      -0.394050       -10.7227
  18   2.0000      -0.391317       -10.6483
  19   2.0000      -0.249496        -6.7891
  20   0.0000       0.036040         0.9807
  21   0.0000       0.065447         1.7809
  22   0.0000       0.073428         1.9981
  23   0.0000       0.076204         2.0736
  24   0.0000       0.094136         2.5616

MULLIKEN ATOMIC CHARGES
-----------------------
   0 C :    0.626182
   1 C :   -0.172432
   2 C :    0.013855
   3 N :    0.068716
   4 C :    0.324970
   5 H :   -0.130884
   6 H :   -0.382198
   7 H :   -0.103474
   8 H :   -0.179252
   9 H :   -0.064723
  10 H :    0.081103
  11 H :    0.002341
  12 H :   -0.034807
  13 H :   -0.049396
Sum of atomic charges:   -0.0000000

LOEWDIN ATOMIC CHARGES
----------------------
   0 C :    0.135917
   1 C :   -0.032395
   2 C :   -0.271642
   3 N :    0.162385
   4 C :    0.172092
   5 H :   -0.072654
   6 H :   -0.077905
   7 H :   -0.000281
   8 H :    0.003419
   9 H :    0.021073
  10 H :    0.019885
  11 H :   -0.020478
  12 H :   -0.025376
  13 H :   -0.014039

  Mayer bond orders larger than 0.100000
B(  0-C ,  1-C ) :   1.2380 B(  0-C , 11-H ) :   0.8346 B(  0-C , 12-H ) :   0.7983
B(  0-C , 13-H ) :   0.8665 B(  1-C ,  2-C ) :   1.1885 B(  1-C ,  4-C ) :   0.1200
B(  1-C ,  9-H ) :   0.8915 B(  1-C , 10-H ) :   0.8534 B(  1-C , 11-H ) :   0.1551
B(  1-C , 12-H ) :   0.2118 B(  1-C , 13-H ) :   0.1688 B(  2-C ,  3-N ) :   1.1130
B(  2-C ,  4-C ) :   1.7538 B(  2-C ,  5-H ) :   0.1051 B(  2-C ,  6-H ) :   0.2436
B(  2-C ,  9-H ) :   0.1605 B(  2-C , 10-H ) :   0.1631 B(  3-N ,  4-C ) :   0.2291
B(  3-N ,  7-H ) :   1.1529 B(  3-N ,  8-H ) :   1.2465 B(  4-C ,  5-H ) :   0.9580
B(  4-C ,  6-H ) :   0.6730 B(  7-H ,  8-H ) :  -0.1639

Dispersion correction           -0.000198449
FINAL SINGLE POINT ENERGY      -212.306465200931

DIPOLE MOMENT
-------------
                                X             Y             Z
Electronic contribution:      1.63179       1.07027       2.00610
Nuclear contribution   :     -1.13902      -0.93906      -2.44135
                        -----------------------------------------
Total Dipole Moment    :      0.49277       0.13121      -0.43525
                        -----------------------------------------
Magnitude (a.u.)       :      0.67043
Magnitude (Debye)      :      1.70410

Rotational constants in cm-1:     0.267243     0.130607     0.102304
Rotational constants in MHz :  8011.748167  3915.504600  3066.999841

                             ****ORCA TERMINATED NORMALLY****
TOTAL RUN TIME: 0 days 0 hours 0 minutes 22 seconds 920 msec
