                         Program Version 5.0.0 -  RELEASE  -
|  1> !CAM-B3LYP RIJCOSX def2-TZVP def2/J TightSCF
|  2> *xyz -1 1
|  3> C          0.96805        1.63064       -3.71575
|  4> C         -0.50835        1.72268       -4.12430
|  5> S         -1.32861        0.14674       -4.43578
|  6> H         -0.59151        2.29496       -5.04722
|  7> H         -1.11411        2.23561       -3.37436
|  8> O         -2.57135        0.47573       -5.06834
|  9> O         -1.51496       -0.40051       -3.06342
| 10> O         -0.37793       -0.62756       -5.20114
| 11> H          1.51840        1.12197       -4.47946
| 12> H          1.05062        1.08971       -2.79625
| 13> H          1.36450        2.61606       -3.58668
| 14> *
| 15> %MaxCore 64000
| 16>
| 17> %pal nprocs 4
| 18> end
| 19>
| 20> %scf
| 21>   MaxIter 150
| 22> end
| 23>
| 24>
| 25>                          ****END OF INPUT****

CARTESIAN COORDINATES (ANGSTROEM)
---------------------------------
  C      0.968050    1.630640   -3.715750
  C     -0.508350    1.722680   -4.124300
  S     -1.328610    0.146740   -4.435780
  H     -0.591510    2.294960   -5.047220
  H     -1.114110    2.235610   -3.374360
  O     -2.571350    0.475730   -5.068340
  O     -1.514960   -0.400510   -3.063420
  O     -0.377930   -0.627560   -5.201140
  H      1.518400    1.121970   -4.479460
  H      1.050620    1.089710   -2.796250
  H      1.364500    2.616060   -3.586680

 Total Charge           Charge          ....   -1
 Multiplicity           Mult            ....    1
 Number of Electrons    NEL             ....   58
 Basis Dimension        Dim             ....  222

ORBITAL ENERGIES
----------------

  NO   OCC          E(Eh)            E(eV)
   0   2.0000     -88.911152     -2419.3954
   1   2.0000     -18.975861      -516.3594
   2   2.0000     -18.972312      -516.2629
   3   2.0000     -18.955475      -515.8047
   4   2.0000     -10.099161      -274.8122
   5   2.0000     -10.094607      -274.6882
   6   2.0000      -7.954374      -216.4495
   7   2.0000      -5.919062      -161.0659
   8   2.0000      -5.917794      -161.0314
   9   2.0000      -5.917537      -161.0244
  10   2.0000      -1.005060       -27.3491
  11   2.0000      -0.875716       -23.8294
  12   2.0000      -0.844633       -22.9836
  13   2.0000      -0.708549       -19.2806
  14   2.0000      -0.580616       -15.7994
  15   2.0000      -0.449928       -12.2432
  16   2.0000      -0.383335       -10.4311
  17   2.0000      -0.382468       -10.4075
  18   2.0000      -0.340575        -9.2675
  19   2.0000      -0.327575        -8.9138
  20   2.0000      -0.320287        -8.7155
  21   2.0000      -0.290989        -7.9182
  22   2.0000      -0.276270        -7.5177
  23   2.0000      -0.217065        -5.9066
  24   2.0000      -0.216363        -5.8875
  25   2.0000      -0.182053        -4.9539
  26   2.0000      -0.170029        -4.6267
  27   2.0000      -0.157077        -4.2743
  28   2.0000      -0.125624        -3.4184
  29   0.0000       0.210929         5.7397
  30   0.0000       0.253708         6.9037
  31   0.0000       0.271982         7.4010
  32   0.0000       0.276415         7.5216
  33   0.0000       0.305332         8.3085

MULLIKEN ATOMIC CHARGES
-----------------------
   0 C :   -0.332088
   1 C :   -0.230658
   2 S :    0.829058
   3 H :    0.070216
   4 H :    0.079795
   5 O :   -0.538665
   6 O :   -0.607552
   7 O :   -0.557739
   8 H :    0.114308
   9 H :    0.107583
  10 H :    0.065743
Sum of atomic charges:   -1.0000000

LOEWDIN ATOMIC CHARGES
----------------------
   0 C :   -0.341638
   1 C :   -0.427900
   2 S :    0.418570
   3 H :    0.112802
   4 H :    0.116709
   5 O :   -0.371475
   6 O :   -0.446796
   7 O :   -0.385062
   8 H :    0.113571
   9 H :    0.113209
  10 H :    0.098009

  Mayer bond orders larger than 0.100000
B(  0-C ,  1-C ) :   0.9381 B(  0-C ,  8-H ) :   0.9763 B(  0-C ,  9-H ) :   0.9782
B(  0-C , 10-H ) :   0.9700 B(  1-C ,  2-S ) :   0.8843 B(  1-C ,  3-H ) :   0.9595
B(  1-C ,  4-H ) :   0.9677 B(  2-S ,  5-O ) :   1.8433 B(  2-S ,  6-O ) :   1.7437
B(  2-S ,  7-O ) :   1.7759

FINAL SINGLE POINT ENERGY      -703.201135995529

DIPOLE MOMENT
-------------
                                X             Y             Z
Electronic contribution:     -5.61179      -5.31453      -1.94320
Nuclear contribution   :      6.64523       6.80157       2.07300
                        -----------------------------------------
Total Dipole Moment    :      1.03344       1.48704       0.12980
                        -----------------------------------------
Magnitude (a.u.)       :      1.81552
Magnitude (Debye)      :      4.61469

Rotational constants in cm-1:     0.163070     0.082807     0.081541
Rotational constants in MHz :  4888.719902  2482.497026  2444.541148

                             ****ORCA TERMINATED NORMALLY****
TOTAL RUN TIME: 0 days 0 hours 0 minutes 34 seconds 178 msec
