                         Program Version 5.0.0 -  RELEASE  -
|  1> !CAM-B3LYP RIJCOSX def2-TZVP def2/J TightSCF
|  2> *xyz 1 1
|  3> C          1.36401        0.46874       -2.81376
|  4> N          0.42884        0.32140       -1.65531
|  5> C          0.96805        1.63064       -3.71575
|  6> H          0.74858       -0.40054       -1.00134
|  7> H         -0.46105        0.02333       -2.07773
|  8> H          0.31026        1.20137       -1.13495
|  9> H          1.29485       -0.46874       -3.36468
| 10> H          2.37622        0.59740       -2.43149
| 11> H          1.65923        1.70213       -4.52942
| 12> H          0.98421        2.54058       -3.15304
| 13> H         -0.01744        1.46536       -4.09838
| 14> *
| 15> %MaxCore 64000
| 16>
| 17> %pal nprocs 4
| 18> end
| 19>
| 20> %scf
| 21>   MaxIter 150
| 22> end
| 23>
| 24>
| 25>                          ****END OF INPUT****

CARTESIAN COORDINATES (ANGSTROEM)
---------------------------------
  C      1.364010    0.468740   -2.813760
  N      0.428840    0.321400   -1.655310
  C      0.968050    1.630640   -3.715750
  H      0.748580   -0.400540   -1.001340
  H     -0.461050    0.023330   -2.077730
  H      0.310260    1.201370   -1.134950
  H      1.294850   -0.468740   -3.364680
  H      2.376220    0.597400   -2.431490
  H      1.659230    1.702130   -4.529420
  H      0.984210    2.540580   -3.153040
  H     -0.017440    1.465360   -4.098380

 Total Charge           Charge          ....    1
 Multiplicity           Mult            ....    1
 Number of Electrons    NEL             ....   26
 Basis Dimension        Dim             ....  141

ORBITAL ENERGIES
----------------

  NO   OCC          E(Eh)            E(eV)
   0   2.0000     -14.724845      -400.6834
   1   2.0000     -10.498836      -285.6878
   2   2.0000     -10.418330      -283.4972
   3   2.0000      -1.299080       -35.3498
   4   2.0000      -1.047798       -28.5120
   5   2.0000      -0.921330       -25.0707
   6   2.0000      -0.877118       -23.8676
   7   2.0000      -0.860571       -23.4173
   8   2.0000      -0.763477       -20.7753
   9   2.0000      -0.714777       -19.4501
  10   2.0000      -0.651695       -17.7335
  11   2.0000      -0.634656       -17.2699
  12   2.0000      -0.619689       -16.8626
  13   0.0000      -0.158061        -4.3011
  14   0.0000      -0.094871        -2.5816
  15   0.0000      -0.090608        -2.4656
  16   0.0000      -0.071639        -1.9494
  17   0.0000      -0.033405        -0.9090

MULLIKEN ATOMIC CHARGES
-----------------------
   0 C :   -0.214631
   1 N :   -0.285108
   2 C :   -0.351918
   3 H :    0.331707
   4 H :    0.326754
   5 H :    0.324779
   6 H :    0.193231
   7 H :    0.193516
   8 H :    0.183483
   9 H :    0.150680
  10 H :    0.147507
Sum of atomic charges:    1.0000000

LOEWDIN ATOMIC CHARGES
----------------------
   0 C :   -0.274912
   1 N :    0.167696
   2 C :   -0.276944
   3 H :    0.221811
   4 H :    0.227544
   5 H :    0.221939
   6 H :    0.152906
   7 H :    0.151949
   8 H :    0.148247
   9 H :    0.130118
  10 H :    0.129647

  Mayer bond orders larger than 0.100000
B(  0-C ,  1-N ) :   0.8461 B(  0-C ,  2-C ) :   0.9714 B(  0-C ,  6-H ) :   0.9567
B(  0-C ,  7-H ) :   0.9543 B(  1-N ,  3-H ) :   0.8794 B(  1-N ,  4-H ) :   0.8823
B(  1-N ,  5-H ) :   0.8763 B(  2-C ,  8-H ) :   0.9620 B(  2-C ,  9-H ) :   0.9608
B(  2-C , 10-H ) :   0.9585

FINAL SINGLE POINT ENERGY      -135.506679746958

DIPOLE MOMENT
-------------
                                X             Y             Z
Electronic contribution:     -0.34665      -0.95460       1.58076
Nuclear contribution   :     -0.20470       0.31427      -0.31587
                        -----------------------------------------
Total Dipole Moment    :     -0.55135      -0.64033       1.26490
                        -----------------------------------------
Magnitude (a.u.)       :      1.52118
Magnitude (Debye)      :      3.86652

Rotational constants in cm-1:     1.011480     0.279280     0.248378
Rotational constants in MHz : 30323.408050  8372.602834  7446.185305

                             ****ORCA TERMINATED NORMALLY****
TOTAL RUN TIME: 0 days 0 hours 0 minutes 16 seconds 449 msec
