                         Program Version 5.0.0 -  RELEASE  -
|  1> !CAM-B3LYP RIJCOSX def2-TZVP def2/J TightSCF xyzfile
|  2>
|  3> *xyzfile 0 1 B.xyz
|  4>
|  5> %MaxCore 64000
|  6>
|  7> %pal nprocs 18
|  8> end
|  9>
| 10> %scf
| 11>   MaxIter 150
| 12> end
| 13>
| 14>
| 15>                          ****END OF INPUT****

CARTESIAN COORDINATES (ANGSTROEM)
---------------------------------
  C      1.364014    0.468742   -2.813764
  N      0.428844    0.321402   -1.655312
  C      0.968045    1.630639   -3.715749
  C     -0.508347    1.722679   -4.124300
  S     -1.328608    0.146737   -4.435781
  H     -0.591511    2.294958   -5.047219
  H     -1.114114    2.235610   -3.374362
  H      0.748578   -0.400542   -1.001345
  H     -0.461053    0.023332   -2.077731
  H      0.310258    1.201375   -1.134948
  O     -2.571347    0.475733   -5.068341
  O     -1.514963   -0.400512   -3.063420
  H      1.294847   -0.468742   -3.364684
  H      2.376216    0.597400   -2.431495
  H      1.578688    1.520652   -4.612733
  H      1.266653    2.575988   -3.250448
  O     -0.377928   -0.627558   -5.201141

 Total Charge           Charge          ....    0
 Multiplicity           Mult            ....    1
 Number of Electrons    NEL             ....   74
 Basis Dimension        Dim             ....  308

ORBITAL ENERGIES
----------------

  NO   OCC          E(Eh)            E(eV)
   0   2.0000     -89.082314     -2424.0530
   1   2.0000     -19.151571      -521.1407
   2   2.0000     -19.135729      -520.7097
   3   2.0000     -19.133109      -520.6384
   4   2.0000     -14.524033      -395.2190
   5   2.0000     -10.336550      -281.2718
   6   2.0000     -10.286692      -279.9151
   7   2.0000     -10.265132      -279.3285
   8   2.0000      -8.125789      -221.1140
   9   2.0000      -6.090776      -165.7384
  10   2.0000      -6.089610      -165.7067
  11   2.0000      -6.088168      -165.6675
  12   2.0000      -1.177416       -32.0391
  13   2.0000      -1.115265       -30.3479
  14   2.0000      -1.036631       -28.2082
  15   2.0000      -1.035137       -28.1675
  16   2.0000      -0.909491       -24.7485
  17   2.0000      -0.820075       -22.3154
  18   2.0000      -0.731796       -19.9132
  19   2.0000      -0.699567       -19.0362
  20   2.0000      -0.685479       -18.6528
  21   2.0000      -0.618898       -16.8411
  22   2.0000      -0.595851       -16.2139
  23   2.0000      -0.559726       -15.2309
  24   2.0000      -0.541819       -14.7436
  25   2.0000      -0.530081       -14.4242
  26   2.0000      -0.498992       -13.5783
  27   2.0000      -0.489882       -13.3304
  28   2.0000      -0.469640       -12.7795
  29   2.0000      -0.459024       -12.4907
  30   2.0000      -0.442912       -12.0523
  31   2.0000      -0.391297       -10.6477
  32   2.0000      -0.382648       -10.4124
  33   2.0000      -0.351413        -9.5624
  34   2.0000      -0.340661        -9.2698
  35   2.0000      -0.331006        -9.0071
  36   2.0000      -0.300590        -8.1795
  37   0.0000      -0.001803        -0.0491
  38   0.0000       0.047840         1.3018
  39   0.0000       0.063537         1.7289
  40   0.0000       0.094670         2.5761
  41   0.0000       0.104886         2.8541

MULLIKEN ATOMIC CHARGES
-----------------------
   0 C :   -0.232545
   1 N :   -0.299991
   2 C :   -0.217027
   3 C :   -0.331263
   4 S :    0.864359
   5 H :    0.146882
   6 H :    0.126589
   7 H :    0.283235
   8 H :    0.320059
   9 H :    0.273623
  10 O :   -0.476322
  11 O :   -0.580277
  12 H :    0.213929
  13 H :    0.149246
  14 H :    0.142585
  15 H :    0.125758
  16 O :   -0.508840
Sum of atomic charges:   -0.0000000

LOEWDIN ATOMIC CHARGES
----------------------
   0 C :   -0.273314
   1 N :    0.141793
   2 C :   -0.290851
   3 C :   -0.391252
   4 S :    0.451855
   5 H :    0.141564
   6 H :    0.127534
   7 H :    0.198681
   8 H :    0.141122
   9 H :    0.197643
  10 O :   -0.311080
  11 O :   -0.377129
  12 H :    0.154588
  13 H :    0.134056
  14 H :    0.158715
  15 H :    0.137963
  16 O :   -0.341888

  Mayer bond orders larger than 0.100000
B(  0-C ,  1-N ) :   0.8454 B(  0-C ,  2-C ) :   0.9513 B(  0-C , 12-H ) :   0.9508
B(  0-C , 13-H ) :   0.9713 B(  1-N ,  7-H ) :   0.9035 B(  1-N ,  8-H ) :   0.7196
B(  1-N ,  9-H ) :   0.9001 B(  2-C ,  3-C ) :   0.9269 B(  2-C , 14-H ) :   0.9628
B(  2-C , 15-H ) :   0.9696 B(  3-C ,  4-S ) :   0.9049 B(  3-C ,  5-H ) :   0.9617
B(  3-C ,  6-H ) :   0.9620 B(  4-S , 10-O ) :   1.9324 B(  4-S , 11-O ) :   1.4580
B(  4-S , 16-O ) :   1.7829 B(  8-H , 11-O ) :   0.2567

FINAL SINGLE POINT ENERGY      -798.370244055823

DIPOLE MOMENT
-------------
                                X             Y             Z
Electronic contribution:     -6.89424      -4.13462      -4.27234
Nuclear contribution   :      9.95459       5.57517       7.68169
                        -----------------------------------------
Total Dipole Moment    :      3.06035       1.44055       3.40934
                        -----------------------------------------
Magnitude (a.u.)       :      4.80256
Magnitude (Debye)      :     12.20713

Rotational constants in cm-1:     0.102119     0.045768     0.041299
Rotational constants in MHz :  3061.441288  1372.093000  1238.124534

                             ****ORCA TERMINATED NORMALLY****
TOTAL RUN TIME: 0 days 0 hours 0 minutes 32 seconds 148 msec
