                         Program Version 5.0.0 -  RELEASE  -
|  1> !CAM-B3LYP RIJCOSX def2-TZVP def2/J TightSCF
|  2> *xyz 0 1
|  3> C          0.96805        1.63064       -3.71575
|  4> C         -0.50835        1.72268       -4.12430
|  5> S         -1.32861        0.14674       -4.43578
|  6> H         -0.59151        2.29496       -5.04722
|  7> H         -1.11411        2.23561       -3.37436
|  8> F         -2.57135        0.47573       -5.06834
|  9> O         -1.51496       -0.40051       -3.06342
| 10> O         -0.37793       -0.62756       -5.20114
| 11> H          1.51840        1.12197       -4.47946
| 12> H          1.05062        1.08971       -2.79625
| 13> H          1.36450        2.61606       -3.58668
| 14> *
| 15> %MaxCore 64000
| 16>
| 17> %pal nprocs 4
| 18> end
| 19>
| 20> %scf
| 21>   MaxIter 150
| 22> end
| 23>
| 24>
| 25>                          ****END OF INPUT****

CARTESIAN COORDINATES (ANGSTROEM)
---------------------------------
  C      0.968050    1.630640   -3.715750
  C     -0.508350    1.722680   -4.124300
  S     -1.328610    0.146740   -4.435780
  H     -0.591510    2.294960   -5.047220
  H     -1.114110    2.235610   -3.374360
  F     -2.571350    0.475730   -5.068340
  O     -1.514960   -0.400510   -3.063420
  O     -0.377930   -0.627560   -5.201140
  H      1.518400    1.121970   -4.479460
  H      1.050620    1.089710   -2.796250
  H      1.364500    2.616060   -3.586680

 Total Charge           Charge          ....    0
 Multiplicity           Mult            ....    1
 Number of Electrons    NEL             ....   58
 Basis Dimension        Dim             ....  222

ORBITAL ENERGIES
----------------

  NO   OCC          E(Eh)            E(eV)
   0   2.0000     -89.179351     -2426.6935
   1   2.0000     -24.885994      -677.1823
   2   2.0000     -19.212761      -522.8058
   3   2.0000     -19.196444      -522.3618
   4   2.0000     -10.304251      -280.3929
   5   2.0000     -10.259935      -279.1870
   6   2.0000      -8.223163      -223.7636
   7   2.0000      -6.190915      -168.4634
   8   2.0000      -6.184547      -168.2901
   9   2.0000      -6.184195      -168.2805
  10   2.0000      -1.478910       -40.2432
  11   2.0000      -1.187113       -32.3030
  12   2.0000      -1.084020       -29.4977
  13   2.0000      -0.901446       -24.5296
  14   2.0000      -0.819886       -22.3102
  15   2.0000      -0.755731       -20.5645
  16   2.0000      -0.671750       -18.2793
  17   2.0000      -0.669215       -18.2103
  18   2.0000      -0.629710       -17.1353
  19   2.0000      -0.563729       -15.3399
  20   2.0000      -0.553707       -15.0671
  21   2.0000      -0.511669       -13.9232
  22   2.0000      -0.498234       -13.5576
  23   2.0000      -0.474842       -12.9211
  24   2.0000      -0.454911       -12.3788
  25   2.0000      -0.452403       -12.3105
  26   2.0000      -0.401358       -10.9215
  27   2.0000      -0.384569       -10.4647
  28   2.0000      -0.371841       -10.1183
  29   0.0000       0.059891         1.6297
  30   0.0000       0.077442         2.1073
  31   0.0000       0.102731         2.7954
  32   0.0000       0.109289         2.9739
  33   0.0000       0.118853         3.2342

MULLIKEN ATOMIC CHARGES
-----------------------
   0 C :   -0.352163
   1 C :   -0.245309
   2 S :    0.864487
   3 H :    0.129996
   4 H :    0.146189
   5 F :   -0.093812
   6 O :   -0.458749
   7 O :   -0.411932
   8 H :    0.145914
   9 H :    0.145790
  10 H :    0.129589
Sum of atomic charges:    0.0000000

LOEWDIN ATOMIC CHARGES
----------------------
   0 C :   -0.301292
   1 C :   -0.395193
   2 S :    0.539050
   3 H :    0.131779
   4 H :    0.137800
   5 F :    0.108135
   6 O :   -0.327304
   7 O :   -0.270144
   8 H :    0.126092
   9 H :    0.127024
  10 H :    0.124053

  Mayer bond orders larger than 0.100000
B(  0-C ,  1-C ) :   0.9526 B(  0-C ,  8-H ) :   0.9693 B(  0-C ,  9-H ) :   0.9709
B(  0-C , 10-H ) :   0.9634 B(  1-C ,  2-S ) :   0.9208 B(  1-C ,  3-H ) :   0.9403
B(  1-C ,  4-H ) :   0.9433 B(  2-S ,  5-F ) :   1.1539 B(  2-S ,  6-O ) :   1.8805
B(  2-S ,  7-O ) :   1.9203

FINAL SINGLE POINT ENERGY      -727.717071554502

DIPOLE MOMENT
-------------
                                X             Y             Z
Electronic contribution:     -8.34710      -5.12665      -3.25086
Nuclear contribution   :      8.31000       6.74109       2.87442
                        -----------------------------------------
Total Dipole Moment    :     -0.03710       1.61444      -0.37644
                        -----------------------------------------
Magnitude (a.u.)       :      1.65816
Magnitude (Debye)      :      4.21470

Rotational constants in cm-1:     0.158705     0.080192     0.078179
Rotational constants in MHz :  4757.865601  2404.095079  2343.752507

                             ****ORCA TERMINATED NORMALLY****
TOTAL RUN TIME: 0 days 0 hours 0 minutes 39 seconds 355 msec
