                         Program Version 5.0.0 -  RELEASE  -
|  1> !CAM-B3LYP RIJCOSX def2-TZVP def2/J TightSCF
|  2> *xyz 0 1
|  3> C          1.36401        0.46874       -2.81376
|  4> C          0.42884        0.32140       -1.65531
|  5> C          0.96805        1.63064       -3.71575
|  6> H          0.74858       -0.40054       -1.00134
|  7> H         -0.46105        0.02333       -2.07773
|  8> H          0.31026        1.20137       -1.13495
|  9> H          1.29485       -0.46874       -3.36468
| 10> H          2.37622        0.59740       -2.43149
| 11> H          1.65923        1.70213       -4.52942
| 12> H          0.98421        2.54058       -3.15304
| 13> H         -0.01744        1.46536       -4.09838
| 14> *
| 15> %MaxCore 64000
| 16>
| 17> %pal nprocs 4
| 18> end
| 19>
| 20> %scf
| 21>   MaxIter 150
| 22> end
| 23>
| 24>
| 25>                          ****END OF INPUT****

CARTESIAN COORDINATES (ANGSTROEM)
---------------------------------
  C      1.364010    0.468740   -2.813760
  C      0.428840    0.321400   -1.655310
  C      0.968050    1.630640   -3.715750
  H      0.748580   -0.400540   -1.001340
  H     -0.461050    0.023330   -2.077730
  H      0.310260    1.201370   -1.134950
  H      1.294850   -0.468740   -3.364680
  H      2.376220    0.597400   -2.431490
  H      1.659230    1.702130   -4.529420
  H      0.984210    2.540580   -3.153040
  H     -0.017440    1.465360   -4.098380

 Total Charge           Charge          ....    0
 Multiplicity           Mult            ....    1
 Number of Electrons    NEL             ....   26
 Basis Dimension        Dim             ....  141

ORBITAL ENERGIES
----------------

  NO   OCC          E(Eh)            E(eV)
   0   2.0000     -10.228800      -278.3398
   1   2.0000     -10.219782      -278.0944
   2   2.0000     -10.202339      -277.6198
   3   2.0000      -0.874755       -23.8033
   4   2.0000      -0.770330       -20.9617
   5   2.0000      -0.661046       -17.9880
   6   2.0000      -0.542859       -14.7719
   7   2.0000      -0.515297       -14.0220
   8   2.0000      -0.470325       -12.7982
   9   2.0000      -0.458332       -12.4718
  10   2.0000      -0.401463       -10.9244
  11   2.0000      -0.397332       -10.8120
  12   2.0000      -0.393543       -10.7088
  13   0.0000       0.077045         2.0965
  14   0.0000       0.120894         3.2897
  15   0.0000       0.127852         3.4790
  16   0.0000       0.132712         3.6113
  17   0.0000       0.151170         4.1135

MULLIKEN ATOMIC CHARGES
-----------------------
   0 C :   -0.156821
   1 C :   -0.324027
   2 C :   -0.330898
   3 H :    0.112075
   4 H :    0.103185
   5 H :    0.102557
   6 H :    0.085791
   7 H :    0.086665
   8 H :    0.112028
   9 H :    0.105556
  10 H :    0.103889
Sum of atomic charges:   -0.0000000

LOEWDIN ATOMIC CHARGES
----------------------
   0 C :   -0.319655
   1 C :   -0.302480
   2 C :   -0.306240
   3 H :    0.106721
   4 H :    0.112501
   5 H :    0.106341
   6 H :    0.131635
   7 H :    0.127464
   8 H :    0.114533
   9 H :    0.114447
  10 H :    0.114733

  Mayer bond orders larger than 0.100000
B(  0-C ,  1-C ) :   0.9495 B(  0-C ,  2-C ) :   0.9588 B(  0-C ,  6-H ) :   0.9789
B(  0-C ,  7-H ) :   0.9783 B(  1-C ,  3-H ) :   0.9863 B(  1-C ,  4-H ) :   0.9822
B(  1-C ,  5-H ) :   0.9820 B(  2-C ,  8-H ) :   0.9833 B(  2-C ,  9-H ) :   0.9797
B(  2-C , 10-H ) :   0.9779

FINAL SINGLE POINT ENERGY      -119.095202289472

DIPOLE MOMENT
-------------
                                X             Y             Z
Electronic contribution:      0.36915      -0.18531      -0.01639
Nuclear contribution   :     -0.35842       0.15752       0.02695
                        -----------------------------------------
Total Dipole Moment    :      0.01073      -0.02779       0.01057
                        -----------------------------------------
Magnitude (a.u.)       :      0.03161
Magnitude (Debye)      :      0.08034

Rotational constants in cm-1:     1.019891     0.293671     0.260247
Rotational constants in MHz : 30575.551403  8804.039097  7802.009261

                             ****ORCA TERMINATED NORMALLY****
TOTAL RUN TIME: 0 days 0 hours 0 minutes 16 seconds 812 msec
