                         Program Version 5.0.0 -  RELEASE  -
|  1> !CAM-B3LYP RIJCOSX def2-TZVP def2/J TightSCF
|  2> *xyz 0 1
|  3> C          0.96805        1.63064       -3.71575
|  4> C         -0.50835        1.72268       -4.12430
|  5> S         -1.32861        0.14674       -4.43578
|  6> H         -0.59151        2.29496       -5.04722
|  7> H         -1.11411        2.23561       -3.37436
|  8> O         -2.57135        0.47573       -5.06834
|  9> F         -1.51496       -0.40051       -3.06342
| 10> O         -0.37793       -0.62756       -5.20114
| 11> H          1.51840        1.12197       -4.47946
| 12> H          1.05062        1.08971       -2.79625
| 13> H          1.36450        2.61606       -3.58668
| 14> *
| 15> %MaxCore 64000
| 16>
| 17> %pal nprocs 4
| 18> end
| 19>
| 20> %scf
| 21>   MaxIter 150
| 22> end
| 23>
| 24>
| 25>                          ****END OF INPUT****

CARTESIAN COORDINATES (ANGSTROEM)
---------------------------------
  C      0.968050    1.630640   -3.715750
  C     -0.508350    1.722680   -4.124300
  S     -1.328610    0.146740   -4.435780
  H     -0.591510    2.294960   -5.047220
  H     -1.114110    2.235610   -3.374360
  O     -2.571350    0.475730   -5.068340
  F     -1.514960   -0.400510   -3.063420
  O     -0.377930   -0.627560   -5.201140
  H      1.518400    1.121970   -4.479460
  H      1.050620    1.089710   -2.796250
  H      1.364500    2.616060   -3.586680

 Total Charge           Charge          ....    0
 Multiplicity           Mult            ....    1
 Number of Electrons    NEL             ....   58
 Basis Dimension        Dim             ....  222

ORBITAL ENERGIES
----------------

  NO   OCC          E(Eh)            E(eV)
   0   2.0000     -89.176583     -2426.6182
   1   2.0000     -24.856607      -676.3827
   2   2.0000     -19.216197      -522.8993
   3   2.0000     -19.212668      -522.8033
   4   2.0000     -10.303508      -280.3727
   5   2.0000     -10.261711      -279.2354
   6   2.0000      -8.220404      -223.6886
   7   2.0000      -6.188369      -168.3941
   8   2.0000      -6.181916      -168.2185
   9   2.0000      -6.181311      -168.2020
  10   2.0000      -1.431716       -38.9590
  11   2.0000      -1.202762       -32.7288
  12   2.0000      -1.110583       -30.2205
  13   2.0000      -0.903340       -24.5811
  14   2.0000      -0.800152       -21.7732
  15   2.0000      -0.747977       -20.3535
  16   2.0000      -0.652762       -17.7626
  17   2.0000      -0.637790       -17.3551
  18   2.0000      -0.621803       -16.9201
  19   2.0000      -0.565250       -15.3812
  20   2.0000      -0.549200       -14.9445
  21   2.0000      -0.528555       -14.3827
  22   2.0000      -0.503715       -13.7068
  23   2.0000      -0.475670       -12.9436
  24   2.0000      -0.470637       -12.8067
  25   2.0000      -0.450523       -12.2593
  26   2.0000      -0.411686       -11.2025
  27   2.0000      -0.399203       -10.8629
  28   2.0000      -0.391939       -10.6652
  29   0.0000       0.054220         1.4754
  30   0.0000       0.089168         2.4264
  31   0.0000       0.099820         2.7162
  32   0.0000       0.108911         2.9636
  33   0.0000       0.124355         3.3839

MULLIKEN ATOMIC CHARGES
-----------------------
   0 C :   -0.347406
   1 C :   -0.262754
   2 S :    0.869515
   3 H :    0.156727
   4 H :    0.142435
   5 O :   -0.403193
   6 F :   -0.140003
   7 O :   -0.421637
   8 H :    0.151971
   9 H :    0.124277
  10 H :    0.130070
Sum of atomic charges:    0.0000000

LOEWDIN ATOMIC CHARGES
----------------------
   0 C :   -0.313121
   1 C :   -0.390936
   2 S :    0.547660
   3 H :    0.146622
   4 H :    0.135547
   5 O :   -0.260440
   6 F :    0.038698
   7 O :   -0.273255
   8 H :    0.126166
   9 H :    0.119627
  10 H :    0.123432

  Mayer bond orders larger than 0.100000
B(  0-C ,  1-C ) :   0.9400 B(  0-C ,  8-H ) :   0.9678 B(  0-C ,  9-H ) :   0.9727
B(  0-C , 10-H ) :   0.9657 B(  1-C ,  2-S ) :   0.9144 B(  1-C ,  3-H ) :   0.9467
B(  1-C ,  4-H ) :   0.9500 B(  2-S ,  5-O ) :   1.9651 B(  2-S ,  6-F ) :   1.0918
B(  2-S ,  7-O ) :   1.9166

FINAL SINGLE POINT ENERGY      -727.741492138599

DIPOLE MOMENT
-------------
                                X             Y             Z
Electronic contribution:     -6.54999      -6.62349       0.18951
Nuclear contribution   :      7.20921       7.65416       0.78523
                        -----------------------------------------
Total Dipole Moment    :      0.65922       1.03067       0.97474
                        -----------------------------------------
Magnitude (a.u.)       :      1.56428
Magnitude (Debye)      :      3.97608

Rotational constants in cm-1:     0.153780     0.081282     0.079816
Rotational constants in MHz :  4610.199589  2436.778679  2392.820729

                             ****ORCA TERMINATED NORMALLY****
TOTAL RUN TIME: 0 days 0 hours 0 minutes 37 seconds 466 msec
