                         Program Version 5.0.0 -  RELEASE  -
|  1> !CAM-B3LYP RIJCOSX def2-TZVP def2/J TightSCF
|  2> *xyz 0 1
|  3> C          0.96805        1.63064       -3.71575
|  4> C         -0.50835        1.72268       -4.12430
|  5> S         -1.32861        0.14674       -4.43578
|  6> H         -0.59151        2.29496       -5.04722
|  7> H         -1.11411        2.23561       -3.37436
|  8> O         -2.57135        0.47573       -5.06834
|  9> O         -1.51496       -0.40051       -3.06342
| 10> F         -0.37793       -0.62756       -5.20114
| 11> H          1.51840        1.12197       -4.47946
| 12> H          1.05062        1.08971       -2.79625
| 13> H          1.36450        2.61606       -3.58668
| 14> *
| 15> %MaxCore 64000
| 16>
| 17> %pal nprocs 4
| 18> end
| 19>
| 20> %scf
| 21>   MaxIter 150
| 22> end
| 23>
| 24>
| 25>                          ****END OF INPUT****

CARTESIAN COORDINATES (ANGSTROEM)
---------------------------------
  C      0.968050    1.630640   -3.715750
  C     -0.508350    1.722680   -4.124300
  S     -1.328610    0.146740   -4.435780
  H     -0.591510    2.294960   -5.047220
  H     -1.114110    2.235610   -3.374360
  O     -2.571350    0.475730   -5.068340
  O     -1.514960   -0.400510   -3.063420
  F     -0.377930   -0.627560   -5.201140
  H      1.518400    1.121970   -4.479460
  H      1.050620    1.089710   -2.796250
  H      1.364500    2.616060   -3.586680

 Total Charge           Charge          ....    0
 Multiplicity           Mult            ....    1
 Number of Electrons    NEL             ....   58
 Basis Dimension        Dim             ....  222

ORBITAL ENERGIES
----------------

  NO   OCC          E(Eh)            E(eV)
   0   2.0000     -89.178600     -2426.6731
   1   2.0000     -24.879730      -677.0119
   2   2.0000     -19.216623      -522.9109
   3   2.0000     -19.196587      -522.3657
   4   2.0000     -10.304149      -280.3902
   5   2.0000     -10.265396      -279.3356
   6   2.0000      -8.222437      -223.7439
   7   2.0000      -6.190379      -168.4488
   8   2.0000      -6.183736      -168.2680
   9   2.0000      -6.183416      -168.2593
  10   2.0000      -1.468353       -39.9559
  11   2.0000      -1.193112       -32.4662
  12   2.0000      -1.086916       -29.5765
  13   2.0000      -0.905550       -24.6413
  14   2.0000      -0.812765       -22.1165
  15   2.0000      -0.758168       -20.6308
  16   2.0000      -0.675036       -18.3687
  17   2.0000      -0.663592       -18.0573
  18   2.0000      -0.620877       -16.8949
  19   2.0000      -0.565462       -15.3870
  20   2.0000      -0.548328       -14.9208
  21   2.0000      -0.521778       -14.1983
  22   2.0000      -0.507197       -13.8015
  23   2.0000      -0.479651       -13.0520
  24   2.0000      -0.464278       -12.6337
  25   2.0000      -0.450952       -12.2710
  26   2.0000      -0.403897       -10.9906
  27   2.0000      -0.385352       -10.4860
  28   2.0000      -0.374834       -10.1997
  29   0.0000       0.049710         1.3527
  30   0.0000       0.087081         2.3696
  31   0.0000       0.103704         2.8219
  32   0.0000       0.106781         2.9056
  33   0.0000       0.120635         3.2826

MULLIKEN ATOMIC CHARGES
-----------------------
   0 C :   -0.360430
   1 C :   -0.250634
   2 S :    0.863875
   3 H :    0.142088
   4 H :    0.162769
   5 O :   -0.393962
   6 O :   -0.461123
   7 F :   -0.107772
   8 H :    0.123548
   9 H :    0.148777
  10 H :    0.132865
Sum of atomic charges:   -0.0000000

LOEWDIN ATOMIC CHARGES
----------------------
   0 C :   -0.315595
   1 C :   -0.388638
   2 S :    0.541438
   3 H :    0.135807
   4 H :    0.148927
   5 O :   -0.256353
   6 O :   -0.327596
   7 F :    0.094098
   8 H :    0.117696
   9 H :    0.125434
  10 H :    0.124782

  Mayer bond orders larger than 0.100000
B(  0-C ,  1-C ) :   0.9381 B(  0-C ,  8-H ) :   0.9723 B(  0-C ,  9-H ) :   0.9690
B(  0-C , 10-H ) :   0.9665 B(  1-C ,  2-S ) :   0.9150 B(  1-C ,  3-H ) :   0.9461
B(  1-C ,  4-H ) :   0.9467 B(  2-S ,  5-O ) :   1.9680 B(  2-S ,  6-O ) :   1.8766
B(  2-S ,  7-F ) :   1.1276

FINAL SINGLE POINT ENERGY      -727.721973190621

DIPOLE MOMENT
-------------
                                X             Y             Z
Electronic contribution:     -4.60721      -6.98561      -3.46181
Nuclear contribution   :      6.02439       7.89075       3.01280
                        -----------------------------------------
Total Dipole Moment    :      1.41719       0.90514      -0.44900
                        -----------------------------------------
Magnitude (a.u.)       :      1.74049
Magnitude (Debye)      :      4.42397

Rotational constants in cm-1:     0.153652     0.082400     0.079295
Rotational constants in MHz :  4606.361242  2470.285703  2377.214112

                             ****ORCA TERMINATED NORMALLY****
TOTAL RUN TIME: 0 days 0 hours 0 minutes 38 seconds 55 msec
