                         Program Version 5.0.0 -  RELEASE  -
|  1> !CAM-B3LYP RIJCOSX def2-TZVP def2/J TightSCF xyzfile
|  2>
|  3> *xyzfile 0 1 D1.xyz
|  4>
|  5> %MaxCore 64000
|  6>
|  7> %pal nprocs 18
|  8> end
|  9>
| 10> %scf
| 11>   MaxIter 150
| 12> end
| 13>
| 14>
| 15>                          ****END OF INPUT****

CARTESIAN COORDINATES (ANGSTROEM)
---------------------------------
  C      1.364014    0.468742   -2.813764
  C      0.428844    0.321402   -1.655312
  C      0.968045    1.630639   -3.715749
  C     -0.508347    1.722679   -4.124300
  S     -1.328608    0.146737   -4.435781
  H     -0.591511    2.294958   -5.047219
  H     -1.114114    2.235610   -3.374362
  H      0.748578   -0.400542   -1.001345
  H     -0.461053    0.023332   -2.077731
  H      0.310258    1.201375   -1.134948
  F     -2.571347    0.475733   -5.068341
  O     -1.514963   -0.400512   -3.063420
  H      1.294847   -0.468742   -3.364684
  H      2.376216    0.597400   -2.431495
  H      1.578688    1.520652   -4.612733
  H      1.266653    2.575988   -3.250448
  O     -0.377928   -0.627558   -5.201141

 Total Charge           Charge          ....    0
 Multiplicity           Mult            ....    1
 Number of Electrons    NEL             ....   74
 Basis Dimension        Dim             ....  308

ORBITAL ENERGIES
----------------

  NO   OCC          E(Eh)            E(eV)
   0   2.0000     -89.185876     -2426.8711
   1   2.0000     -24.889777      -677.2853
   2   2.0000     -19.218264      -522.9556
   3   2.0000     -19.204813      -522.5895
   4   2.0000     -10.304948      -280.4119
   5   2.0000     -10.264180      -279.3025
   6   2.0000     -10.227319      -278.2995
   7   2.0000     -10.169235      -276.7190
   8   2.0000      -8.229912      -223.9473
   9   2.0000      -6.197655      -168.6468
  10   2.0000      -6.191178      -168.4705
  11   2.0000      -6.191064      -168.4674
  12   2.0000      -1.483017       -40.3550
  13   2.0000      -1.196876       -32.5686
  14   2.0000      -1.098549       -29.8930
  15   2.0000      -0.914792       -24.8928
  16   2.0000      -0.857264       -23.3273
  17   2.0000      -0.803983       -21.8775
  18   2.0000      -0.757435       -20.6109
  19   2.0000      -0.687588       -18.7102
  20   2.0000      -0.677256       -18.4291
  21   2.0000      -0.655335       -17.8326
  22   2.0000      -0.622211       -16.9312
  23   2.0000      -0.580100       -15.7853
  24   2.0000      -0.567128       -15.4323
  25   2.0000      -0.532409       -14.4876
  26   2.0000      -0.527727       -14.3602
  27   2.0000      -0.492259       -13.3951
  28   2.0000      -0.472884       -12.8678
  29   2.0000      -0.469084       -12.7644
  30   2.0000      -0.454464       -12.3666
  31   2.0000      -0.423647       -11.5280
  32   2.0000      -0.413895       -11.2627
  33   2.0000      -0.387006       -10.5310
  34   2.0000      -0.386651       -10.5213
  35   2.0000      -0.381047       -10.3688
  36   2.0000      -0.341949        -9.3049
  37   0.0000       0.058486         1.5915
  38   0.0000       0.068267         1.8576
  39   0.0000       0.096706         2.6315
  40   0.0000       0.100577         2.7368
  41   0.0000       0.114687         3.1208

MULLIKEN ATOMIC CHARGES
-----------------------
   0 C :   -0.221273
   1 C :   -0.385490
   2 C :   -0.202328
   3 C :   -0.295967
   4 S :    0.861532
   5 H :    0.151854
   6 H :    0.158874
   7 H :    0.103225
   8 H :    0.183023
   9 H :    0.084964
  10 F :   -0.093005
  11 O :   -0.423766
  12 H :    0.137090
  13 H :    0.096719
  14 H :    0.121626
  15 H :    0.124717
  16 O :   -0.401796
Sum of atomic charges:    0.0000000

LOEWDIN ATOMIC CHARGES
----------------------
   0 C :   -0.303488
   1 C :   -0.317465
   2 C :   -0.274834
   3 C :   -0.364660
   4 S :    0.554181
   5 H :    0.137281
   6 H :    0.142475
   7 H :    0.104682
   8 H :    0.086645
   9 H :    0.099585
  10 F :    0.109770
  11 O :   -0.277574
  12 H :    0.141610
  13 H :    0.132520
  14 H :    0.144540
  15 H :    0.145765
  16 O :   -0.261032

  Mayer bond orders larger than 0.100000
B(  0-C ,  1-C ) :   0.9115 B(  0-C ,  2-C ) :   0.9515 B(  0-C , 12-H ) :   0.9818
B(  0-C , 13-H ) :   0.9778 B(  1-C ,  7-H ) :   0.9850 B(  1-C ,  8-H ) :   0.9461
B(  1-C ,  9-H ) :   0.9837 B(  2-C ,  3-C ) :   0.9395 B(  2-C , 14-H ) :   0.9776
B(  2-C , 15-H ) :   0.9622 B(  3-C ,  4-S ) :   0.9336 B(  3-C ,  5-H ) :   0.9469
B(  3-C ,  6-H ) :   0.9395 B(  4-S , 10-F ) :   1.1585 B(  4-S , 11-O ) :   1.7947
B(  4-S , 16-O ) :   1.9183

FINAL SINGLE POINT ENERGY      -806.277289223271

DIPOLE MOMENT
-------------
                                X             Y             Z
Electronic contribution:    -12.49927      -4.06489      -9.75127
Nuclear contribution   :     12.25227       5.48563       9.26621
                        -----------------------------------------
Total Dipole Moment    :     -0.24700       1.42074      -0.48506
                        -----------------------------------------
Magnitude (a.u.)       :      1.52145
Magnitude (Debye)      :      3.86721

Rotational constants in cm-1:     0.103176     0.044975     0.040960
Rotational constants in MHz :  3093.138469  1348.317425  1227.945122

                             ****ORCA TERMINATED NORMALLY****
TOTAL RUN TIME: 0 days 0 hours 0 minutes 33 seconds 980 msec
