                         Program Version 5.0.0 -  RELEASE  -
|  1> !CAM-B3LYP RIJCOSX def2-TZVP def2/J TightSCF xyzfile
|  2>
|  3> *xyzfile 0 1 D2.xyz
|  4>
|  5> %MaxCore 64000
|  6>
|  7> %pal nprocs 18
|  8> end
|  9>
| 10> %scf
| 11>   MaxIter 150
| 12> end
| 13>
| 14>
| 15>                          ****END OF INPUT****

CARTESIAN COORDINATES (ANGSTROEM)
---------------------------------
  C      1.364014    0.468742   -2.813764
  C      0.428844    0.321402   -1.655312
  C      0.968045    1.630639   -3.715749
  C     -0.508347    1.722679   -4.124300
  S     -1.328608    0.146737   -4.435781
  H     -0.591511    2.294958   -5.047219
  H     -1.114114    2.235610   -3.374362
  H      0.748578   -0.400542   -1.001345
  H     -0.461053    0.023332   -2.077731
  H      0.310258    1.201375   -1.134948
  O     -2.571347    0.475733   -5.068341
  F     -1.514963   -0.400512   -3.063420
  H      1.294847   -0.468742   -3.364684
  H      2.376216    0.597400   -2.431495
  H      1.578688    1.520652   -4.612733
  H      1.266653    2.575988   -3.250448
  O     -0.377928   -0.627558   -5.201141

 Total Charge           Charge          ....    0
 Multiplicity           Mult            ....    1
 Number of Electrons    NEL             ....   74
 Basis Dimension        Dim             ....  308

ORBITAL ENERGIES
----------------

  NO   OCC          E(Eh)            E(eV)
   0   2.0000     -89.180260     -2426.7182
   1   2.0000     -24.863048      -676.5579
   2   2.0000     -19.219127      -522.9790
   3   2.0000     -19.215985      -522.8935
   4   2.0000     -10.302904      -280.3563
   5   2.0000     -10.265882      -279.3489
   6   2.0000     -10.242369      -278.7090
   7   2.0000     -10.201086      -277.5857
   8   2.0000      -8.224395      -223.7972
   9   2.0000      -6.192495      -168.5064
  10   2.0000      -6.185756      -168.3230
  11   2.0000      -6.185190      -168.3076
  12   2.0000      -1.446063       -39.3494
  13   2.0000      -1.207295       -32.8522
  14   2.0000      -1.114159       -30.3178
  15   2.0000      -0.922610       -25.1055
  16   2.0000      -0.862266       -23.4635
  17   2.0000      -0.794515       -21.6199
  18   2.0000      -0.774991       -21.0886
  19   2.0000      -0.677756       -18.4427
  20   2.0000      -0.665765       -18.1164
  21   2.0000      -0.648168       -17.6376
  22   2.0000      -0.623693       -16.9715
  23   2.0000      -0.571593       -15.5538
  24   2.0000      -0.554335       -15.0842
  25   2.0000      -0.547416       -14.8959
  26   2.0000      -0.531703       -14.4684
  27   2.0000      -0.501069       -13.6348
  28   2.0000      -0.482361       -13.1257
  29   2.0000      -0.472382       -12.8542
  30   2.0000      -0.464996       -12.6532
  31   2.0000      -0.424237       -11.5441
  32   2.0000      -0.419211       -11.4073
  33   2.0000      -0.406274       -11.0553
  34   2.0000      -0.400402       -10.8955
  35   2.0000      -0.394153       -10.7255
  36   2.0000      -0.384095       -10.4518
  37   0.0000       0.055533         1.5111
  38   0.0000       0.077122         2.0986
  39   0.0000       0.090103         2.4518
  40   0.0000       0.094872         2.5816
  41   0.0000       0.111683         3.0391

MULLIKEN ATOMIC CHARGES
-----------------------
   0 C :   -0.250482
   1 C :   -0.372403
   2 C :   -0.180490
   3 C :   -0.315176
   4 S :    0.865535
   5 H :    0.173542
   6 H :    0.157678
   7 H :    0.121231
   8 H :    0.124810
   9 H :    0.106673
  10 O :   -0.403859
  11 F :   -0.113523
  12 H :    0.145614
  13 H :    0.106132
  14 H :    0.125213
  15 H :    0.121245
  16 O :   -0.411740
Sum of atomic charges:   -0.0000000

LOEWDIN ATOMIC CHARGES
----------------------
   0 C :   -0.305687
   1 C :   -0.316638
   2 C :   -0.281469
   3 C :   -0.359998
   4 S :    0.559754
   5 H :    0.150649
   6 H :    0.140202
   7 H :    0.108702
   8 H :    0.086459
   9 H :    0.105840
  10 O :   -0.257174
  11 F :    0.068863
  12 H :    0.140705
  13 H :    0.135331
  14 H :    0.145751
  15 H :    0.143348
  16 O :   -0.264640

  Mayer bond orders larger than 0.100000
B(  0-C ,  1-C ) :   0.9188 B(  0-C ,  2-C ) :   0.9371 B(  0-C , 12-H ) :   0.9825
B(  0-C , 13-H ) :   0.9789 B(  1-C ,  7-H ) :   0.9887 B(  1-C ,  8-H ) :   0.9787
B(  1-C ,  9-H ) :   0.9835 B(  2-C ,  3-C ) :   0.9224 B(  2-C , 14-H ) :   0.9765
B(  2-C , 15-H ) :   0.9623 B(  3-C ,  4-S ) :   0.9229 B(  3-C ,  5-H ) :   0.9513
B(  3-C ,  6-H ) :   0.9464 B(  4-S , 10-O ) :   1.9792 B(  4-S , 11-F ) :   1.0566
B(  4-S , 16-O ) :   1.9065

FINAL SINGLE POINT ENERGY      -806.299800199368

DIPOLE MOMENT
-------------
                                X             Y             Z
Electronic contribution:    -10.50496      -5.55555      -6.15055
Nuclear contribution   :     11.08796       6.45140       7.05645
                        -----------------------------------------
Total Dipole Moment    :      0.58301       0.89584       0.90590
                        -----------------------------------------
Magnitude (a.u.)       :      1.40110
Magnitude (Debye)      :      3.56132

Rotational constants in cm-1:     0.100113     0.046890     0.041843
Rotational constants in MHz :  3001.313402  1405.711946  1254.411771

                             ****ORCA TERMINATED NORMALLY****
TOTAL RUN TIME: 0 days 0 hours 0 minutes 34 seconds 613 msec
