                         Program Version 5.0.0 -  RELEASE  -
|  1> !CAM-B3LYP RIJCOSX def2-TZVP def2/J TightSCF xyzfile
|  2>
|  3> *xyzfile 0 1 D3.xyz
|  4>
|  5> %MaxCore 64000
|  6>
|  7> %pal nprocs 18
|  8> end
|  9>
| 10> %scf
| 11>   MaxIter 150
| 12> end
| 13>
| 14>
| 15>                          ****END OF INPUT****

CARTESIAN COORDINATES (ANGSTROEM)
---------------------------------
  C      1.364014    0.468742   -2.813764
  C      0.428844    0.321402   -1.655312
  C      0.968045    1.630639   -3.715749
  C     -0.508347    1.722679   -4.124300
  S     -1.328608    0.146737   -4.435781
  H     -0.591511    2.294958   -5.047219
  H     -1.114114    2.235610   -3.374362
  H      0.748578   -0.400542   -1.001345
  H     -0.461053    0.023332   -2.077731
  H      0.310258    1.201375   -1.134948
  O     -2.571347    0.475733   -5.068341
  O     -1.514963   -0.400512   -3.063420
  H      1.294847   -0.468742   -3.364684
  H      2.376216    0.597400   -2.431495
  H      1.578688    1.520652   -4.612733
  H      1.266653    2.575988   -3.250448
  F     -0.377928   -0.627558   -5.201141

 Total Charge           Charge          ....    0
 Multiplicity           Mult            ....    1
 Number of Electrons    NEL             ....   74
 Basis Dimension        Dim             ....  308

ORBITAL ENERGIES
----------------

  NO   OCC          E(Eh)            E(eV)
   0   2.0000     -89.185666     -2426.8654
   1   2.0000     -24.884720      -677.1477
   2   2.0000     -19.221435      -523.0418
   3   2.0000     -19.203847      -522.5632
   4   2.0000     -10.304643      -280.4036
   5   2.0000     -10.268501      -279.4201
   6   2.0000     -10.239794      -278.6390
   7   2.0000     -10.173885      -276.8455
   8   2.0000      -8.229671      -223.9407
   9   2.0000      -6.197605      -168.6454
  10   2.0000      -6.191026      -168.4664
  11   2.0000      -6.190582      -168.4543
  12   2.0000      -1.473788       -40.1038
  13   2.0000      -1.201320       -32.6896
  14   2.0000      -1.102096       -29.9896
  15   2.0000      -0.921184       -25.0667
  16   2.0000      -0.856578       -23.3087
  17   2.0000      -0.803684       -21.8694
  18   2.0000      -0.759863       -20.6769
  19   2.0000      -0.692176       -18.8351
  20   2.0000      -0.671300       -18.2670
  21   2.0000      -0.662181       -18.0189
  22   2.0000      -0.619438       -16.8558
  23   2.0000      -0.574736       -15.6394
  24   2.0000      -0.569109       -15.4862
  25   2.0000      -0.541396       -14.7321
  26   2.0000      -0.529574       -14.4104
  27   2.0000      -0.498173       -13.5560
  28   2.0000      -0.481094       -13.0912
  29   2.0000      -0.466360       -12.6903
  30   2.0000      -0.460390       -12.5278
  31   2.0000      -0.435452       -11.8492
  32   2.0000      -0.412449       -11.2233
  33   2.0000      -0.399485       -10.8705
  34   2.0000      -0.397472       -10.8158
  35   2.0000      -0.387541       -10.5455
  36   2.0000      -0.337583        -9.1861
  37   0.0000       0.049102         1.3361
  38   0.0000       0.077509         2.1091
  39   0.0000       0.090071         2.4510
  40   0.0000       0.100923         2.7463
  41   0.0000       0.107489         2.9249

MULLIKEN ATOMIC CHARGES
-----------------------
   0 C :   -0.222756
   1 C :   -0.379857
   2 C :   -0.228995
   3 C :   -0.294332
   4 S :    0.869373
   5 H :    0.162467
   6 H :    0.173305
   7 H :    0.103380
   8 H :    0.190590
   9 H :    0.089589
  10 O :   -0.393735
  11 O :   -0.425825
  12 H :    0.105336
  13 H :    0.104385
  14 H :    0.121211
  15 H :    0.126205
  16 F :   -0.100341
Sum of atomic charges:    0.0000000

LOEWDIN ATOMIC CHARGES
----------------------
   0 C :   -0.308462
   1 C :   -0.318651
   2 C :   -0.287102
   3 C :   -0.356747
   4 S :    0.560519
   5 H :    0.141210
   6 H :    0.153322
   7 H :    0.104645
   8 H :    0.085229
   9 H :    0.101431
  10 O :   -0.252105
  11 O :   -0.274282
  12 H :    0.130789
  13 H :    0.134848
  14 H :    0.139452
  15 H :    0.145779
  16 F :    0.100125

  Mayer bond orders larger than 0.100000
B(  0-C ,  1-C ) :   0.9041 B(  0-C ,  2-C ) :   0.9343 B(  0-C , 12-H ) :   0.9923
B(  0-C , 13-H ) :   0.9777 B(  1-C ,  7-H ) :   0.9847 B(  1-C ,  8-H ) :   0.9399
B(  1-C ,  9-H ) :   0.9822 B(  2-C ,  3-C ) :   0.9290 B(  2-C , 14-H ) :   0.9838
B(  2-C , 15-H ) :   0.9611 B(  3-C ,  4-S ) :   0.9288 B(  3-C ,  5-H ) :   0.9534
B(  3-C ,  6-H ) :   0.9416 B(  4-S , 10-O ) :   1.9813 B(  4-S , 11-O ) :   1.7818
B(  4-S , 16-F ) :   1.1324

FINAL SINGLE POINT ENERGY      -806.281270758506

DIPOLE MOMENT
-------------
                                X             Y             Z
Electronic contribution:     -8.65369      -5.95875      -9.92912
Nuclear contribution   :      9.83476       6.70164       9.41257
                        -----------------------------------------
Total Dipole Moment    :      1.18108       0.74289      -0.51655
                        -----------------------------------------
Magnitude (a.u.)       :      1.48783
Magnitude (Debye)      :      3.78178

Rotational constants in cm-1:     0.099832     0.045916     0.042219
Rotational constants in MHz :  2992.874960  1376.530174  1265.693813

                             ****ORCA TERMINATED NORMALLY****
TOTAL RUN TIME: 0 days 0 hours 0 minutes 33 seconds 881 msec
