                         Program Version 5.0.0 -  RELEASE  -
|  1> !LC-BLYP RIJCOSX def2-SVPD def2/J TightSCF
|  2> *xyz -1 1
|  3> C         -7.33044       -2.67899       -3.20681
|  4> S         -6.01966       -2.92697       -4.41913
|  5> O         -5.64583       -1.58838       -4.91931
|  6> O         -4.88196       -3.50370       -3.66724
|  7> O         -6.54927       -3.80515       -5.42507
|  8> H         -8.18867       -2.26077       -3.68996
|  9> H         -6.98921       -2.01038       -2.44430
| 10> H         -7.59151       -3.61862       -2.76655
| 11> *
| 12> %MaxCore 64000
| 13>
| 14> %pal nprocs 8
| 15> end
| 16>
| 17> %scf
| 18>   MaxIter 150
| 19> end
| 20>
| 21>
| 22>                          ****END OF INPUT****

CARTESIAN COORDINATES (ANGSTROEM)
---------------------------------
  C     -7.330440   -2.678990   -3.206810
  S     -6.019660   -2.926970   -4.419130
  O     -5.645830   -1.588380   -4.919310
  O     -4.881960   -3.503700   -3.667240
  O     -6.549270   -3.805150   -5.425070
  H     -8.188670   -2.260770   -3.689960
  H     -6.989210   -2.010380   -2.444300
  H     -7.591510   -3.618620   -2.766550

 Total Charge           Charge          ....   -1
 Multiplicity           Mult            ....    1
 Number of Electrons    NEL             ....   50
 Basis Dimension        Dim             ....  140

ORBITAL ENERGIES
----------------

  NO   OCC          E(Eh)            E(eV)
   0   2.0000     -88.312295     -2403.0997
   1   2.0000     -18.742468      -510.0085
   2   2.0000     -18.730945      -509.6949
   3   2.0000     -18.728493      -509.6282
   4   2.0000      -9.945812      -270.6393
   5   2.0000      -7.860757      -213.9021
   6   2.0000      -5.895058      -160.4127
   7   2.0000      -5.894924      -160.4090
   8   2.0000      -5.894770      -160.4049
   9   2.0000      -1.028175       -27.9781
  10   2.0000      -0.881703       -23.9923
  11   2.0000      -0.858780       -23.3686
  12   2.0000      -0.696220       -18.9451
  13   2.0000      -0.497159       -13.5284
  14   2.0000      -0.410047       -11.1580
  15   2.0000      -0.399622       -10.8743
  16   2.0000      -0.398177       -10.8350
  17   2.0000      -0.352143        -9.5823
  18   2.0000      -0.351018        -9.5517
  19   2.0000      -0.254224        -6.9178
  20   2.0000      -0.253387        -6.8950
  21   2.0000      -0.216751        -5.8981
  22   2.0000      -0.209940        -5.7128
  23   2.0000      -0.201139        -5.4733
  24   2.0000      -0.161620        -4.3979
  25   0.0000       0.194889         5.3032
  26   0.0000       0.221562         6.0290
  27   0.0000       0.221918         6.0387
  28   0.0000       0.227535         6.1915
  29   0.0000       0.256370         6.9762

MULLIKEN ATOMIC CHARGES
-----------------------
   0 C :    0.735499
   1 S :    0.863281
   2 O :   -0.718615
   3 O :   -0.724724
   4 O :   -0.670763
   5 H :   -0.164418
   6 H :   -0.161018
   7 H :   -0.159242
Sum of atomic charges:   -1.0000000

LOEWDIN ATOMIC CHARGES
----------------------
   0 C :    0.047590
   1 S :    0.782465
   2 O :   -0.583319
   3 O :   -0.586958
   4 O :   -0.563259
   5 H :   -0.033060
   6 H :   -0.031223
   7 H :   -0.032236

  Mayer bond orders larger than 0.100000
B(  0-C ,  1-S ) :   0.9363 B(  0-C ,  5-H ) :   0.8700 B(  0-C ,  6-H ) :   0.8724
B(  0-C ,  7-H ) :   0.8701 B(  1-S ,  2-O ) :   1.3659 B(  1-S ,  3-O ) :   1.3616
B(  1-S ,  4-O ) :   1.4059 B(  1-S ,  5-H ) :   0.1308 B(  1-S ,  6-H ) :   0.1414
B(  1-S ,  7-H ) :   0.1318

FINAL SINGLE POINT ENERGY      -662.777392611962

DIPOLE MOMENT
-------------
                                X             Y             Z
Electronic contribution:      2.94527      -0.63824      -2.88183
Nuclear contribution   :     -4.26236       0.77434       3.87117
                        -----------------------------------------
Total Dipole Moment    :     -1.31708       0.13610       0.98934
                        -----------------------------------------
Magnitude (a.u.)       :      1.65288
Magnitude (Debye)      :      4.20130

Rotational constants in cm-1:     0.172427     0.155038     0.152780
Rotational constants in MHz :  5169.225473  4647.928623  4580.233540

                             ****ORCA TERMINATED NORMALLY****
TOTAL RUN TIME: 0 days 0 hours 0 minutes 7 seconds 199 msec
