                         Program Version 5.0.0 -  RELEASE  -
|  1> !LC-BLYP RIJCOSX def2-SVPD def2/J TightSCF
|  2> *xyz 1 1
|  3> C         -2.16038       -1.36949       -3.46710
|  4> N         -3.03011       -1.91086       -4.54107
|  5> H         -3.47744       -2.79151       -4.25710
|  6> H         -2.53801       -2.01786       -5.43808
|  7> H         -3.89159       -1.37604       -4.71437
|  8> H         -1.71294       -0.45536       -3.79734
|  9> H         -1.39344       -2.07939       -3.23742
| 10> H         -2.74775       -1.18344       -2.59230
| 11> *
| 12> %MaxCore 64000
| 13>
| 14> %pal nprocs 8
| 15> end
| 16>
| 17> %scf
| 18>   MaxIter 150
| 19> end
| 20>
| 21>
| 22>                          ****END OF INPUT****

CARTESIAN COORDINATES (ANGSTROEM)
---------------------------------
  C     -2.160380   -1.369490   -3.467100
  N     -3.030110   -1.910860   -4.541070
  H     -3.477440   -2.791510   -4.257100
  H     -2.538010   -2.017860   -5.438080
  H     -3.891590   -1.376040   -4.714370
  H     -1.712940   -0.455360   -3.797340
  H     -1.393440   -2.079390   -3.237420
  H     -2.747750   -1.183440   -2.592300

 Total Charge           Charge          ....    1
 Multiplicity           Mult            ....    1
 Number of Electrons    NEL             ....   18
 Basis Dimension        Dim             ....   88

ORBITAL ENERGIES
----------------

  NO   OCC          E(Eh)            E(eV)
   0   2.0000     -14.536003      -395.5448
   1   2.0000     -10.343132      -281.4509
   2   2.0000      -1.320092       -35.9215
   3   2.0000      -1.046164       -28.4676
   4   2.0000      -0.923879       -25.1400
   5   2.0000      -0.896344       -24.3908
   6   2.0000      -0.822199       -22.3732
   7   2.0000      -0.728536       -19.8245
   8   2.0000      -0.724067       -19.7029
   9   0.0000      -0.143001        -3.8912
  10   0.0000      -0.075835        -2.0636
  11   0.0000      -0.069435        -1.8894
  12   0.0000      -0.069116        -1.8807
  13   0.0000      -0.022798        -0.6204

MULLIKEN ATOMIC CHARGES
-----------------------
   0 C :    1.171519
   1 N :   -0.745948
   2 H :    0.332370
   3 H :    0.341667
   4 H :    0.316233
   5 H :   -0.145988
   6 H :   -0.128510
   7 H :   -0.141343
Sum of atomic charges:    1.0000000

LOEWDIN ATOMIC CHARGES
----------------------
   0 C :    0.268045
   1 N :    0.306034
   2 H :    0.110370
   3 H :    0.116185
   4 H :    0.111672
   5 H :    0.028629
   6 H :    0.029737
   7 H :    0.029328

  Mayer bond orders larger than 0.100000
B(  0-C ,  1-N ) :   0.8055 B(  0-C ,  5-H ) :   0.8512 B(  0-C ,  6-H ) :   0.8399
B(  0-C ,  7-H ) :   0.8439 B(  1-N ,  2-H ) :   0.8247 B(  1-N ,  3-H ) :   0.7970
B(  1-N ,  4-H ) :   0.8431 B(  1-N ,  5-H ) :   0.1054 B(  1-N ,  6-H ) :   0.1106
B(  1-N ,  7-H ) :   0.1114

FINAL SINGLE POINT ENERGY       -95.868937348503

DIPOLE MOMENT
-------------
                                X             Y             Z
Electronic contribution:     -0.58475      -0.38040      -0.79448
Nuclear contribution   :      0.00575       0.04584       0.17617
                        -----------------------------------------
Total Dipole Moment    :     -0.57900      -0.33456      -0.61831
                        -----------------------------------------
Magnitude (a.u.)       :      0.91076
Magnitude (Debye)      :      2.31496

Rotational constants in cm-1:     2.917716     0.684997     0.676552
Rotational constants in MHz : 87470.913131 20535.702929 20282.512120

                             ****ORCA TERMINATED NORMALLY****
TOTAL RUN TIME: 0 days 0 hours 0 minutes 3 seconds 470 msec
