                         Program Version 5.0.0 -  RELEASE  -
|  1> !LC-BLYP RIJCOSX def2-SVPD def2/J TightSCF
|  2> *xyz 0 1
|  3> C         -7.33044       -2.67899       -3.20681
|  4> S         -6.01966       -2.92697       -4.41913
|  5> F         -5.64583       -1.58838       -4.91931
|  6> O         -4.88196       -3.50370       -3.66724
|  7> O         -6.54927       -3.80515       -5.42507
|  8> H         -8.18867       -2.26077       -3.68996
|  9> H         -6.98921       -2.01038       -2.44430
| 10> H         -7.59151       -3.61862       -2.76655
| 11> *
| 12> %MaxCore 64000
| 13>
| 14> %pal nprocs 8
| 15> end
| 16>
| 17> %scf
| 18>   MaxIter 150
| 19> end
| 20>
| 21>
| 22>                          ****END OF INPUT****

CARTESIAN COORDINATES (ANGSTROEM)
---------------------------------
  C     -7.330440   -2.678990   -3.206810
  S     -6.019660   -2.926970   -4.419130
  F     -5.645830   -1.588380   -4.919310
  O     -4.881960   -3.503700   -3.667240
  O     -6.549270   -3.805150   -5.425070
  H     -8.188670   -2.260770   -3.689960
  H     -6.989210   -2.010380   -2.444300
  H     -7.591510   -3.618620   -2.766550

 Total Charge           Charge          ....    0
 Multiplicity           Mult            ....    1
 Number of Electrons    NEL             ....   50
 Basis Dimension        Dim             ....  140

ORBITAL ENERGIES
----------------

  NO   OCC          E(Eh)            E(eV)
   0   2.0000     -88.574142     -2410.2249
   1   2.0000     -24.585167      -668.9964
   2   2.0000     -18.980191      -516.4773
   3   2.0000     -18.965682      -516.0824
   4   2.0000     -10.154069      -276.3063
   5   2.0000      -8.123256      -221.0450
   6   2.0000      -6.161971      -167.6758
   7   2.0000      -6.155226      -167.4922
   8   2.0000      -6.154308      -167.4672
   9   2.0000      -1.438677       -39.1484
  10   2.0000      -1.214007       -33.0348
  11   2.0000      -1.108030       -30.1510
  12   2.0000      -0.915838       -24.9212
  13   2.0000      -0.815690       -22.1961
  14   2.0000      -0.706674       -19.2296
  15   2.0000      -0.680228       -18.5099
  16   2.0000      -0.661546       -18.0016
  17   2.0000      -0.589645       -16.0450
  18   2.0000      -0.586540       -15.9606
  19   2.0000      -0.575947       -15.6723
  20   2.0000      -0.546099       -14.8601
  21   2.0000      -0.497743       -13.5443
  22   2.0000      -0.448822       -12.2131
  23   2.0000      -0.434732       -11.8297
  24   2.0000      -0.416544       -11.3347
  25   0.0000       0.040846         1.1115
  26   0.0000       0.077380         2.1056
  27   0.0000       0.083021         2.2591
  28   0.0000       0.084291         2.2937
  29   0.0000       0.094690         2.5766

MULLIKEN ATOMIC CHARGES
-----------------------
   0 C :    0.701134
   1 S :    1.038681
   2 F :   -0.331877
   3 O :   -0.582264
   4 O :   -0.532249
   5 H :   -0.097859
   6 H :   -0.098104
   7 H :   -0.097463
Sum of atomic charges:    0.0000000

LOEWDIN ATOMIC CHARGES
----------------------
   0 C :    0.116125
   1 S :    1.054561
   2 F :   -0.253605
   3 O :   -0.466672
   4 O :   -0.444848
   5 H :   -0.006794
   6 H :   -0.005702
   7 H :    0.006936

  Mayer bond orders larger than 0.100000
B(  0-C ,  1-S ) :   0.9901 B(  0-C ,  5-H ) :   0.8744 B(  0-C ,  6-H ) :   0.8755
B(  0-C ,  7-H ) :   0.8697 B(  1-S ,  2-F ) :   0.7441 B(  1-S ,  3-O ) :   1.5651
B(  1-S ,  4-O ) :   1.6091 B(  1-S ,  5-H ) :   0.1055 B(  1-S ,  6-H ) :   0.1143
B(  1-S ,  7-H ) :   0.1313

FINAL SINGLE POINT ENERGY      -687.257854721310

DIPOLE MOMENT
-------------
                                X             Y             Z
Electronic contribution:      3.51177       1.60578      -3.70580
Nuclear contribution   :     -4.68608      -0.54182       4.44322
                        -----------------------------------------
Total Dipole Moment    :     -1.17431       1.06396       0.73742
                        -----------------------------------------
Magnitude (a.u.)       :      1.74780
Magnitude (Debye)      :      4.44256

Rotational constants in cm-1:     0.164393     0.151201     0.145518
Rotational constants in MHz :  4928.381777  4532.884356  4362.527209

                             ****ORCA TERMINATED NORMALLY****
TOTAL RUN TIME: 0 days 0 hours 0 minutes 7 seconds 649 msec
