                         Program Version 5.0.0 -  RELEASE  -
|  1> !LC-BLYP RIJCOSX def2-SVPD def2/J TightSCF
|  2> *xyz 0 1
|  3> C         -2.16038       -1.36949       -3.46710
|  4> C         -3.03011       -1.91086       -4.54107
|  5> H         -3.47744       -2.79151       -4.25710
|  6> H         -2.53801       -2.01786       -5.43808
|  7> H         -3.89159       -1.37604       -4.71437
|  8> H         -1.71294       -0.45536       -3.79734
|  9> H         -1.39344       -2.07939       -3.23742
| 10> H         -2.74775       -1.18344       -2.59230
| 11> *
| 12> %MaxCore 64000
| 13>
| 14> %pal nprocs 8
| 15> end
| 16>
| 17> %scf
| 18>   MaxIter 150
| 19> end
| 20>
| 21>
| 22>                          ****END OF INPUT****

CARTESIAN COORDINATES (ANGSTROEM)
---------------------------------
  C     -2.160380   -1.369490   -3.467100
  C     -3.030110   -1.910860   -4.541070
  H     -3.477440   -2.791510   -4.257100
  H     -2.538010   -2.017860   -5.438080
  H     -3.891590   -1.376040   -4.714370
  H     -1.712940   -0.455360   -3.797340
  H     -1.393440   -2.079390   -3.237420
  H     -2.747750   -1.183440   -2.592300

 Total Charge           Charge          ....    0
 Multiplicity           Mult            ....    1
 Number of Electrons    NEL             ....   18
 Basis Dimension        Dim             ....   88

ORBITAL ENERGIES
----------------

  NO   OCC          E(Eh)            E(eV)
   0   2.0000     -10.063674      -273.8465
   1   2.0000     -10.050240      -273.4809
   2   2.0000      -0.872494       -23.7418
   3   2.0000      -0.727977       -19.8093
   4   2.0000      -0.559535       -15.2257
   5   2.0000      -0.544109       -14.8060
   6   2.0000      -0.477303       -12.9881
   7   2.0000      -0.449257       -12.2249
   8   2.0000      -0.432654       -11.7731
   9   0.0000       0.079379         2.1600
  10   0.0000       0.108825         2.9613
  11   0.0000       0.159913         4.3515
  12   0.0000       0.164169         4.4673
  13   0.0000       0.182470         4.9653

MULLIKEN ATOMIC CHARGES
-----------------------
   0 C :    0.531226
   1 C :    0.752903
   2 H :   -0.284330
   3 H :   -0.282626
   4 H :   -0.299584
   5 H :   -0.147697
   6 H :   -0.139551
   7 H :   -0.130341
Sum of atomic charges:   -0.0000000

LOEWDIN ATOMIC CHARGES
----------------------
   0 C :    0.070979
   1 C :    0.063540
   2 H :   -0.034014
   3 H :   -0.027671
   4 H :   -0.034362
   5 H :   -0.013858
   6 H :   -0.012433
   7 H :   -0.012180

  Mayer bond orders larger than 0.100000
B(  0-C ,  1-C ) :   1.4106 B(  0-C ,  2-H ) :   0.1816 B(  0-C ,  3-H ) :   0.1791
B(  0-C ,  4-H ) :   0.1575 B(  0-C ,  5-H ) :   0.8115 B(  0-C ,  6-H ) :   0.7880
B(  0-C ,  7-H ) :   0.8099 B(  1-C ,  2-H ) :   0.6561 B(  1-C ,  3-H ) :   0.7110
B(  1-C ,  4-H ) :   0.6588 B(  1-C ,  5-H ) :   0.1782 B(  1-C ,  6-H ) :   0.1842
B(  1-C ,  7-H ) :   0.1884 B(  2-H ,  4-H ) :   0.2594

FINAL SINGLE POINT ENERGY       -79.484479228438

DIPOLE MOMENT
-------------
                                X             Y             Z
Electronic contribution:      0.09976       0.03317      -0.00085
Nuclear contribution   :     -0.14218      -0.04688      -0.00907
                        -----------------------------------------
Total Dipole Moment    :     -0.04242      -0.01371      -0.00992
                        -----------------------------------------
Magnitude (a.u.)       :      0.04567
Magnitude (Debye)      :      0.11608

Rotational constants in cm-1:     2.917838     0.714537     0.705359
Rotational constants in MHz : 87474.579540 21421.280941 21146.123231

                             ****ORCA TERMINATED NORMALLY****
TOTAL RUN TIME: 0 days 0 hours 0 minutes 3 seconds 349 msec
