                         Program Version 5.0.0 -  RELEASE  -
|  1> !LC-BLYP RIJCOSX def2-SVPD def2/J TightSCF
|  2> *xyz 0 1
|  3> C         -7.33044       -2.67899       -3.20681
|  4> S         -6.01966       -2.92697       -4.41913
|  5> O         -5.64583       -1.58838       -4.91931
|  6> F         -4.88196       -3.50370       -3.66724
|  7> O         -6.54927       -3.80515       -5.42507
|  8> H         -8.18867       -2.26077       -3.68996
|  9> H         -6.98921       -2.01038       -2.44430
| 10> H         -7.59151       -3.61862       -2.76655
| 11> *
| 12> %MaxCore 64000
| 13>
| 14> %pal nprocs 8
| 15> end
| 16>
| 17> %scf
| 18>   MaxIter 150
| 19> end
| 20>
| 21>
| 22>                          ****END OF INPUT****

CARTESIAN COORDINATES (ANGSTROEM)
---------------------------------
  C     -7.330440   -2.678990   -3.206810
  S     -6.019660   -2.926970   -4.419130
  O     -5.645830   -1.588380   -4.919310
  F     -4.881960   -3.503700   -3.667240
  O     -6.549270   -3.805150   -5.425070
  H     -8.188670   -2.260770   -3.689960
  H     -6.989210   -2.010380   -2.444300
  H     -7.591510   -3.618620   -2.766550

 Total Charge           Charge          ....    0
 Multiplicity           Mult            ....    1
 Number of Electrons    NEL             ....   50
 Basis Dimension        Dim             ....  140

ORBITAL ENERGIES
----------------

  NO   OCC          E(Eh)            E(eV)
   0   2.0000     -88.574042     -2410.2222
   1   2.0000     -24.582465      -668.9229
   2   2.0000     -18.980023      -516.4727
   3   2.0000     -18.968088      -516.1479
   4   2.0000     -10.153962      -276.3034
   5   2.0000      -8.123117      -221.0412
   6   2.0000      -6.161825      -167.6718
   7   2.0000      -6.155122      -167.4894
   8   2.0000      -6.154179      -167.4637
   9   2.0000      -1.435246       -39.0550
  10   2.0000      -1.214476       -33.0476
  11   2.0000      -1.110537       -30.2193
  12   2.0000      -0.916125       -24.9290
  13   2.0000      -0.813570       -22.1384
  14   2.0000      -0.705251       -19.1909
  15   2.0000      -0.677849       -18.4452
  16   2.0000      -0.661114       -17.9898
  17   2.0000      -0.589476       -16.0405
  18   2.0000      -0.587032       -15.9740
  19   2.0000      -0.575048       -15.6479
  20   2.0000      -0.546897       -14.8818
  21   2.0000      -0.498275       -13.5587
  22   2.0000      -0.449127       -12.2214
  23   2.0000      -0.437375       -11.9016
  24   2.0000      -0.418517       -11.3884
  25   0.0000       0.041553         1.1307
  26   0.0000       0.077671         2.1135
  27   0.0000       0.083196         2.2639
  28   0.0000       0.084483         2.2989
  29   0.0000       0.096034         2.6132

MULLIKEN ATOMIC CHARGES
-----------------------
   0 C :    0.700777
   1 S :    1.038836
   2 O :   -0.578036
   3 F :   -0.333562
   4 O :   -0.533895
   5 H :   -0.102661
   6 H :   -0.097210
   7 H :   -0.094249
Sum of atomic charges:   -0.0000000

LOEWDIN ATOMIC CHARGES
----------------------
   0 C :    0.116146
   1 S :    1.053929
   2 O :   -0.463158
   3 F :   -0.256270
   4 O :   -0.445149
   5 H :    0.006327
   6 H :   -0.005461
   7 H :   -0.006365

  Mayer bond orders larger than 0.100000
B(  0-C ,  1-S ) :   0.9897 B(  0-C ,  5-H ) :   0.8697 B(  0-C ,  6-H ) :   0.8769
B(  0-C ,  7-H ) :   0.8732 B(  1-S ,  2-O ) :   1.5691 B(  1-S ,  3-F ) :   0.7400
B(  1-S ,  4-O ) :   1.6093 B(  1-S ,  5-H ) :   0.1310 B(  1-S ,  6-H ) :   0.1149
B(  1-S ,  7-H ) :   0.1064

FINAL SINGLE POINT ENERGY      -687.260487347261

DIPOLE MOMENT
-------------
                                X             Y             Z
Electronic contribution:      4.80054      -1.61523      -1.59898
Nuclear contribution   :     -5.44924       1.37171       3.19232
                        -----------------------------------------
Total Dipole Moment    :     -0.64870      -0.24352       1.59335
                        -----------------------------------------
Magnitude (a.u.)       :      1.73749
Magnitude (Debye)      :      4.41635

Rotational constants in cm-1:     0.163884     0.151426     0.145804
Rotational constants in MHz :  4913.124213  4539.628058  4371.086672

                             ****ORCA TERMINATED NORMALLY****
TOTAL RUN TIME: 0 days 0 hours 0 minutes 7 seconds 569 msec
