                         Program Version 5.0.0 -  RELEASE  -
|  1> !LC-BLYP RIJCOSX def2-SVPD def2/J TightSCF
|  2> *xyz 0 1
|  3> C         -7.33044       -2.67899       -3.20681
|  4> S         -6.01966       -2.92697       -4.41913
|  5> O         -5.64583       -1.58838       -4.91931
|  6> O         -4.88196       -3.50370       -3.66724
|  7> F         -6.54927       -3.80515       -5.42507
|  8> H         -8.18867       -2.26077       -3.68996
|  9> H         -6.98921       -2.01038       -2.44430
| 10> H         -7.59151       -3.61862       -2.76655
| 11> *
| 12> %MaxCore 64000
| 13>
| 14> %pal nprocs 8
| 15> end
| 16>
| 17> %scf
| 18>   MaxIter 150
| 19> end
| 20>
| 21>
| 22>                          ****END OF INPUT****

CARTESIAN COORDINATES (ANGSTROEM)
---------------------------------
  C     -7.330440   -2.678990   -3.206810
  S     -6.019660   -2.926970   -4.419130
  O     -5.645830   -1.588380   -4.919310
  O     -4.881960   -3.503700   -3.667240
  F     -6.549270   -3.805150   -5.425070
  H     -8.188670   -2.260770   -3.689960
  H     -6.989210   -2.010380   -2.444300
  H     -7.591510   -3.618620   -2.766550

 Total Charge           Charge          ....    0
 Multiplicity           Mult            ....    1
 Number of Electrons    NEL             ....   50
 Basis Dimension        Dim             ....  140

ORBITAL ENERGIES
----------------

  NO   OCC          E(Eh)            E(eV)
   0   2.0000     -88.576251     -2410.2823
   1   2.0000     -24.603921      -669.5067
   2   2.0000     -18.968608      -516.1621
   3   2.0000     -18.966058      -516.0927
   4   2.0000     -10.154864      -276.3279
   5   2.0000      -8.125408      -221.1036
   6   2.0000      -6.164367      -167.7409
   7   2.0000      -6.157157      -167.5448
   8   2.0000      -6.156244      -167.5199
   9   2.0000      -1.471787       -40.0493
  10   2.0000      -1.199998       -32.6536
  11   2.0000      -1.093650       -29.7597
  12   2.0000      -0.918437       -24.9919
  13   2.0000      -0.831185       -22.6177
  14   2.0000      -0.721415       -19.6307
  15   2.0000      -0.703473       -19.1425
  16   2.0000      -0.665930       -18.1209
  17   2.0000      -0.589592       -16.0436
  18   2.0000      -0.584236       -15.8979
  19   2.0000      -0.576058       -15.6753
  20   2.0000      -0.539537       -14.6816
  21   2.0000      -0.490281       -13.3412
  22   2.0000      -0.438692       -11.9374
  23   2.0000      -0.431320       -11.7368
  24   2.0000      -0.405289       -11.0285
  25   0.0000       0.039351         1.0708
  26   0.0000       0.075970         2.0672
  27   0.0000       0.082007         2.2315
  28   0.0000       0.084632         2.3029
  29   0.0000       0.097690         2.6583

MULLIKEN ATOMIC CHARGES
-----------------------
   0 C :    0.700904
   1 S :    1.034757
   2 O :   -0.565862
   3 O :   -0.572131
   4 F :   -0.306321
   5 H :   -0.098851
   6 H :   -0.100067
   7 H :   -0.092429
Sum of atomic charges:   -0.0000000

LOEWDIN ATOMIC CHARGES
----------------------
   0 C :    0.115605
   1 S :    1.056277
   2 O :   -0.462643
   3 O :   -0.466325
   4 F :   -0.237510
   5 H :   -0.007079
   6 H :    0.007679
   7 H :   -0.006005

  Mayer bond orders larger than 0.100000
B(  0-C ,  1-S ) :   0.9899 B(  0-C ,  5-H ) :   0.8726 B(  0-C ,  6-H ) :   0.8737
B(  0-C ,  7-H ) :   0.8734 B(  1-S ,  2-O ) :   1.5722 B(  1-S ,  3-O ) :   1.5682
B(  1-S ,  4-F ) :   0.7936 B(  1-S ,  5-H ) :   0.1046 B(  1-S ,  6-H ) :   0.1390
B(  1-S ,  7-H ) :   0.1057

FINAL SINGLE POINT ENERGY      -687.242088677032

DIPOLE MOMENT
-------------
                                X             Y             Z
Electronic contribution:      2.01062      -2.10342      -4.54214
Nuclear contribution   :     -3.78348       1.67287       4.94851
                        -----------------------------------------
Total Dipole Moment    :     -1.77286      -0.43055       0.40637
                        -----------------------------------------
Magnitude (a.u.)       :      1.86911
Magnitude (Debye)      :      4.75089

Rotational constants in cm-1:     0.163108     0.153882     0.144407
Rotational constants in MHz :  4889.859464  4613.257659  4329.207840

                             ****ORCA TERMINATED NORMALLY****
TOTAL RUN TIME: 0 days 0 hours 0 minutes 7 seconds 562 msec
