                         Program Version 5.0.0 -  RELEASE  -
|  1> !wB97X-D3 RIJCOSX def2-TZVP def2/J TightSCF
|  2> *xyz -1 1
|  3> C         -0.60249       -0.63071        0.49224
|  4> O         -1.71206       -1.37684        0.20253
|  5> H          0.27695       -1.19720        0.26733
|  6> H         -0.60598       -0.37494        1.53122
|  7> H         -0.61066        0.26355       -0.09525
|  8> *
|  9> %MaxCore 64000
| 10>
| 11> %pal nprocs 8
| 12> end
| 13> %scf
| 14>   MaxIter 150
| 15> end
| 16>
| 17>                          ****END OF INPUT****

CARTESIAN COORDINATES (ANGSTROEM)
---------------------------------
  C     -0.602490   -0.630710    0.492240
  O     -1.712060   -1.376840    0.202530
  H      0.276950   -1.197200    0.267330
  H     -0.605980   -0.374940    1.531220
  H     -0.610660    0.263550   -0.095250

 Total Charge           Charge          ....   -1
 Multiplicity           Mult            ....    1
 Number of Electrons    NEL             ....   18
 Basis Dimension        Dim             ....   80

ORBITAL ENERGIES
----------------

  NO   OCC          E(Eh)            E(eV)
   0   2.0000     -18.839164      -512.6397
   1   2.0000     -10.043054      -273.2854
   2   2.0000      -0.751012       -20.4361
   3   2.0000      -0.495035       -13.4706
   4   2.0000      -0.282715        -7.6931
   5   2.0000      -0.282701        -7.6927
   6   2.0000      -0.173999        -4.7348
   7   2.0000      -0.019281        -0.5247
   8   2.0000      -0.019279        -0.5246
   9   0.0000       0.330258         8.9868
  10   0.0000       0.403322        10.9749
  11   0.0000       0.403330        10.9752
  12   0.0000       0.408578        11.1180
  13   0.0000       0.514004        13.9868

MULLIKEN ATOMIC CHARGES
-----------------------
   0 C :   -0.008581
   1 O :   -0.871785
   2 H :   -0.039982
   3 H :   -0.039832
   4 H :   -0.039820
Sum of atomic charges:   -1.0000000

LOEWDIN ATOMIC CHARGES
----------------------
   0 C :   -0.569324
   1 O :   -0.526989
   2 H :    0.032080
   3 H :    0.032113
   4 H :    0.032120

  Mayer bond orders larger than 0.100000
B(  0-C ,  1-O ) :   1.4601 B(  0-C ,  2-H ) :   0.9549 B(  0-C ,  3-H ) :   0.9549
B(  0-C ,  4-H ) :   0.9549

Dispersion correction           -0.000090009
FINAL SINGLE POINT ENERGY      -115.095456025554

DIPOLE MOMENT
-------------
                                X             Y             Z
Electronic contribution:     -1.60315      -1.07801      -0.41855
Nuclear contribution   :      2.33640       1.57111       0.61004
                        -----------------------------------------
Total Dipole Moment    :      0.73325       0.49310       0.19149
                        -----------------------------------------
Magnitude (a.u.)       :      0.90414
Magnitude (Debye)      :      2.29814

Rotational constants in cm-1:     5.477665     0.940945     0.940944
Rotational constants in MHz : 164216.266994 28208.811441 28208.799857

                             ****ORCA TERMINATED NORMALLY****
TOTAL RUN TIME: 0 days 0 hours 0 minutes 4 seconds 200 msec
