                         Program Version 5.0.0 -  RELEASE  -
|  1> !wB97X-D3 RIJCOSX def2-TZVP def2/J TightSCF
|  2> *xyz 1 1
|  3> C         -2.12050        0.88520        1.78951
|  4> N         -3.17690       -0.15948        1.61070
|  5> H         -4.06474        0.23127        1.28675
|  6> H         -3.34407       -0.67151        2.48493
|  7> H         -2.71686       -0.78189        0.93588
|  8> H         -1.96853        1.40078        0.86432
|  9> H         -1.20609        0.41954        2.09270
| 10> H         -2.43151        1.58226        2.53937
| 11> *
| 12> %MaxCore 64000
| 13>
| 14> %pal nprocs 8
| 15> end
| 16>
| 17> %scf
| 18>   MaxIter 150
| 19> end
| 20>
| 21>
| 22>                          ****END OF INPUT****

CARTESIAN COORDINATES (ANGSTROEM)
---------------------------------
  C     -2.120500    0.885200    1.789510
  N     -3.176900   -0.159480    1.610700
  H     -4.064740    0.231270    1.286750
  H     -3.344070   -0.671510    2.484930
  H     -2.716860   -0.781890    0.935880
  H     -1.968530    1.400780    0.864320
  H     -1.206090    0.419540    2.092700
  H     -2.431510    1.582260    2.539370

 Total Charge           Charge          ....    1
 Multiplicity           Mult            ....    1
 Number of Electrons    NEL             ....   18
 Basis Dimension        Dim             ....   98

ORBITAL ENERGIES
----------------

  NO   OCC          E(Eh)            E(eV)
   0   2.0000     -14.770811      -401.9342
   1   2.0000     -10.531308      -286.5715
   2   2.0000      -1.343365       -36.5548
   3   2.0000      -1.049328       -28.5537
   4   2.0000      -0.922076       -25.0910
   5   2.0000      -0.909751       -24.7556
   6   2.0000      -0.806223       -21.9384
   7   2.0000      -0.726143       -19.7594
   8   2.0000      -0.722684       -19.6652
   9   0.0000      -0.118703        -3.2301
  10   0.0000      -0.048604        -1.3226
  11   0.0000      -0.045202        -1.2300
  12   0.0000      -0.027485        -0.7479
  13   0.0000       0.014196         0.3863

MULLIKEN ATOMIC CHARGES
-----------------------
   0 C :   -0.337901
   1 N :   -0.306934
   2 H :    0.345401
   3 H :    0.341526
   4 H :    0.345416
   5 H :    0.205967
   6 H :    0.205112
   7 H :    0.201414
Sum of atomic charges:    1.0000000

LOEWDIN ATOMIC CHARGES
----------------------
   0 C :   -0.245600
   1 N :    0.153971
   2 H :    0.223241
   3 H :    0.224840
   4 H :    0.232412
   5 H :    0.137654
   6 H :    0.137521
   7 H :    0.135960

  Mayer bond orders larger than 0.100000
B(  0-C ,  1-N ) :   0.9042 B(  0-C ,  5-H ) :   0.9520 B(  0-C ,  6-H ) :   0.9515
B(  0-C ,  7-H ) :   0.9561 B(  1-N ,  2-H ) :   0.8670 B(  1-N ,  3-H ) :   0.8708
B(  1-N ,  4-H ) :   0.8723

Dispersion correction           -0.000488334
FINAL SINGLE POINT ENERGY       -96.223147763968

DIPOLE MOMENT
-------------
                                X             Y             Z
Electronic contribution:     -0.85011      -0.78009      -0.13191
Nuclear contribution   :      0.30442       0.18283       0.03339
                        -----------------------------------------
Total Dipole Moment    :     -0.54569      -0.59726      -0.09852
                        -----------------------------------------
Magnitude (a.u.)       :      0.81498
Magnitude (Debye)      :      2.07152

Rotational constants in cm-1:     2.844840     0.686092     0.683099
Rotational constants in MHz : 85286.171795 20568.516729 20478.789944

                             ****ORCA TERMINATED NORMALLY****
TOTAL RUN TIME: 0 days 0 hours 0 minutes 5 seconds 96 msec
