                         Program Version 5.0.0 -  RELEASE  -
|  1> !wB97X-D3 RIJCOSX def2-TZVP def2/J TightSCF
|  2> *xyz 0 1
|  3> C         -0.60249       -0.63071        0.49224
|  4> F         -1.71206       -1.37684        0.20253
|  5> H          0.27695       -1.19720        0.26733
|  6> H         -0.60598       -0.37494        1.53122
|  7> H         -0.61066        0.26355       -0.09525
|  8> *
|  9> %MaxCore 64000
| 10>
| 11> %pal nprocs 8
| 12> end
| 13> %scf
| 14>   MaxIter 150
| 15> end
| 16>
| 17>                          ****END OF INPUT****

CARTESIAN COORDINATES (ANGSTROEM)
---------------------------------
  C     -0.602490   -0.630710    0.492240
  F     -1.712060   -1.376840    0.202530
  H      0.276950   -1.197200    0.267330
  H     -0.605980   -0.374940    1.531220
  H     -0.610660    0.263550   -0.095250

 Total Charge           Charge          ....    0
 Multiplicity           Mult            ....    1
 Number of Electrons    NEL             ....   18
 Basis Dimension        Dim             ....   80

ORBITAL ENERGIES
----------------

  NO   OCC          E(Eh)            E(eV)
   0   2.0000     -24.763419      -673.8469
   1   2.0000     -10.338178      -281.3161
   2   2.0000      -1.309453       -35.6320
   3   2.0000      -0.819602       -22.3025
   4   2.0000      -0.593545       -16.1512
   5   2.0000      -0.590612       -16.0714
   6   2.0000      -0.590602       -16.0711
   7   2.0000      -0.445479       -12.1221
   8   2.0000      -0.445465       -12.1217
   9   0.0000       0.139298         3.7905
  10   0.0000       0.164636         4.4800
  11   0.0000       0.204114         5.5542
  12   0.0000       0.204120         5.5544
  13   0.0000       0.295007         8.0276

MULLIKEN ATOMIC CHARGES
-----------------------
   0 C :   -0.069055
   1 F :   -0.248365
   2 H :    0.105749
   3 H :    0.105844
   4 H :    0.105827
Sum of atomic charges:    0.0000000

LOEWDIN ATOMIC CHARGES
----------------------
   0 C :   -0.346491
   1 F :    0.063010
   2 H :    0.094479
   3 H :    0.094498
   4 H :    0.094504

  Mayer bond orders larger than 0.100000
B(  0-C ,  1-F ) :   0.9798 B(  0-C ,  2-H ) :   0.9789 B(  0-C ,  3-H ) :   0.9789
B(  0-C ,  4-H ) :   0.9789

Dispersion correction           -0.000129194
FINAL SINGLE POINT ENERGY      -139.764777179827

DIPOLE MOMENT
-------------
                                X             Y             Z
Electronic contribution:     -2.38453      -1.60346      -0.62251
Nuclear contribution   :      2.96306       1.99251       0.77366
                        -----------------------------------------
Total Dipole Moment    :      0.57853       0.38905       0.15115
                        -----------------------------------------
Magnitude (a.u.)       :      0.71337
Magnitude (Debye)      :      1.81325

Rotational constants in cm-1:     5.477665     0.875886     0.875886
Rotational constants in MHz : 164216.266994 26258.396768 26258.386731

                             ****ORCA TERMINATED NORMALLY****
TOTAL RUN TIME: 0 days 0 hours 0 minutes 3 seconds 858 msec
