                         Program Version 5.0.0 -  RELEASE  -
|  1> !wB97X-D3 RIJCOSX def2-TZVP def2/J TightSCF
|  2> *xyz 0 1
|  3> C         -2.12050        0.88520        1.78951
|  4> C         -3.17690       -0.15948        1.61070
|  5> H         -4.06474        0.23127        1.28675
|  6> H         -3.34407       -0.67151        2.48493
|  7> H         -2.71686       -0.78189        0.93588
|  8> H         -1.96853        1.40078        0.86432
|  9> H         -1.20609        0.41954        2.09270
| 10> H         -2.43151        1.58226        2.53937
| 11> *
| 12> %MaxCore 64000
| 13>
| 14> %pal nprocs 8
| 15> end
| 16>
| 17> %scf
| 18>   MaxIter 150
| 19> end
| 20>
| 21>
| 22>                          ****END OF INPUT****

CARTESIAN COORDINATES (ANGSTROEM)
---------------------------------
  C     -2.120500    0.885200    1.789510
  C     -3.176900   -0.159480    1.610700
  H     -4.064740    0.231270    1.286750
  H     -3.344070   -0.671510    2.484930
  H     -2.716860   -0.781890    0.935880
  H     -1.968530    1.400780    0.864320
  H     -1.206090    0.419540    2.092700
  H     -2.431510    1.582260    2.539370

 Total Charge           Charge          ....    0
 Multiplicity           Mult            ....    1
 Number of Electrons    NEL             ....   18
 Basis Dimension        Dim             ....   98

ORBITAL ENERGIES
----------------

  NO   OCC          E(Eh)            E(eV)
   0   2.0000     -10.248309      -278.8707
   1   2.0000     -10.233698      -278.4731
   2   2.0000      -0.886093       -24.1118
   3   2.0000      -0.729931       -19.8624
   4   2.0000      -0.556870       -15.1532
   5   2.0000      -0.547956       -14.9106
   6   2.0000      -0.461480       -12.5575
   7   2.0000      -0.442838       -12.0502
   8   2.0000      -0.433509       -11.7964
   9   0.0000       0.127163         3.4603
  10   0.0000       0.172905         4.7050
  11   0.0000       0.199820         5.4374
  12   0.0000       0.201911         5.4943
  13   0.0000       0.210547         5.7293

MULLIKEN ATOMIC CHARGES
-----------------------
   0 C :   -0.311299
   1 C :   -0.289532
   2 H :    0.102913
   3 H :    0.100617
   4 H :    0.098500
   5 H :    0.100737
   6 H :    0.100715
   7 H :    0.097349
Sum of atomic charges:   -0.0000000

LOEWDIN ATOMIC CHARGES
----------------------
   0 C :   -0.331949
   1 C :   -0.321575
   2 H :    0.101953
   3 H :    0.103963
   4 H :    0.112326
   5 H :    0.112498
   6 H :    0.112856
   7 H :    0.109928

  Mayer bond orders larger than 0.100000
B(  0-C ,  1-C ) :   0.9763 B(  0-C ,  5-H ) :   0.9812 B(  0-C ,  6-H ) :   0.9818
B(  0-C ,  7-H ) :   0.9835 B(  1-C ,  2-H ) :   0.9814 B(  1-C ,  3-H ) :   0.9837
B(  1-C ,  4-H ) :   0.9842

Dispersion correction           -0.000477140
FINAL SINGLE POINT ENERGY       -79.819630253992

DIPOLE MOMENT
-------------
                                X             Y             Z
Electronic contribution:     -0.12581      -0.01952      -0.00264
Nuclear contribution   :      0.12022       0.00247       0.00249
                        -----------------------------------------
Total Dipole Moment    :     -0.00559      -0.01706      -0.00015
                        -----------------------------------------
Magnitude (a.u.)       :      0.01795
Magnitude (Debye)      :      0.04563

Rotational constants in cm-1:     2.844858     0.716988     0.713720
Rotational constants in MHz : 85286.697487 21494.771942 21396.773512

                             ****ORCA TERMINATED NORMALLY****
TOTAL RUN TIME: 0 days 0 hours 0 minutes 5 seconds 45 msec
