                         Program Version 5.0.0 -  RELEASE  -
|  1> !DLPNO-CCSD(T) aug-cc-pVTZ aug-cc-pVTZ/C TightSCF TightPNO RIJCOSX def2/J
|  2> *xyz -1 1
|  3> C         -2.79070       -0.78527        5.70281
|  4> C         -2.45380        0.05510        6.94145
|  5> C         -2.07842        1.48042        6.56410
|  6> H         -1.62558       -0.38216        7.49891
|  7> H         -3.32527        0.08775        7.59917
|  8> O         -0.90125        1.85816        6.82810
|  9> O         -2.93658        2.17731        5.96415
| 10> H         -1.94052       -0.82114        5.05412
| 11> H         -3.61590       -0.34261        5.18514
| 12> H         -3.05063       -1.77815        6.00536
| 13> *
| 14> %MaxCore 64000
| 15>
| 16> %pal nprocs 18
| 17> end
| 18>
| 19> %scf
| 20>   MaxIter 150
| 21> end
| 22>
| 23>
| 24>                          ****END OF INPUT****

CARTESIAN COORDINATES (ANGSTROEM)
---------------------------------
  C     -2.790700   -0.785270    5.702810
  C     -2.453800    0.055100    6.941450
  C     -2.078420    1.480420    6.564100
  H     -1.625580   -0.382160    7.498910
  H     -3.325270    0.087750    7.599170
  O     -0.901250    1.858160    6.828100
  O     -2.936580    2.177310    5.964150
  H     -1.940520   -0.821140    5.054120
  H     -3.615900   -0.342610    5.185140
  H     -3.050630   -1.778150    6.005360

 Total Charge           Charge          ....   -1
 Multiplicity           Mult            ....    1
 Number of Electrons    NEL             ....   40
 Basis Dimension        Dim             ....  345

ORBITAL ENERGIES
----------------

  NO   OCC          E(Eh)            E(eV)
   0   2.0000     -20.282731      -551.9212
   1   2.0000     -20.282257      -551.9083
   2   2.0000     -11.124774      -302.7205
   3   2.0000     -11.064239      -301.0733
   4   2.0000     -11.053584      -300.7833
   5   2.0000      -1.159350       -31.5475
   6   2.0000      -1.051615       -28.6159
   7   2.0000      -0.878342       -23.9009
   8   2.0000      -0.713203       -19.4072
   9   2.0000      -0.518887       -14.1196
  10   2.0000      -0.463172       -12.6036
  11   2.0000      -0.443555       -12.0697
  12   2.0000      -0.397479       -10.8159
  13   2.0000      -0.382888       -10.4189
  14   2.0000      -0.371517       -10.1095
  15   2.0000      -0.334678        -9.1071
  16   2.0000      -0.309578        -8.4240
  17   2.0000      -0.197178        -5.3655
  18   2.0000      -0.195095        -5.3088
  19   2.0000      -0.183046        -4.9809
  20   0.0000       0.117301         3.1919
  21   0.0000       0.135097         3.6762
  22   0.0000       0.137951         3.7538
  23   0.0000       0.147399         4.0109
  24   0.0000       0.157120         4.2754

MULLIKEN ATOMIC CHARGES
-----------------------
   0 C :   -0.976228
   1 C :   -0.151069
   2 C :    0.496910
   3 H :    0.241240
   4 H :    0.227404
   5 O :   -0.858411
   6 O :   -0.857529
   7 H :    0.293349
   8 H :    0.325748
   9 H :    0.258586
Sum of atomic charges:   -1.0000000

LOEWDIN ATOMIC CHARGES
----------------------
   0 C :    0.552456
   1 C :    0.169460
   2 C :   -1.210723
   3 H :   -0.199785
   4 H :   -0.182301
   5 O :    0.232416
   6 O :    0.244004
   7 H :   -0.193138
   8 H :   -0.203220
   9 H :   -0.209168

  Mayer bond orders larger than 0.100000
B(  0-C ,  1-C ) :   0.8405 B(  0-C ,  2-C ) :   0.1169 B(  0-C ,  7-H ) :   0.9358
B(  0-C ,  8-H ) :   0.9077 B(  0-C ,  9-H ) :   0.9741 B(  1-C ,  2-C ) :   0.6638
B(  1-C ,  3-H ) :   0.9645 B(  1-C ,  4-H ) :   0.9712 B(  2-C ,  5-O ) :   1.3731
B(  2-C ,  6-O ) :   1.4333

E(0)                                       ...   -266.374541242
E(0)                                       ...   -266.374541242
E(CORR)(strong-pairs)                      ...     -1.024027938
E(CORR)(weak-pairs)                        ...     -0.000895639
E(CORR)(corrected)                         ...     -1.024923577
E(TOT)                                     ...   -267.399464819
E(CCSD(T))                                 ...   -267.443302306
FINAL SINGLE POINT ENERGY      -267.443302305600

DIPOLE MOMENT
-------------
                                X             Y             Z
Electronic contribution:      1.57465       5.36406       0.70622
Nuclear contribution   :     -2.24498      -7.51881      -0.57245
                        -----------------------------------------
Total Dipole Moment    :     -0.67033      -2.15474       0.13376
                        -----------------------------------------
Magnitude (a.u.)       :      2.26057
Magnitude (Debye)      :      5.74590

Rotational constants in cm-1:     0.305589     0.135336     0.107479
Rotational constants in MHz :  9161.317320  4057.276612  3222.126231

                             ****ORCA TERMINATED NORMALLY****
TOTAL RUN TIME: 0 days 0 hours 3 minutes 39 seconds 304 msec
