                         Program Version 5.0.0 -  RELEASE  -
|  1> !DLPNO-CCSD(T) aug-cc-pVTZ aug-cc-pVTZ/C TightSCF TightPNO RIJCOSX def2/J
|  2> *xyz 1 1
|  3> C         -0.69912        3.48945        3.75516
|  4> H         -0.96672        4.34901        3.14049
|  5> N         -1.08067        3.79296        5.15686
|  6> C          0.77696        3.13839        3.61741
|  7> H         -1.33146        2.65651        3.44632
|  8> H         -0.87449        4.76274        5.42734
|  9> H         -0.68079        3.13476        5.83900
| 10> H         -2.05755        3.53169        5.34620
| 11> H          0.99957        2.92898        2.59199
| 12> H          0.99576        2.27685        4.21303
| 13> H          1.37223        3.96279        3.95046
| 14> *
| 15> %MaxCore 64000
| 16>
| 17> %pal nprocs 18
| 18> end
| 19>
| 20> %scf
| 21>   MaxIter 150
| 22> end
| 23>
| 24>
| 25>                          ****END OF INPUT****

CARTESIAN COORDINATES (ANGSTROEM)
---------------------------------
  C     -0.699120    3.489450    3.755160
  H     -0.966720    4.349010    3.140490
  N     -1.080670    3.792960    5.156860
  C      0.776960    3.138390    3.617410
  H     -1.331460    2.656510    3.446320
  H     -0.874490    4.762740    5.427340
  H     -0.680790    3.134760    5.839000
  H     -2.057550    3.531690    5.346200
  H      0.999570    2.928980    2.591990
  H      0.995760    2.276850    4.213030
  H      1.372230    3.962790    3.950460

 Total Charge           Charge          ....    1
 Multiplicity           Mult            ....    1
 Number of Electrons    NEL             ....   26
 Basis Dimension        Dim             ....  322

ORBITAL ENERGIES
----------------

  NO   OCC          E(Eh)            E(eV)
   0   2.0000     -15.901632      -432.7054
   1   2.0000     -11.480924      -312.4118
   2   2.0000     -11.395937      -310.0992
   3   2.0000      -1.522511       -41.4296
   4   2.0000      -1.226575       -33.3768
   5   2.0000      -1.069140       -29.0928
   6   2.0000      -0.997027       -27.1305
   7   2.0000      -0.943262       -25.6675
   8   2.0000      -0.863519       -23.4975
   9   2.0000      -0.806790       -21.9539
  10   2.0000      -0.732564       -19.9341
  11   2.0000      -0.713333       -19.4108
  12   2.0000      -0.698800       -19.0153
  13   0.0000      -0.120468        -3.2781
  14   0.0000      -0.084680        -2.3043
  15   0.0000      -0.081907        -2.2288
  16   0.0000      -0.074342        -2.0230
  17   0.0000      -0.047313        -1.2874

MULLIKEN ATOMIC CHARGES
-----------------------
   0 C :   -0.347219
   1 H :    0.364336
   2 N :    0.082478
   3 C :   -0.945942
   4 H :    0.366507
   5 H :    0.156186
   6 H :    0.159806
   7 H :    0.157767
   8 H :    0.372758
   9 H :    0.317944
  10 H :    0.315377
Sum of atomic charges:    1.0000000

LOEWDIN ATOMIC CHARGES
----------------------
   0 C :    0.328140
   1 H :   -0.110293
   2 N :    1.100165
   3 C :    0.665151
   4 H :   -0.114327
   5 H :   -0.113848
   6 H :   -0.133821
   7 H :   -0.129859
   8 H :   -0.154278
   9 H :   -0.169347
  10 H :   -0.167682

  Mayer bond orders larger than 0.100000
B(  0-C ,  1-H ) :   0.8676 B(  0-C ,  2-N ) :   0.8238 B(  0-C ,  3-C ) :   0.8809
B(  0-C ,  4-H ) :   0.8523 B(  2-N ,  5-H ) :   1.0016 B(  2-N ,  6-H ) :   0.9718
B(  2-N ,  7-H ) :   1.0073 B(  3-C ,  8-H ) :   0.8775 B(  3-C ,  9-H ) :   0.9190
B(  3-C , 10-H ) :   0.9261

E(0)                                       ...   -134.666691616
E(0)                                       ...   -134.666691616
E(CORR)(strong-pairs)                      ...     -0.615690343
E(CORR)(weak-pairs)                        ...     -0.000453929
E(CORR)(corrected)                         ...     -0.616144271
E(TOT)                                     ...   -135.282835888
E(CCSD(T))                                 ...   -135.303736140
FINAL SINGLE POINT ENERGY      -135.303736139569

DIPOLE MOMENT
-------------
                                X             Y             Z
Electronic contribution:     -1.33912       0.57370       1.10521
Nuclear contribution   :      0.33986      -0.24565       0.10678
                        -----------------------------------------
Total Dipole Moment    :     -0.99927       0.32805       1.21199
                        -----------------------------------------
Magnitude (a.u.)       :      1.60471
Magnitude (Debye)      :      4.07884

Rotational constants in cm-1:     1.016237     0.277523     0.247812
Rotational constants in MHz : 30466.024354  8319.937961  7429.230177

                             ****ORCA TERMINATED NORMALLY****
TOTAL RUN TIME: 0 days 0 hours 1 minutes 42 seconds 154 msec
