                         Program Version 5.0.0 -  RELEASE  -
|  1> !DLPNO-CCSD(T) aug-cc-pVTZ aug-cc-pVTZ/C TightSCF TightPNO RIJCOSX def2/J
|  2> *xyz 0 1
|  3> C         -2.79070       -0.78527        5.70281
|  4> C         -2.45380        0.05510        6.94145
|  5> C         -2.07842        1.48042        6.56410
|  6> H         -1.62558       -0.38216        7.49891
|  7> H         -3.32527        0.08775        7.59917
|  8> F         -0.90125        1.85816        6.82810
|  9> O         -2.93658        2.17731        5.96415
| 10> H         -1.94052       -0.82114        5.05412
| 11> H         -3.61590       -0.34261        5.18514
| 12> H         -3.05063       -1.77815        6.00536
| 13> *
| 14> %MaxCore 64000
| 15>
| 16> %pal nprocs 18
| 17> end
| 18>
| 19> %scf
| 20>   MaxIter 150
| 21> end
| 22>
| 23>
| 24>                          ****END OF INPUT****

CARTESIAN COORDINATES (ANGSTROEM)
---------------------------------
  C     -2.790700   -0.785270    5.702810
  C     -2.453800    0.055100    6.941450
  C     -2.078420    1.480420    6.564100
  H     -1.625580   -0.382160    7.498910
  H     -3.325270    0.087750    7.599170
  F     -0.901250    1.858160    6.828100
  O     -2.936580    2.177310    5.964150
  H     -1.940520   -0.821140    5.054120
  H     -3.615900   -0.342610    5.185140
  H     -3.050630   -1.778150    6.005360

 Total Charge           Charge          ....    0
 Multiplicity           Mult            ....    1
 Number of Electrons    NEL             ....   40
 Basis Dimension        Dim             ....  345

ORBITAL ENERGIES
----------------

  NO   OCC          E(Eh)            E(eV)
   0   2.0000     -26.373622      -717.6627
   1   2.0000     -20.563028      -559.5485
   2   2.0000     -11.430747      -311.0464
   3   2.0000     -11.262991      -306.4816
   4   2.0000     -11.232984      -305.6650
   5   2.0000      -1.723747       -46.9055
   6   2.0000      -1.373342       -37.3705
   7   2.0000      -1.079304       -29.3694
   8   2.0000      -0.939309       -25.5599
   9   2.0000      -0.870476       -23.6869
  10   2.0000      -0.769611       -20.9422
  11   2.0000      -0.761480       -20.7209
  12   2.0000      -0.712566       -19.3899
  13   2.0000      -0.638962       -17.3871
  14   2.0000      -0.615973       -16.7615
  15   2.0000      -0.558612       -15.2006
  16   2.0000      -0.542863       -14.7720
  17   2.0000      -0.528698       -14.3866
  18   2.0000      -0.488041       -13.2803
  19   2.0000      -0.466291       -12.6884
  20   0.0000       0.026147         0.7115
  21   0.0000       0.039199         1.0667
  22   0.0000       0.040726         1.1082
  23   0.0000       0.048669         1.3244
  24   0.0000       0.064025         1.7422

MULLIKEN ATOMIC CHARGES
-----------------------
   0 C :   -0.945704
   1 C :   -0.237263
   2 C :    0.631601
   3 H :    0.253283
   4 H :    0.284424
   5 F :   -0.274431
   6 O :   -0.652387
   7 H :    0.303147
   8 H :    0.337564
   9 H :    0.299767
Sum of atomic charges:   -0.0000000

LOEWDIN ATOMIC CHARGES
----------------------
   0 C :    0.597115
   1 C :    0.243574
   2 C :   -0.916818
   3 H :   -0.175502
   4 H :   -0.156833
   5 F :    0.572090
   6 O :    0.384181
   7 H :   -0.181721
   8 H :   -0.186106
   9 H :   -0.179979

  Mayer bond orders larger than 0.100000
B(  0-C ,  1-C ) :   0.8584 B(  0-C ,  2-C ) :   0.1030 B(  0-C ,  7-H ) :   0.9274
B(  0-C ,  8-H ) :   0.9023 B(  0-C ,  9-H ) :   0.9412 B(  1-C ,  2-C ) :   0.7390
B(  1-C ,  3-H ) :   0.9502 B(  1-C ,  4-H ) :   0.9223 B(  2-C ,  5-F ) :   0.8264
B(  2-C ,  6-O ) :   1.6914

E(0)                                       ...   -290.928630519
E(0)                                       ...   -290.928630519
E(CORR)(strong-pairs)                      ...     -1.024843664
E(CORR)(weak-pairs)                        ...     -0.000877017
E(CORR)(corrected)                         ...     -1.025720682
E(TOT)                                     ...   -291.954351200
E(CCSD(T))                                 ...   -291.994643541
FINAL SINGLE POINT ENERGY      -291.994643540555

DIPOLE MOMENT
-------------
                                X             Y             Z
Electronic contribution:      4.00067       7.28788       1.54928
Nuclear contribution   :     -3.69486      -8.49563      -1.04945
                        -----------------------------------------
Total Dipole Moment    :      0.30581      -1.20775       0.49983
                        -----------------------------------------
Magnitude (a.u.)       :      1.34239
Magnitude (Debye)      :      3.41208

Rotational constants in cm-1:     0.293725     0.129218     0.102393
Rotational constants in MHz :  8805.653529  3873.869810  3069.666716

                             ****ORCA TERMINATED NORMALLY****
TOTAL RUN TIME: 0 days 0 hours 3 minutes 17 seconds 923 msec
