                         Program Version 5.0.0 -  RELEASE  -
|  1> !DLPNO-CCSD(T) aug-cc-pVTZ aug-cc-pVTZ/C TightSCF TightPNO RIJCOSX def2/J
|  2> *xyz 0 1
|  3> C         -0.69912        3.48945        3.75516
|  4> H         -0.96672        4.34901        3.14049
|  5> C         -1.08067        3.79296        5.15686
|  6> C          0.77696        3.13839        3.61741
|  7> H         -1.33146        2.65651        3.44632
|  8> H         -0.87449        4.76274        5.42734
|  9> H         -0.68079        3.13476        5.83900
| 10> H         -2.05755        3.53169        5.34620
| 11> H          0.99957        2.92898        2.59199
| 12> H          0.99576        2.27685        4.21303
| 13> H          1.37223        3.96279        3.95046
| 14> *
| 15> %MaxCore 64000
| 16>
| 17> %pal nprocs 18
| 18> end
| 19>
| 20> %scf
| 21>   MaxIter 150
| 22> end
| 23>
| 24>
| 25>                          ****END OF INPUT****

CARTESIAN COORDINATES (ANGSTROEM)
---------------------------------
  C     -0.699120    3.489450    3.755160
  H     -0.966720    4.349010    3.140490
  C     -1.080670    3.792960    5.156860
  C      0.776960    3.138390    3.617410
  H     -1.331460    2.656510    3.446320
  H     -0.874490    4.762740    5.427340
  H     -0.680790    3.134760    5.839000
  H     -2.057550    3.531690    5.346200
  H      0.999570    2.928980    2.591990
  H      0.995760    2.276850    4.213030
  H      1.372230    3.962790    3.950460

 Total Charge           Charge          ....    0
 Multiplicity           Mult            ....    1
 Number of Electrons    NEL             ....   26
 Basis Dimension        Dim             ....  322

ORBITAL ENERGIES
----------------

  NO   OCC          E(Eh)            E(eV)
   0   2.0000     -11.208123      -304.9885
   1   2.0000     -11.199407      -304.7514
   2   2.0000     -11.178042      -304.1700
   3   2.0000      -1.066328       -29.0163
   4   2.0000      -0.941273       -25.6133
   5   2.0000      -0.806644       -21.9499
   6   2.0000      -0.642293       -17.4777
   7   2.0000      -0.601668       -16.3722
   8   2.0000      -0.556137       -15.1332
   9   2.0000      -0.549381       -14.9494
  10   2.0000      -0.481863       -13.1122
  11   2.0000      -0.471316       -12.8252
  12   2.0000      -0.463352       -12.6085
  13   0.0000       0.033027         0.8987
  14   0.0000       0.040700         1.1075
  15   0.0000       0.041940         1.1413
  16   0.0000       0.042951         1.1688
  17   0.0000       0.063843         1.7372

MULLIKEN ATOMIC CHARGES
-----------------------
   0 C :   -0.363596
   1 H :    0.274971
   2 C :   -1.052479
   3 C :   -0.981660
   4 H :    0.276946
   5 H :    0.326411
   6 H :    0.340842
   7 H :    0.283177
   8 H :    0.297510
   9 H :    0.299207
  10 H :    0.298672
Sum of atomic charges:    0.0000000

LOEWDIN ATOMIC CHARGES
----------------------
   0 C :    0.257182
   1 H :   -0.143925
   2 C :    0.606472
   3 C :    0.601942
   4 H :   -0.147803
   5 H :   -0.194395
   6 H :   -0.214124
   7 H :   -0.213880
   8 H :   -0.186982
   9 H :   -0.183924
  10 H :   -0.180564

  Mayer bond orders larger than 0.100000
B(  0-C ,  1-H ) :   0.9407 B(  0-C ,  2-C ) :   0.7914 B(  0-C ,  3-C ) :   0.8341
B(  0-C ,  4-H ) :   0.9434 B(  2-C ,  5-H ) :   0.9227 B(  2-C ,  6-H ) :   0.8825
B(  2-C ,  7-H ) :   0.9868 B(  3-C ,  8-H ) :   0.9548 B(  3-C ,  9-H ) :   0.9366
B(  3-C , 10-H ) :   0.9307

E(0)                                       ...   -118.291824048
E(0)                                       ...   -118.291824048
E(CORR)(strong-pairs)                      ...     -0.590593166
E(CORR)(weak-pairs)                        ...     -0.000445056
E(CORR)(corrected)                         ...     -0.591038222
E(TOT)                                     ...   -118.882862270
E(CCSD(T))                                 ...   -118.903375455
FINAL SINGLE POINT ENERGY      -118.903375454592

DIPOLE MOMENT
-------------
                                X             Y             Z
Electronic contribution:     -0.13576       0.12367      -0.39456
Nuclear contribution   :      0.10024      -0.14218       0.41628
                        -----------------------------------------
Total Dipole Moment    :     -0.03552      -0.01851       0.02172
                        -----------------------------------------
Magnitude (a.u.)       :      0.04556
Magnitude (Debye)      :      0.11581

Rotational constants in cm-1:     1.024179     0.291605     0.259489
Rotational constants in MHz : 30704.103454  8742.106283  7779.285909

                             ****ORCA TERMINATED NORMALLY****
TOTAL RUN TIME: 0 days 0 hours 2 minutes 0 seconds 527 msec
