                         Program Version 5.0.0 -  RELEASE  -
|  1> !DLPNO-CCSD(T) aug-cc-pVTZ aug-cc-pVTZ/C TightSCF TightPNO RIJCOSX def2/J
|  2> *xyz 0 1
|  3> C         -2.79070       -0.78527        5.70281
|  4> C         -2.45380        0.05510        6.94145
|  5> C         -2.07842        1.48042        6.56410
|  6> H         -1.62558       -0.38216        7.49891
|  7> H         -3.32527        0.08775        7.59917
|  8> O         -0.90125        1.85816        6.82810
|  9> F         -2.93658        2.17731        5.96415
| 10> H         -1.94052       -0.82114        5.05412
| 11> H         -3.61590       -0.34261        5.18514
| 12> H         -3.05063       -1.77815        6.00536
| 13> *
| 14> %MaxCore 64000
| 15>
| 16> %pal nprocs 18
| 17> end
| 18>
| 19> %scf
| 20>   MaxIter 150
| 21> end
| 22>
| 23>
| 24>                          ****END OF INPUT****

CARTESIAN COORDINATES (ANGSTROEM)
---------------------------------
  C     -2.790700   -0.785270    5.702810
  C     -2.453800    0.055100    6.941450
  C     -2.078420    1.480420    6.564100
  H     -1.625580   -0.382160    7.498910
  H     -3.325270    0.087750    7.599170
  O     -0.901250    1.858160    6.828100
  F     -2.936580    2.177310    5.964150
  H     -1.940520   -0.821140    5.054120
  H     -3.615900   -0.342610    5.185140
  H     -3.050630   -1.778150    6.005360

 Total Charge           Charge          ....    0
 Multiplicity           Mult            ....    1
 Number of Electrons    NEL             ....   40
 Basis Dimension        Dim             ....  345

ORBITAL ENERGIES
----------------

  NO   OCC          E(Eh)            E(eV)
   0   2.0000     -26.376874      -717.7512
   1   2.0000     -20.562148      -559.5245
   2   2.0000     -11.430285      -311.0339
   3   2.0000     -11.262680      -306.4731
   4   2.0000     -11.237403      -305.7853
   5   2.0000      -1.729428       -47.0601
   6   2.0000      -1.368124       -37.2285
   7   2.0000      -1.082874       -29.4665
   8   2.0000      -0.937122       -25.5004
   9   2.0000      -0.878204       -23.8971
  10   2.0000      -0.776670       -21.1343
  11   2.0000      -0.767310       -20.8796
  12   2.0000      -0.704760       -19.1775
  13   2.0000      -0.640002       -17.4153
  14   2.0000      -0.615105       -16.7379
  15   2.0000      -0.564839       -15.3700
  16   2.0000      -0.546095       -14.8600
  17   2.0000      -0.532675       -14.4948
  18   2.0000      -0.488407       -13.2902
  19   2.0000      -0.459850       -12.5131
  20   0.0000       0.025555         0.6954
  21   0.0000       0.038158         1.0383
  22   0.0000       0.040750         1.1089
  23   0.0000       0.048412         1.3174
  24   0.0000       0.062660         1.7051

MULLIKEN ATOMIC CHARGES
-----------------------
   0 C :   -0.973913
   1 C :   -0.239277
   2 C :    0.669231
   3 H :    0.284826
   4 H :    0.276386
   5 O :   -0.654726
   6 F :   -0.290447
   7 H :    0.314467
   8 H :    0.317705
   9 H :    0.295748
Sum of atomic charges:   -0.0000000

LOEWDIN ATOMIC CHARGES
----------------------
   0 C :    0.596996
   1 C :    0.242328
   2 C :   -0.919241
   3 H :   -0.166618
   4 H :   -0.161957
   5 O :    0.374550
   6 F :    0.580980
   7 H :   -0.180551
   8 H :   -0.187449
   9 H :   -0.179038

  Mayer bond orders larger than 0.100000
B(  0-C ,  1-C ) :   0.8568 B(  0-C ,  2-C ) :   0.1189 B(  0-C ,  7-H ) :   0.9161
B(  0-C ,  8-H ) :   0.9106 B(  0-C ,  9-H ) :   0.9571 B(  1-C ,  2-C ) :   0.7646
B(  1-C ,  3-H ) :   0.9317 B(  1-C ,  4-H ) :   0.9399 B(  2-C ,  5-O ) :   1.6348
B(  2-C ,  6-F ) :   0.8395

E(0)                                       ...   -290.926490687
E(0)                                       ...   -290.926490687
E(CORR)(strong-pairs)                      ...     -1.024796317
E(CORR)(weak-pairs)                        ...     -0.000878066
E(CORR)(corrected)                         ...     -1.025674383
E(TOT)                                     ...   -291.952165070
E(CCSD(T))                                 ...   -291.992422902
FINAL SINGLE POINT ENERGY      -291.992422901728

DIPOLE MOMENT
-------------
                                X             Y             Z
Electronic contribution:      0.47055       7.82084       0.05376
Nuclear contribution   :     -1.47571      -8.84360      -0.10748
                        -----------------------------------------
Total Dipole Moment    :     -1.00516      -1.02276      -0.05372
                        -----------------------------------------
Magnitude (a.u.)       :      1.43502
Magnitude (Debye)      :      3.64753

Rotational constants in cm-1:     0.283081     0.133379     0.103386
Rotational constants in MHz :  8486.545774  3998.599544  3099.448040

                             ****ORCA TERMINATED NORMALLY****
TOTAL RUN TIME: 0 days 0 hours 3 minutes 7 seconds 606 msec
