                         Program Version 5.0.0 -  RELEASE  -
|  1> !LC-PBE RIJCOSX def2-TZVP def2/J TightSCF
|  2> *xyz -1 1
|  3> C         -0.77894        0.17197        1.80496
|  4> C         -0.60249       -0.63071        0.49224
|  5> H          0.31389       -1.24035        0.60350
|  6> H         -0.36383        0.11332       -0.30117
|  7> O         -1.71206       -1.37684        0.20253
|  8> H         -1.65864        0.77733        1.73736
|  9> H          0.07466        0.79896        1.95712
| 10> H         -0.87474       -0.50584        2.62734
| 11> *
| 12> %MaxCore 64000
| 13>
| 14> %pal nprocs 4
| 15> end
| 16>
| 17> %scf
| 18>   MaxIter 150
| 19> end
| 20>
| 21>
| 22>                          ****END OF INPUT****

CARTESIAN COORDINATES (ANGSTROEM)
---------------------------------
  C     -0.778940    0.171970    1.804960
  C     -0.602490   -0.630710    0.492240
  H      0.313890   -1.240350    0.603500
  H     -0.363830    0.113320   -0.301170
  O     -1.712060   -1.376840    0.202530
  H     -1.658640    0.777330    1.737360
  H      0.074660    0.798960    1.957120
  H     -0.874740   -0.505840    2.627340

 Total Charge           Charge          ....   -1
 Multiplicity           Mult            ....    1
 Number of Electrons    NEL             ....   26
 Basis Dimension        Dim             ....  123

ORBITAL ENERGIES
----------------

  NO   OCC          E(Eh)            E(eV)
   0   2.0000     -18.611150      -506.4351
   1   2.0000      -9.918730      -269.9024
   2   2.0000      -9.896440      -269.2958
   3   2.0000      -0.829560       -22.5735
   4   2.0000      -0.686107       -18.6699
   5   2.0000      -0.521542       -14.1919
   6   2.0000      -0.387611       -10.5474
   7   2.0000      -0.359720        -9.7885
   8   2.0000      -0.299587        -8.1522
   9   2.0000      -0.282036        -7.6746
  10   2.0000      -0.230563        -6.2739
  11   2.0000      -0.079303        -2.1580
  12   2.0000      -0.077822        -2.1176
  13   0.0000       0.298399         8.1198
  14   0.0000       0.336376         9.1533
  15   0.0000       0.361310         9.8317
  16   0.0000       0.366126         9.9628
  17   0.0000       0.398453        10.8425

MULLIKEN ATOMIC CHARGES
-----------------------
   0 C :   -0.311705
   1 C :   -0.010430
   2 H :   -0.034759
   3 H :   -0.037323
   4 O :   -0.781684
   5 H :    0.076371
   6 H :    0.026377
   7 H :    0.073152
Sum of atomic charges:   -1.0000000

LOEWDIN ATOMIC CHARGES
----------------------
   0 C :   -0.384929
   1 C :   -0.575331
   2 H :    0.064172
   3 H :    0.063492
   4 O :   -0.447328
   5 H :    0.098420
   6 H :    0.084478
   7 H :    0.097025

  Mayer bond orders larger than 0.100000
B(  0-C ,  1-C ) :   0.9061 B(  0-C ,  4-O ) :  -0.1407 B(  0-C ,  5-H ) :   0.9765
B(  0-C ,  6-H ) :   0.9537 B(  0-C ,  7-H ) :   0.9788 B(  1-C ,  2-H ) :   0.9435
B(  1-C ,  3-H ) :   0.9455 B(  1-C ,  4-O ) :   1.5726

FINAL SINGLE POINT ENERGY      -154.002691618145

DIPOLE MOMENT
-------------
                                X             Y             Z
Electronic contribution:     -1.62575      -1.82445      -1.45863
Nuclear contribution   :      2.47835       2.80827       2.30058
                        -----------------------------------------
Total Dipole Moment    :      0.85260       0.98382       0.84195
                        -----------------------------------------
Magnitude (a.u.)       :      1.55039
Magnitude (Debye)      :      3.94078

Rotational constants in cm-1:     1.255775     0.327783     0.287473
Rotational constants in MHz : 37647.186859  9826.677683  8618.224821

                             ****ORCA TERMINATED NORMALLY****
TOTAL RUN TIME: 0 days 0 hours 0 minutes 11 seconds 22 msec
