                         Program Version 5.0.0 -  RELEASE  -
|  1> !LC-PBE RIJCOSX def2-TZVP def2/J TightSCF
|  2> *xyz 1 1
|  3> C         -2.12050        0.88520        1.78951
|  4> C         -0.77894        0.17197        1.80496
|  5> H         -2.32419        1.47265        2.68608
|  6> H         -2.18770        1.54127        0.91948
|  7> N         -3.17690       -0.15948        1.61070
|  8> H         -4.06474        0.23127        1.28675
|  9> H         -3.34407       -0.67151        2.48493
| 10> H         -2.71686       -0.78189        0.93588
| 11> H         -0.65708       -0.37837        0.89547
| 12> H         -0.74207       -0.50050        2.63642
| 13> H          0.00707        0.89251        1.89389
| 14> *
| 15> %MaxCore 64000
| 16>
| 17> %pal nprocs 4
| 18> end
| 19>
| 20> %scf
| 21>   MaxIter 150
| 22> end
| 23>
| 24>
| 25>                          ****END OF INPUT****

CARTESIAN COORDINATES (ANGSTROEM)
---------------------------------
  C     -2.120500    0.885200    1.789510
  C     -0.778940    0.171970    1.804960
  H     -2.324190    1.472650    2.686080
  H     -2.187700    1.541270    0.919480
  N     -3.176900   -0.159480    1.610700
  H     -4.064740    0.231270    1.286750
  H     -3.344070   -0.671510    2.484930
  H     -2.716860   -0.781890    0.935880
  H     -0.657080   -0.378370    0.895470
  H     -0.742070   -0.500500    2.636420
  H      0.007070    0.892510    1.893890

 Total Charge           Charge          ....    1
 Multiplicity           Mult            ....    1
 Number of Electrons    NEL             ....   26
 Basis Dimension        Dim             ....  141

ORBITAL ENERGIES
----------------

  NO   OCC          E(Eh)            E(eV)
   0   2.0000     -14.547620      -395.8609
   1   2.0000     -10.371767      -282.2301
   2   2.0000     -10.292199      -280.0650
   3   2.0000      -1.391512       -37.8650
   4   2.0000      -1.142018       -31.0759
   5   2.0000      -1.008169       -27.4337
   6   2.0000      -0.952873       -25.9290
   7   2.0000      -0.941636       -25.6232
   8   2.0000      -0.833506       -22.6809
   9   2.0000      -0.785652       -21.3787
  10   2.0000      -0.719087       -19.5674
  11   2.0000      -0.710666       -19.3382
  12   2.0000      -0.686208       -18.6727
  13   0.0000      -0.102864        -2.7991
  14   0.0000      -0.043350        -1.1796
  15   0.0000      -0.040547        -1.1033
  16   0.0000      -0.020731        -0.5641
  17   0.0000       0.013557         0.3689

MULLIKEN ATOMIC CHARGES
-----------------------
   0 C :   -0.279020
   1 C :   -0.475488
   2 H :    0.224140
   3 H :    0.218056
   4 N :   -0.299807
   5 H :    0.350831
   6 H :    0.346917
   7 H :    0.338960
   8 H :    0.176848
   9 H :    0.186887
  10 H :    0.211676
Sum of atomic charges:    1.0000000

LOEWDIN ATOMIC CHARGES
----------------------
   0 C :   -0.293109
   1 C :   -0.303625
   2 H :    0.158626
   3 H :    0.161013
   4 N :    0.161453
   5 H :    0.224947
   6 H :    0.227928
   7 H :    0.232956
   8 H :    0.135965
   9 H :    0.139026
  10 H :    0.154820

  Mayer bond orders larger than 0.100000
B(  0-C ,  1-C ) :   0.9739 B(  0-C ,  2-H ) :   0.9488 B(  0-C ,  3-H ) :   0.9468
B(  0-C ,  4-N ) :   0.8723 B(  1-C ,  8-H ) :   0.9505 B(  1-C ,  9-H ) :   0.9533
B(  1-C , 10-H ) :   0.9556 B(  4-N ,  5-H ) :   0.8675 B(  4-N ,  6-H ) :   0.8691
B(  4-N ,  7-H ) :   0.8680

FINAL SINGLE POINT ENERGY      -135.127539606665

DIPOLE MOMENT
-------------
                                X             Y             Z
Electronic contribution:     -1.84978      -0.15978      -0.06037
Nuclear contribution   :      0.50278      -0.30871      -0.06979
                        -----------------------------------------
Total Dipole Moment    :     -1.34700      -0.46849      -0.13016
                        -----------------------------------------
Magnitude (a.u.)       :      1.43207
Magnitude (Debye)      :      3.64004

Rotational constants in cm-1:     0.963746     0.295157     0.256910
Rotational constants in MHz : 28892.375247  8848.576767  7701.963879

                             ****ORCA TERMINATED NORMALLY****
TOTAL RUN TIME: 0 days 0 hours 0 minutes 12 seconds 169 msec
