                         Program Version 5.0.0 -  RELEASE  -
|  1> !LC-PBE RIJCOSX def2-TZVP def2/J TightSCF xyzfile
|  2>
|  3> *xyzfile 0 1 B.xyz
|  4>
|  5> %MaxCore 64000
|  6>
|  7> %pal nprocs 18
|  8> end
|  9>
| 10> %scf
| 11>   MaxIter 150
| 12> end
| 13>
| 14>
| 15>                          ****END OF INPUT****

CARTESIAN COORDINATES (ANGSTROEM)
---------------------------------
  C     -2.120502    0.885196    1.789506
  C     -0.778939    0.171966    1.804965
  H     -2.324193    1.472649    2.686078
  H     -2.187698    1.541272    0.919482
  N     -3.176900   -0.159484    1.610700
  H      0.015695    0.910767    1.939153
  H     -0.743553   -0.506827    2.665420
  C     -0.602493   -0.630712    0.492240
  H      0.313894   -1.240346    0.603498
  H     -0.363829    0.113322   -0.301169
  O     -1.712061   -1.376836    0.202535
  H     -4.064736    0.231272    1.286754
  H     -3.344073   -0.671511    2.484928
  H     -2.716861   -0.781886    0.935880

 Total Charge           Charge          ....    0
 Multiplicity           Mult            ....    1
 Number of Electrons    NEL             ....   42
 Basis Dimension        Dim             ....  209

ORBITAL ENERGIES
----------------

  NO   OCC          E(Eh)            E(eV)
   0   2.0000     -18.837059      -512.5824
   1   2.0000     -14.294230      -388.9658
   2   2.0000     -10.179791      -277.0062
   3   2.0000     -10.109137      -275.0836
   4   2.0000     -10.108008      -275.0529
   5   2.0000      -1.167280       -31.7633
   6   2.0000      -1.056181       -28.7401
   7   2.0000      -0.944317       -25.6962
   8   2.0000      -0.818275       -22.2664
   9   2.0000      -0.748595       -20.3703
  10   2.0000      -0.722328       -19.6556
  11   2.0000      -0.693968       -18.8838
  12   2.0000      -0.629629       -17.1331
  13   2.0000      -0.576644       -15.6913
  14   2.0000      -0.541824       -14.7438
  15   2.0000      -0.537308       -14.6209
  16   2.0000      -0.493598       -13.4315
  17   2.0000      -0.470702       -12.8085
  18   2.0000      -0.446553       -12.1513
  19   2.0000      -0.307050        -8.3552
  20   2.0000      -0.300714        -8.1829
  21   0.0000       0.079164         2.1542
  22   0.0000       0.122653         3.3376
  23   0.0000       0.132941         3.6175
  24   0.0000       0.165260         4.4970
  25   0.0000       0.179276         4.8783

MULLIKEN ATOMIC CHARGES
-----------------------
   0 C :   -0.235010
   1 C :   -0.342182
   2 H :    0.162790
   3 H :    0.177016
   4 N :   -0.323130
   5 H :    0.140287
   6 H :    0.131080
   7 C :   -0.036667
   8 H :    0.075167
   9 H :    0.054802
  10 O :   -0.672142
  11 H :    0.282064
  12 H :    0.281870
  13 H :    0.304056
Sum of atomic charges:    0.0000000

LOEWDIN ATOMIC CHARGES
----------------------
   0 C :   -0.291827
   1 C :   -0.311913
   2 H :    0.132534
   3 H :    0.149666
   4 N :    0.122045
   5 H :    0.145260
   6 H :    0.139024
   7 C :   -0.492308
   8 H :    0.110335
   9 H :    0.103097
  10 O :   -0.289219
  11 H :    0.188863
  12 H :    0.195442
  13 H :    0.099002

  Mayer bond orders larger than 0.100000
B(  0-C ,  1-C ) :   0.9595 B(  0-C ,  2-H ) :   0.9785 B(  0-C ,  3-H ) :   0.9642
B(  0-C ,  4-N ) :   0.8928 B(  1-C ,  5-H ) :   0.9666 B(  1-C ,  6-H ) :   0.9689
B(  1-C ,  7-C ) :   0.9533 B(  4-N , 11-H ) :   0.9013 B(  4-N , 12-H ) :   0.9005
B(  4-N , 13-H ) :   0.6061 B(  7-C ,  8-H ) :   0.9691 B(  7-C ,  9-H ) :   0.9569
B(  7-C , 10-O ) :   1.2215 B( 10-O , 13-H ) :   0.4249

FINAL SINGLE POINT ENERGY      -248.983504408764

DIPOLE MOMENT
-------------
                                X             Y             Z
Electronic contribution:     -1.53296      -1.40304      -0.74119
Nuclear contribution   :      0.08650       3.01678       2.47433
                        -----------------------------------------
Total Dipole Moment    :     -1.44646       1.61374       1.73314
                        -----------------------------------------
Magnitude (a.u.)       :      2.77492
Magnitude (Debye)      :      7.05329

Rotational constants in cm-1:     0.238796     0.156489     0.106146
Rotational constants in MHz :  7158.916762  4691.413084  3182.185740

                             ****ORCA TERMINATED NORMALLY****
TOTAL RUN TIME: 0 days 0 hours 0 minutes 9 seconds 512 msec
