                         Program Version 5.0.0 -  RELEASE  -
|  1> !LC-PBE RIJCOSX def2-TZVP def2/J TightSCF
|  2> *xyz 0 1
|  3> C         -0.77894        0.17197        1.80496
|  4> C         -0.60249       -0.63071        0.49224
|  5> H          0.31389       -1.24035        0.60350
|  6> H         -0.36383        0.11332       -0.30117
|  7> F         -1.71206       -1.37684        0.20253
|  8> H         -1.65864        0.77733        1.73736
|  9> H          0.07466        0.79896        1.95712
| 10> H         -0.87474       -0.50584        2.62734
| 11> *
| 12> %MaxCore 64000
| 13>
| 14> %pal nprocs 4
| 15> end
| 16>
| 17> %scf
| 18>   MaxIter 150
| 19> end
| 20>
| 21>
| 22>                          ****END OF INPUT****

CARTESIAN COORDINATES (ANGSTROEM)
---------------------------------
  C     -0.778940    0.171970    1.804960
  C     -0.602490   -0.630710    0.492240
  H      0.313890   -1.240350    0.603500
  H     -0.363830    0.113320   -0.301170
  F     -1.712060   -1.376840    0.202530
  H     -1.658640    0.777330    1.737360
  H      0.074660    0.798960    1.957120
  H     -0.874740   -0.505840    2.627340

 Total Charge           Charge          ....    0
 Multiplicity           Mult            ....    1
 Number of Electrons    NEL             ....   26
 Basis Dimension        Dim             ....  123

ORBITAL ENERGIES
----------------

  NO   OCC          E(Eh)            E(eV)
   0   2.0000     -24.473383      -665.9546
   1   2.0000     -10.195297      -277.4281
   2   2.0000     -10.108057      -275.0542
   3   2.0000      -1.353646       -36.8346
   4   2.0000      -0.938260       -25.5314
   5   2.0000      -0.794254       -21.6128
   6   2.0000      -0.656433       -17.8625
   7   2.0000      -0.647792       -17.6273
   8   2.0000      -0.605157       -16.4672
   9   2.0000      -0.544933       -14.8284
  10   2.0000      -0.536117       -14.5885
  11   2.0000      -0.467302       -12.7159
  12   2.0000      -0.462305       -12.5800
  13   0.0000       0.126142         3.4325
  14   0.0000       0.165269         4.4972
  15   0.0000       0.185417         5.0454
  16   0.0000       0.191382         5.2078
  17   0.0000       0.201840         5.4923

MULLIKEN ATOMIC CHARGES
-----------------------
   0 C :   -0.429566
   1 C :   -0.036468
   2 H :    0.118219
   3 H :    0.117631
   4 F :   -0.210668
   5 H :    0.150775
   6 H :    0.141362
   7 H :    0.148716
Sum of atomic charges:   -0.0000000

LOEWDIN ATOMIC CHARGES
----------------------
   0 C :   -0.331632
   1 C :   -0.393119
   2 H :    0.123663
   3 H :    0.125176
   4 F :    0.102395
   5 H :    0.124013
   6 H :    0.126736
   7 H :    0.122766

  Mayer bond orders larger than 0.100000
B(  0-C ,  1-C ) :   0.9835 B(  0-C ,  5-H ) :   0.9672 B(  0-C ,  6-H ) :   0.9581
B(  0-C ,  7-H ) :   0.9687 B(  1-C ,  2-H ) :   0.9718 B(  1-C ,  3-H ) :   0.9729
B(  1-C ,  4-F ) :   1.0180

FINAL SINGLE POINT ENERGY      -178.630970941137

DIPOLE MOMENT
-------------
                                X             Y             Z
Electronic contribution:     -2.70742      -3.27427      -2.82067
Nuclear contribution   :      3.27800       3.70743       3.04146
                        -----------------------------------------
Total Dipole Moment    :      0.57058       0.43316       0.22079
                        -----------------------------------------
Magnitude (a.u.)       :      0.74963
Magnitude (Debye)      :      1.90540

Rotational constants in cm-1:     1.234437     0.305084     0.268865
Rotational constants in MHz : 37007.496448  9146.194083  8060.380630

                             ****ORCA TERMINATED NORMALLY****
TOTAL RUN TIME: 0 days 0 hours 0 minutes 10 seconds 67 msec
