                         Program Version 5.0.0 -  RELEASE  -
|  1> !LC-PBE RIJCOSX def2-TZVP def2/J TightSCF
|  2> *xyz 0 1
|  3> C         -2.12050        0.88520        1.78951
|  4> C         -0.77894        0.17197        1.80496
|  5> H         -2.32419        1.47265        2.68608
|  6> H         -2.18770        1.54127        0.91948
|  7> C         -3.17690       -0.15948        1.61070
|  8> H         -4.06474        0.23127        1.28675
|  9> H         -3.34407       -0.67151        2.48493
| 10> H         -2.71686       -0.78189        0.93588
| 11> H         -0.65708       -0.37837        0.89547
| 12> H         -0.74207       -0.50050        2.63642
| 13> H          0.00707        0.89251        1.89389
| 14> *
| 15> %MaxCore 64000
| 16>
| 17> %pal nprocs 4
| 18> end
| 19>
| 20> %scf
| 21>   MaxIter 150
| 22> end
| 23>
| 24>
| 25>                          ****END OF INPUT****

CARTESIAN COORDINATES (ANGSTROEM)
---------------------------------
  C     -2.120500    0.885200    1.789510
  C     -0.778940    0.171970    1.804960
  H     -2.324190    1.472650    2.686080
  H     -2.187700    1.541270    0.919480
  C     -3.176900   -0.159480    1.610700
  H     -4.064740    0.231270    1.286750
  H     -3.344070   -0.671510    2.484930
  H     -2.716860   -0.781890    0.935880
  H     -0.657080   -0.378370    0.895470
  H     -0.742070   -0.500500    2.636420
  H      0.007070    0.892510    1.893890

 Total Charge           Charge          ....    0
 Multiplicity           Mult            ....    1
 Number of Electrons    NEL             ....   26
 Basis Dimension        Dim             ....  141

ORBITAL ENERGIES
----------------

  NO   OCC          E(Eh)            E(eV)
   0   2.0000     -10.100759      -274.8556
   1   2.0000     -10.090484      -274.5760
   2   2.0000     -10.070247      -274.0254
   3   2.0000      -0.976589       -26.5743
   4   2.0000      -0.855438       -23.2777
   5   2.0000      -0.745862       -20.2959
   6   2.0000      -0.620214       -16.8769
   7   2.0000      -0.598699       -16.2914
   8   2.0000      -0.537398       -14.6234
   9   2.0000      -0.519594       -14.1389
  10   2.0000      -0.469457       -12.7746
  11   2.0000      -0.460856       -12.5405
  12   2.0000      -0.454658       -12.3719
  13   0.0000       0.126251         3.4355
  14   0.0000       0.167968         4.5706
  15   0.0000       0.174347         4.7442
  16   0.0000       0.179711         4.8902
  17   0.0000       0.198390         5.3985

MULLIKEN ATOMIC CHARGES
-----------------------
   0 C :   -0.222577
   1 C :   -0.443711
   2 H :    0.122034
   3 H :    0.121156
   4 C :   -0.404230
   5 H :    0.139265
   6 H :    0.141540
   7 H :    0.120704
   8 H :    0.142412
   9 H :    0.141870
  10 H :    0.141536
Sum of atomic charges:    0.0000000

LOEWDIN ATOMIC CHARGES
----------------------
   0 C :   -0.338008
   1 C :   -0.330667
   2 H :    0.134501
   3 H :    0.139655
   4 C :   -0.321874
   5 H :    0.110380
   6 H :    0.114362
   7 H :    0.122970
   8 H :    0.123011
   9 H :    0.124453
  10 H :    0.121219

  Mayer bond orders larger than 0.100000
B(  0-C ,  1-C ) :   0.9596 B(  0-C ,  2-H ) :   0.9753 B(  0-C ,  3-H ) :   0.9774
B(  0-C ,  4-C ) :   0.9402 B(  1-C ,  8-H ) :   0.9747 B(  1-C ,  9-H ) :   0.9728
B(  1-C , 10-H ) :   0.9824 B(  4-C ,  5-H ) :   0.9834 B(  4-C ,  6-H ) :   0.9804
B(  4-C ,  7-H ) :   0.9752

FINAL SINGLE POINT ENERGY      -118.732196471046

DIPOLE MOMENT
-------------
                                X             Y             Z
Electronic contribution:     -0.14165       0.47810       0.11388
Nuclear contribution   :      0.13334      -0.45108      -0.10852
                        -----------------------------------------
Total Dipole Moment    :     -0.00831       0.02702       0.00536
                        -----------------------------------------
Magnitude (a.u.)       :      0.02878
Magnitude (Debye)      :      0.07314

Rotational constants in cm-1:     0.972269     0.310387     0.269029
Rotational constants in MHz : 29147.878530  9305.178981  8065.286472

                             ****ORCA TERMINATED NORMALLY****
TOTAL RUN TIME: 0 days 0 hours 0 minutes 11 seconds 948 msec
