                         Program Version 5.0.0 -  RELEASE  -
|  1> !LC-PBE RIJCOSX def2-TZVP def2/J TightSCF xyzfile
|  2>
|  3> *xyzfile 0 1 D.xyz
|  4>
|  5> %MaxCore 64000
|  6>
|  7> %pal nprocs 18
|  8> end
|  9>
| 10> %scf
| 11>   MaxIter 150
| 12> end
| 13>
| 14>
| 15>                          ****END OF INPUT****

CARTESIAN COORDINATES (ANGSTROEM)
---------------------------------
  C     -2.120502    0.885196    1.789506
  C     -0.778939    0.171966    1.804965
  H     -2.324193    1.472649    2.686078
  H     -2.187698    1.541272    0.919482
  C     -3.176900   -0.159484    1.610700
  H      0.015695    0.910767    1.939153
  H     -0.743553   -0.506827    2.665420
  C     -0.602493   -0.630712    0.492240
  H      0.313894   -1.240346    0.603498
  H     -0.363829    0.113322   -0.301169
  F     -1.712061   -1.376836    0.202535
  H     -4.064736    0.231272    1.286754
  H     -3.344073   -0.671511    2.484928
  H     -2.716861   -0.781886    0.935880

 Total Charge           Charge          ....    0
 Multiplicity           Mult            ....    1
 Number of Electrons    NEL             ....   42
 Basis Dimension        Dim             ....  209

ORBITAL ENERGIES
----------------

  NO   OCC          E(Eh)            E(eV)
   0   2.0000     -24.493550      -666.5034
   1   2.0000     -10.203091      -277.6402
   2   2.0000     -10.119914      -275.3769
   3   2.0000     -10.099085      -274.8101
   4   2.0000     -10.034622      -273.0560
   5   2.0000      -1.387429       -37.7539
   6   2.0000      -0.987626       -26.8747
   7   2.0000      -0.907972       -24.7072
   8   2.0000      -0.801058       -21.7979
   9   2.0000      -0.752976       -20.4895
  10   2.0000      -0.685042       -18.6409
  11   2.0000      -0.676801       -18.4167
  12   2.0000      -0.637461       -17.3462
  13   2.0000      -0.583454       -15.8766
  14   2.0000      -0.554504       -15.0888
  15   2.0000      -0.544322       -14.8118
  16   2.0000      -0.513731       -13.9793
  17   2.0000      -0.477090       -12.9823
  18   2.0000      -0.457361       -12.4454
  19   2.0000      -0.449872       -12.2416
  20   2.0000      -0.401592       -10.9279
  21   0.0000       0.120172         3.2701
  22   0.0000       0.152499         4.1497
  23   0.0000       0.158478         4.3124
  24   0.0000       0.173838         4.7304
  25   0.0000       0.188653         5.1335

MULLIKEN ATOMIC CHARGES
-----------------------
   0 C :   -0.260053
   1 C :   -0.326518
   2 H :    0.130620
   3 H :    0.129271
   4 C :   -0.479835
   5 H :    0.152893
   6 H :    0.149123
   7 C :   -0.048962
   8 H :    0.135591
   9 H :    0.128415
  10 F :   -0.158012
  11 H :    0.127097
  12 H :    0.129434
  13 H :    0.190936
Sum of atomic charges:    0.0000000

LOEWDIN ATOMIC CHARGES
----------------------
   0 C :   -0.320371
   1 C :   -0.293534
   2 H :    0.135807
   3 H :    0.143269
   4 C :   -0.337586
   5 H :    0.147727
   6 H :    0.146704
   7 C :   -0.352869
   8 H :    0.131480
   9 H :    0.134156
  10 F :    0.167953
  11 H :    0.106128
  12 H :    0.109461
  13 H :    0.081675

  Mayer bond orders larger than 0.100000
B(  0-C ,  1-C ) :   0.9468 B(  0-C ,  2-H ) :   0.9748 B(  0-C ,  3-H ) :   0.9817
B(  0-C ,  4-C ) :   0.9268 B(  1-C ,  5-H ) :   0.9637 B(  1-C ,  6-H ) :   0.9695
B(  1-C ,  7-C ) :   0.9814 B(  4-C , 11-H ) :   0.9824 B(  4-C , 12-H ) :   0.9839
B(  4-C , 13-H ) :   0.9429 B(  7-C ,  8-H ) :   0.9711 B(  7-C ,  9-H ) :   0.9747
B(  7-C , 10-F ) :   0.9743

FINAL SINGLE POINT ENERGY      -256.950312822587

DIPOLE MOMENT
-------------
                                X             Y             Z
Electronic contribution:      0.92921      -4.17588      -3.72781
Nuclear contribution   :     -0.20666       4.43855       3.76066
                        -----------------------------------------
Total Dipole Moment    :      0.72255       0.26267       0.03284
                        -----------------------------------------
Magnitude (a.u.)       :      0.76951
Magnitude (Debye)      :      1.95595

Rotational constants in cm-1:     0.236353     0.155239     0.105045
Rotational constants in MHz :  7085.692869  4653.957069  3149.180346

                             ****ORCA TERMINATED NORMALLY****
TOTAL RUN TIME: 0 days 0 hours 0 minutes 13 seconds 390 msec
