                         Program Version 5.0.0 -  RELEASE  -
|  1> !M062X D3Zero RIJCOSX def2-TZVPD def2/J TightSCF
|  2> *xyz -1 1
|  3> C          0.96805        1.63064       -3.71575
|  4> C         -0.50835        1.72268       -4.12430
|  5> S         -1.32861        0.14674       -4.43578
|  6> H         -0.59151        2.29496       -5.04722
|  7> H         -1.11411        2.23561       -3.37436
|  8> O         -2.57135        0.47573       -5.06834
|  9> O         -1.51496       -0.40051       -3.06342
| 10> O         -0.37793       -0.62756       -5.20114
| 11> H          1.51840        1.12197       -4.47946
| 12> H          1.05062        1.08971       -2.79625
| 13> H          1.36450        2.61606       -3.58668
| 14> *
| 15> %MaxCore 64000
| 16>
| 17> %pal nprocs 4
| 18> end
| 19>
| 20> %scf
| 21>   MaxIter 150
| 22> end
| 23>
| 24>
| 25>                          ****END OF INPUT****

CARTESIAN COORDINATES (ANGSTROEM)
---------------------------------
  C      0.968050    1.630640   -3.715750
  C     -0.508350    1.722680   -4.124300
  S     -1.328610    0.146740   -4.435780
  H     -0.591510    2.294960   -5.047220
  H     -1.114110    2.235610   -3.374360
  O     -2.571350    0.475730   -5.068340
  O     -1.514960   -0.400510   -3.063420
  O     -0.377930   -0.627560   -5.201140
  H      1.518400    1.121970   -4.479460
  H      1.050620    1.089710   -2.796250
  H      1.364500    2.616060   -3.586680

 Total Charge           Charge          ....   -1
 Multiplicity           Mult            ....    1
 Number of Electrons    NEL             ....   58
 Basis Dimension        Dim             ....  285

ORBITAL ENERGIES
----------------

  NO   OCC          E(Eh)            E(eV)
   0   2.0000     -89.889519     -2446.0182
   1   2.0000     -19.411277      -528.2077
   2   2.0000     -19.408063      -528.1202
   3   2.0000     -19.392545      -527.6980
   4   2.0000     -10.393151      -282.8120
   5   2.0000     -10.387841      -282.6675
   6   2.0000      -8.214321      -223.5230
   7   2.0000      -6.137076      -166.9983
   8   2.0000      -6.135860      -166.9652
   9   2.0000      -6.135689      -166.9606
  10   2.0000      -1.050103       -28.5748
  11   2.0000      -0.920703       -25.0536
  12   2.0000      -0.889356       -24.2006
  13   2.0000      -0.725224       -19.7343
  14   2.0000      -0.592988       -16.1360
  15   2.0000      -0.466295       -12.6885
  16   2.0000      -0.393825       -10.7165
  17   2.0000      -0.385909       -10.5011
  18   2.0000      -0.353322        -9.6144
  19   2.0000      -0.342690        -9.3251
  20   2.0000      -0.327910        -8.9229
  21   2.0000      -0.290999        -7.9185
  22   2.0000      -0.276929        -7.5356
  23   2.0000      -0.231163        -6.2903
  24   2.0000      -0.229746        -6.2517
  25   2.0000      -0.194556        -5.2941
  26   2.0000      -0.179200        -4.8763
  27   2.0000      -0.165280        -4.4975
  28   2.0000      -0.140371        -3.8197
  29   0.0000       0.129271         3.5177
  30   0.0000       0.144169         3.9231
  31   0.0000       0.146295         3.9809
  32   0.0000       0.155778         4.2389
  33   0.0000       0.174743         4.7550

MULLIKEN ATOMIC CHARGES
-----------------------
   0 C :   -1.152490
   1 C :   -0.494488
   2 S :    1.350282
   3 H :    0.345543
   4 H :    0.325549
   5 O :   -0.738619
   6 O :   -0.792532
   7 O :   -0.758265
   8 H :    0.289618
   9 H :    0.294387
  10 H :    0.331014
Sum of atomic charges:   -1.0000000

LOEWDIN ATOMIC CHARGES
----------------------
   0 C :   -0.146548
   1 C :   -0.328636
   2 S :    0.362094
   3 H :    0.079706
   4 H :    0.084754
   5 O :   -0.390327
   6 O :   -0.434826
   7 O :   -0.394312
   8 H :    0.056841
   9 H :    0.062466
  10 H :    0.048787

  Mayer bond orders larger than 0.100000
B(  0-C ,  1-C ) :   0.5351 B(  0-C ,  8-H ) :   1.0055 B(  0-C ,  9-H ) :   0.9950
B(  0-C , 10-H ) :   0.9325 B(  1-C ,  2-S ) :   0.8726 B(  1-C ,  3-H ) :   0.9277
B(  1-C ,  4-H ) :   0.9482 B(  1-C ,  5-O ) :   0.1228 B(  1-C ,  6-O ) :   0.1154
B(  2-S ,  5-O ) :   1.4549 B(  2-S ,  6-O ) :   1.3956 B(  2-S ,  7-O ) :   1.4519

Dispersion correction           -0.000146042
FINAL SINGLE POINT ENERGY      -703.161073012793

DIPOLE MOMENT
-------------
                                X             Y             Z
Electronic contribution:     -5.57170      -5.27148      -1.93443
Nuclear contribution   :      6.64523       6.80157       2.07300
                        -----------------------------------------
Total Dipole Moment    :      1.07352       1.53009       0.13857
                        -----------------------------------------
Magnitude (a.u.)       :      1.87426
Magnitude (Debye)      :      4.76398

Rotational constants in cm-1:     0.163070     0.082807     0.081541
Rotational constants in MHz :  4888.719902  2482.497026  2444.541148

                             ****ORCA TERMINATED NORMALLY****
TOTAL RUN TIME: 0 days 0 hours 0 minutes 47 seconds 941 msec
