                         Program Version 5.0.0 -  RELEASE  -
|  1> !M062X D3Zero RIJCOSX def2-TZVPD def2/J TightSCF
|  2> *xyz 1 1
|  3> C          1.36401        0.46874       -2.81376
|  4> N          0.42884        0.32140       -1.65531
|  5> C          0.96805        1.63064       -3.71575
|  6> H          0.74858       -0.40054       -1.00134
|  7> H         -0.46105        0.02333       -2.07773
|  8> H          0.31026        1.20137       -1.13495
|  9> H          1.29485       -0.46874       -3.36468
| 10> H          2.37622        0.59740       -2.43149
| 11> H          1.65923        1.70213       -4.52942
| 12> H          0.98421        2.54058       -3.15304
| 13> H         -0.01744        1.46536       -4.09838
| 14> *
| 15> %MaxCore 64000
| 16>
| 17> %pal nprocs 4
| 18> end
| 19>
| 20> %scf
| 21>   MaxIter 150
| 22> end
| 23>
| 24>
| 25>                          ****END OF INPUT****

CARTESIAN COORDINATES (ANGSTROEM)
---------------------------------
  C      1.364010    0.468740   -2.813760
  N      0.428840    0.321400   -1.655310
  C      0.968050    1.630640   -3.715750
  H      0.748580   -0.400540   -1.001340
  H     -0.461050    0.023330   -2.077730
  H      0.310260    1.201370   -1.134950
  H      1.294850   -0.468740   -3.364680
  H      2.376220    0.597400   -2.431490
  H      1.659230    1.702130   -4.529420
  H      0.984210    2.540580   -3.153040
  H     -0.017440    1.465360   -4.098380

 Total Charge           Charge          ....    1
 Multiplicity           Mult            ....    1
 Number of Electrons    NEL             ....   26
 Basis Dimension        Dim             ....  183

ORBITAL ENERGIES
----------------

  NO   OCC          E(Eh)            E(eV)
   0   2.0000     -15.081046      -410.3761
   1   2.0000     -10.791398      -293.6489
   2   2.0000     -10.710292      -291.4419
   3   2.0000      -1.323873       -36.0244
   4   2.0000      -1.062048       -28.8998
   5   2.0000      -0.929413       -25.2906
   6   2.0000      -0.878987       -23.9184
   7   2.0000      -0.862619       -23.4731
   8   2.0000      -0.762844       -20.7580
   9   2.0000      -0.713638       -19.4191
  10   2.0000      -0.648568       -17.6484
  11   2.0000      -0.630878       -17.1671
  12   2.0000      -0.617216       -16.7953
  13   0.0000      -0.177174        -4.8211
  14   0.0000      -0.120580        -3.2812
  15   0.0000      -0.120268        -3.2727
  16   0.0000      -0.114193        -3.1074
  17   0.0000      -0.082693        -2.2502

MULLIKEN ATOMIC CHARGES
-----------------------
   0 C :   -0.308583
   1 N :   -0.478497
   2 C :   -1.178239
   3 H :    0.397280
   4 H :    0.403829
   5 H :    0.384224
   6 H :    0.338962
   7 H :    0.345639
   8 H :    0.327531
   9 H :    0.380624
  10 H :    0.387232
Sum of atomic charges:    1.0000000

LOEWDIN ATOMIC CHARGES
----------------------
   0 C :   -0.199169
   1 N :    0.177051
   2 C :   -0.056335
   3 H :    0.180668
   4 H :    0.181901
   5 H :    0.183437
   6 H :    0.135662
   7 H :    0.135621
   8 H :    0.093820
   9 H :    0.083718
  10 H :    0.083627

  Mayer bond orders larger than 0.100000
B(  0-C ,  1-N ) :   0.8026 B(  0-C ,  2-C ) :   0.5099 B(  0-C ,  6-H ) :   0.9283
B(  0-C ,  7-H ) :   0.9185 B(  1-N ,  3-H ) :   0.8436 B(  1-N ,  4-H ) :   0.8405
B(  1-N ,  5-H ) :   0.8491 B(  2-C ,  8-H ) :   0.9947 B(  2-C ,  9-H ) :   0.9052
B(  2-C , 10-H ) :   0.9018

Dispersion correction           -0.000052849
FINAL SINGLE POINT ENERGY      -135.508611176009

DIPOLE MOMENT
-------------
                                X             Y             Z
Electronic contribution:     -0.33629      -0.93775       1.55062
Nuclear contribution   :     -0.20470       0.31427      -0.31587
                        -----------------------------------------
Total Dipole Moment    :     -0.54099      -0.62349       1.23475
                        -----------------------------------------
Magnitude (a.u.)       :      1.48527
Magnitude (Debye)      :      3.77525

Rotational constants in cm-1:     1.011480     0.279280     0.248378
Rotational constants in MHz : 30323.408050  8372.602834  7446.185305

                             ****ORCA TERMINATED NORMALLY****
TOTAL RUN TIME: 0 days 0 hours 0 minutes 21 seconds 17 msec
