                         Program Version 5.0.0 -  RELEASE  -
|  1> !M062X D3Zero RIJCOSX def2-TZVPD def2/J TightSCF xyzfile
|  2>
|  3> *xyzfile 0 1 B.xyz
|  4>
|  5> %MaxCore 64000
|  6>
|  7> %pal nprocs 4
|  8> end
|  9>
| 10> %scf
| 11>   MaxIter 150
| 12> end
| 13>
| 14>
| 15>                          ****END OF INPUT****

CARTESIAN COORDINATES (ANGSTROEM)
---------------------------------
  C      1.364014    0.468742   -2.813764
  N      0.428844    0.321402   -1.655312
  C      0.968045    1.630639   -3.715749
  C     -0.508347    1.722679   -4.124300
  S     -1.328608    0.146737   -4.435781
  H     -0.591511    2.294958   -5.047219
  H     -1.114114    2.235610   -3.374362
  H      0.748578   -0.400542   -1.001345
  H     -0.461053    0.023332   -2.077731
  H      0.310258    1.201375   -1.134948
  O     -2.571347    0.475733   -5.068341
  O     -1.514963   -0.400512   -3.063420
  H      1.294847   -0.468742   -3.364684
  H      2.376216    0.597400   -2.431495
  H      1.578688    1.520652   -4.612733
  H      1.266653    2.575988   -3.250448
  O     -0.377928   -0.627558   -5.201141

 Total Charge           Charge          ....    0
 Multiplicity           Mult            ....    1
 Number of Electrons    NEL             ....   74
 Basis Dimension        Dim             ....  395

ORBITAL ENERGIES
----------------

  NO   OCC          E(Eh)            E(eV)
   0   2.0000     -90.058086     -2450.6051
   1   2.0000     -19.583642      -532.8980
   2   2.0000     -19.567803      -532.4670
   3   2.0000     -19.565238      -532.3972
   4   2.0000     -14.880928      -404.9306
   5   2.0000     -10.630033      -289.2579
   6   2.0000     -10.579522      -287.8834
   7   2.0000     -10.558065      -287.2996
   8   2.0000      -8.383040      -228.1141
   9   2.0000      -6.306051      -171.5964
  10   2.0000      -6.304957      -171.5666
  11   2.0000      -6.303737      -171.5334
  12   2.0000      -1.219500       -33.1843
  13   2.0000      -1.141409       -31.0593
  14   2.0000      -1.078288       -29.3417
  15   2.0000      -1.077004       -29.3068
  16   2.0000      -0.925424       -25.1821
  17   2.0000      -0.832427       -22.6515
  18   2.0000      -0.740403       -20.1474
  19   2.0000      -0.705160       -19.1884
  20   2.0000      -0.687828       -18.7167
  21   2.0000      -0.630150       -17.1473
  22   2.0000      -0.598802       -16.2942
  23   2.0000      -0.561096       -15.2682
  24   2.0000      -0.545272       -14.8376
  25   2.0000      -0.538076       -14.6418
  26   2.0000      -0.510271       -13.8852
  27   2.0000      -0.501515       -13.6469
  28   2.0000      -0.468901       -12.7595
  29   2.0000      -0.457774       -12.4567
  30   2.0000      -0.442037       -12.0284
  31   2.0000      -0.402682       -10.9575
  32   2.0000      -0.393846       -10.7171
  33   2.0000      -0.360729        -9.8159
  34   2.0000      -0.350933        -9.5494
  35   2.0000      -0.333271        -9.0688
  36   2.0000      -0.312416        -8.5013
  37   0.0000      -0.035417        -0.9637
  38   0.0000       0.001658         0.0451
  39   0.0000       0.004937         0.1344
  40   0.0000       0.030065         0.8181
  41   0.0000       0.041608         1.1322

MULLIKEN ATOMIC CHARGES
-----------------------
   0 C :   -0.739642
   1 N :   -0.426934
   2 C :   -0.562167
   3 C :   -0.845733
   4 S :    1.512491
   5 H :    0.385887
   6 H :    0.379132
   7 H :    0.391137
   8 H :    0.482927
   9 H :    0.366894
  10 O :   -0.734316
  11 O :   -0.943303
  12 H :    0.401378
  13 H :    0.370869
  14 H :    0.339483
  15 H :    0.367453
  16 O :   -0.745556
Sum of atomic charges:   -0.0000000

LOEWDIN ATOMIC CHARGES
----------------------
   0 C :   -0.167819
   1 N :    0.148986
   2 C :   -0.207611
   3 C :   -0.242591
   4 S :    0.446518
   5 H :    0.104359
   6 H :    0.100195
   7 H :    0.169628
   8 H :    0.032664
   9 H :    0.173043
  10 O :   -0.323821
  11 O :   -0.380611
  12 H :    0.124145
  13 H :    0.125242
  14 H :    0.123815
  15 H :    0.114869
  16 O :   -0.341011

  Mayer bond orders larger than 0.100000
B(  0-C ,  1-N ) :   0.8091 B(  0-C ,  2-C ) :   0.5918 B(  0-C , 12-H ) :   0.9335
B(  0-C , 13-H ) :   0.9100 B(  1-N ,  7-H ) :   0.8552 B(  1-N ,  8-H ) :   0.6777
B(  1-N ,  9-H ) :   0.8615 B(  1-N , 11-O ) :  -0.1437 B(  2-C ,  3-C ) :   0.6788
B(  2-C , 14-H ) :   0.9661 B(  2-C , 15-H ) :   0.9361 B(  3-C ,  4-S ) :   0.8438
B(  3-C ,  5-H ) :   0.9521 B(  3-C ,  6-H ) :   0.9244 B(  3-C , 10-O ) :   0.1552
B(  3-C , 11-O ) :   0.1125 B(  4-S , 10-O ) :   1.4274 B(  4-S , 11-O ) :   1.1635
B(  4-S , 16-O ) :   1.4355

Dispersion correction           -0.000437281
FINAL SINGLE POINT ENERGY      -798.335340654132

DIPOLE MOMENT
-------------
                                X             Y             Z
Electronic contribution:     -6.88931      -4.12356      -4.28696
Nuclear contribution   :      9.95459       5.57517       7.68169
                        -----------------------------------------
Total Dipole Moment    :      3.06528       1.45162       3.39472
                        -----------------------------------------
Magnitude (a.u.)       :      4.79867
Magnitude (Debye)      :     12.19726

Rotational constants in cm-1:     0.102119     0.045768     0.041299
Rotational constants in MHz :  3061.441288  1372.093000  1238.124534

                             ****ORCA TERMINATED NORMALLY****
TOTAL RUN TIME: 0 days 0 hours 1 minutes 39 seconds 789 msec
