                         Program Version 5.0.0 -  RELEASE  -
|  1> !M062X D3Zero RIJCOSX def2-TZVPD def2/J TightSCF
|  2> *xyz 0 1
|  3> C          0.96805        1.63064       -3.71575
|  4> C         -0.50835        1.72268       -4.12430
|  5> S         -1.32861        0.14674       -4.43578
|  6> H         -0.59151        2.29496       -5.04722
|  7> H         -1.11411        2.23561       -3.37436
|  8> F         -2.57135        0.47573       -5.06834
|  9> O         -1.51496       -0.40051       -3.06342
| 10> O         -0.37793       -0.62756       -5.20114
| 11> H          1.51840        1.12197       -4.47946
| 12> H          1.05062        1.08971       -2.79625
| 13> H          1.36450        2.61606       -3.58668
| 14> *
| 15> %MaxCore 64000
| 16>
| 17> %pal nprocs 4
| 18> end
| 19>
| 20> %scf
| 21>   MaxIter 150
| 22> end
| 23>
| 24>
| 25>                          ****END OF INPUT****

CARTESIAN COORDINATES (ANGSTROEM)
---------------------------------
  C      0.968050    1.630640   -3.715750
  C     -0.508350    1.722680   -4.124300
  S     -1.328610    0.146740   -4.435780
  H     -0.591510    2.294960   -5.047220
  H     -1.114110    2.235610   -3.374360
  F     -2.571350    0.475730   -5.068340
  O     -1.514960   -0.400510   -3.063420
  O     -0.377930   -0.627560   -5.201140
  H      1.518400    1.121970   -4.479460
  H      1.050620    1.089710   -2.796250
  H      1.364500    2.616060   -3.586680

 Total Charge           Charge          ....    0
 Multiplicity           Mult            ....    1
 Number of Electrons    NEL             ....   58
 Basis Dimension        Dim             ....  285

ORBITAL ENERGIES
----------------

  NO   OCC          E(Eh)            E(eV)
   0   2.0000     -90.154112     -2453.2181
   1   2.0000     -25.375685      -690.5075
   2   2.0000     -19.643084      -534.5155
   3   2.0000     -19.627308      -534.0862
   4   2.0000     -10.596458      -288.3443
   5   2.0000     -10.552576      -287.1502
   6   2.0000      -8.479387      -230.7359
   7   2.0000      -6.404164      -174.2662
   8   2.0000      -6.399292      -174.1336
   9   2.0000      -6.398700      -174.1175
  10   2.0000      -1.541854       -41.9560
  11   2.0000      -1.227391       -33.3990
  12   2.0000      -1.123444       -30.5705
  13   2.0000      -0.917750       -24.9733
  14   2.0000      -0.842022       -22.9126
  15   2.0000      -0.769248       -20.9323
  16   2.0000      -0.698153       -18.9977
  17   2.0000      -0.690170       -18.7805
  18   2.0000      -0.643295       -17.5050
  19   2.0000      -0.565606       -15.3909
  20   2.0000      -0.562406       -15.3039
  21   2.0000      -0.521363       -14.1870
  22   2.0000      -0.499699       -13.5975
  23   2.0000      -0.474390       -12.9088
  24   2.0000      -0.458943       -12.4885
  25   2.0000      -0.452754       -12.3201
  26   2.0000      -0.408557       -11.1174
  27   2.0000      -0.388621       -10.5749
  28   2.0000      -0.381429       -10.3792
  29   0.0000      -0.000419        -0.0114
  30   0.0000       0.018411         0.5010
  31   0.0000       0.025692         0.6991
  32   0.0000       0.029104         0.7920
  33   0.0000       0.055636         1.5139

MULLIKEN ATOMIC CHARGES
-----------------------
   0 C :   -1.161321
   1 C :   -0.542661
   2 S :    1.316363
   3 H :    0.413966
   4 H :    0.391343
   5 F :   -0.109445
   6 O :   -0.668217
   7 O :   -0.644430
   8 H :    0.332759
   9 H :    0.332214
  10 H :    0.339428
Sum of atomic charges:   -0.0000000

LOEWDIN ATOMIC CHARGES
----------------------
   0 C :   -0.099682
   1 C :   -0.284549
   2 S :    0.614316
   3 H :    0.096138
   4 H :    0.102128
   5 F :   -0.050838
   6 O :   -0.319328
   7 O :   -0.283441
   8 H :    0.072398
   9 H :    0.078193
  10 H :    0.074665

  Mayer bond orders larger than 0.100000
B(  0-C ,  1-C ) :   0.6164 B(  0-C ,  8-H ) :   0.9583 B(  0-C ,  9-H ) :   0.9540
B(  0-C , 10-H ) :   0.9296 B(  1-C ,  2-S ) :   0.8778 B(  1-C ,  3-H ) :   0.8411
B(  1-C ,  4-H ) :   0.8775 B(  2-S ,  5-F ) :   0.9402 B(  2-S ,  6-O ) :   1.5751
B(  2-S ,  7-O ) :   1.6372

Dispersion correction           -0.000141148
FINAL SINGLE POINT ENERGY      -727.667476265846

DIPOLE MOMENT
-------------
                                X             Y             Z
Electronic contribution:     -8.31198      -5.11106      -3.23916
Nuclear contribution   :      8.31000       6.74109       2.87442
                        -----------------------------------------
Total Dipole Moment    :     -0.00198       1.63003      -0.36474
                        -----------------------------------------
Magnitude (a.u.)       :      1.67034
Magnitude (Debye)      :      4.24567

Rotational constants in cm-1:     0.158705     0.080192     0.078179
Rotational constants in MHz :  4757.865601  2404.095079  2343.752507

                             ****ORCA TERMINATED NORMALLY****
TOTAL RUN TIME: 0 days 0 hours 0 minutes 50 seconds 652 msec
