                         Program Version 5.0.0 -  RELEASE  -
|  1> !M062X D3Zero RIJCOSX def2-TZVPD def2/J TightSCF
|  2> *xyz 0 1
|  3> C          1.36401        0.46874       -2.81376
|  4> C          0.42884        0.32140       -1.65531
|  5> C          0.96805        1.63064       -3.71575
|  6> H          0.74858       -0.40054       -1.00134
|  7> H         -0.46105        0.02333       -2.07773
|  8> H          0.31026        1.20137       -1.13495
|  9> H          1.29485       -0.46874       -3.36468
| 10> H          2.37622        0.59740       -2.43149
| 11> H          1.65923        1.70213       -4.52942
| 12> H          0.98421        2.54058       -3.15304
| 13> H         -0.01744        1.46536       -4.09838
| 14> *
| 15> %MaxCore 64000
| 16>
| 17> %pal nprocs 4
| 18> end
| 19>
| 20> %scf
| 21>   MaxIter 150
| 22> end
| 23>
| 24>
| 25>                          ****END OF INPUT****

CARTESIAN COORDINATES (ANGSTROEM)
---------------------------------
  C      1.364010    0.468740   -2.813760
  C      0.428840    0.321400   -1.655310
  C      0.968050    1.630640   -3.715750
  H      0.748580   -0.400540   -1.001340
  H     -0.461050    0.023330   -2.077730
  H      0.310260    1.201370   -1.134950
  H      1.294850   -0.468740   -3.364680
  H      2.376220    0.597400   -2.431490
  H      1.659230    1.702130   -4.529420
  H      0.984210    2.540580   -3.153040
  H     -0.017440    1.465360   -4.098380

 Total Charge           Charge          ....    0
 Multiplicity           Mult            ....    1
 Number of Electrons    NEL             ....   26
 Basis Dimension        Dim             ....  183

ORBITAL ENERGIES
----------------

  NO   OCC          E(Eh)            E(eV)
   0   2.0000     -10.519409      -286.2477
   1   2.0000     -10.510468      -286.0044
   2   2.0000     -10.493044      -285.5302
   3   2.0000      -0.890167       -24.2227
   4   2.0000      -0.781940       -21.2777
   5   2.0000      -0.667437       -18.1619
   6   2.0000      -0.541693       -14.7402
   7   2.0000      -0.513372       -13.9696
   8   2.0000      -0.467577       -12.7234
   9   2.0000      -0.455759       -12.4018
  10   2.0000      -0.395480       -10.7616
  11   2.0000      -0.392218       -10.6728
  12   2.0000      -0.388836       -10.5808
  13   0.0000       0.024435         0.6649
  14   0.0000       0.043915         1.1950
  15   0.0000       0.046821         1.2741
  16   0.0000       0.073249         1.9932
  17   0.0000       0.093469         2.5434

MULLIKEN ATOMIC CHARGES
-----------------------
   0 C :   -0.137483
   1 C :   -1.281685
   2 C :   -1.162875
   3 H :    0.315637
   4 H :    0.361134
   5 H :    0.356947
   6 H :    0.282713
   7 H :    0.322099
   8 H :    0.287331
   9 H :    0.323094
  10 H :    0.333090
Sum of atomic charges:    0.0000000

LOEWDIN ATOMIC CHARGES
----------------------
   0 C :   -0.321655
   1 C :   -0.126039
   2 C :   -0.120249
   3 H :    0.050372
   4 H :    0.056731
   5 H :    0.056252
   6 H :    0.104187
   7 H :    0.103126
   8 H :    0.061785
   9 H :    0.067450
  10 H :    0.068041

  Mayer bond orders larger than 0.100000
B(  0-C ,  1-C ) :   0.4272 B(  0-C ,  2-C ) :   0.5167 B(  0-C ,  6-H ) :   0.9735
B(  0-C ,  7-H ) :   0.9282 B(  1-C ,  2-C ) :   0.1152 B(  1-C ,  3-H ) :   1.0008
B(  1-C ,  4-H ) :   0.9558 B(  1-C ,  5-H ) :   0.9197 B(  2-C ,  8-H ) :   1.0102
B(  2-C ,  9-H ) :   0.9696 B(  2-C , 10-H ) :   0.9540

Dispersion correction           -0.000051421
FINAL SINGLE POINT ENERGY      -119.099816935769

DIPOLE MOMENT
-------------
                                X             Y             Z
Electronic contribution:      0.36695      -0.18318      -0.01845
Nuclear contribution   :     -0.35842       0.15752       0.02695
                        -----------------------------------------
Total Dipole Moment    :      0.00852      -0.02566       0.00850
                        -----------------------------------------
Magnitude (a.u.)       :      0.02835
Magnitude (Debye)      :      0.07205

Rotational constants in cm-1:     1.019891     0.293671     0.260247
Rotational constants in MHz : 30575.551403  8804.039097  7802.009261

                             ****ORCA TERMINATED NORMALLY****
TOTAL RUN TIME: 0 days 0 hours 0 minutes 20 seconds 873 msec
