                         Program Version 5.0.0 -  RELEASE  -
|  1> !M062X D3Zero RIJCOSX def2-TZVPD def2/J TightSCF
|  2> *xyz 0 1
|  3> C          0.96805        1.63064       -3.71575
|  4> C         -0.50835        1.72268       -4.12430
|  5> S         -1.32861        0.14674       -4.43578
|  6> H         -0.59151        2.29496       -5.04722
|  7> H         -1.11411        2.23561       -3.37436
|  8> O         -2.57135        0.47573       -5.06834
|  9> F         -1.51496       -0.40051       -3.06342
| 10> O         -0.37793       -0.62756       -5.20114
| 11> H          1.51840        1.12197       -4.47946
| 12> H          1.05062        1.08971       -2.79625
| 13> H          1.36450        2.61606       -3.58668
| 14> *
| 15> %MaxCore 64000
| 16>
| 17> %pal nprocs 4
| 18> end
| 19>
| 20> %scf
| 21>   MaxIter 150
| 22> end
| 23>
| 24>
| 25>                          ****END OF INPUT****

CARTESIAN COORDINATES (ANGSTROEM)
---------------------------------
  C      0.968050    1.630640   -3.715750
  C     -0.508350    1.722680   -4.124300
  S     -1.328610    0.146740   -4.435780
  H     -0.591510    2.294960   -5.047220
  H     -1.114110    2.235610   -3.374360
  O     -2.571350    0.475730   -5.068340
  F     -1.514960   -0.400510   -3.063420
  O     -0.377930   -0.627560   -5.201140
  H      1.518400    1.121970   -4.479460
  H      1.050620    1.089710   -2.796250
  H      1.364500    2.616060   -3.586680

 Total Charge           Charge          ....    0
 Multiplicity           Mult            ....    1
 Number of Electrons    NEL             ....   58
 Basis Dimension        Dim             ....  285

ORBITAL ENERGIES
----------------

  NO   OCC          E(Eh)            E(eV)
   0   2.0000     -90.151249     -2453.1402
   1   2.0000     -25.346668      -689.7179
   2   2.0000     -19.645861      -534.5911
   3   2.0000     -19.642699      -534.5050
   4   2.0000     -10.595535      -288.3192
   5   2.0000     -10.553989      -287.1887
   6   2.0000      -8.476476      -230.6566
   7   2.0000      -6.401415      -174.1914
   8   2.0000      -6.396495      -174.0575
   9   2.0000      -6.395744      -174.0370
  10   2.0000      -1.493864       -40.6501
  11   2.0000      -1.243696       -33.8427
  12   2.0000      -1.150301       -31.3013
  13   2.0000      -0.919053       -25.0087
  14   2.0000      -0.819569       -22.3016
  15   2.0000      -0.761306       -20.7162
  16   2.0000      -0.671294       -18.2668
  17   2.0000      -0.663335       -18.0503
  18   2.0000      -0.637522       -17.3478
  19   2.0000      -0.570490       -15.5238
  20   2.0000      -0.554773       -15.0962
  21   2.0000      -0.540458       -14.7066
  22   2.0000      -0.505608       -13.7583
  23   2.0000      -0.481203       -13.0942
  24   2.0000      -0.469246       -12.7688
  25   2.0000      -0.450875       -12.2689
  26   2.0000      -0.419928       -11.4268
  27   2.0000      -0.401499       -10.9253
  28   2.0000      -0.399907       -10.8820
  29   0.0000       0.001010         0.0275
  30   0.0000       0.022190         0.6038
  31   0.0000       0.024287         0.6609
  32   0.0000       0.028906         0.7866
  33   0.0000       0.055373         1.5068

MULLIKEN ATOMIC CHARGES
-----------------------
   0 C :   -1.133991
   1 C :   -0.532775
   2 S :    1.342102
   3 H :    0.386576
   4 H :    0.396410
   5 O :   -0.635555
   6 F :   -0.177759
   7 O :   -0.647765
   8 H :    0.328228
   9 H :    0.332748
  10 H :    0.341781
Sum of atomic charges:    0.0000000

LOEWDIN ATOMIC CHARGES
----------------------
   0 C :   -0.110406
   1 C :   -0.274952
   2 S :    0.612923
   3 H :    0.107547
   4 H :    0.101746
   5 O :   -0.276717
   6 F :   -0.095527
   7 O :   -0.281413
   8 H :    0.071232
   9 H :    0.072602
  10 H :    0.072967

  Mayer bond orders larger than 0.100000
B(  0-C ,  1-C ) :   0.5521 B(  0-C ,  8-H ) :   0.9892 B(  0-C ,  9-H ) :   0.9345
B(  0-C , 10-H ) :   0.9417 B(  1-C ,  2-S ) :   0.8781 B(  1-C ,  3-H ) :   0.8861
B(  1-C ,  4-H ) :   0.8694 B(  2-S ,  5-O ) :   1.6376 B(  2-S ,  6-F ) :   0.8743
B(  2-S ,  7-O ) :   1.6425

Dispersion correction           -0.000151481
FINAL SINGLE POINT ENERGY      -727.691480327800

DIPOLE MOMENT
-------------
                                X             Y             Z
Electronic contribution:     -6.52327      -6.60803       0.19429
Nuclear contribution   :      7.20921       7.65416       0.78523
                        -----------------------------------------
Total Dipole Moment    :      0.68595       1.04613       0.97952
                        -----------------------------------------
Magnitude (a.u.)       :      1.58883
Magnitude (Debye)      :      4.03847

Rotational constants in cm-1:     0.153780     0.081282     0.079816
Rotational constants in MHz :  4610.199589  2436.778679  2392.820729

                             ****ORCA TERMINATED NORMALLY****
TOTAL RUN TIME: 0 days 0 hours 0 minutes 50 seconds 735 msec
