                         Program Version 5.0.0 -  RELEASE  -
|  1> !M062X D3Zero RIJCOSX def2-TZVPD def2/J TightSCF
|  2> *xyz 0 1
|  3> C          0.96805        1.63064       -3.71575
|  4> C         -0.50835        1.72268       -4.12430
|  5> S         -1.32861        0.14674       -4.43578
|  6> H         -0.59151        2.29496       -5.04722
|  7> H         -1.11411        2.23561       -3.37436
|  8> O         -2.57135        0.47573       -5.06834
|  9> O         -1.51496       -0.40051       -3.06342
| 10> F         -0.37793       -0.62756       -5.20114
| 11> H          1.51840        1.12197       -4.47946
| 12> H          1.05062        1.08971       -2.79625
| 13> H          1.36450        2.61606       -3.58668
| 14> *
| 15> %MaxCore 64000
| 16>
| 17> %pal nprocs 4
| 18> end
| 19>
| 20> %scf
| 21>   MaxIter 150
| 22> end
| 23>
| 24>
| 25>                          ****END OF INPUT****

CARTESIAN COORDINATES (ANGSTROEM)
---------------------------------
  C      0.968050    1.630640   -3.715750
  C     -0.508350    1.722680   -4.124300
  S     -1.328610    0.146740   -4.435780
  H     -0.591510    2.294960   -5.047220
  H     -1.114110    2.235610   -3.374360
  O     -2.571350    0.475730   -5.068340
  O     -1.514960   -0.400510   -3.063420
  F     -0.377930   -0.627560   -5.201140
  H      1.518400    1.121970   -4.479460
  H      1.050620    1.089710   -2.796250
  H      1.364500    2.616060   -3.586680

 Total Charge           Charge          ....    0
 Multiplicity           Mult            ....    1
 Number of Electrons    NEL             ....   58
 Basis Dimension        Dim             ....  285

ORBITAL ENERGIES
----------------

  NO   OCC          E(Eh)            E(eV)
   0   2.0000     -90.153377     -2453.1981
   1   2.0000     -25.369731      -690.3455
   2   2.0000     -19.646519      -534.6090
   3   2.0000     -19.627442      -534.0898
   4   2.0000     -10.596338      -288.3410
   5   2.0000     -10.557591      -287.2866
   6   2.0000      -8.478665      -230.7162
   7   2.0000      -6.403610      -174.2511
   8   2.0000      -6.398457      -174.1109
   9   2.0000      -6.397962      -174.0974
  10   2.0000      -1.531195       -41.6659
  11   2.0000      -1.233688       -33.5703
  12   2.0000      -1.126312       -30.6485
  13   2.0000      -0.921715       -25.0811
  14   2.0000      -0.834737       -22.7143
  15   2.0000      -0.770607       -20.9693
  16   2.0000      -0.696140       -18.9429
  17   2.0000      -0.689590       -18.7647
  18   2.0000      -0.635316       -17.2878
  19   2.0000      -0.567882       -15.4529
  20   2.0000      -0.556030       -15.1303
  21   2.0000      -0.530267       -14.4293
  22   2.0000      -0.510441       -13.8898
  23   2.0000      -0.481413       -13.0999
  24   2.0000      -0.464076       -12.6281
  25   2.0000      -0.453603       -12.3432
  26   2.0000      -0.409640       -11.1469
  27   2.0000      -0.390048       -10.6137
  28   2.0000      -0.384424       -10.4607
  29   0.0000      -0.001203        -0.0327
  30   0.0000       0.020356         0.5539
  31   0.0000       0.023960         0.6520
  32   0.0000       0.029059         0.7907
  33   0.0000       0.054449         1.4816

MULLIKEN ATOMIC CHARGES
-----------------------
   0 C :   -1.167055
   1 C :   -0.492501
   2 S :    1.322309
   3 H :    0.392330
   4 H :    0.365613
   5 O :   -0.627083
   6 O :   -0.670799
   7 F :   -0.139495
   8 H :    0.344753
   9 H :    0.334888
  10 H :    0.337040
Sum of atomic charges:   -0.0000000

LOEWDIN ATOMIC CHARGES
----------------------
   0 C :   -0.111063
   1 C :   -0.275006
   2 S :    0.611943
   3 H :    0.098829
   4 H :    0.112209
   5 O :   -0.275778
   6 O :   -0.318159
   7 F :   -0.059465
   8 H :    0.067817
   9 H :    0.075146
  10 H :    0.073526

  Mayer bond orders larger than 0.100000
B(  0-C ,  1-C ) :   0.5262 B(  0-C ,  8-H ) :   0.9276 B(  0-C ,  9-H ) :   0.9791
B(  0-C , 10-H ) :   0.9483 B(  1-C ,  2-S ) :   0.8751 B(  1-C ,  3-H ) :   0.8873
B(  1-C ,  4-H ) :   0.9027 B(  2-S ,  5-O ) :   1.6419 B(  2-S ,  6-O ) :   1.5851
B(  2-S ,  7-F ) :   0.9366

Dispersion correction           -0.000152802
FINAL SINGLE POINT ENERGY      -727.672122682884

DIPOLE MOMENT
-------------
                                X             Y             Z
Electronic contribution:     -4.58662      -6.96799      -3.45256
Nuclear contribution   :      6.02439       7.89075       3.01280
                        -----------------------------------------
Total Dipole Moment    :      1.43777       0.92276      -0.43976
                        -----------------------------------------
Magnitude (a.u.)       :      1.76410
Magnitude (Debye)      :      4.48398

Rotational constants in cm-1:     0.153652     0.082400     0.079295
Rotational constants in MHz :  4606.361242  2470.285703  2377.214112

                             ****ORCA TERMINATED NORMALLY****
TOTAL RUN TIME: 0 days 0 hours 0 minutes 51 seconds 43 msec
