                         Program Version 5.0.0 -  RELEASE  -
|  1> !M062X D3Zero RIJCOSX def2-TZVPD def2/J TightSCF xyzfile
|  2>
|  3> *xyzfile 0 1 D1.xyz
|  4>
|  5> %MaxCore 64000
|  6>
|  7> %pal nprocs 4
|  8> end
|  9>
| 10> %scf
| 11>   MaxIter 150
| 12> end
| 13>
| 14>
| 15>                          ****END OF INPUT****

CARTESIAN COORDINATES (ANGSTROEM)
---------------------------------
  C      1.364014    0.468742   -2.813764
  C      0.428844    0.321402   -1.655312
  C      0.968045    1.630639   -3.715749
  C     -0.508347    1.722679   -4.124300
  S     -1.328608    0.146737   -4.435781
  H     -0.591511    2.294958   -5.047219
  H     -1.114114    2.235610   -3.374362
  H      0.748578   -0.400542   -1.001345
  H     -0.461053    0.023332   -2.077731
  H      0.310258    1.201375   -1.134948
  F     -2.571347    0.475733   -5.068341
  O     -1.514963   -0.400512   -3.063420
  H      1.294847   -0.468742   -3.364684
  H      2.376216    0.597400   -2.431495
  H      1.578688    1.520652   -4.612733
  H      1.266653    2.575988   -3.250448
  O     -0.377928   -0.627558   -5.201141

 Total Charge           Charge          ....    0
 Multiplicity           Mult            ....    1
 Number of Electrons    NEL             ....   74
 Basis Dimension        Dim             ....  395

ORBITAL ENERGIES
----------------

  NO   OCC          E(Eh)            E(eV)
   0   2.0000     -90.160260     -2453.3854
   1   2.0000     -25.379187      -690.6028
   2   2.0000     -19.648066      -534.6510
   3   2.0000     -19.634620      -534.2852
   4   2.0000     -10.597183      -288.3640
   5   2.0000     -10.556827      -287.2659
   6   2.0000     -10.519762      -286.2573
   7   2.0000     -10.461402      -284.6692
   8   2.0000      -8.485747      -230.9089
   9   2.0000      -6.410526      -174.4393
  10   2.0000      -6.405495      -174.3024
  11   2.0000      -6.405233      -174.2953
  12   2.0000      -1.545724       -42.0613
  13   2.0000      -1.236888       -33.6574
  14   2.0000      -1.138020       -30.9671
  15   2.0000      -0.931275       -25.3413
  16   2.0000      -0.875945       -23.8357
  17   2.0000      -0.823448       -22.4072
  18   2.0000      -0.770079       -20.9549
  19   2.0000      -0.706127       -19.2147
  20   2.0000      -0.700992       -19.0750
  21   2.0000      -0.671172       -18.2635
  22   2.0000      -0.632073       -17.1996
  23   2.0000      -0.585766       -15.9395
  24   2.0000      -0.568895       -15.4804
  25   2.0000      -0.539687       -14.6856
  26   2.0000      -0.534105       -14.5337
  27   2.0000      -0.492398       -13.3988
  28   2.0000      -0.473648       -12.8886
  29   2.0000      -0.470542       -12.8041
  30   2.0000      -0.458442       -12.4748
  31   2.0000      -0.426269       -11.5994
  32   2.0000      -0.414369       -11.2755
  33   2.0000      -0.393809       -10.7161
  34   2.0000      -0.382614       -10.4115
  35   2.0000      -0.380362       -10.3502
  36   2.0000      -0.342879        -9.3302
  37   0.0000      -0.001943        -0.0529
  38   0.0000       0.016889         0.4596
  39   0.0000       0.022068         0.6005
  40   0.0000       0.030157         0.8206
  41   0.0000       0.049175         1.3381

MULLIKEN ATOMIC CHARGES
-----------------------
   0 C :   -0.411735
   1 C :   -1.139151
   2 C :   -0.593284
   3 C :   -0.871292
   4 S :    1.338985
   5 H :    0.442123
   6 H :    0.421399
   7 H :    0.407533
   8 H :    0.274251
   9 H :    0.340545
  10 F :   -0.102630
  11 O :   -0.753396
  12 H :    0.271737
  13 H :    0.346934
  14 H :    0.302909
  15 H :    0.397844
  16 O :   -0.672772
Sum of atomic charges:    0.0000000

LOEWDIN ATOMIC CHARGES
----------------------
   0 C :   -0.252892
   1 C :   -0.115980
   2 C :   -0.216220
   3 C :   -0.215363
   4 S :    0.660463
   5 H :    0.101887
   6 H :    0.111663
   7 H :    0.062842
   8 H :   -0.032069
   9 H :    0.066460
  10 F :   -0.043566
  11 O :   -0.314990
  12 H :    0.105602
  13 H :    0.112349
  14 H :    0.113413
  15 H :    0.123655
  16 O :   -0.267254

  Mayer bond orders larger than 0.100000
B(  0-C ,  1-C ) :   0.3523 B(  0-C ,  2-C ) :   0.6562 B(  0-C ,  8-H ) :  -0.1125
B(  0-C , 12-H ) :   1.0099 B(  0-C , 13-H ) :   0.9065 B(  1-C ,  3-C ) :   0.1077
B(  1-C ,  7-H ) :   0.9650 B(  1-C ,  8-H ) :   0.9998 B(  1-C ,  9-H ) :   1.0575
B(  2-C ,  3-C ) :   0.7534 B(  2-C , 14-H ) :   0.9569 B(  2-C , 15-H ) :   0.9069
B(  3-C ,  4-S ) :   0.8616 B(  3-C ,  5-H ) :   0.8411 B(  3-C ,  6-H ) :   0.8611
B(  3-C , 11-O ) :   0.1296 B(  4-S , 10-F ) :   0.9161 B(  4-S , 11-O ) :   1.5620
B(  4-S , 16-O ) :   1.6121 B(  8-H , 11-O ) :  -0.2018

Dispersion correction           -0.000418383
FINAL SINGLE POINT ENERGY      -806.237525158085

DIPOLE MOMENT
-------------
                                X             Y             Z
Electronic contribution:    -12.46662      -4.05515      -9.72441
Nuclear contribution   :     12.25227       5.48563       9.26621
                        -----------------------------------------
Total Dipole Moment    :     -0.21435       1.43048      -0.45820
                        -----------------------------------------
Magnitude (a.u.)       :      1.51729
Magnitude (Debye)      :      3.85664

Rotational constants in cm-1:     0.103176     0.044975     0.040960
Rotational constants in MHz :  3093.138469  1348.317425  1227.945122

                             ****ORCA TERMINATED NORMALLY****
TOTAL RUN TIME: 0 days 0 hours 1 minutes 43 seconds 330 msec
