                         Program Version 5.0.0 -  RELEASE  -
|  1> !M062X D3Zero RIJCOSX def2-TZVPD def2/J TightSCF xyzfile
|  2>
|  3> *xyzfile 0 1 D2.xyz
|  4>
|  5> %MaxCore 64000
|  6>
|  7> %pal nprocs 4
|  8> end
|  9>
| 10> %scf
| 11>   MaxIter 150
| 12> end
| 13>
| 14>
| 15>                          ****END OF INPUT****

CARTESIAN COORDINATES (ANGSTROEM)
---------------------------------
  C      1.364014    0.468742   -2.813764
  C      0.428844    0.321402   -1.655312
  C      0.968045    1.630639   -3.715749
  C     -0.508347    1.722679   -4.124300
  S     -1.328608    0.146737   -4.435781
  H     -0.591511    2.294958   -5.047219
  H     -1.114114    2.235610   -3.374362
  H      0.748578   -0.400542   -1.001345
  H     -0.461053    0.023332   -2.077731
  H      0.310258    1.201375   -1.134948
  O     -2.571347    0.475733   -5.068341
  F     -1.514963   -0.400512   -3.063420
  H      1.294847   -0.468742   -3.364684
  H      2.376216    0.597400   -2.431495
  H      1.578688    1.520652   -4.612733
  H      1.266653    2.575988   -3.250448
  O     -0.377928   -0.627558   -5.201141

 Total Charge           Charge          ....    0
 Multiplicity           Mult            ....    1
 Number of Electrons    NEL             ....   74
 Basis Dimension        Dim             ....  395

ORBITAL ENERGIES
----------------

  NO   OCC          E(Eh)            E(eV)
   0   2.0000     -90.154585     -2453.2310
   1   2.0000     -25.352268      -689.8703
   2   2.0000     -19.648530      -534.6637
   3   2.0000     -19.645495      -534.5811
   4   2.0000     -10.595044      -288.3058
   5   2.0000     -10.558314      -287.3063
   6   2.0000     -10.534664      -286.6628
   7   2.0000     -10.493169      -285.5336
   8   2.0000      -8.480117      -230.7557
   9   2.0000      -6.405166      -174.2934
  10   2.0000      -6.399999      -174.1528
  11   2.0000      -6.399288      -174.1335
  12   2.0000      -1.508228       -41.0410
  13   2.0000      -1.247813       -33.9547
  14   2.0000      -1.153545       -31.3896
  15   2.0000      -0.939099       -25.5542
  16   2.0000      -0.878807       -23.9136
  17   2.0000      -0.813667       -22.1410
  18   2.0000      -0.787402       -21.4263
  19   2.0000      -0.691700       -18.8221
  20   2.0000      -0.683171       -18.5900
  21   2.0000      -0.668717       -18.1967
  22   2.0000      -0.637076       -17.3357
  23   2.0000      -0.575650       -15.6642
  24   2.0000      -0.557211       -15.1625
  25   2.0000      -0.551332       -15.0025
  26   2.0000      -0.543441       -14.7878
  27   2.0000      -0.501873       -13.6567
  28   2.0000      -0.481886       -13.1128
  29   2.0000      -0.472794       -12.8654
  30   2.0000      -0.469909       -12.7869
  31   2.0000      -0.427373       -11.6294
  32   2.0000      -0.423201       -11.5159
  33   2.0000      -0.406160       -11.0522
  34   2.0000      -0.400184       -10.8896
  35   2.0000      -0.394222       -10.7273
  36   2.0000      -0.384638       -10.4665
  37   0.0000       0.004827         0.1314
  38   0.0000       0.018081         0.4920
  39   0.0000       0.023115         0.6290
  40   0.0000       0.026811         0.7296
  41   0.0000       0.049293         1.3413

MULLIKEN ATOMIC CHARGES
-----------------------
   0 C :   -0.398882
   1 C :   -1.273971
   2 C :   -0.535963
   3 C :   -0.826255
   4 S :    1.345608
   5 H :    0.392828
   6 H :    0.397217
   7 H :    0.411160
   8 H :    0.354759
   9 H :    0.364248
  10 O :   -0.678941
  11 F :   -0.237631
  12 H :    0.280459
  13 H :    0.348787
  14 H :    0.306743
  15 H :    0.406345
  16 O :   -0.656512
Sum of atomic charges:   -0.0000000

LOEWDIN ATOMIC CHARGES
----------------------
   0 C :   -0.255488
   1 C :   -0.102440
   2 C :   -0.223498
   3 C :   -0.210682
   4 S :    0.636534
   5 H :    0.112851
   6 H :    0.111011
   7 H :    0.064894
   8 H :   -0.001669
   9 H :    0.070337
  10 O :   -0.267529
  11 F :   -0.122840
  12 H :    0.103851
  13 H :    0.114804
  14 H :    0.114374
  15 H :    0.121334
  16 O :   -0.265846

  Mayer bond orders larger than 0.100000
B(  0-C ,  1-C ) :   0.3225 B(  0-C ,  2-C ) :   0.6419 B(  0-C ,  8-H ) :  -0.1249
B(  0-C , 12-H ) :   1.0233 B(  0-C , 13-H ) :   0.9093 B(  1-C ,  3-C ) :   0.1354
B(  1-C ,  7-H ) :   0.9399 B(  1-C ,  8-H ) :   0.9567 B(  1-C ,  9-H ) :   0.9936
B(  2-C ,  3-C ) :   0.6327 B(  2-C , 14-H ) :   0.9700 B(  2-C , 15-H ) :   0.9172
B(  3-C ,  4-S ) :   0.8712 B(  3-C ,  5-H ) :   0.8939 B(  3-C ,  6-H ) :   0.9019
B(  3-C , 10-O ) :   0.1052 B(  4-S , 10-O ) :   1.5362 B(  4-S , 11-F ) :   0.9180
B(  4-S , 16-O ) :   1.6220 B(  8-H , 11-F ) :  -0.1647

Dispersion correction           -0.000433640
FINAL SINGLE POINT ENERGY      -806.259702077518

DIPOLE MOMENT
-------------
                                X             Y             Z
Electronic contribution:    -10.47943      -5.54821      -6.13265
Nuclear contribution   :     11.08796       6.45140       7.05645
                        -----------------------------------------
Total Dipole Moment    :      0.60853       0.90318       0.92381
                        -----------------------------------------
Magnitude (a.u.)       :      1.42810
Magnitude (Debye)      :      3.62994

Rotational constants in cm-1:     0.100113     0.046890     0.041843
Rotational constants in MHz :  3001.313402  1405.711946  1254.411771

                             ****ORCA TERMINATED NORMALLY****
TOTAL RUN TIME: 0 days 0 hours 1 minutes 42 seconds 917 msec
