                         Program Version 5.0.0 -  RELEASE  -
|  1> !M062X D3Zero RIJCOSX def2-TZVPD def2/J TightSCF xyzfile
|  2>
|  3> *xyzfile 0 1 D3.xyz
|  4>
|  5> %MaxCore 64000
|  6>
|  7> %pal nprocs 4
|  8> end
|  9>
| 10> %scf
| 11>   MaxIter 150
| 12> end
| 13>
| 14>
| 15>                          ****END OF INPUT****

CARTESIAN COORDINATES (ANGSTROEM)
---------------------------------
  C      1.364014    0.468742   -2.813764
  C      0.428844    0.321402   -1.655312
  C      0.968045    1.630639   -3.715749
  C     -0.508347    1.722679   -4.124300
  S     -1.328608    0.146737   -4.435781
  H     -0.591511    2.294958   -5.047219
  H     -1.114114    2.235610   -3.374362
  H      0.748578   -0.400542   -1.001345
  H     -0.461053    0.023332   -2.077731
  H      0.310258    1.201375   -1.134948
  O     -2.571347    0.475733   -5.068341
  O     -1.514963   -0.400512   -3.063420
  H      1.294847   -0.468742   -3.364684
  H      2.376216    0.597400   -2.431495
  H      1.578688    1.520652   -4.612733
  H      1.266653    2.575988   -3.250448
  F     -0.377928   -0.627558   -5.201141

 Total Charge           Charge          ....    0
 Multiplicity           Mult            ....    1
 Number of Electrons    NEL             ....   74
 Basis Dimension        Dim             ....  395

ORBITAL ENERGIES
----------------

  NO   OCC          E(Eh)            E(eV)
   0   2.0000     -90.160019     -2453.3788
   1   2.0000     -25.374320      -690.4703
   2   2.0000     -19.650944      -534.7294
   3   2.0000     -19.633482      -534.2542
   4   2.0000     -10.596848      -288.3549
   5   2.0000     -10.560829      -287.3748
   6   2.0000     -10.531994      -286.5901
   7   2.0000     -10.465972      -284.7936
   8   2.0000      -8.485458      -230.9011
   9   2.0000      -6.410384      -174.4354
  10   2.0000      -6.405181      -174.2938
  11   2.0000      -6.404864      -174.2852
  12   2.0000      -1.536174       -41.8014
  13   2.0000      -1.241621       -33.7862
  14   2.0000      -1.141497       -31.0617
  15   2.0000      -0.937687       -25.5158
  16   2.0000      -0.874075       -23.7848
  17   2.0000      -0.823760       -22.4157
  18   2.0000      -0.771570       -20.9955
  19   2.0000      -0.708633       -19.2829
  20   2.0000      -0.695963       -18.9381
  21   2.0000      -0.678121       -18.4526
  22   2.0000      -0.630422       -17.1547
  23   2.0000      -0.580452       -15.7949
  24   2.0000      -0.570981       -15.5372
  25   2.0000      -0.546860       -14.8808
  26   2.0000      -0.536671       -14.6036
  27   2.0000      -0.498630       -13.5684
  28   2.0000      -0.483947       -13.1689
  29   2.0000      -0.465707       -12.6725
  30   2.0000      -0.463734       -12.6188
  31   2.0000      -0.439956       -11.9718
  32   2.0000      -0.411607       -11.2004
  33   2.0000      -0.406072       -11.0498
  34   2.0000      -0.394089       -10.7237
  35   2.0000      -0.385469       -10.4891
  36   2.0000      -0.339884        -9.2487
  37   0.0000      -0.000750        -0.0204
  38   0.0000       0.016364         0.4453
  39   0.0000       0.022993         0.6257
  40   0.0000       0.027475         0.7476
  41   0.0000       0.048505         1.3199

MULLIKEN ATOMIC CHARGES
-----------------------
   0 C :   -0.341911
   1 C :   -1.161234
   2 C :   -0.613522
   3 C :   -0.763283
   4 S :    1.358161
   5 H :    0.385430
   6 H :    0.385522
   7 H :    0.406674
   8 H :    0.301552
   9 H :    0.348834
  10 O :   -0.672473
  11 O :   -0.740021
  12 H :    0.220299
  13 H :    0.341372
  14 H :    0.307831
  15 H :    0.394789
  16 F :   -0.158020
Sum of atomic charges:    0.0000000

LOEWDIN ATOMIC CHARGES
----------------------
   0 C :   -0.258045
   1 C :   -0.117473
   2 C :   -0.227221
   3 C :   -0.203966
   4 S :    0.657578
   5 H :    0.104417
   6 H :    0.121821
   7 H :    0.062916
   8 H :   -0.033906
   9 H :    0.068103
  10 O :   -0.264853
  11 O :   -0.309414
  12 H :    0.102843
  13 H :    0.112999
  14 H :    0.109470
  15 H :    0.122642
  16 F :   -0.047909

  Mayer bond orders larger than 0.100000
B(  0-C ,  1-C ) :   0.3595 B(  0-C ,  2-C ) :   0.5762 B(  0-C ,  3-C ) :  -0.1104
B(  0-C ,  8-H ) :  -0.1148 B(  0-C , 12-H ) :   1.0456 B(  0-C , 13-H ) :   0.9137
B(  1-C ,  3-C ) :   0.1138 B(  1-C ,  7-H ) :   0.9717 B(  1-C ,  8-H ) :   1.0259
B(  1-C ,  9-H ) :   1.0556 B(  2-C ,  3-C ) :   0.6730 B(  2-C , 14-H ) :   0.9813
B(  2-C , 15-H ) :   0.9096 B(  3-C ,  4-S ) :   0.8460 B(  3-C ,  5-H ) :   0.9329
B(  3-C ,  6-H ) :   0.9063 B(  3-C , 10-O ) :   0.1000 B(  3-C , 11-O ) :   0.1185
B(  4-S , 10-O ) :   1.5689 B(  4-S , 11-O ) :   1.5738 B(  4-S , 16-F ) :   0.9324
B(  8-H , 11-O ) :  -0.2417

Dispersion correction           -0.000428127
FINAL SINGLE POINT ENERGY      -806.241265346219

DIPOLE MOMENT
-------------
                                X             Y             Z
Electronic contribution:     -8.63068      -5.95074      -9.90450
Nuclear contribution   :      9.83476       6.70164       9.41257
                        -----------------------------------------
Total Dipole Moment    :      1.20408       0.75090      -0.49192
                        -----------------------------------------
Magnitude (a.u.)       :      1.50188
Magnitude (Debye)      :      3.81749

Rotational constants in cm-1:     0.099832     0.045916     0.042219
Rotational constants in MHz :  2992.874960  1376.530174  1265.693813

                             ****ORCA TERMINATED NORMALLY****
TOTAL RUN TIME: 0 days 0 hours 1 minutes 50 seconds 578 msec
