                         Program Version 5.0.0 -  RELEASE  -
|  1> !wB97X-D3 RIJCOSX def2-SVPD def2/J TightSCF CPCM(Water)
|  2> *xyz -1 1
|  3> C          3.93993        0.32036       -4.36773
|  4> C          5.10585        0.66802       -5.30546
|  5> O          4.80913        1.15019       -6.41436
|  6> O          6.26737        0.56500       -4.81948
|  7> H          3.01376        0.44480       -4.88890
|  8> H          3.96058        0.96928       -3.51722
|  9> H          4.03331       -0.69517       -4.04388
| 10> *
| 11>
| 12> %MaxCore 64000
| 13>
| 14> %pal nprocs 18
| 15> end
| 16>
| 17> %scf
| 18>   MaxIter 150
| 19> end
| 20>
| 21>
| 22>                          ****END OF INPUT****

CARTESIAN COORDINATES (ANGSTROEM)
---------------------------------
  C      3.939930    0.320360   -4.367730
  C      5.105850    0.668020   -5.305460
  O      4.809130    1.150190   -6.414360
  O      6.267370    0.565000   -4.819480
  H      3.013760    0.444800   -4.888900
  H      3.960580    0.969280   -3.517220
  H      4.033310   -0.695170   -4.043880

 Total Charge           Charge          ....   -1
 Multiplicity           Mult            ....    1
 Number of Electrons    NEL             ....   32
 Basis Dimension        Dim             ....  110

ORBITAL ENERGIES
----------------

  NO   OCC          E(Eh)            E(eV)
   0   2.0000     -19.180648      -521.9320
   1   2.0000     -19.177124      -521.8361
   2   2.0000     -10.369821      -282.1772
   3   2.0000     -10.259604      -279.1780
   4   2.0000      -1.125528       -30.6272
   5   2.0000      -1.031139       -28.0587
   6   2.0000      -0.814922       -22.1752
   7   2.0000      -0.588323       -16.0091
   8   2.0000      -0.531133       -14.4529
   9   2.0000      -0.523186       -14.2366
  10   2.0000      -0.520489       -14.1632
  11   2.0000      -0.470620       -12.8062
  12   2.0000      -0.449802       -12.2397
  13   2.0000      -0.345478        -9.4009
  14   2.0000      -0.331081        -9.0092
  15   2.0000      -0.325687        -8.8624
  16   0.0000       0.096370         2.6224
  17   0.0000       0.132293         3.5999
  18   0.0000       0.134219         3.6523
  19   0.0000       0.149847         4.0775
  20   0.0000       0.171605         4.6696

MULLIKEN ATOMIC CHARGES
-----------------------
   0 C :    0.395940
   1 C :    0.022055
   2 O :   -0.654975
   3 O :   -0.708102
   4 H :   -0.051142
   5 H :   -0.001066
   6 H :   -0.002711
Sum of atomic charges:   -1.0000000

LOEWDIN ATOMIC CHARGES
----------------------
   0 C :    0.156278
   1 C :   -0.351366
   2 O :   -0.361639
   3 O :   -0.382930
   4 H :   -0.027982
   5 H :   -0.014187
   6 H :   -0.018175

  Mayer bond orders larger than 0.100000
B(  0-C ,  1-C ) :   1.2202 B(  0-C ,  4-H ) :   0.8889 B(  0-C ,  5-H ) :   0.8389
B(  0-C ,  6-H ) :   0.8222 B(  1-C ,  2-O ) :   1.5345 B(  1-C ,  3-O ) :   1.4856
B(  1-C ,  4-H ) :   0.2064 B(  1-C ,  5-H ) :   0.1338 B(  1-C ,  6-H ) :   0.1493
B(  2-O ,  3-O ) :   0.1027

Dispersion correction           -0.000905523
FINAL SINGLE POINT ENERGY      -228.414915062431

DIPOLE MOMENT
-------------
                                X             Y             Z
Electronic contribution:      2.25204       0.69938      -1.88014
Nuclear contribution   :     -3.81330      -1.22874       3.01208
                        -----------------------------------------
Total Dipole Moment    :     -1.56126      -0.52936       1.13194
                        -----------------------------------------
Magnitude (a.u.)       :      1.99977
Magnitude (Debye)      :      5.08300

Rotational constants in cm-1:     0.390282     0.335702     0.186718
Rotational constants in MHz : 11700.346989 10064.094211  5597.661196

                             ****ORCA TERMINATED NORMALLY****
TOTAL RUN TIME: 0 days 0 hours 0 minutes 5 seconds 674 msec
