                         Program Version 5.0.0 -  RELEASE  -
|  1> !wB97X-D3 RIJCOSX def2-SVPD def2/J TightSCF CPCM(Water)
|  2> *xyz 1 1
|  3> C          3.90595        2.81985       -3.75292
|  4> N          5.29562        3.13151       -4.10533
|  5> C          5.70862        3.46889       -5.32419
|  6> N          6.90470        3.03895       -5.71708
|  7> N          4.98188        4.29357       -6.09746
|  8> H          5.00055        4.10131       -7.08776
|  9> H          4.08469        4.59690       -5.73965
| 10> H          5.96336        2.52611       -3.64239
| 11> H          7.04716        2.06686       -5.47360
| 12> H          7.19815        3.30799       -6.64523
| 13> H          3.24866        3.48801       -4.26909
| 14> H          3.77188        2.93227       -2.69732
| 15> H          3.68381        1.81198       -4.03533
| 16> *
| 17>
| 18> %MaxCore 64000
| 19>
| 20> %pal nprocs 18
| 21> end
| 22>
| 23> %scf
| 24>   MaxIter 150
| 25> end
| 26>
| 27>
| 28>                          ****END OF INPUT****

CARTESIAN COORDINATES (ANGSTROEM)
---------------------------------
  C      3.905950    2.819850   -3.752920
  N      5.295620    3.131510   -4.105330
  C      5.708620    3.468890   -5.324190
  N      6.904700    3.038950   -5.717080
  N      4.981880    4.293570   -6.097460
  H      5.000550    4.101310   -7.087760
  H      4.084690    4.596900   -5.739650
  H      5.963360    2.526110   -3.642390
  H      7.047160    2.066860   -5.473600
  H      7.198150    3.307990   -6.645230
  H      3.248660    3.488010   -4.269090
  H      3.771880    2.932270   -2.697320
  H      3.683810    1.811980   -4.035330

 Total Charge           Charge          ....    1
 Multiplicity           Mult            ....    1
 Number of Electrons    NEL             ....   40
 Basis Dimension        Dim             ....  164

ORBITAL ENERGIES
----------------

  NO   OCC          E(Eh)            E(eV)
   0   2.0000     -14.495166      -394.4335
   1   2.0000     -14.488110      -394.2415
   2   2.0000     -14.486602      -394.2005
   3   2.0000     -10.459131      -284.6074
   4   2.0000     -10.331575      -281.1365
   5   2.0000      -1.159217       -31.5439
   6   2.0000      -1.043656       -28.3993
   7   2.0000      -1.032104       -28.0850
   8   2.0000      -0.846870       -23.0445
   9   2.0000      -0.752995       -20.4900
  10   2.0000      -0.708886       -19.2898
  11   2.0000      -0.683949       -18.6112
  12   2.0000      -0.629192       -17.1212
  13   2.0000      -0.612190       -16.6585
  14   2.0000      -0.575585       -15.6625
  15   2.0000      -0.570254       -15.5174
  16   2.0000      -0.515477       -14.0268
  17   2.0000      -0.510808       -13.8998
  18   2.0000      -0.413103       -11.2411
  19   2.0000      -0.387891       -10.5551
  20   0.0000       0.057280         1.5587
  21   0.0000       0.084870         2.3094
  22   0.0000       0.120857         3.2887
  23   0.0000       0.132446         3.6040
  24   0.0000       0.160650         4.3715

MULLIKEN ATOMIC CHARGES
-----------------------
   0 C :    1.029322
   1 N :   -0.551921
   2 C :    0.754694
   3 N :   -0.089414
   4 N :   -0.006068
   5 H :    0.048361
   6 H :    0.034777
   7 H :   -0.090216
   8 H :    0.077314
   9 H :    0.084750
  10 H :   -0.116571
  11 H :   -0.123321
  12 H :   -0.051706
Sum of atomic charges:    1.0000000

LOEWDIN ATOMIC CHARGES
----------------------
   0 C :    0.256875
   1 N :    0.020961
   2 C :   -0.045461
   3 N :    0.265454
   4 N :    0.277169
   5 H :    0.047206
   6 H :    0.023622
   7 H :    0.059134
   8 H :    0.048124
   9 H :    0.043744
  10 H :   -0.009557
  11 H :    0.005098
  12 H :    0.007631

  Mayer bond orders larger than 0.100000
B(  0-C ,  1-N ) :   0.8474 B(  0-C , 10-H ) :   0.8588 B(  0-C , 11-H ) :   0.8275
B(  0-C , 12-H ) :   0.8404 B(  1-N ,  2-C ) :   1.1765 B(  1-N ,  3-N ) :   0.1733
B(  1-N ,  7-H ) :   1.1734 B(  1-N , 10-H ) :   0.1331 B(  1-N , 11-H ) :   0.1853
B(  1-N , 12-H ) :   0.1188 B(  2-C ,  3-N ) :   1.0670 B(  2-C ,  4-N ) :   1.0497
B(  2-C ,  7-H ) :  -0.1219 B(  3-N ,  4-N ) :   0.1141 B(  3-N ,  8-H ) :   1.0151
B(  3-N ,  9-H ) :   0.9445 B(  4-N ,  5-H ) :   1.0913 B(  4-N ,  6-H ) :   0.9649
B(  5-H ,  6-H ) :  -0.1126

Dispersion correction           -0.002448326
FINAL SINGLE POINT ENERGY      -244.944680596979

DIPOLE MOMENT
-------------
                                X             Y             Z
Electronic contribution:      2.52389       0.90808      -1.42099
Nuclear contribution   :     -2.62204      -1.73043       0.52001
                        -----------------------------------------
Total Dipole Moment    :     -0.09815      -0.82235      -0.90098
                        -----------------------------------------
Magnitude (a.u.)       :      1.22379
Magnitude (Debye)      :      3.11064

Rotational constants in cm-1:     0.299316     0.133886     0.097604
Rotational constants in MHz :  8973.254382  4013.798371  2926.103660

                             ****ORCA TERMINATED NORMALLY****
TOTAL RUN TIME: 0 days 0 hours 0 minutes 9 seconds 311 msec
