                         Program Version 5.0.0 -  RELEASE  -
|  1> !wB97X-D3 RIJCOSX def2-SVPD def2/J TightSCF CPCM(Water) xyzfile
|  2>
|  3> *xyzfile 0 1 B.xyz
|  4>
|  5> %MaxCore 64000
|  6>
|  7> %pal nprocs 18
|  8> end
|  9>
| 10> %scf
| 11>   MaxIter 150
| 12> end
| 13>
| 14>
| 15>                          ****END OF INPUT****

CARTESIAN COORDINATES (ANGSTROEM)
---------------------------------
  C      3.905947    2.819855   -3.752920
  N      5.295615    3.131515   -4.105334
  C      3.803511    1.374716   -3.260807
  C      3.939934    0.320362   -4.367729
  H      4.105043   -0.655085   -3.907733
  H      3.022801    0.280517   -4.957117
  C      5.105846    0.668022   -5.305463
  C      5.708619    3.468885   -5.324190
  N      6.904696    3.038954   -5.717084
  N      4.981884    4.293570   -6.097457
  H      5.000546    4.101311   -7.087761
  H      4.084693    4.596899   -5.739652
  H      5.963358    2.526112   -3.642391
  H      7.047164    2.066861   -5.473604
  H      7.198145    3.307994   -6.645225
  H      3.282025    2.949187   -4.640259
  H      3.565254    3.514574   -2.982523
  H      4.574833    1.215157   -2.500443
  H      2.843514    1.260845   -2.751465
  O      4.809132    1.150187   -6.414361
  O      6.267366    0.564999   -4.819481

 Total Charge           Charge          ....    0
 Multiplicity           Mult            ....    1
 Number of Electrons    NEL             ....   78
 Basis Dimension        Dim             ....  294

ORBITAL ENERGIES
----------------

  NO   OCC          E(Eh)            E(eV)
   0   2.0000     -19.194288      -522.3031
   1   2.0000     -19.193048      -522.2694
   2   2.0000     -14.479486      -394.0069
   3   2.0000     -14.476321      -393.9207
   4   2.0000     -14.458569      -393.4377
   5   2.0000     -10.443671      -284.1867
   6   2.0000     -10.381038      -282.4824
   7   2.0000     -10.334316      -281.2110
   8   2.0000     -10.295389      -280.1518
   9   2.0000     -10.279197      -279.7112
  10   2.0000      -1.154150       -31.4060
  11   2.0000      -1.134270       -30.8651
  12   2.0000      -1.049697       -28.5637
  13   2.0000      -1.033874       -28.1331
  14   2.0000      -1.014525       -27.6066
  15   2.0000      -0.901164       -24.5219
  16   2.0000      -0.819952       -22.3120
  17   2.0000      -0.743985       -20.2449
  18   2.0000      -0.726135       -19.7591
  19   2.0000      -0.695026       -18.9126
  20   2.0000      -0.662201       -18.0194
  21   2.0000      -0.622775       -16.9466
  22   2.0000      -0.606630       -16.5072
  23   2.0000      -0.600455       -16.3392
  24   2.0000      -0.576214       -15.6796
  25   2.0000      -0.571987       -15.5646
  26   2.0000      -0.544486       -14.8162
  27   2.0000      -0.530815       -14.4442
  28   2.0000      -0.511189       -13.9102
  29   2.0000      -0.502913       -13.6850
  30   2.0000      -0.494835       -13.4652
  31   2.0000      -0.475257       -12.9324
  32   2.0000      -0.441677       -12.0187
  33   2.0000      -0.435688       -11.8557
  34   2.0000      -0.398277       -10.8377
  35   2.0000      -0.378252       -10.2928
  36   2.0000      -0.357986        -9.7413
  37   2.0000      -0.343688        -9.3522
  38   2.0000      -0.334942        -9.1142
  39   0.0000       0.073191         1.9916
  40   0.0000       0.091431         2.4880
  41   0.0000       0.105331         2.8662
  42   0.0000       0.114053         3.1035
  43   0.0000       0.123409         3.3581

MULLIKEN ATOMIC CHARGES
-----------------------
   0 C :    0.752592
   1 N :   -0.440277
   2 C :   -0.015696
   3 C :    0.274795
   4 H :   -0.055736
   5 H :    0.012954
   6 C :    0.297754
   7 C :    0.807659
   8 N :    0.066394
   9 N :   -0.138873
  10 H :    0.049171
  11 H :    0.088933
  12 H :   -0.059998
  13 H :   -0.103072
  14 H :    0.105474
  15 H :    0.028467
  16 H :   -0.286115
  17 H :    0.084540
  18 H :   -0.105389
  19 O :   -0.619096
  20 O :   -0.744482
Sum of atomic charges:   -0.0000000

LOEWDIN ATOMIC CHARGES
----------------------
   0 C :    0.088251
   1 N :    0.058780
   2 C :   -0.003376
   3 C :    0.032213
   4 H :    0.026679
   5 H :    0.021119
   6 C :   -0.270678
   7 C :   -0.076675
   8 N :    0.274992
   9 N :    0.274590
  10 H :    0.038968
  11 H :    0.025487
  12 H :    0.027625
  13 H :   -0.070000
  14 H :    0.041743
  15 H :    0.031249
  16 H :    0.030590
  17 H :    0.031336
  18 H :    0.030722
  19 O :   -0.300239
  20 O :   -0.313375

  Mayer bond orders larger than 0.100000
B(  0-C ,  1-N ) :   0.7911 B(  0-C ,  2-C ) :   1.1722 B(  0-C , 15-H ) :   0.7535
B(  0-C , 16-H ) :   0.9387 B(  0-C , 18-H ) :   0.1648 B(  1-N ,  2-C ) :   0.1487
B(  1-N ,  7-C ) :   1.0933 B(  1-N ,  8-N ) :   0.1439 B(  1-N , 12-H ) :   1.1326
B(  1-N , 15-H ) :   0.1175 B(  2-C ,  3-C ) :   1.1922 B(  2-C ,  4-H ) :   0.1667
B(  2-C ,  5-H ) :   0.1232 B(  2-C , 17-H ) :   0.8537 B(  2-C , 18-H ) :   0.9594
B(  3-C ,  4-H ) :   0.8282 B(  3-C ,  5-H ) :   0.8397 B(  3-C ,  6-C ) :   1.0641
B(  4-H ,  6-C ) :   0.1276 B(  5-H ,  6-C ) :   0.2360 B(  6-C , 19-O ) :   1.5955
B(  6-C , 20-O ) :   1.3827 B(  7-C ,  8-N ) :   1.0383 B(  7-C ,  9-N ) :   0.9168
B(  7-C , 12-H ) :  -0.1824 B(  8-N ,  9-N ) :   0.1311 B(  8-N , 13-H ) :   0.9514
B(  8-N , 14-H ) :   0.9013 B(  9-N , 10-H ) :   1.0968 B(  9-N , 11-H ) :   0.9004
B( 10-H , 11-H ) :  -0.1090 B( 13-H , 20-O ) :   0.1630

Dispersion correction           -0.009113476
FINAL SINGLE POINT ENERGY      -511.455271448788

DIPOLE MOMENT
-------------
                                X             Y             Z
Electronic contribution:      3.79747       1.10814      -3.20245
Nuclear contribution   :     -4.94498       2.03334       3.78956
                        -----------------------------------------
Total Dipole Moment    :     -1.14751       3.14148       0.58711
                        -----------------------------------------
Magnitude (a.u.)       :      3.39564
Magnitude (Debye)      :      8.63104

Rotational constants in cm-1:     0.062533     0.042832     0.033687
Rotational constants in MHz :  1874.701390  1284.063603  1009.911042

                             ****ORCA TERMINATED NORMALLY****
TOTAL RUN TIME: 0 days 0 hours 0 minutes 28 seconds 894 msec
