                         Program Version 5.0.0 -  RELEASE  -
|  1> !wB97X-D3 RIJCOSX def2-SVPD def2/J TightSCF CPCM(Water)
|  2> *xyz 0 1
|  3> C          3.93993        0.32036       -4.36773
|  4> C          5.10585        0.66802       -5.30546
|  5> F          4.80913        1.15019       -6.41436
|  6> O          6.26737        0.56500       -4.81948
|  7> H          3.01376        0.44480       -4.88890
|  8> H          3.96058        0.96928       -3.51722
|  9> H          4.03331       -0.69517       -4.04388
| 10> *
| 11>
| 12> %MaxCore 64000
| 13>
| 14> %pal nprocs 18
| 15> end
| 16>
| 17> %scf
| 18>   MaxIter 150
| 19> end
| 20>
| 21>
| 22>                          ****END OF INPUT****

CARTESIAN COORDINATES (ANGSTROEM)
---------------------------------
  C      3.939930    0.320360   -4.367730
  C      5.105850    0.668020   -5.305460
  F      4.809130    1.150190   -6.414360
  O      6.267370    0.565000   -4.819480
  H      3.013760    0.444800   -4.888900
  H      3.960580    0.969280   -3.517220
  H      4.033310   -0.695170   -4.043880

 Total Charge           Charge          ....    0
 Multiplicity           Mult            ....    1
 Number of Electrons    NEL             ....   32
 Basis Dimension        Dim             ....  110

ORBITAL ENERGIES
----------------

  NO   OCC          E(Eh)            E(eV)
   0   2.0000     -24.881723      -677.0661
   1   2.0000     -19.263052      -524.1743
   2   2.0000     -10.486105      -285.3414
   3   2.0000     -10.301243      -280.3111
   4   2.0000      -1.435442       -39.0604
   5   2.0000      -1.147476       -31.2244
   6   2.0000      -0.871265       -23.7083
   7   2.0000      -0.772578       -21.0229
   8   2.0000      -0.663284       -18.0489
   9   2.0000      -0.655456       -17.8359
  10   2.0000      -0.612838       -16.6762
  11   2.0000      -0.532601       -14.4928
  12   2.0000      -0.521611       -14.1937
  13   2.0000      -0.502132       -13.6637
  14   2.0000      -0.456978       -12.4350
  15   2.0000      -0.402190       -10.9442
  16   0.0000       0.048627         1.3232
  17   0.0000       0.091732         2.4962
  18   0.0000       0.131264         3.5719
  19   0.0000       0.152598         4.1524
  20   0.0000       0.161302         4.3892

MULLIKEN ATOMIC CHARGES
-----------------------
   0 C :    0.220804
   1 C :    0.445298
   2 F :   -0.336678
   3 O :   -0.544007
   4 H :    0.036915
   5 H :    0.095086
   6 H :    0.082582
Sum of atomic charges:   -0.0000000

LOEWDIN ATOMIC CHARGES
----------------------
   0 C :    0.219702
   1 C :   -0.015744
   2 F :   -0.026395
   3 O :   -0.197317
   4 H :   -0.003519
   5 H :    0.013187
   6 H :    0.010087

  Mayer bond orders larger than 0.100000
B(  0-C ,  1-C ) :   1.2689 B(  0-C ,  4-H ) :   0.9034 B(  0-C ,  5-H ) :   0.8354
B(  0-C ,  6-H ) :   0.8227 B(  1-C ,  2-F ) :   0.8258 B(  1-C ,  3-O ) :   1.7705
B(  1-C ,  4-H ) :   0.1329 B(  1-C ,  5-H ) :   0.1092 B(  1-C ,  6-H ) :   0.1292

Dispersion correction           -0.000910951
FINAL SINGLE POINT ENERGY      -252.842687343940

DIPOLE MOMENT
-------------
                                X             Y             Z
Electronic contribution:      2.05682       1.61446      -4.18785
Nuclear contribution   :     -3.58567      -1.71656       4.24175
                        -----------------------------------------
Total Dipole Moment    :     -1.52885      -0.10210       0.05390
                        -----------------------------------------
Magnitude (a.u.)       :      1.53320
Magnitude (Debye)      :      3.89708

Rotational constants in cm-1:     0.365806     0.323297     0.177262
Rotational constants in MHz : 10966.600844  9692.195205  5314.176777

                             ****ORCA TERMINATED NORMALLY****
TOTAL RUN TIME: 0 days 0 hours 0 minutes 5 seconds 967 msec
