                         Program Version 5.0.0 -  RELEASE  -
|  1> !wB97X-D3 RIJCOSX def2-SVPD def2/J TightSCF CPCM(Water)
|  2> *xyz 0 1
|  3> C          3.90595        2.81985       -3.75292
|  4> C          5.29562        3.13151       -4.10533
|  5> C          5.70862        3.46889       -5.32419
|  6> N          6.90470        3.03895       -5.71708
|  7> N          4.98188        4.29357       -6.09746
|  8> H          5.00055        4.10131       -7.08776
|  9> H          4.08469        4.59690       -5.73965
| 10> H          5.96336        2.52611       -3.64239
| 11> H          7.04716        2.06686       -5.47360
| 12> H          7.19815        3.30799       -6.64523
| 13> H          3.24866        3.48801       -4.26909
| 14> H          3.77188        2.93227       -2.69732
| 15> H          3.68381        1.81198       -4.03533
| 16> *
| 17>
| 18> %MaxCore 64000
| 19>
| 20> %pal nprocs 18
| 21> end
| 22>
| 23> %scf
| 24>   MaxIter 150
| 25> end
| 26>
| 27>
| 28>                          ****END OF INPUT****

CARTESIAN COORDINATES (ANGSTROEM)
---------------------------------
  C      3.905950    2.819850   -3.752920
  C      5.295620    3.131510   -4.105330
  C      5.708620    3.468890   -5.324190
  N      6.904700    3.038950   -5.717080
  N      4.981880    4.293570   -6.097460
  H      5.000550    4.101310   -7.087760
  H      4.084690    4.596900   -5.739650
  H      5.963360    2.526110   -3.642390
  H      7.047160    2.066860   -5.473600
  H      7.198150    3.307990   -6.645230
  H      3.248660    3.488010   -4.269090
  H      3.771880    2.932270   -2.697320
  H      3.683810    1.811980   -4.035330

 Total Charge           Charge          ....    0
 Multiplicity           Mult            ....    1
 Number of Electrons    NEL             ....   40
 Basis Dimension        Dim             ....  164

ORBITAL ENERGIES
----------------

  NO   OCC          E(Eh)            E(eV)
   0   2.0000     -14.433849      -392.7650
   1   2.0000     -14.432090      -392.7171
   2   2.0000     -10.337504      -281.2978
   3   2.0000     -10.260363      -279.1987
   4   2.0000     -10.218909      -278.0706
   5   2.0000      -1.072482       -29.1837
   6   2.0000      -0.978382       -26.6231
   7   2.0000      -0.867259       -23.5993
   8   2.0000      -0.764547       -20.8044
   9   2.0000      -0.681149       -18.5350
  10   2.0000      -0.635048       -17.2805
  11   2.0000      -0.606065       -16.4919
  12   2.0000      -0.572512       -15.5788
  13   2.0000      -0.530592       -14.4382
  14   2.0000      -0.505603       -13.7582
  15   2.0000      -0.480863       -13.0849
  16   2.0000      -0.453508       -12.3406
  17   2.0000      -0.430898       -11.7253
  18   2.0000      -0.368693       -10.0327
  19   2.0000      -0.260594        -7.0911
  20   0.0000       0.095152         2.5892
  21   0.0000       0.116738         3.1766
  22   0.0000       0.130257         3.5445
  23   0.0000       0.141227         3.8430
  24   0.0000       0.162417         4.4196

MULLIKEN ATOMIC CHARGES
-----------------------
   0 C :    0.757183
   1 C :   -0.454643
   2 C :    0.115401
   3 N :   -0.027164
   4 N :   -0.010261
   5 H :   -0.002714
   6 H :    0.027567
   7 H :   -0.203293
   8 H :    0.060168
   9 H :   -0.012302
  10 H :   -0.204313
  11 H :    0.021123
  12 H :   -0.066753
Sum of atomic charges:    0.0000000

LOEWDIN ATOMIC CHARGES
----------------------
   0 C :    0.084764
   1 C :   -0.088516
   2 C :   -0.256745
   3 N :    0.181399
   4 N :    0.194747
   5 H :    0.008348
   6 H :   -0.003270
   7 H :   -0.062917
   8 H :    0.015667
   9 H :    0.005543
  10 H :   -0.036597
  11 H :   -0.024727
  12 H :   -0.017695

  Mayer bond orders larger than 0.100000
B(  0-C ,  1-C ) :   1.1366 B(  0-C ,  7-H ) :   0.1867 B(  0-C , 10-H ) :   0.7655
B(  0-C , 11-H ) :   0.7106 B(  0-C , 12-H ) :   0.8437 B(  1-C ,  2-C ) :   1.9704
B(  1-C ,  3-N ) :   0.2646 B(  1-C ,  4-N ) :   0.1355 B(  1-C ,  7-H ) :   0.7440
B(  1-C , 10-H ) :   0.2829 B(  1-C , 11-H ) :   0.2153 B(  2-C ,  3-N ) :   1.0645
B(  2-C ,  4-N ) :   1.1048 B(  2-C ,  7-H ) :   0.3257 B(  2-C ,  9-H ) :   0.1033
B(  3-N ,  8-H ) :   0.9840 B(  3-N ,  9-H ) :   0.9177 B(  4-N ,  5-H ) :   1.0373
B(  4-N ,  6-H ) :   0.9442 B( 10-H , 11-H ) :   0.1161

Dispersion correction           -0.002449451
FINAL SINGLE POINT ENERGY      -228.395684891823

DIPOLE MOMENT
-------------
                                X             Y             Z
Electronic contribution:      2.42083       1.16214      -2.29531
Nuclear contribution   :     -2.63304      -1.77161       0.70501
                        -----------------------------------------
Total Dipole Moment    :     -0.21222      -0.60947      -1.59030
                        -----------------------------------------
Magnitude (a.u.)       :      1.71626
Magnitude (Debye)      :      4.36238

Rotational constants in cm-1:     0.303572     0.135185     0.098519
Rotational constants in MHz :  9100.846149  4052.756012  2953.539431

                             ****ORCA TERMINATED NORMALLY****
TOTAL RUN TIME: 0 days 0 hours 0 minutes 10 seconds 23 msec
