                         Program Version 5.0.0 -  RELEASE  -
|  1> !wB97X-D3 RIJCOSX def2-SVPD def2/J TightSCF CPCM(Water)
|  2> *xyz 0 1
|  3> C          3.93993        0.32036       -4.36773
|  4> C          5.10585        0.66802       -5.30546
|  5> O          4.80913        1.15019       -6.41436
|  6> F          6.26737        0.56500       -4.81948
|  7> H          3.01376        0.44480       -4.88890
|  8> H          3.96058        0.96928       -3.51722
|  9> H          4.03331       -0.69517       -4.04388
| 10> *
| 11>
| 12> %MaxCore 64000
| 13>
| 14> %pal nprocs 18
| 15> end
| 16>
| 17> %scf
| 18>   MaxIter 150
| 19> end
| 20>
| 21>
| 22>                          ****END OF INPUT****

CARTESIAN COORDINATES (ANGSTROEM)
---------------------------------
  C      3.939930    0.320360   -4.367730
  C      5.105850    0.668020   -5.305460
  O      4.809130    1.150190   -6.414360
  F      6.267370    0.565000   -4.819480
  H      3.013760    0.444800   -4.888900
  H      3.960580    0.969280   -3.517220
  H      4.033310   -0.695170   -4.043880

 Total Charge           Charge          ....    0
 Multiplicity           Mult            ....    1
 Number of Electrons    NEL             ....   32
 Basis Dimension        Dim             ....  110

ORBITAL ENERGIES
----------------

  NO   OCC          E(Eh)            E(eV)
   0   2.0000     -24.875323      -676.8919
   1   2.0000     -19.265812      -524.2494
   2   2.0000     -10.483989      -285.2839
   3   2.0000     -10.300906      -280.3019
   4   2.0000      -1.421911       -38.6922
   5   2.0000      -1.158595       -31.5270
   6   2.0000      -0.870349       -23.6834
   7   2.0000      -0.765529       -20.8311
   8   2.0000      -0.656111       -17.8537
   9   2.0000      -0.648508       -17.6468
  10   2.0000      -0.613976       -16.7071
  11   2.0000      -0.530516       -14.4361
  12   2.0000      -0.524639       -14.2762
  13   2.0000      -0.503655       -13.7052
  14   2.0000      -0.465543       -12.6681
  15   2.0000      -0.403340       -10.9754
  16   0.0000       0.053291         1.4501
  17   0.0000       0.090659         2.4669
  18   0.0000       0.131185         3.5697
  19   0.0000       0.153744         4.1836
  20   0.0000       0.161219         4.3870

MULLIKEN ATOMIC CHARGES
-----------------------
   0 C :    0.237122
   1 C :    0.444709
   2 O :   -0.494261
   3 F :   -0.380910
   4 H :    0.003263
   5 H :    0.099587
   6 H :    0.090491
Sum of atomic charges:   -0.0000000

LOEWDIN ATOMIC CHARGES
----------------------
   0 C :    0.219609
   1 C :   -0.017216
   2 O :   -0.181013
   3 F :   -0.041043
   4 H :    0.001376
   5 H :    0.011589
   6 H :    0.006697

  Mayer bond orders larger than 0.100000
B(  0-C ,  1-C ) :   1.2537 B(  0-C ,  4-H ) :   0.9178 B(  0-C ,  5-H ) :   0.8282
B(  0-C ,  6-H ) :   0.8216 B(  1-C ,  2-O ) :   1.8303 B(  1-C ,  3-F ) :   0.7586
B(  1-C ,  4-H ) :   0.1744 B(  1-C ,  5-H ) :   0.1036 B(  1-C ,  6-H ) :   0.1129

Dispersion correction           -0.000899961
FINAL SINGLE POINT ENERGY      -252.847843282817

DIPOLE MOMENT
-------------
                                X             Y             Z
Electronic contribution:      4.72428       0.54502      -1.27027
Nuclear contribution   :     -5.09247      -1.11188       2.59376
                        -----------------------------------------
Total Dipole Moment    :     -0.36819      -0.56686       1.32349
                        -----------------------------------------
Magnitude (a.u.)       :      1.48611
Magnitude (Debye)      :      3.77739

Rotational constants in cm-1:     0.367940     0.321271     0.177147
Rotational constants in MHz : 11030.570495  9631.458923  5310.737691

                             ****ORCA TERMINATED NORMALLY****
TOTAL RUN TIME: 0 days 0 hours 0 minutes 5 seconds 615 msec
