                         Program Version 5.0.0 -  RELEASE  -
|  1> !wB97X-D3 RIJCOSX def2-SVPD def2/J TightSCF CPCM(Water)
|  2> *xyz 0 1
|  3> C          3.90595        2.81985       -3.75292
|  4> N          5.29562        3.13151       -4.10533
|  5> C          5.70862        3.46889       -5.32419
|  6> C          6.90470        3.03895       -5.71708
|  7> N          4.98188        4.29357       -6.09746
|  8> H          5.00055        4.10131       -7.08776
|  9> H          4.08469        4.59690       -5.73965
| 10> H          5.96336        2.52611       -3.64239
| 11> H          7.04716        2.06686       -5.47360
| 12> H          7.19815        3.30799       -6.64523
| 13> H          3.24866        3.48801       -4.26909
| 14> H          3.77188        2.93227       -2.69732
| 15> H          3.68381        1.81198       -4.03533
| 16> *
| 17>
| 18> %MaxCore 64000
| 19>
| 20> %pal nprocs 18
| 21> end
| 22>
| 23> %scf
| 24>   MaxIter 150
| 25> end
| 26>
| 27>
| 28>                          ****END OF INPUT****

CARTESIAN COORDINATES (ANGSTROEM)
---------------------------------
  C      3.905950    2.819850   -3.752920
  N      5.295620    3.131510   -4.105330
  C      5.708620    3.468890   -5.324190
  C      6.904700    3.038950   -5.717080
  N      4.981880    4.293570   -6.097460
  H      5.000550    4.101310   -7.087760
  H      4.084690    4.596900   -5.739650
  H      5.963360    2.526110   -3.642390
  H      7.047160    2.066860   -5.473600
  H      7.198150    3.307990   -6.645230
  H      3.248660    3.488010   -4.269090
  H      3.771880    2.932270   -2.697320
  H      3.683810    1.811980   -4.035330

 Total Charge           Charge          ....    0
 Multiplicity           Mult            ....    1
 Number of Electrons    NEL             ....   40
 Basis Dimension        Dim             ....  164

ORBITAL ENERGIES
----------------

  NO   OCC          E(Eh)            E(eV)
   0   2.0000     -14.441062      -392.9613
   1   2.0000     -14.438350      -392.8875
   2   2.0000     -10.349019      -281.6111
   3   2.0000     -10.309040      -280.5232
   4   2.0000     -10.210298      -277.8363
   5   2.0000      -1.081554       -29.4306
   6   2.0000      -0.991896       -26.9909
   7   2.0000      -0.855495       -23.2792
   8   2.0000      -0.778911       -21.1953
   9   2.0000      -0.698424       -19.0051
  10   2.0000      -0.635294       -17.2872
  11   2.0000      -0.592843       -16.1321
  12   2.0000      -0.576983       -15.7005
  13   2.0000      -0.544434       -14.8148
  14   2.0000      -0.499371       -13.5886
  15   2.0000      -0.490067       -13.3354
  16   2.0000      -0.485098       -13.2002
  17   2.0000      -0.446025       -12.1370
  18   2.0000      -0.354238        -9.6393
  19   2.0000      -0.275438        -7.4951
  20   0.0000       0.092147         2.5074
  21   0.0000       0.115703         3.1484
  22   0.0000       0.123988         3.3739
  23   0.0000       0.142526         3.8783
  24   0.0000       0.159650         4.3443

MULLIKEN ATOMIC CHARGES
-----------------------
   0 C :    1.028516
   1 N :   -0.571970
   2 C :    0.048541
   3 C :    0.492658
   4 N :    0.058093
   5 H :    0.011981
   6 H :   -0.054584
   7 H :   -0.078243
   8 H :   -0.229355
   9 H :   -0.327309
  10 H :   -0.157898
  11 H :   -0.156159
  12 H :   -0.064270
Sum of atomic charges:   -0.0000000

LOEWDIN ATOMIC CHARGES
----------------------
   0 C :    0.220652
   1 N :   -0.043219
   2 C :   -0.257977
   3 C :    0.098183
   4 N :    0.204334
   5 H :    0.018227
   6 H :   -0.008193
   7 H :    0.030008
   8 H :   -0.108948
   9 H :   -0.113826
  10 H :   -0.021710
  11 H :   -0.009152
  12 H :   -0.008378

  Mayer bond orders larger than 0.100000
B(  0-C ,  1-N ) :   0.8751 B(  0-C , 10-H ) :   0.8517 B(  0-C , 11-H ) :   0.8188
B(  0-C , 12-H ) :   0.8254 B(  1-N ,  2-C ) :   1.1968 B(  1-N ,  3-C ) :   0.1867
B(  1-N ,  7-H ) :   1.1223 B(  1-N , 10-H ) :   0.1403 B(  1-N , 11-H ) :   0.1892
B(  1-N , 12-H ) :   0.1032 B(  2-C ,  3-C ) :   1.8875 B(  2-C ,  4-N ) :   1.0768
B(  2-C ,  8-H ) :   0.2492 B(  2-C ,  9-H ) :   0.3286 B(  3-C ,  4-N ) :   0.1875
B(  3-C ,  8-H ) :   0.8201 B(  3-C ,  9-H ) :   0.6218 B(  4-N ,  5-H ) :   1.0569
B(  4-N ,  6-H ) :   0.9528 B(  5-H ,  6-H ) :  -0.1084 B(  8-H ,  9-H ) :   0.2004

Dispersion correction           -0.002460091
FINAL SINGLE POINT ENERGY      -228.382550956083

DIPOLE MOMENT
-------------
                                X             Y             Z
Electronic contribution:      0.36033       1.31668      -0.29258
Nuclear contribution   :     -2.30713      -1.79036       0.37856
                        -----------------------------------------
Total Dipole Moment    :     -1.94680      -0.47369       0.08598
                        -----------------------------------------
Magnitude (a.u.)       :      2.00544
Magnitude (Debye)      :      5.09743

Rotational constants in cm-1:     0.307513     0.139026     0.101190
Rotational constants in MHz :  9218.994719  4167.905268  3033.592538

                             ****ORCA TERMINATED NORMALLY****
TOTAL RUN TIME: 0 days 0 hours 0 minutes 9 seconds 857 msec
