                         Program Version 5.0.0 -  RELEASE  -
|  1> !wB97X-D3 RIJCOSX def2-SVPD def2/J TightSCF CPCM(Water)
|  2> *xyz 0 1
|  3> C          3.90595        2.81985       -3.75292
|  4> N          5.29562        3.13151       -4.10533
|  5> C          5.70862        3.46889       -5.32419
|  6> N          6.90470        3.03895       -5.71708
|  7> C          4.98188        4.29357       -6.09746
|  8> H          5.00055        4.10131       -7.08776
|  9> H          4.08469        4.59690       -5.73965
| 10> H          5.96336        2.52611       -3.64239
| 11> H          7.04716        2.06686       -5.47360
| 12> H          7.19815        3.30799       -6.64523
| 13> H          3.24866        3.48801       -4.26909
| 14> H          3.77188        2.93227       -2.69732
| 15> H          3.68381        1.81198       -4.03533
| 16> *
| 17>
| 18> %MaxCore 64000
| 19>
| 20> %pal nprocs 18
| 21> end
| 22>
| 23> %scf
| 24>   MaxIter 150
| 25> end
| 26>
| 27>
| 28>                          ****END OF INPUT****

CARTESIAN COORDINATES (ANGSTROEM)
---------------------------------
  C      3.905950    2.819850   -3.752920
  N      5.295620    3.131510   -4.105330
  C      5.708620    3.468890   -5.324190
  N      6.904700    3.038950   -5.717080
  C      4.981880    4.293570   -6.097460
  H      5.000550    4.101310   -7.087760
  H      4.084690    4.596900   -5.739650
  H      5.963360    2.526110   -3.642390
  H      7.047160    2.066860   -5.473600
  H      7.198150    3.307990   -6.645230
  H      3.248660    3.488010   -4.269090
  H      3.771880    2.932270   -2.697320
  H      3.683810    1.811980   -4.035330

 Total Charge           Charge          ....    0
 Multiplicity           Mult            ....    1
 Number of Electrons    NEL             ....   40
 Basis Dimension        Dim             ....  164

ORBITAL ENERGIES
----------------

  NO   OCC          E(Eh)            E(eV)
   0   2.0000     -14.441058      -392.9612
   1   2.0000     -14.436953      -392.8495
   2   2.0000     -10.347583      -281.5721
   3   2.0000     -10.308347      -280.5044
   4   2.0000     -10.213608      -277.9264
   5   2.0000      -1.085759       -29.5450
   6   2.0000      -0.993291       -27.0288
   7   2.0000      -0.833982       -22.6938
   8   2.0000      -0.804010       -21.8782
   9   2.0000      -0.669055       -18.2059
  10   2.0000      -0.642084       -17.4720
  11   2.0000      -0.622108       -16.9284
  12   2.0000      -0.553969       -15.0743
  13   2.0000      -0.541811       -14.7434
  14   2.0000      -0.515421       -14.0253
  15   2.0000      -0.488340       -13.2884
  16   2.0000      -0.473507       -12.8848
  17   2.0000      -0.448678       -12.2091
  18   2.0000      -0.355062        -9.6617
  19   2.0000      -0.274747        -7.4763
  20   0.0000       0.094624         2.5748
  21   0.0000       0.119076         3.2402
  22   0.0000       0.126984         3.4554
  23   0.0000       0.131657         3.5826
  24   0.0000       0.167919         4.5693

MULLIKEN ATOMIC CHARGES
-----------------------
   0 C :    1.084421
   1 N :   -0.474404
   2 C :   -0.040866
   3 N :   -0.078557
   4 C :    0.481067
   5 H :   -0.295953
   6 H :   -0.231009
   7 H :   -0.188439
   8 H :    0.055507
   9 H :    0.087430
  10 H :   -0.159368
  11 H :   -0.147478
  12 H :   -0.092351
Sum of atomic charges:    0.0000000

LOEWDIN ATOMIC CHARGES
----------------------
   0 C :    0.224185
   1 N :   -0.042429
   2 C :   -0.267757
   3 N :    0.188999
   4 C :    0.119968
   5 H :   -0.111987
   6 H :   -0.125349
   7 H :    0.028141
   8 H :    0.014213
   9 H :    0.013393
  10 H :   -0.025134
  11 H :   -0.008741
  12 H :   -0.007502

  Mayer bond orders larger than 0.100000
B(  0-C ,  1-N ) :   0.8445 B(  0-C , 10-H ) :   0.8483 B(  0-C , 11-H ) :   0.8115
B(  0-C , 12-H ) :   0.8192 B(  1-N ,  2-C ) :   1.1742 B(  1-N ,  3-N ) :   0.1335
B(  1-N ,  4-C ) :   0.1898 B(  1-N ,  7-H ) :   1.1095 B(  1-N , 10-H ) :   0.1203
B(  1-N , 11-H ) :   0.1759 B(  1-N , 12-H ) :   0.1359 B(  2-C ,  3-N ) :   1.1161
B(  2-C ,  4-C ) :   1.9321 B(  2-C ,  5-H ) :   0.2336 B(  2-C ,  6-H ) :   0.2729
B(  3-N ,  4-C ) :   0.1363 B(  3-N ,  8-H ) :   0.9296 B(  3-N ,  9-H ) :   0.9409
B(  4-C ,  5-H ) :   0.7936 B(  4-C ,  6-H ) :   0.5821 B(  5-H ,  6-H ) :   0.2959

Dispersion correction           -0.002442571
FINAL SINGLE POINT ENERGY      -228.385888355133

DIPOLE MOMENT
-------------
                                X             Y             Z
Electronic contribution:      2.85716      -0.30426       0.14832
Nuclear contribution   :     -2.69659      -1.53624       0.30152
                        -----------------------------------------
Total Dipole Moment    :      0.16057      -1.84050       0.44984
                        -----------------------------------------
Magnitude (a.u.)       :      1.90147
Magnitude (Debye)      :      4.83314

Rotational constants in cm-1:     0.320409     0.134796     0.100241
Rotational constants in MHz :  9605.632807  4041.079317  3005.150506

                             ****ORCA TERMINATED NORMALLY****
TOTAL RUN TIME: 0 days 0 hours 0 minutes 9 seconds 279 msec
