                         Program Version 5.0.0 -  RELEASE  -
|  1> !wB97X-D3 RIJCOSX def2-SVPD def2/J TightSCF CPCM(Water) xyzfile
|  2>
|  3> *xyzfile 0 1 D2.xyz
|  4>
|  5> %MaxCore 64000
|  6>
|  7> %pal nprocs 18
|  8> end
|  9>
| 10> %scf
| 11>   MaxIter 150
| 12> end
| 13>
| 14>
| 15>                          ****END OF INPUT****

CARTESIAN COORDINATES (ANGSTROEM)
---------------------------------
  C      3.905947    2.819855   -3.752920
  N      5.295615    3.131515   -4.105334
  C      3.803511    1.374716   -3.260807
  C      3.939934    0.320362   -4.367729
  H      4.105043   -0.655085   -3.907733
  H      3.022801    0.280517   -4.957117
  C      5.105846    0.668022   -5.305463
  C      5.708619    3.468885   -5.324190
  C      6.904696    3.038954   -5.717084
  N      4.981884    4.293570   -6.097457
  H      5.000546    4.101311   -7.087761
  H      4.084693    4.596899   -5.739652
  H      5.963358    2.526112   -3.642391
  H      7.047164    2.066861   -5.473604
  H      7.198145    3.307994   -6.645225
  H      3.282025    2.949187   -4.640259
  H      3.565254    3.514574   -2.982523
  H      4.574833    1.215157   -2.500443
  H      2.843514    1.260845   -2.751465
  F      4.809132    1.150187   -6.414361
  O      6.267366    0.564999   -4.819481

 Total Charge           Charge          ....    0
 Multiplicity           Mult            ....    1
 Number of Electrons    NEL             ....   78
 Basis Dimension        Dim             ....  294

ORBITAL ENERGIES
----------------

  NO   OCC          E(Eh)            E(eV)
   0   2.0000     -24.882204      -677.0792
   1   2.0000     -19.259727      -524.0838
   2   2.0000     -14.442075      -392.9888
   3   2.0000     -14.437426      -392.8623
   4   2.0000     -10.484059      -285.2857
   5   2.0000     -10.344745      -281.4948
   6   2.0000     -10.324460      -280.9428
   7   2.0000     -10.312897      -280.6282
   8   2.0000     -10.302868      -280.3553
   9   2.0000     -10.198068      -277.5035
  10   2.0000      -1.435659       -39.0663
  11   2.0000      -1.151685       -31.3389
  12   2.0000      -1.084377       -29.5074
  13   2.0000      -0.997299       -27.1379
  14   2.0000      -0.919053       -25.0087
  15   2.0000      -0.850306       -23.1380
  16   2.0000      -0.810378       -22.0515
  17   2.0000      -0.771297       -20.9881
  18   2.0000      -0.719362       -19.5748
  19   2.0000      -0.702331       -19.1114
  20   2.0000      -0.669964       -18.2306
  21   2.0000      -0.649189       -17.6653
  22   2.0000      -0.641474       -17.4554
  23   2.0000      -0.613326       -16.6895
  24   2.0000      -0.597783       -16.2665
  25   2.0000      -0.577162       -15.7054
  26   2.0000      -0.563750       -15.3404
  27   2.0000      -0.539276       -14.6745
  28   2.0000      -0.511338       -13.9142
  29   2.0000      -0.504972       -13.7410
  30   2.0000      -0.494099       -13.4451
  31   2.0000      -0.491583       -13.3766
  32   2.0000      -0.463695       -12.6178
  33   2.0000      -0.447417       -12.1748
  34   2.0000      -0.443454       -12.0670
  35   2.0000      -0.435583       -11.8528
  36   2.0000      -0.386649       -10.5212
  37   2.0000      -0.355179        -9.6649
  38   2.0000      -0.270048        -7.3484
  39   0.0000       0.043060         1.1717
  40   0.0000       0.090722         2.4687
  41   0.0000       0.106808         2.9064
  42   0.0000       0.113085         3.0772
  43   0.0000       0.117229         3.1900

MULLIKEN ATOMIC CHARGES
-----------------------
   0 C :    0.702714
   1 N :   -0.380651
   2 C :    0.011658
   3 C :    0.111877
   4 H :    0.006490
   5 H :    0.076594
   6 C :    0.764506
   7 C :   -0.076503
   8 C :    0.817016
   9 N :   -0.025514
  10 H :    0.050936
  11 H :    0.043436
  12 H :   -0.032006
  13 H :   -0.514236
  14 H :   -0.264244
  15 H :    0.020167
  16 H :   -0.280423
  17 H :    0.086828
  18 H :   -0.078732
  19 F :   -0.393369
  20 O :   -0.646544
Sum of atomic charges:    0.0000000

LOEWDIN ATOMIC CHARGES
----------------------
   0 C :    0.070119
   1 N :    0.003873
   2 C :    0.002515
   3 C :    0.072559
   4 H :    0.046229
   5 H :    0.037819
   6 C :    0.023100
   7 C :   -0.265202
   8 C :    0.114238
   9 N :    0.210893
  10 H :    0.018262
  11 H :   -0.001296
  12 H :    0.014146
  13 H :   -0.173120
  14 H :   -0.102732
  15 H :    0.027303
  16 H :    0.023396
  17 H :    0.035912
  18 H :    0.035251
  19 F :   -0.008863
  20 O :   -0.184402

  Mayer bond orders larger than 0.100000
B(  0-C ,  1-N ) :   0.8074 B(  0-C ,  2-C ) :   1.1802 B(  0-C , 15-H ) :   0.7523
B(  0-C , 16-H ) :   0.9114 B(  0-C , 18-H ) :   0.1671 B(  1-N ,  2-C ) :   0.1314
B(  1-N ,  7-C ) :   1.1374 B(  1-N ,  8-C ) :   0.1689 B(  1-N , 12-H ) :   1.0493
B(  1-N , 15-H ) :   0.1356 B(  2-C ,  3-C ) :   1.2128 B(  2-C ,  4-H ) :   0.1714
B(  2-C ,  5-H ) :   0.1111 B(  2-C , 17-H ) :   0.8516 B(  2-C , 18-H ) :   0.9524
B(  3-C ,  4-H ) :   0.8331 B(  3-C ,  5-H ) :   0.8824 B(  3-C ,  6-C ) :   1.1348
B(  4-H ,  6-C ) :   0.1227 B(  5-H ,  6-C ) :   0.1175 B(  6-C , 19-F ) :   0.6737
B(  6-C , 20-O ) :   1.6757 B(  7-C ,  8-C ) :   1.9504 B(  7-C ,  9-N ) :   0.9559
B(  7-C , 11-H ) :   0.1737 B(  7-C , 12-H ) :  -0.1244 B(  7-C , 13-H ) :   0.2193
B(  7-C , 14-H ) :   0.4582 B(  8-C ,  9-N ) :   0.2430 B(  8-C , 13-H ) :   0.4820
B(  8-C , 14-H ) :   0.3478 B(  9-N , 10-H ) :   1.0124 B(  9-N , 11-H ) :   0.8202
B( 10-H , 11-H ) :  -0.1160 B( 13-H , 14-H ) :   0.2028 B( 13-H , 20-O ) :   0.2191

Dispersion correction           -0.008917352
FINAL SINGLE POINT ENERGY      -519.294203109707

DIPOLE MOMENT
-------------
                                X             Y             Z
Electronic contribution:      0.95703      -3.91940      -5.15884
Nuclear contribution   :     -4.40347       3.21582       5.36161
                        -----------------------------------------
Total Dipole Moment    :     -3.44644      -0.70359       0.20278
                        -----------------------------------------
Magnitude (a.u.)       :      3.52337
Magnitude (Debye)      :      8.95569

Rotational constants in cm-1:     0.061226     0.043199     0.033926
Rotational constants in MHz :  1835.503528  1295.087558  1017.061512

                             ****ORCA TERMINATED NORMALLY****
TOTAL RUN TIME: 0 days 0 hours 0 minutes 33 seconds 74 msec
