                         Program Version 5.0.0 -  RELEASE  -
|  1> !wB97X-D3 RIJCOSX def2-SVPD def2/J TightSCF CPCM(Water) xyzfile
|  2>
|  3> *xyzfile 0 1 D3.xyz
|  4>
|  5> %MaxCore 64000
|  6>
|  7> %pal nprocs 18
|  8> end
|  9>
| 10> %scf
| 11>   MaxIter 150
| 12> end
| 13>
| 14>
| 15>                          ****END OF INPUT****

CARTESIAN COORDINATES (ANGSTROEM)
---------------------------------
  C      3.905947    2.819855   -3.752920
  N      5.295615    3.131515   -4.105334
  C      3.803511    1.374716   -3.260807
  C      3.939934    0.320362   -4.367729
  H      4.105043   -0.655085   -3.907733
  H      3.022801    0.280517   -4.957117
  C      5.105846    0.668022   -5.305463
  C      5.708619    3.468885   -5.324190
  N      6.904696    3.038954   -5.717084
  C      4.981884    4.293570   -6.097457
  H      5.000546    4.101311   -7.087761
  H      4.084693    4.596899   -5.739652
  H      5.963358    2.526112   -3.642391
  H      7.047164    2.066861   -5.473604
  H      7.198145    3.307994   -6.645225
  H      3.282025    2.949187   -4.640259
  H      3.565254    3.514574   -2.982523
  H      4.574833    1.215157   -2.500443
  H      2.843514    1.260845   -2.751465
  F      4.809132    1.150187   -6.414361
  O      6.267366    0.564999   -4.819481

 Total Charge           Charge          ....    0
 Multiplicity           Mult            ....    1
 Number of Electrons    NEL             ....   78
 Basis Dimension        Dim             ....  294

ORBITAL ENERGIES
----------------

  NO   OCC          E(Eh)            E(eV)
   0   2.0000     -24.888600      -677.2532
   1   2.0000     -19.270839      -524.3862
   2   2.0000     -14.443912      -393.0388
   3   2.0000     -14.426333      -392.5605
   4   2.0000     -10.493055      -285.5305
   5   2.0000     -10.346412      -281.5402
   6   2.0000     -10.324873      -280.9541
   7   2.0000     -10.315701      -280.7045
   8   2.0000     -10.303732      -280.3788
   9   2.0000     -10.212767      -277.9035
  10   2.0000      -1.442099       -39.2415
  11   2.0000      -1.162636       -31.6369
  12   2.0000      -1.087829       -29.6013
  13   2.0000      -0.999156       -27.1884
  14   2.0000      -0.916420       -24.9371
  15   2.0000      -0.842312       -22.9205
  16   2.0000      -0.819939       -22.3117
  17   2.0000      -0.781141       -21.2559
  18   2.0000      -0.731838       -19.9143
  19   2.0000      -0.677333       -18.4312
  20   2.0000      -0.674108       -18.3434
  21   2.0000      -0.658084       -17.9074
  22   2.0000      -0.647130       -17.6093
  23   2.0000      -0.618044       -16.8178
  24   2.0000      -0.608587       -16.5605
  25   2.0000      -0.574251       -15.6262
  26   2.0000      -0.569614       -15.5000
  27   2.0000      -0.531630       -14.4664
  28   2.0000      -0.521652       -14.1949
  29   2.0000      -0.507220       -13.8022
  30   2.0000      -0.493720       -13.4348
  31   2.0000      -0.482670       -13.1341
  32   2.0000      -0.469740       -12.7823
  33   2.0000      -0.464513       -12.6401
  34   2.0000      -0.443385       -12.0651
  35   2.0000      -0.434012       -11.8101
  36   2.0000      -0.407197       -11.0804
  37   2.0000      -0.352368        -9.5884
  38   2.0000      -0.274830        -7.4785
  39   0.0000       0.035772         0.9734
  40   0.0000       0.092056         2.5050
  41   0.0000       0.107846         2.9346
  42   0.0000       0.116490         3.1699
  43   0.0000       0.117577         3.1994

MULLIKEN ATOMIC CHARGES
-----------------------
   0 C :    0.731447
   1 N :   -0.339701
   2 C :    0.060406
   3 C :    0.146448
   4 H :    0.006924
   5 H :    0.072751
   6 C :    0.787773
   7 C :   -0.031362
   8 N :    0.101899
   9 C :    0.438552
  10 H :   -0.369909
  11 H :   -0.167029
  12 H :   -0.134924
  13 H :   -0.110802
  14 H :    0.118042
  15 H :    0.029139
  16 H :   -0.353165
  17 H :    0.082436
  18 H :   -0.071177
  19 F :   -0.388851
  20 O :   -0.608898
Sum of atomic charges:   -0.0000000

LOEWDIN ATOMIC CHARGES
----------------------
   0 C :    0.076335
   1 N :    0.004722
   2 C :    0.004092
   3 C :    0.075438
   4 H :    0.048118
   5 H :    0.039362
   6 C :    0.029530
   7 C :   -0.279499
   8 N :    0.212742
   9 C :    0.119835
  10 H :   -0.107543
  11 H :   -0.118328
  12 H :    0.011989
  13 H :   -0.082021
  14 H :    0.020426
  15 H :    0.024947
  16 H :    0.025928
  17 H :    0.035725
  18 H :    0.036580
  19 F :   -0.004660
  20 O :   -0.173716

  Mayer bond orders larger than 0.100000
B(  0-C ,  1-N ) :   0.8248 B(  0-C ,  2-C ) :   1.1563 B(  0-C , 15-H ) :   0.7725
B(  0-C , 16-H ) :   0.9541 B(  0-C , 18-H ) :   0.1777 B(  1-N ,  2-C ) :   0.1451
B(  1-N ,  7-C ) :   1.1920 B(  1-N ,  9-C ) :   0.2170 B(  1-N , 12-H ) :   1.0038
B(  1-N , 15-H ) :   0.1424 B(  2-C ,  3-C ) :   1.2005 B(  2-C ,  4-H ) :   0.1709
B(  2-C ,  5-H ) :   0.1084 B(  2-C , 17-H ) :   0.8497 B(  2-C , 18-H ) :   0.9367
B(  3-C ,  4-H ) :   0.8300 B(  3-C ,  5-H ) :   0.8723 B(  3-C ,  6-C ) :   1.1368
B(  4-H ,  6-C ) :   0.1271 B(  5-H ,  6-C ) :   0.1342 B(  6-C , 19-F ) :   0.6904
B(  6-C , 20-O ) :   1.6356 B(  7-C ,  8-N ) :   1.0444 B(  7-C ,  9-C ) :   2.0204
B(  7-C , 10-H ) :   0.2409 B(  7-C , 11-H ) :   0.3073 B(  7-C , 12-H ) :  -0.1326
B(  7-C , 13-H ) :   0.1284 B(  7-C , 14-H ) :   0.1083 B(  8-N ,  9-C ) :   0.1361
B(  8-N , 13-H ) :   0.8288 B(  8-N , 14-H ) :   0.8706 B(  9-C , 10-H ) :   0.7810
B(  9-C , 11-H ) :   0.5744 B( 10-H , 11-H ) :   0.2045

Dispersion correction           -0.008980838
FINAL SINGLE POINT ENERGY      -519.308469565937

DIPOLE MOMENT
-------------
                                X             Y             Z
Electronic contribution:      3.18351      -5.44687      -4.71019
Nuclear contribution   :     -4.64021       3.37029       5.31478
                        -----------------------------------------
Total Dipole Moment    :     -1.45670      -2.07658       0.60459
                        -----------------------------------------
Magnitude (a.u.)       :      2.60762
Magnitude (Debye)      :      6.62805

Rotational constants in cm-1:     0.061077     0.043622     0.034103
Rotational constants in MHz :  1831.041375  1307.759852  1022.388536

                             ****ORCA TERMINATED NORMALLY****
TOTAL RUN TIME: 0 days 0 hours 0 minutes 33 seconds 69 msec
