                         Program Version 5.0.0 -  RELEASE  -
|  1> !BLYP D3BJ RIJCOSX def2-SVPD def2/J TightSCF
|  2> *xyz -1 1
|  3> C          3.76678       -2.26611       -6.51175
|  4> C          2.49670       -1.84416       -5.73570
|  5> H          1.62642       -2.21743       -6.30895
|  6> H          2.48182       -2.45607       -4.79341
|  7> O          2.45973       -0.50920       -5.50576
|  8> H          3.82914       -1.70941       -7.42340
|  9> H          3.71764       -3.31144       -6.73483
| 10> H          4.63199       -2.06931       -5.91377
| 11> *
| 12>
| 13> %MaxCore 64000
| 14>
| 15> %pal nprocs 4
| 16> end
| 17>
| 18> %scf
| 19>   MaxIter 150
| 20> end
| 21>
| 22>
| 23>                          ****END OF INPUT****

CARTESIAN COORDINATES (ANGSTROEM)
---------------------------------
  C      3.766780   -2.266110   -6.511750
  C      2.496700   -1.844160   -5.735700
  H      1.626420   -2.217430   -6.308950
  H      2.481820   -2.456070   -4.793410
  O      2.459730   -0.509200   -5.505760
  H      3.829140   -1.709410   -7.423400
  H      3.717640   -3.311440   -6.734830
  H      4.631990   -2.069310   -5.913770

 Total Charge           Charge          ....   -1
 Multiplicity           Mult            ....    1
 Number of Electrons    NEL             ....   26
 Basis Dimension        Dim             ....  103

ORBITAL ENERGIES
----------------

  NO   OCC          E(Eh)            E(eV)
   0   2.0000     -18.471365      -502.6314
   1   2.0000      -9.740539      -265.0535
   2   2.0000      -9.715245      -264.3652
   3   2.0000      -0.593177       -16.1412
   4   2.0000      -0.444084       -12.0841
   5   2.0000      -0.304367        -8.2823
   6   2.0000      -0.198238        -5.3943
   7   2.0000      -0.176871        -4.8129
   8   2.0000      -0.128452        -3.4954
   9   2.0000      -0.112157        -3.0519
  10   2.0000      -0.072240        -1.9658
  11   2.0000       0.066585         1.8119
  12   2.0000       0.069444         1.8897
  13   0.0000       0.163306         4.4438
  14   0.0000       0.191980         5.2240
  15   0.0000       0.222867         6.0645
  16   0.0000       0.235712         6.4140
  17   0.0000       0.254828         6.9342

MULLIKEN ATOMIC CHARGES
-----------------------
   0 C :    0.585626
   1 C :    0.299513
   2 H :   -0.292596
   3 H :   -0.242039
   4 O :   -0.790793
   5 H :   -0.200381
   6 H :   -0.163898
   7 H :   -0.195432
Sum of atomic charges:   -1.0000000

LOEWDIN ATOMIC CHARGES
----------------------
   0 C :    0.074841
   1 C :   -0.266732
   2 H :   -0.048999
   3 H :   -0.041974
   4 O :   -0.534214
   5 H :   -0.052974
   6 H :   -0.075824
   7 H :   -0.054123

  Mayer bond orders larger than 0.100000
B(  0-C ,  1-C ) :   1.1462 B(  0-C ,  2-H ) :   0.1897 B(  0-C ,  3-H ) :   0.1852
B(  0-C ,  4-O ) :   0.3045 B(  0-C ,  5-H ) :   0.8596 B(  0-C ,  6-H ) :   0.8885
B(  0-C ,  7-H ) :   0.8505 B(  1-C ,  2-H ) :   0.9187 B(  1-C ,  3-H ) :   0.9364
B(  1-C ,  4-O ) :   1.1756 B(  1-C ,  5-H ) :   0.2243 B(  1-C ,  6-H ) :   0.1740
B(  1-C ,  7-H ) :   0.2176 B(  2-H ,  3-H ) :   0.1213

Dispersion correction           -0.007746066
FINAL SINGLE POINT ENERGY      -154.268873570826

DIPOLE MOMENT
-------------
                                X             Y             Z
Electronic contribution:     -1.12942       2.63798       1.00342
Nuclear contribution   :      1.63615      -3.79938      -1.48621
                        -----------------------------------------
Total Dipole Moment    :      0.50674      -1.16141      -0.48278
                        -----------------------------------------
Magnitude (a.u.)       :      1.35600
Magnitude (Debye)      :      3.44667

Rotational constants in cm-1:     1.265582     0.329289     0.289024
Rotational constants in MHz : 37941.194363  9871.829581  8664.719106

                             ****ORCA TERMINATED NORMALLY****
TOTAL RUN TIME: 0 days 0 hours 0 minutes 7 seconds 298 msec
