                         Program Version 5.0.0 -  RELEASE  -
|  1> !BLYP D3BJ RIJCOSX def2-SVPD def2/J TightSCF
|  2> *xyz 1 1
|  3> C          4.99986       -1.59613       -5.92488
|  4> N          5.28156       -1.97413       -4.53576
|  5> C          3.76678       -2.26611       -6.51175
|  6> C          4.79250       -1.36132       -3.45730
|  7> N          3.93990       -0.37492       -3.55736
|  8> N          5.25986       -1.75422       -2.23913
|  9> H          5.92282       -2.52145       -2.18672
| 10> H          4.65468       -1.64040       -1.44202
| 11> H          5.70914       -2.87560       -4.38702
| 12> H          3.33010       -0.31764       -4.36125
| 13> H          3.69849        0.11447       -2.70833
| 14> H          4.84333       -0.51793       -5.94302
| 15> H          5.90170       -1.82250       -6.49647
| 16> H          3.63046       -1.94025       -7.52177
| 17> H          2.90710       -2.00116       -5.93240
| 18> H          3.89538       -3.32820       -6.49392
| 19> *
| 20>
| 21> %MaxCore 64000
| 22>
| 23> %pal nprocs 4
| 24> end
| 25>
| 26> %scf
| 27>   MaxIter 150
| 28> end
| 29>
| 30>
| 31>                          ****END OF INPUT****

CARTESIAN COORDINATES (ANGSTROEM)
---------------------------------
  C      4.999860   -1.596130   -5.924880
  N      5.281560   -1.974130   -4.535760
  C      3.766780   -2.266110   -6.511750
  C      4.792500   -1.361320   -3.457300
  N      3.939900   -0.374920   -3.557360
  N      5.259860   -1.754220   -2.239130
  H      5.922820   -2.521450   -2.186720
  H      4.654680   -1.640400   -1.442020
  H      5.709140   -2.875600   -4.387020
  H      3.330100   -0.317640   -4.361250
  H      3.698490    0.114470   -2.708330
  H      4.843330   -0.517930   -5.943020
  H      5.901700   -1.822500   -6.496470
  H      3.630460   -1.940250   -7.521770
  H      2.907100   -2.001160   -5.932400
  H      3.895380   -3.328200   -6.493920

 Total Charge           Charge          ....    1
 Multiplicity           Mult            ....    1
 Number of Electrons    NEL             ....   48
 Basis Dimension        Dim             ....  200

ORBITAL ENERGIES
----------------

  NO   OCC          E(Eh)            E(eV)
   0   2.0000     -14.251639      -387.8068
   1   2.0000     -14.246410      -387.6645
   2   2.0000     -14.242514      -387.5585
   3   2.0000     -10.248197      -278.8676
   4   2.0000     -10.128197      -275.6023
   5   2.0000     -10.064867      -273.8789
   6   2.0000      -1.115054       -30.3422
   7   2.0000      -1.013906       -27.5898
   8   2.0000      -0.999246       -27.1909
   9   2.0000      -0.851044       -23.1581
  10   2.0000      -0.772945       -21.0329
  11   2.0000      -0.737005       -20.0549
  12   2.0000      -0.729951       -19.8630
  13   2.0000      -0.681481       -18.5440
  14   2.0000      -0.643975       -17.5235
  15   2.0000      -0.641042       -17.4436
  16   2.0000      -0.592400       -16.1200
  17   2.0000      -0.575973       -15.6730
  18   2.0000      -0.556861       -15.1530
  19   2.0000      -0.514460       -13.9992
  20   2.0000      -0.488595       -13.2953
  21   2.0000      -0.471034       -12.8175
  22   2.0000      -0.436201       -11.8696
  23   2.0000      -0.411315       -11.1925
  24   0.0000      -0.207846        -5.6558
  25   0.0000      -0.175667        -4.7801
  26   0.0000      -0.145566        -3.9610
  27   0.0000      -0.134279        -3.6539
  28   0.0000      -0.118297        -3.2190

MULLIKEN ATOMIC CHARGES
-----------------------
   0 C :    0.597445
   1 N :   -0.189123
   2 C :    1.114226
   3 C :    0.889129
   4 N :    0.350961
   5 N :    0.202249
   6 H :   -0.105645
   7 H :   -0.089688
   8 H :   -0.323387
   9 H :   -0.125808
  10 H :   -0.162132
  11 H :   -0.188874
  12 H :   -0.456134
  13 H :   -0.086909
  14 H :   -0.259550
  15 H :   -0.166761
Sum of atomic charges:    1.0000000

LOEWDIN ATOMIC CHARGES
----------------------
   0 C :    0.045466
   1 N :    0.066961
   2 C :    0.173865
   3 C :   -0.063732
   4 N :    0.303353
   5 N :    0.283116
   6 H :    0.027858
   7 H :    0.021833
   8 H :    0.050573
   9 H :    0.022736
  10 H :    0.040342
  11 H :    0.021934
  12 H :    0.037728
  13 H :    0.002145
  14 H :   -0.025660
  15 H :   -0.008519

  Mayer bond orders larger than 0.100000
B(  0-C ,  1-N ) :   0.9962 B(  0-C ,  2-C ) :   1.2358 B(  0-C ,  8-H ) :  -0.2240
B(  0-C , 11-H ) :   0.7638 B(  0-C , 12-H ) :   0.7687 B(  0-C , 13-H ) :   0.2190
B(  0-C , 14-H ) :   0.2591 B(  0-C , 15-H ) :   0.2932 B(  1-N ,  3-C ) :   1.1128
B(  1-N ,  4-N ) :   0.2406 B(  1-N ,  5-N ) :   0.2049 B(  1-N ,  8-H ) :   1.2700
B(  1-N , 11-H ) :   0.1827 B(  1-N , 12-H ) :   0.1868 B(  2-C , 13-H ) :   0.7064
B(  2-C , 14-H ) :   0.7062 B(  2-C , 15-H ) :   0.6917 B(  3-C ,  4-N ) :   1.1656
B(  3-C ,  5-N ) :   0.9237 B(  3-C ,  6-H ) :  -0.1124 B(  3-C ,  8-H ) :  -0.2357
B(  3-C ,  9-H ) :  -0.1288 B(  3-C , 10-H ) :  -0.1119 B(  4-N ,  5-N ) :   0.1685
B(  4-N ,  9-H ) :   1.1366 B(  4-N , 10-H ) :   1.1875 B(  5-N ,  6-H ) :   1.0892
B(  5-N ,  7-H ) :   1.1450 B(  6-H ,  7-H ) :  -0.1437 B(  9-H , 10-H ) :  -0.1878
B( 11-H , 12-H ) :  -0.1310

Dispersion correction           -0.024975237
FINAL SINGLE POINT ENERGY      -284.105959990829

DIPOLE MOMENT
-------------
                                X             Y             Z
Electronic contribution:      1.76292       1.09849       4.70821
Nuclear contribution   :     -1.95709      -1.20097      -3.70214
                        -----------------------------------------
Total Dipole Moment    :     -0.19417      -0.10248       1.00607
                        -----------------------------------------
Magnitude (a.u.)       :      1.02975
Magnitude (Debye)      :      2.61741

Rotational constants in cm-1:     0.241661     0.071598     0.061743
Rotational constants in MHz :  7244.800091  2146.442409  1851.001864

                             ****ORCA TERMINATED NORMALLY****
TOTAL RUN TIME: 0 days 0 hours 0 minutes 14 seconds 831 msec
