                         Program Version 5.0.0 -  RELEASE  -
|  1> !BLYP D3BJ RIJCOSX def2-SVPD def2/J TightSCF xyzfile
|  2>
|  3> *xyzfile 0 1 B.xyz
|  4>
|  5> %MaxCore 64000
|  6>
|  7> %pal nprocs 4
|  8> end
|  9>
| 10> %scf
| 11>   MaxIter 150
| 12> end
| 13>
| 14>
| 15>                          ****END OF INPUT****

CARTESIAN COORDINATES (ANGSTROEM)
---------------------------------
  C      4.999862   -1.596133   -5.924876
  N      5.281560   -1.974132   -4.535764
  C      3.766779   -2.266110   -6.511752
  C      2.496702   -1.844161   -5.735704
  H      1.626416   -2.217434   -6.308950
  H      2.481824   -2.456069   -4.793414
  O      2.459729   -0.509204   -5.505757
  C      4.792500   -1.361316   -3.457295
  N      3.939898   -0.374925   -3.557359
  N      5.259860   -1.754224   -2.239133
  H      5.922824   -2.521451   -2.186720
  H      4.654678   -1.640404   -1.442016
  H      5.709139   -2.875599   -4.387021
  H      3.330101   -0.317639   -4.361247
  H      3.698494    0.114468   -2.708333
  H      4.843333   -0.517930   -5.943019
  H      5.901695   -1.822503   -6.496467
  H      3.886191   -3.357076   -6.533604
  H      3.685602   -1.922168   -7.547128

 Total Charge           Charge          ....    0
 Multiplicity           Mult            ....    1
 Number of Electrons    NEL             ....   64
 Basis Dimension        Dim             ....  251

ORBITAL ENERGIES
----------------

  NO   OCC          E(Eh)            E(eV)
   0   2.0000     -18.654512      -507.6151
   1   2.0000     -14.086232      -383.3059
   2   2.0000     -14.077911      -383.0794
   3   2.0000     -14.037023      -381.9668
   4   2.0000     -10.070205      -274.0242
   5   2.0000      -9.954971      -270.8885
   6   2.0000      -9.908361      -269.6202
   7   2.0000      -9.893004      -269.2023
   8   2.0000      -0.940554       -25.5938
   9   2.0000      -0.842374       -22.9222
  10   2.0000      -0.826118       -22.4798
  11   2.0000      -0.786961       -21.4143
  12   2.0000      -0.676489       -18.4082
  13   2.0000      -0.604750       -16.4561
  14   2.0000      -0.566212       -15.4074
  15   2.0000      -0.552224       -15.0268
  16   2.0000      -0.525533       -14.3005
  17   2.0000      -0.480788       -13.0829
  18   2.0000      -0.469560       -12.7774
  19   2.0000      -0.447744       -12.1837
  20   2.0000      -0.418294       -11.3824
  21   2.0000      -0.405004       -11.0207
  22   2.0000      -0.384369       -10.4592
  23   2.0000      -0.356605        -9.7037
  24   2.0000      -0.316267        -8.6061
  25   2.0000      -0.296783        -8.0759
  26   2.0000      -0.286223        -7.7885
  27   2.0000      -0.263900        -7.1811
  28   2.0000      -0.255062        -6.9406
  29   2.0000      -0.237505        -6.4629
  30   2.0000      -0.127117        -3.4590
  31   2.0000      -0.120496        -3.2789
  32   0.0000      -0.043536        -1.1847
  33   0.0000      -0.030079        -0.8185
  34   0.0000      -0.004377        -0.1191
  35   0.0000       0.011927         0.3246
  36   0.0000       0.035217         0.9583

MULLIKEN ATOMIC CHARGES
-----------------------
   0 C :    0.996329
   1 N :   -0.268098
   2 C :    0.345962
   3 C :    0.800775
   4 H :   -0.623408
   5 H :    0.027086
   6 O :   -0.579706
   7 C :    0.778635
   8 N :    0.621981
   9 N :    0.198357
  10 H :   -0.158526
  11 H :   -0.121472
  12 H :   -0.318934
  13 H :   -0.526713
  14 H :   -0.230244
  15 H :    0.081617
  16 H :   -0.611182
  17 H :   -0.283988
  18 H :   -0.128470
Sum of atomic charges:   -0.0000000

LOEWDIN ATOMIC CHARGES
----------------------
   0 C :    0.064493
   1 N :    0.058093
   2 C :   -0.012570
   3 C :   -0.101402
   4 H :   -0.003146
   5 H :   -0.010206
   6 O :   -0.378484
   7 C :   -0.081955
   8 N :    0.314909
   9 N :    0.243953
  10 H :   -0.002396
  11 H :   -0.001000
  12 H :    0.029890
  13 H :   -0.193575
  14 H :    0.019349
  15 H :    0.020207
  16 H :    0.012327
  17 H :    0.003412
  18 H :    0.018102

  Mayer bond orders larger than 0.100000
B(  0-C ,  1-N ) :   1.0225 B(  0-C ,  2-C ) :   1.1300 B(  0-C , 12-H ) :  -0.2105
B(  0-C , 15-H ) :   0.6342 B(  0-C , 16-H ) :   0.6986 B(  0-C , 17-H ) :   0.1971
B(  0-C , 18-H ) :   0.1449 B(  1-N ,  7-C ) :   1.0897 B(  1-N ,  8-N ) :   0.1875
B(  1-N ,  9-N ) :   0.1974 B(  1-N , 12-H ) :   1.2565 B(  1-N , 15-H ) :   0.2115
B(  1-N , 16-H ) :   0.1763 B(  2-C ,  3-C ) :   1.0431 B(  2-C ,  4-H ) :   0.2043
B(  2-C ,  5-H ) :   0.1684 B(  2-C , 15-H ) :   0.1446 B(  2-C , 16-H ) :   0.1038
B(  2-C , 17-H ) :   0.7858 B(  2-C , 18-H ) :   0.7688 B(  3-C ,  4-H ) :   0.8518
B(  3-C ,  5-H ) :   0.7836 B(  3-C ,  6-O ) :   1.1546 B(  3-C , 17-H ) :   0.1284
B(  3-C , 18-H ) :   0.1448 B(  6-O , 13-H ) :   0.3993 B(  7-C ,  8-N ) :   1.2322
B(  7-C ,  9-N ) :   0.8875 B(  7-C , 10-H ) :  -0.1213 B(  7-C , 12-H ) :  -0.2265
B(  7-C , 13-H ) :  -0.1884 B(  7-C , 14-H ) :  -0.1084 B(  8-N ,  9-N ) :   0.1845
B(  8-N , 13-H ) :   1.1214 B(  8-N , 14-H ) :   1.1467 B(  8-N , 15-H ) :   0.1043
B(  9-N , 10-H ) :   1.1307 B(  9-N , 11-H ) :   1.1439 B( 10-H , 11-H ) :  -0.1534
B( 13-H , 14-H ) :  -0.2393 B( 15-H , 16-H ) :  -0.2248

Dispersion correction           -0.035597055
FINAL SINGLE POINT ENERGY      -398.113286081841

DIPOLE MOMENT
-------------
                                X             Y             Z
Electronic contribution:      1.82389       2.02194       3.60054
Nuclear contribution   :      0.51577      -3.31768      -1.36804
                        -----------------------------------------
Total Dipole Moment    :      2.33965      -1.29575       2.23250
                        -----------------------------------------
Magnitude (a.u.)       :      3.48382
Magnitude (Debye)      :      8.85516

Rotational constants in cm-1:     0.111492     0.050787     0.040163
Rotational constants in MHz :  3342.457536  1522.560798  1204.057148

                             ****ORCA TERMINATED NORMALLY****
TOTAL RUN TIME: 0 days 0 hours 0 minutes 15 seconds 884 msec
