                         Program Version 5.0.0 -  RELEASE  -
|  1> !BLYP D3BJ RIJCOSX def2-SVPD def2/J TightSCF
|  2> *xyz 0 1
|  3> C          3.76678       -2.26611       -6.51175
|  4> C          2.49670       -1.84416       -5.73570
|  5> H          1.62642       -2.21743       -6.30895
|  6> H          2.48182       -2.45607       -4.79341
|  7> F          2.45973       -0.50920       -5.50576
|  8> H          3.82914       -1.70941       -7.42340
|  9> H          3.71764       -3.31144       -6.73483
| 10> H          4.63199       -2.06931       -5.91377
| 11> *
| 12>
| 13> %MaxCore 64000
| 14>
| 15> %pal nprocs 4
| 16> end
| 17>
| 18> %scf
| 19>   MaxIter 150
| 20> end
| 21>
| 22>
| 23>                          ****END OF INPUT****

CARTESIAN COORDINATES (ANGSTROEM)
---------------------------------
  C      3.766780   -2.266110   -6.511750
  C      2.496700   -1.844160   -5.735700
  H      1.626420   -2.217430   -6.308950
  H      2.481820   -2.456070   -4.793410
  F      2.459730   -0.509200   -5.505760
  H      3.829140   -1.709410   -7.423400
  H      3.717640   -3.311440   -6.734830
  H      4.631990   -2.069310   -5.913770

 Total Charge           Charge          ....    0
 Multiplicity           Mult            ....    1
 Number of Electrons    NEL             ....   26
 Basis Dimension        Dim             ....  103

ORBITAL ENERGIES
----------------

  NO   OCC          E(Eh)            E(eV)
   0   2.0000     -24.297815      -661.1772
   1   2.0000     -10.003142      -272.1993
   2   2.0000      -9.920210      -269.9426
   3   2.0000      -1.086106       -29.5545
   4   2.0000      -0.679329       -18.4855
   5   2.0000      -0.560081       -15.2406
   6   2.0000      -0.457583       -12.4515
   7   2.0000      -0.438756       -11.9391
   8   2.0000      -0.404242       -11.0000
   9   2.0000      -0.354171        -9.6375
  10   2.0000      -0.353232        -9.6119
  11   2.0000      -0.286480        -7.7955
  12   2.0000      -0.282588        -7.6896
  13   0.0000       0.003732         0.1015
  14   0.0000       0.035002         0.9525
  15   0.0000       0.050472         1.3734
  16   0.0000       0.058574         1.5939
  17   0.0000       0.084252         2.2926

MULLIKEN ATOMIC CHARGES
-----------------------
   0 C :    0.731048
   1 C :    0.595167
   2 H :   -0.208366
   3 H :   -0.163807
   4 F :   -0.380789
   5 H :   -0.202312
   6 H :   -0.178006
   7 H :   -0.192935
Sum of atomic charges:   -0.0000000

LOEWDIN ATOMIC CHARGES
----------------------
   0 C :    0.152850
   1 C :    0.049858
   2 H :    0.020728
   3 H :    0.030060
   4 F :   -0.188374
   5 H :   -0.021750
   6 H :   -0.020915
   7 H :   -0.022457

  Mayer bond orders larger than 0.100000
B(  0-C ,  1-C ) :   1.3229 B(  0-C ,  2-H ) :   0.1210 B(  0-C ,  3-H ) :   0.1121
B(  0-C ,  5-H ) :   0.8171 B(  0-C ,  6-H ) :   0.7880 B(  0-C ,  7-H ) :   0.8141
B(  1-C ,  2-H ) :   0.8729 B(  1-C ,  3-H ) :   0.8843 B(  1-C ,  4-F ) :   0.8297
B(  1-C ,  5-H ) :   0.1840 B(  1-C ,  6-H ) :   0.1587 B(  1-C ,  7-H ) :   0.1784

Dispersion correction           -0.007135539
FINAL SINGLE POINT ENERGY      -178.879043091156

DIPOLE MOMENT
-------------
                                X             Y             Z
Electronic contribution:     -2.07774       4.35444       1.81326
Nuclear contribution   :      2.16248      -5.01128      -1.96962
                        -----------------------------------------
Total Dipole Moment    :      0.08474      -0.65684      -0.15636
                        -----------------------------------------
Magnitude (a.u.)       :      0.68049
Magnitude (Debye)      :      1.72967

Rotational constants in cm-1:     1.244010     0.306580     0.270375
Rotational constants in MHz : 37294.476802  9191.037795  8105.639967

                             ****ORCA TERMINATED NORMALLY****
TOTAL RUN TIME: 0 days 0 hours 0 minutes 6 seconds 775 msec
