                         Program Version 5.0.0 -  RELEASE  -
|  1> !BLYP D3BJ RIJCOSX def2-SVPD def2/J TightSCF
|  2> *xyz 0 1
|  3> C          4.99986       -1.59613       -5.92488
|  4> C          5.28156       -1.97413       -4.53576
|  5> C          3.76678       -2.26611       -6.51175
|  6> C          4.79250       -1.36132       -3.45730
|  7> N          3.93990       -0.37492       -3.55736
|  8> N          5.25986       -1.75422       -2.23913
|  9> H          5.92282       -2.52145       -2.18672
| 10> H          4.65468       -1.64040       -1.44202
| 11> H          5.70914       -2.87560       -4.38702
| 12> H          3.33010       -0.31764       -4.36125
| 13> H          3.69849        0.11447       -2.70833
| 14> H          4.84333       -0.51793       -5.94302
| 15> H          5.90170       -1.82250       -6.49647
| 16> H          3.63046       -1.94025       -7.52177
| 17> H          2.90710       -2.00116       -5.93240
| 18> H          3.89538       -3.32820       -6.49392
| 19> *
| 20>
| 21> %MaxCore 64000
| 22>
| 23> %pal nprocs 4
| 24> end
| 25>
| 26> %scf
| 27>   MaxIter 150
| 28> end
| 29>
| 30>
| 31>                          ****END OF INPUT****

CARTESIAN COORDINATES (ANGSTROEM)
---------------------------------
  C      4.999860   -1.596130   -5.924880
  C      5.281560   -1.974130   -4.535760
  C      3.766780   -2.266110   -6.511750
  C      4.792500   -1.361320   -3.457300
  N      3.939900   -0.374920   -3.557360
  N      5.259860   -1.754220   -2.239130
  H      5.922820   -2.521450   -2.186720
  H      4.654680   -1.640400   -1.442020
  H      5.709140   -2.875600   -4.387020
  H      3.330100   -0.317640   -4.361250
  H      3.698490    0.114470   -2.708330
  H      4.843330   -0.517930   -5.943020
  H      5.901700   -1.822500   -6.496470
  H      3.630460   -1.940250   -7.521770
  H      2.907100   -2.001160   -5.932400
  H      3.895380   -3.328200   -6.493920

 Total Charge           Charge          ....    0
 Multiplicity           Mult            ....    1
 Number of Electrons    NEL             ....   48
 Basis Dimension        Dim             ....  200

ORBITAL ENERGIES
----------------

  NO   OCC          E(Eh)            E(eV)
   0   2.0000     -14.030024      -381.7764
   1   2.0000     -14.021411      -381.5420
   2   2.0000      -9.959863      -271.0216
   3   2.0000      -9.895917      -269.2816
   4   2.0000      -9.892822      -269.1974
   5   2.0000      -9.848170      -267.9823
   6   2.0000      -0.865521       -23.5520
   7   2.0000      -0.780631       -21.2420
   8   2.0000      -0.687543       -18.7090
   9   2.0000      -0.615855       -16.7583
  10   2.0000      -0.546242       -14.8640
  11   2.0000      -0.515268       -14.0212
  12   2.0000      -0.489482       -13.3195
  13   2.0000      -0.446970       -12.1627
  14   2.0000      -0.427868       -11.6429
  15   2.0000      -0.391748       -10.6600
  16   2.0000      -0.365117        -9.9353
  17   2.0000      -0.344111        -9.3637
  18   2.0000      -0.334186        -9.0937
  19   2.0000      -0.305604        -8.3159
  20   2.0000      -0.282540        -7.6883
  21   2.0000      -0.275611        -7.4998
  22   2.0000      -0.220559        -6.0017
  23   2.0000      -0.129758        -3.5309
  24   0.0000      -0.009406        -0.2560
  25   0.0000       0.017577         0.4783
  26   0.0000       0.031015         0.8440
  27   0.0000       0.039970         1.0876
  28   0.0000       0.054891         1.4937

MULLIKEN ATOMIC CHARGES
-----------------------
   0 C :    0.158282
   1 C :   -0.292800
   2 C :    1.064987
   3 C :    0.649714
   4 N :    0.446701
   5 N :    0.185244
   6 H :   -0.089746
   7 H :   -0.189537
   8 H :   -0.455789
   9 H :   -0.170721
  10 H :   -0.304224
  11 H :   -0.167351
  12 H :   -0.264592
  13 H :   -0.127712
  14 H :   -0.271633
  15 H :   -0.170822
Sum of atomic charges:    0.0000000

LOEWDIN ATOMIC CHARGES
----------------------
   0 C :   -0.091908
   1 C :   -0.018318
   2 C :    0.128865
   3 C :   -0.239403
   4 N :    0.220725
   5 N :    0.202652
   6 H :   -0.007036
   7 H :   -0.032713
   8 H :   -0.059474
   9 H :   -0.008792
  10 H :   -0.010572
  11 H :   -0.001631
  12 H :    0.008036
  13 H :   -0.030173
  14 H :   -0.036283
  15 H :   -0.023975

  Mayer bond orders larger than 0.100000
B(  0-C ,  1-C ) :   1.1560 B(  0-C ,  2-C ) :   1.1937 B(  0-C ,  3-C ) :   0.1017
B(  0-C ,  8-H ) :   0.3067 B(  0-C , 11-H ) :   0.7141 B(  0-C , 12-H ) :   0.7349
B(  0-C , 13-H ) :   0.2119 B(  0-C , 14-H ) :   0.2663 B(  0-C , 15-H ) :   0.2909
B(  1-C ,  2-C ) :   0.1007 B(  1-C ,  3-C ) :   1.4029 B(  1-C ,  4-N ) :   0.3551
B(  1-C ,  5-N ) :   0.3737 B(  1-C ,  8-H ) :   0.7521 B(  1-C , 11-H ) :   0.3773
B(  1-C , 12-H ) :   0.2367 B(  2-C , 11-H ) :   0.1046 B(  2-C , 13-H ) :   0.7265
B(  2-C , 14-H ) :   0.7225 B(  2-C , 15-H ) :   0.7084 B(  3-C ,  4-N ) :   1.1652
B(  3-C ,  5-N ) :   0.8148 B(  3-C ,  8-H ) :   0.1358 B(  3-C , 11-H ) :  -0.1497
B(  4-N ,  5-N ) :   0.1039 B(  4-N ,  9-H ) :   1.0977 B(  4-N , 10-H ) :   1.2106
B(  5-N ,  6-H ) :   1.0802 B(  5-N ,  7-H ) :   1.1277 B(  6-H ,  7-H ) :  -0.1260
B(  9-H , 10-H ) :  -0.1744

Dispersion correction           -0.026108405
FINAL SINGLE POINT ENERGY      -267.626806459167

DIPOLE MOMENT
-------------
                                X             Y             Z
Electronic contribution:      1.25285       1.39311       4.50803
Nuclear contribution   :     -1.82485      -1.28952      -3.74132
                        -----------------------------------------
Total Dipole Moment    :     -0.57200       0.10358       0.76672
                        -----------------------------------------
Magnitude (a.u.)       :      0.96217
Magnitude (Debye)      :      2.44564

Rotational constants in cm-1:     0.245790     0.071632     0.062004
Rotational constants in MHz :  7368.599517  2147.482078  1858.844841

                             ****ORCA TERMINATED NORMALLY****
TOTAL RUN TIME: 0 days 0 hours 0 minutes 13 seconds 385 msec
