                         Program Version 5.0.0 -  RELEASE  -
|  1> !BLYP D3BJ RIJCOSX def2-SVPD def2/J TightSCF
|  2> *xyz 0 1
|  3> C          4.99986       -1.59613       -5.92488
|  4> N          5.28156       -1.97413       -4.53576
|  5> C          3.76678       -2.26611       -6.51175
|  6> C          4.79250       -1.36132       -3.45730
|  7> C          3.93990       -0.37492       -3.55736
|  8> N          5.25986       -1.75422       -2.23913
|  9> H          5.92282       -2.52145       -2.18672
| 10> H          4.65468       -1.64040       -1.44202
| 11> H          5.70914       -2.87560       -4.38702
| 12> H          3.33010       -0.31764       -4.36125
| 13> H          3.69849        0.11447       -2.70833
| 14> H          4.84333       -0.51793       -5.94302
| 15> H          5.90170       -1.82250       -6.49647
| 16> H          3.63046       -1.94025       -7.52177
| 17> H          2.90710       -2.00116       -5.93240
| 18> H          3.89538       -3.32820       -6.49392
| 19> *
| 20>
| 21> %MaxCore 64000
| 22>
| 23> %pal nprocs 4
| 24> end
| 25>
| 26> %scf
| 27>   MaxIter 150
| 28> end
| 29>
| 30>
| 31>                          ****END OF INPUT****

CARTESIAN COORDINATES (ANGSTROEM)
---------------------------------
  C      4.999860   -1.596130   -5.924880
  N      5.281560   -1.974130   -4.535760
  C      3.766780   -2.266110   -6.511750
  C      4.792500   -1.361320   -3.457300
  C      3.939900   -0.374920   -3.557360
  N      5.259860   -1.754220   -2.239130
  H      5.922820   -2.521450   -2.186720
  H      4.654680   -1.640400   -1.442020
  H      5.709140   -2.875600   -4.387020
  H      3.330100   -0.317640   -4.361250
  H      3.698490    0.114470   -2.708330
  H      4.843330   -0.517930   -5.943020
  H      5.901700   -1.822500   -6.496470
  H      3.630460   -1.940250   -7.521770
  H      2.907100   -2.001160   -5.932400
  H      3.895380   -3.328200   -6.493920

 Total Charge           Charge          ....    0
 Multiplicity           Mult            ....    1
 Number of Electrons    NEL             ....   48
 Basis Dimension        Dim             ....  200

ORBITAL ENERGIES
----------------

  NO   OCC          E(Eh)            E(eV)
   0   2.0000     -14.025002      -381.6397
   1   2.0000     -14.021989      -381.5577
   2   2.0000      -9.960865      -271.0489
   3   2.0000      -9.952210      -270.8134
   4   2.0000      -9.908989      -269.6373
   5   2.0000      -9.838804      -267.7275
   6   2.0000      -0.864432       -23.5224
   7   2.0000      -0.787391       -21.4260
   8   2.0000      -0.673735       -18.3333
   9   2.0000      -0.635761       -17.2999
  10   2.0000      -0.566749       -15.4220
  11   2.0000      -0.501863       -13.6564
  12   2.0000      -0.486151       -13.2289
  13   2.0000      -0.455756       -12.4018
  14   2.0000      -0.407011       -11.0753
  15   2.0000      -0.394447       -10.7335
  16   2.0000      -0.372555       -10.1377
  17   2.0000      -0.350168        -9.5286
  18   2.0000      -0.335840        -9.1387
  19   2.0000      -0.326096        -8.8735
  20   2.0000      -0.307728        -8.3737
  21   2.0000      -0.299537        -8.1508
  22   2.0000      -0.206430        -5.6172
  23   2.0000      -0.138839        -3.7780
  24   0.0000      -0.006986        -0.1901
  25   0.0000       0.018070         0.4917
  26   0.0000       0.027360         0.7445
  27   0.0000       0.037087         1.0092
  28   0.0000       0.052512         1.4289

MULLIKEN ATOMIC CHARGES
-----------------------
   0 C :    0.548675
   1 N :   -0.156938
   2 C :    1.139644
   3 C :    0.581948
   4 C :    0.545868
   5 N :    0.269710
   6 H :   -0.238449
   7 H :   -0.108049
   8 H :   -0.441542
   9 H :   -0.387182
  10 H :   -0.515865
  11 H :   -0.101860
  12 H :   -0.517004
  13 H :   -0.128806
  14 H :   -0.303015
  15 H :   -0.187135
Sum of atomic charges:    0.0000000

LOEWDIN ATOMIC CHARGES
----------------------
   0 C :    0.019331
   1 N :    0.001110
   2 C :    0.147783
   3 C :   -0.247400
   4 C :    0.166774
   5 N :    0.207654
   6 H :   -0.024293
   7 H :   -0.012940
   8 H :    0.008174
   9 H :   -0.110068
  10 H :   -0.099738
  11 H :    0.011044
  12 H :    0.011305
  13 H :   -0.022359
  14 H :   -0.029613
  15 H :   -0.026764

  Mayer bond orders larger than 0.100000
B(  0-C ,  1-N ) :   0.9642 B(  0-C ,  2-C ) :   1.1944 B(  0-C ,  4-C ) :   0.1137
B(  0-C ,  8-H ) :  -0.2086 B(  0-C , 11-H ) :   0.7662 B(  0-C , 12-H ) :   0.7939
B(  0-C , 13-H ) :   0.2377 B(  0-C , 14-H ) :   0.2589 B(  0-C , 15-H ) :   0.2826
B(  1-N ,  3-C ) :   1.0373 B(  1-N ,  4-C ) :   0.4293 B(  1-N ,  5-N ) :   0.1346
B(  1-N ,  8-H ) :   1.2893 B(  1-N , 11-H ) :   0.1642 B(  1-N , 12-H ) :   0.1798
B(  2-C , 11-H ) :   0.1104 B(  2-C , 13-H ) :   0.6921 B(  2-C , 14-H ) :   0.7424
B(  2-C , 15-H ) :   0.6887 B(  3-C ,  4-C ) :   1.5249 B(  3-C ,  5-N ) :   0.9165
B(  3-C ,  8-H ) :  -0.2494 B(  3-C ,  9-H ) :   0.2276 B(  3-C , 10-H ) :   0.3484
B(  4-C ,  5-N ) :   0.3271 B(  4-C ,  9-H ) :   0.5290 B(  4-C , 10-H ) :   0.5824
B(  5-N ,  6-H ) :   1.0707 B(  5-N ,  7-H ) :   1.1109 B(  5-N , 10-H ) :   0.1108
B(  6-H ,  7-H ) :  -0.1352 B(  9-H , 11-H ) :   0.1267 B( 11-H , 12-H ) :  -0.1553

Dispersion correction           -0.025979641
FINAL SINGLE POINT ENERGY      -267.620244136890

DIPOLE MOMENT
-------------
                                X             Y             Z
Electronic contribution:      2.40858      -0.06037       3.50370
Nuclear contribution   :     -2.10948      -0.95026      -3.53375
                        -----------------------------------------
Total Dipole Moment    :      0.29910      -1.01062      -0.03006
                        -----------------------------------------
Magnitude (a.u.)       :      1.05438
Magnitude (Debye)      :      2.68003

Rotational constants in cm-1:     0.255209     0.072067     0.062929
Rotational constants in MHz :  7650.964615  2160.525743  1886.569524

                             ****ORCA TERMINATED NORMALLY****
TOTAL RUN TIME: 0 days 0 hours 0 minutes 13 seconds 132 msec
