                         Program Version 5.0.0 -  RELEASE  -
|  1> !BLYP D3BJ RIJCOSX def2-SVPD def2/J TightSCF
|  2> *xyz 0 1
|  3> C          4.99986       -1.59613       -5.92488
|  4> N          5.28156       -1.97413       -4.53576
|  5> C          3.76678       -2.26611       -6.51175
|  6> C          4.79250       -1.36132       -3.45730
|  7> N          3.93990       -0.37492       -3.55736
|  8> C          5.25986       -1.75422       -2.23913
|  9> H          5.92282       -2.52145       -2.18672
| 10> H          4.65468       -1.64040       -1.44202
| 11> H          5.70914       -2.87560       -4.38702
| 12> H          3.33010       -0.31764       -4.36125
| 13> H          3.69849        0.11447       -2.70833
| 14> H          4.84333       -0.51793       -5.94302
| 15> H          5.90170       -1.82250       -6.49647
| 16> H          3.63046       -1.94025       -7.52177
| 17> H          2.90710       -2.00116       -5.93240
| 18> H          3.89538       -3.32820       -6.49392
| 19> *
| 20>
| 21> %MaxCore 64000
| 22>
| 23> %pal nprocs 4
| 24> end
| 25>
| 26> %scf
| 27>   MaxIter 150
| 28> end
| 29>
| 30>
| 31>                          ****END OF INPUT****

CARTESIAN COORDINATES (ANGSTROEM)
---------------------------------
  C      4.999860   -1.596130   -5.924880
  N      5.281560   -1.974130   -4.535760
  C      3.766780   -2.266110   -6.511750
  C      4.792500   -1.361320   -3.457300
  N      3.939900   -0.374920   -3.557360
  C      5.259860   -1.754220   -2.239130
  H      5.922820   -2.521450   -2.186720
  H      4.654680   -1.640400   -1.442020
  H      5.709140   -2.875600   -4.387020
  H      3.330100   -0.317640   -4.361250
  H      3.698490    0.114470   -2.708330
  H      4.843330   -0.517930   -5.943020
  H      5.901700   -1.822500   -6.496470
  H      3.630460   -1.940250   -7.521770
  H      2.907100   -2.001160   -5.932400
  H      3.895380   -3.328200   -6.493920

 Total Charge           Charge          ....    0
 Multiplicity           Mult            ....    1
 Number of Electrons    NEL             ....   48
 Basis Dimension        Dim             ....  200

ORBITAL ENERGIES
----------------

  NO   OCC          E(Eh)            E(eV)
   0   2.0000     -14.029050      -381.7499
   1   2.0000     -14.024874      -381.6362
   2   2.0000      -9.964208      -271.1399
   3   2.0000      -9.960858      -271.0487
   4   2.0000      -9.919445      -269.9218
   5   2.0000      -9.834408      -267.6079
   6   2.0000      -0.874118       -23.7860
   7   2.0000      -0.797796       -21.7091
   8   2.0000      -0.689902       -18.7732
   9   2.0000      -0.617621       -16.8063
  10   2.0000      -0.557789       -15.1782
  11   2.0000      -0.540743       -14.7144
  12   2.0000      -0.487988       -13.2788
  13   2.0000      -0.445908       -12.1338
  14   2.0000      -0.430490       -11.7142
  15   2.0000      -0.395668       -10.7667
  16   2.0000      -0.378995       -10.3130
  17   2.0000      -0.355490        -9.6734
  18   2.0000      -0.337836        -9.1930
  19   2.0000      -0.321808        -8.7568
  20   2.0000      -0.319062        -8.6821
  21   2.0000      -0.300388        -8.1740
  22   2.0000      -0.213295        -5.8041
  23   2.0000      -0.126022        -3.4292
  24   0.0000      -0.010930        -0.2974
  25   0.0000       0.020328         0.5531
  26   0.0000       0.023837         0.6486
  27   0.0000       0.031786         0.8649
  28   0.0000       0.045798         1.2462

MULLIKEN ATOMIC CHARGES
-----------------------
   0 C :    0.604616
   1 N :   -0.035557
   2 C :    1.103298
   3 C :    0.277417
   4 N :    0.451565
   5 C :    0.708080
   6 H :   -0.391666
   7 H :   -0.582766
   8 H :   -0.387067
   9 H :   -0.232282
  10 H :   -0.174568
  11 H :   -0.220298
  12 H :   -0.529228
  13 H :   -0.125960
  14 H :   -0.270645
  15 H :   -0.194938
Sum of atomic charges:   -0.0000000

LOEWDIN ATOMIC CHARGES
----------------------
   0 C :    0.012799
   1 N :    0.013620
   2 C :    0.143710
   3 C :   -0.251601
   4 N :    0.219159
   5 C :    0.157871
   6 H :   -0.116776
   7 H :   -0.124196
   8 H :    0.024312
   9 H :   -0.023211
  10 H :    0.007064
  11 H :    0.005069
  12 H :    0.011861
  13 H :   -0.022909
  14 H :   -0.033613
  15 H :   -0.023158

  Mayer bond orders larger than 0.100000
B(  0-C ,  1-N ) :   0.9721 B(  0-C ,  2-C ) :   1.2021 B(  0-C ,  8-H ) :  -0.2438
B(  0-C , 11-H ) :   0.7797 B(  0-C , 12-H ) :   0.7474 B(  0-C , 13-H ) :   0.2344
B(  0-C , 14-H ) :   0.2739 B(  0-C , 15-H ) :   0.3058 B(  1-N ,  3-C ) :   1.1351
B(  1-N ,  4-N ) :   0.1837 B(  1-N ,  5-C ) :   0.2365 B(  1-N ,  8-H ) :   1.1990
B(  1-N , 11-H ) :   0.1803 B(  1-N , 12-H ) :   0.1912 B(  2-C , 11-H ) :   0.1032
B(  2-C , 13-H ) :   0.7114 B(  2-C , 14-H ) :   0.7073 B(  2-C , 15-H ) :   0.6888
B(  3-C ,  4-N ) :   1.1853 B(  3-C ,  5-C ) :   1.5153 B(  3-C ,  6-H ) :   0.2262
B(  3-C ,  7-H ) :   0.2794 B(  3-C ,  8-H ) :  -0.1887 B(  4-N ,  5-C ) :   0.2446
B(  4-N ,  9-H ) :   1.0920 B(  4-N , 10-H ) :   1.1691 B(  5-C ,  6-H ) :   0.6724
B(  5-C ,  7-H ) :   0.5626 B(  6-H ,  7-H ) :   0.1886 B(  9-H , 10-H ) :  -0.1744
B( 11-H , 12-H ) :  -0.1337

Dispersion correction           -0.025791016
FINAL SINGLE POINT ENERGY      -267.615088620299

DIPOLE MOMENT
-------------
                                X             Y             Z
Electronic contribution:      1.18535       1.25179       2.17661
Nuclear contribution   :     -1.82946      -1.24287      -3.25410
                        -----------------------------------------
Total Dipole Moment    :     -0.64411       0.00892      -1.07749
                        -----------------------------------------
Magnitude (a.u.)       :      1.25537
Magnitude (Debye)      :      3.19088

Rotational constants in cm-1:     0.244672     0.074506     0.064043
Rotational constants in MHz :  7335.067153  2233.624025  1919.970379

                             ****ORCA TERMINATED NORMALLY****
TOTAL RUN TIME: 0 days 0 hours 0 minutes 13 seconds 122 msec
