                         Program Version 5.0.0 -  RELEASE  -
|  1> !BLYP D3BJ RIJCOSX def2-SVPD def2/J TightSCF xyzfile
|  2>
|  3> *xyzfile 0 1 D1.xyz
|  4>
|  5> %MaxCore 64000
|  6>
|  7> %pal nprocs 4
|  8> end
|  9>
| 10> %scf
| 11>   MaxIter 150
| 12> end
| 13>
| 14>
| 15>                          ****END OF INPUT****

CARTESIAN COORDINATES (ANGSTROEM)
---------------------------------
  C      4.999862   -1.596133   -5.924876
  C      5.281560   -1.974132   -4.535764
  C      3.766779   -2.266110   -6.511752
  C      2.496702   -1.844161   -5.735704
  H      1.626416   -2.217434   -6.308950
  H      2.481824   -2.456069   -4.793414
  F      2.459729   -0.509204   -5.505757
  C      4.792500   -1.361316   -3.457295
  N      3.939898   -0.374925   -3.557359
  N      5.259860   -1.754224   -2.239133
  H      5.922824   -2.521451   -2.186720
  H      4.654678   -1.640404   -1.442016
  H      5.709139   -2.875599   -4.387021
  H      3.330101   -0.317639   -4.361247
  H      3.698494    0.114468   -2.708333
  H      4.843333   -0.517930   -5.943019
  H      5.901695   -1.822503   -6.496467
  H      3.886191   -3.357076   -6.533604
  H      3.685602   -1.922168   -7.547128

 Total Charge           Charge          ....    0
 Multiplicity           Mult            ....    1
 Number of Electrons    NEL             ....   64
 Basis Dimension        Dim             ....  251

ORBITAL ENERGIES
----------------

  NO   OCC          E(Eh)            E(eV)
   0   2.0000     -24.328756      -662.0191
   1   2.0000     -14.015965      -381.3938
   2   2.0000     -14.001540      -381.0013
   3   2.0000     -10.004716      -272.2422
   4   2.0000      -9.953820      -270.8572
   5   2.0000      -9.917821      -269.8776
   6   2.0000      -9.897714      -269.3305
   7   2.0000      -9.844149      -267.8729
   8   2.0000      -1.124867       -30.6092
   9   2.0000      -0.854117       -23.2417
  10   2.0000      -0.770505       -20.9665
  11   2.0000      -0.708637       -19.2830
  12   2.0000      -0.642788       -17.4912
  13   2.0000      -0.596728       -16.2378
  14   2.0000      -0.532988       -14.5033
  15   2.0000      -0.524711       -14.2781
  16   2.0000      -0.484140       -13.1741
  17   2.0000      -0.471685       -12.8352
  18   2.0000      -0.458456       -12.4752
  19   2.0000      -0.440300       -11.9812
  20   2.0000      -0.431235       -11.7345
  21   2.0000      -0.403370       -10.9763
  22   2.0000      -0.372325       -10.1315
  23   2.0000      -0.353546        -9.6205
  24   2.0000      -0.344661        -9.3787
  25   2.0000      -0.323176        -8.7941
  26   2.0000      -0.302613        -8.2345
  27   2.0000      -0.291641        -7.9360
  28   2.0000      -0.281714        -7.6658
  29   2.0000      -0.272415        -7.4128
  30   2.0000      -0.209505        -5.7009
  31   2.0000      -0.125973        -3.4279
  32   0.0000      -0.001199        -0.0326
  33   0.0000       0.015357         0.4179
  34   0.0000       0.026886         0.7316
  35   0.0000       0.033069         0.8998
  36   0.0000       0.043266         1.1773

MULLIKEN ATOMIC CHARGES
-----------------------
   0 C :    0.458929
   1 C :   -0.161138
   2 C :    0.299041
   3 C :    1.038068
   4 H :   -0.513099
   5 H :    0.074702
   6 F :   -0.350703
   7 C :    0.623706
   8 N :    0.733942
   9 N :    0.156132
  10 H :   -0.129029
  11 H :   -0.163073
  12 H :   -0.440920
  13 H :   -0.471293
  14 H :   -0.335849
  15 H :    0.045976
  16 H :   -0.416531
  17 H :   -0.288882
  18 H :   -0.159979
Sum of atomic charges:    0.0000000

LOEWDIN ATOMIC CHARGES
----------------------
   0 C :   -0.048389
   1 C :   -0.013346
   2 C :   -0.002623
   3 C :    0.128521
   4 H :    0.023969
   5 H :    0.037742
   6 F :   -0.156555
   7 C :   -0.230309
   8 N :    0.249503
   9 N :    0.203052
  10 H :   -0.009970
  11 H :   -0.032814
  12 H :   -0.062389
  13 H :   -0.132629
  14 H :   -0.007871
  15 H :    0.008249
  16 H :    0.009015
  17 H :    0.026027
  18 H :    0.010814

  Mayer bond orders larger than 0.100000
B(  0-C ,  1-C ) :   1.1312 B(  0-C ,  2-C ) :   1.1331 B(  0-C ,  3-C ) :   0.1035
B(  0-C ,  7-C ) :   0.1344 B(  0-C , 12-H ) :   0.3004 B(  0-C , 15-H ) :   0.6496
B(  0-C , 16-H ) :   0.7294 B(  0-C , 17-H ) :   0.2004 B(  0-C , 18-H ) :   0.1479
B(  1-C ,  2-C ) :   0.1334 B(  1-C ,  7-C ) :   1.3818 B(  1-C ,  8-N ) :   0.2957
B(  1-C ,  9-N ) :   0.3597 B(  1-C , 12-H ) :   0.7458 B(  1-C , 13-H ) :  -0.1202
B(  1-C , 15-H ) :   0.3526 B(  1-C , 16-H ) :   0.1926 B(  2-C ,  3-C ) :   1.1759
B(  2-C ,  4-H ) :   0.2022 B(  2-C ,  5-H ) :   0.1690 B(  2-C , 15-H ) :   0.1043
B(  2-C , 16-H ) :   0.1375 B(  2-C , 17-H ) :   0.8158 B(  2-C , 18-H ) :   0.7728
B(  3-C ,  4-H ) :   0.8061 B(  3-C ,  5-H ) :   0.7824 B(  3-C ,  6-F ) :   0.6805
B(  3-C , 18-H ) :   0.1121 B(  6-F , 13-H ) :   0.1454 B(  7-C ,  8-N ) :   1.0987
B(  7-C ,  9-N ) :   0.7870 B(  7-C , 10-H ) :  -0.1081 B(  7-C , 12-H ) :   0.1269
B(  7-C , 14-H ) :  -0.1202 B(  7-C , 15-H ) :  -0.1640 B(  8-N ,  9-N ) :   0.1286
B(  8-N , 13-H ) :   1.1152 B(  8-N , 14-H ) :   1.1570 B(  9-N , 10-H ) :   1.1450
B(  9-N , 11-H ) :   1.1009 B(  9-N , 12-H ) :   0.1255 B( 10-H , 11-H ) :  -0.1410
B( 13-H , 14-H ) :  -0.2045

Dispersion correction           -0.035654829
FINAL SINGLE POINT ENERGY      -406.047788034614

DIPOLE MOMENT
-------------
                                X             Y             Z
Electronic contribution:     -3.31283       4.01893       0.78490
Nuclear contribution   :      2.63975      -4.51113      -0.34926
                        -----------------------------------------
Total Dipole Moment    :     -0.67308      -0.49220       0.43564
                        -----------------------------------------
Magnitude (a.u.)       :      0.94079
Magnitude (Debye)      :      2.39129

Rotational constants in cm-1:     0.109429     0.049838     0.039337
Rotational constants in MHz :  3280.611039  1494.113088  1179.280063

                             ****ORCA TERMINATED NORMALLY****
TOTAL RUN TIME: 0 days 0 hours 0 minutes 15 seconds 30 msec
