                         Program Version 5.0.0 -  RELEASE  -
|  1> !BLYP D3BJ RIJCOSX def2-SVPD def2/J TightSCF xyzfile
|  2>
|  3> *xyzfile 0 1 D3.xyz
|  4>
|  5> %MaxCore 64000
|  6>
|  7> %pal nprocs 4
|  8> end
|  9>
| 10> %scf
| 11>   MaxIter 150
| 12> end
| 13>
| 14>
| 15>                          ****END OF INPUT****

CARTESIAN COORDINATES (ANGSTROEM)
---------------------------------
  C      4.999862   -1.596133   -5.924876
  N      5.281560   -1.974132   -4.535764
  C      3.766779   -2.266110   -6.511752
  C      2.496702   -1.844161   -5.735704
  H      1.626416   -2.217434   -6.308950
  H      2.481824   -2.456069   -4.793414
  F      2.459729   -0.509204   -5.505757
  C      4.792500   -1.361316   -3.457295
  N      3.939898   -0.374925   -3.557359
  C      5.259860   -1.754224   -2.239133
  H      5.922824   -2.521451   -2.186720
  H      4.654678   -1.640404   -1.442016
  H      5.709139   -2.875599   -4.387021
  H      3.330101   -0.317639   -4.361247
  H      3.698494    0.114468   -2.708333
  H      4.843333   -0.517930   -5.943019
  H      5.901695   -1.822503   -6.496467
  H      3.886191   -3.357076   -6.533604
  H      3.685602   -1.922168   -7.547128

 Total Charge           Charge          ....    0
 Multiplicity           Mult            ....    1
 Number of Electrons    NEL             ....   64
 Basis Dimension        Dim             ....  251

ORBITAL ENERGIES
----------------

  NO   OCC          E(Eh)            E(eV)
   0   2.0000     -24.342603      -662.3959
   1   2.0000     -14.022585      -381.5739
   2   2.0000     -13.998743      -380.9252
   3   2.0000     -10.023342      -272.7490
   4   2.0000      -9.962665      -271.0979
   5   2.0000      -9.954556      -270.8772
   6   2.0000      -9.944415      -270.6013
   7   2.0000      -9.824794      -267.3462
   8   2.0000      -1.139111       -30.9968
   9   2.0000      -0.865594       -23.5540
  10   2.0000      -0.789096       -21.4724
  11   2.0000      -0.714959       -19.4550
  12   2.0000      -0.649672       -17.6785
  13   2.0000      -0.593937       -16.1619
  14   2.0000      -0.553525       -15.0622
  15   2.0000      -0.534116       -14.5340
  16   2.0000      -0.510331       -13.8868
  17   2.0000      -0.487846       -13.2750
  18   2.0000      -0.458018       -12.4633
  19   2.0000      -0.448049       -12.1920
  20   2.0000      -0.420176       -11.4336
  21   2.0000      -0.417355       -11.3568
  22   2.0000      -0.383996       -10.4490
  23   2.0000      -0.373277       -10.1574
  24   2.0000      -0.338749        -9.2178
  25   2.0000      -0.331754        -9.0275
  26   2.0000      -0.324762        -8.8372
  27   2.0000      -0.310555        -8.4506
  28   2.0000      -0.300133        -8.1670
  29   2.0000      -0.291925        -7.9437
  30   2.0000      -0.204365        -5.5611
  31   2.0000      -0.117143        -3.1876
  32   0.0000      -0.010688        -0.2908
  33   0.0000       0.012706         0.3457
  34   0.0000       0.020134         0.5479
  35   0.0000       0.022067         0.6005
  36   0.0000       0.042894         1.1672

MULLIKEN ATOMIC CHARGES
-----------------------
   0 C :    1.000098
   1 N :   -0.001611
   2 C :    0.302712
   3 C :    1.041451
   4 H :   -0.573894
   5 H :    0.129136
   6 F :   -0.317545
   7 C :    0.079036
   8 N :    0.849899
   9 C :    0.623747
  10 H :   -0.443880
  11 H :   -0.454630
  12 H :   -0.373748
  13 H :   -0.618559
  14 H :   -0.200859
  15 H :    0.023620
  16 H :   -0.661708
  17 H :   -0.278453
  18 H :   -0.124812
Sum of atomic charges:    0.0000000

LOEWDIN ATOMIC CHARGES
----------------------
   0 C :    0.057056
   1 N :    0.020826
   2 C :    0.006679
   3 C :    0.132949
   4 H :    0.027600
   5 H :    0.044225
   6 F :   -0.155932
   7 C :   -0.251239
   8 N :    0.249329
   9 C :    0.152514
  10 H :   -0.123125
  11 H :   -0.126262
  12 H :    0.023432
  13 H :   -0.139896
  14 H :    0.009806
  15 H :    0.014769
  16 H :    0.013598
  17 H :    0.026139
  18 H :    0.017531

  Mayer bond orders larger than 0.100000
B(  0-C ,  1-N ) :   1.0230 B(  0-C ,  2-C ) :   1.1143 B(  0-C ,  3-C ) :   0.1005
B(  0-C , 12-H ) :  -0.2371 B(  0-C , 15-H ) :   0.6632 B(  0-C , 16-H ) :   0.7173
B(  0-C , 17-H ) :   0.1713 B(  0-C , 18-H ) :   0.1422 B(  1-N ,  7-C ) :   1.1762
B(  1-N ,  8-N ) :   0.1327 B(  1-N ,  9-C ) :   0.2037 B(  1-N , 12-H ) :   1.1335
B(  1-N , 15-H ) :   0.2107 B(  1-N , 16-H ) :   0.1736 B(  2-C ,  3-C ) :   1.1887
B(  2-C ,  4-H ) :   0.1977 B(  2-C ,  5-H ) :   0.1459 B(  2-C , 15-H ) :   0.1197
B(  2-C , 16-H ) :   0.1021 B(  2-C , 17-H ) :   0.8068 B(  2-C , 18-H ) :   0.7861
B(  3-C ,  4-H ) :   0.8214 B(  3-C ,  5-H ) :   0.7712 B(  3-C ,  6-F ) :   0.6864
B(  3-C , 18-H ) :   0.1035 B(  4-H ,  6-F ) :  -0.1076 B(  5-H ,  7-C ) :   0.1037
B(  6-F , 13-H ) :   0.1425 B(  7-C ,  8-N ) :   1.1753 B(  7-C ,  9-C ) :   1.5534
B(  7-C , 10-H ) :   0.2218 B(  7-C , 11-H ) :   0.2433 B(  7-C , 12-H ) :  -0.1466
B(  8-N ,  9-C ) :   0.1442 B(  8-N , 13-H ) :   0.9873 B(  8-N , 14-H ) :   1.1008
B(  8-N , 15-H ) :   0.1164 B(  9-C , 10-H ) :   0.6344 B(  9-C , 11-H ) :   0.6730
B( 10-H , 11-H ) :   0.2324 B( 13-H , 14-H ) :  -0.2055 B( 15-H , 16-H ) :  -0.2459

Dispersion correction           -0.035234382
FINAL SINGLE POINT ENERGY      -406.031484413887

DIPOLE MOMENT
-------------
                                X             Y             Z
Electronic contribution:     -3.46799       3.89551      -1.47700
Nuclear contribution   :      2.63642      -4.47741       0.00296
                        -----------------------------------------
Total Dipole Moment    :     -0.83157      -0.58190      -1.47404
                        -----------------------------------------
Magnitude (a.u.)       :      1.78967
Magnitude (Debye)      :      4.54898

Rotational constants in cm-1:     0.108041     0.051979     0.040387
Rotational constants in MHz :  3238.993235  1558.297571  1210.782552

                             ****ORCA TERMINATED NORMALLY****
TOTAL RUN TIME: 0 days 0 hours 0 minutes 15 seconds 294 msec
