                         Program Version 5.0.0 -  RELEASE  -
|  1> !BLYP D3BJ RIJCOSX def2-SVP def2/J TightSCF
|  2>
|  3> *xyz -1 1
|  4> C          2.95263        1.86308       -3.57485
|  5> C          4.12921        0.89839       -3.41895
|  6> H          3.73369       -0.10060       -3.23763
|  7> H          4.71910        0.86256       -4.33901
|  8> C          5.01734        1.31521       -2.22130
|  9> O          4.73706        0.85411       -1.12283
| 10> O          5.92815        2.16811       -2.49136
| 11> H          2.35067        1.56005       -4.40594
| 12> H          3.32277        2.85258       -3.74453
| 13> H          2.36134        1.85149       -2.68315
| 14> *
| 15> %MaxCore 64000
| 16>
| 17> %pal nprocs 4
| 18> end
| 19>
| 20> %scf
| 21>   MaxIter 150
| 22> end
| 23>
| 24>
| 25>                          ****END OF INPUT****

CARTESIAN COORDINATES (ANGSTROEM)
---------------------------------
  C      2.952630    1.863080   -3.574850
  C      4.129210    0.898390   -3.418950
  H      3.733690   -0.100600   -3.237630
  H      4.719100    0.862560   -4.339010
  C      5.017340    1.315210   -2.221300
  O      4.737060    0.854110   -1.122830
  O      5.928150    2.168110   -2.491360
  H      2.350670    1.560050   -4.405940
  H      3.322770    2.852580   -3.744530
  H      2.361340    1.851490   -2.683150

 Total Charge           Charge          ....   -1
 Multiplicity           Mult            ....    1
 Number of Electrons    NEL             ....   40
 Basis Dimension        Dim             ....   95

ORBITAL ENERGIES
----------------

  NO   OCC          E(Eh)            E(eV)
   0   2.0000     -18.486270      -503.0370
   1   2.0000     -18.475042      -502.7315
   2   2.0000      -9.761841      -265.6332
   3   2.0000      -9.749281      -265.2914
   4   2.0000      -9.722332      -264.5581
   5   2.0000      -0.678253       -18.4562
   6   2.0000      -0.585781       -15.9399
   7   2.0000      -0.501826       -13.6554
   8   2.0000      -0.374922       -10.2021
   9   2.0000      -0.237141        -6.4529
  10   2.0000      -0.220234        -5.9929
  11   2.0000      -0.175625        -4.7790
  12   2.0000      -0.155361        -4.2276
  13   2.0000      -0.134454        -3.6587
  14   2.0000      -0.122986        -3.3466
  15   2.0000      -0.090510        -2.4629
  16   2.0000      -0.085949        -2.3388
  17   2.0000       0.035741         0.9725
  18   2.0000       0.047329         1.2879
  19   2.0000       0.065416         1.7801
  20   0.0000       0.197232         5.3670
  21   0.0000       0.244640         6.6570
  22   0.0000       0.257025         6.9940
  23   0.0000       0.259285         7.0555
  24   0.0000       0.275192         7.4883

MULLIKEN ATOMIC CHARGES
-----------------------
   0 C :    0.096918
   1 C :    0.124911
   2 H :   -0.110145
   3 H :   -0.100467
   4 C :   -0.089149
   5 O :   -0.335629
   6 O :   -0.410837
   7 H :   -0.078684
   8 H :   -0.048572
   9 H :   -0.048346
Sum of atomic charges:   -1.0000000

LOEWDIN ATOMIC CHARGES
----------------------
   0 C :   -0.047067
   1 C :   -0.081196
   2 H :   -0.019913
   3 H :   -0.015938
   4 C :   -0.095025
   5 O :   -0.331715
   6 O :   -0.396761
   7 H :   -0.014032
   8 H :    0.000341
   9 H :    0.001304

  Mayer bond orders larger than 0.100000
B(  0-C ,  1-C ) :   1.1383 B(  0-C ,  7-H ) :   0.9530 B(  0-C ,  8-H ) :   0.9536
B(  0-C ,  9-H ) :   0.9560 B(  1-C ,  2-H ) :   0.8978 B(  1-C ,  3-H ) :   0.9060
B(  1-C ,  4-C ) :   0.9031 B(  4-C ,  5-O ) :   1.9216 B(  4-C ,  6-O ) :   1.8378
B(  5-O ,  6-O ) :   0.1425

Dispersion correction           -0.013582833
FINAL SINGLE POINT ENERGY      -267.535471758100

DIPOLE MOMENT
-------------
                                X             Y             Z
Electronic contribution:      4.67244      -0.08378       4.17898
Nuclear contribution   :     -5.85873      -0.10793      -5.24103
                        -----------------------------------------
Total Dipole Moment    :     -1.18629      -0.19172      -1.06205
                        -----------------------------------------
Magnitude (a.u.)       :      1.60374
Magnitude (Debye)      :      4.07638

Rotational constants in cm-1:     0.292505     0.135951     0.110253
Rotational constants in MHz :  8769.065873  4075.717001  3305.311891

                             ****ORCA TERMINATED NORMALLY****
TOTAL RUN TIME: 0 days 0 hours 0 minutes 6 seconds 636 msec
