                         Program Version 5.0.0 -  RELEASE  -
|  1> !BLYP D3BJ RIJCOSX def2-SVP def2/J TightSCF
|  2>
|  3> *xyz 1 1
|  4> C          3.34350        3.35457       -3.59200
|  5> C          2.95263        1.86308       -3.57485
|  6> C          4.25587        3.70385       -4.72605
|  7> N          3.73403        4.29378       -5.80077
|  8> N          5.51504        3.40725       -4.63718
|  9> H          6.14919        3.60120       -5.39905
| 10> H          5.81358        2.89950       -3.80879
| 11> H          2.74138        4.51311       -5.82470
| 12> H          4.28755        4.52126       -6.61434
| 13> H          3.86125        3.59725       -2.66298
| 14> H          2.44649        3.97346       -3.65656
| 15> H          2.44395        1.61721       -4.48352
| 16> H          2.30781        1.67290       -2.74242
| 17> H          3.83491        1.26414       -3.48670
| 18> *
| 19> %MaxCore 64000
| 20>
| 21> %pal nprocs 4
| 22> end
| 23>
| 24> %scf
| 25>   MaxIter 150
| 26> end
| 27>
| 28>
| 29>                          ****END OF INPUT****

CARTESIAN COORDINATES (ANGSTROEM)
---------------------------------
  C      3.343500    3.354570   -3.592000
  C      2.952630    1.863080   -3.574850
  C      4.255870    3.703850   -4.726050
  N      3.734030    4.293780   -5.800770
  N      5.515040    3.407250   -4.637180
  H      6.149190    3.601200   -5.399050
  H      5.813580    2.899500   -3.808790
  H      2.741380    4.513110   -5.824700
  H      4.287550    4.521260   -6.614340
  H      3.861250    3.597250   -2.662980
  H      2.446490    3.973460   -3.656560
  H      2.443950    1.617210   -4.483520
  H      2.307810    1.672900   -2.742420
  H      3.834910    1.264140   -3.486700

 Total Charge           Charge          ....    1
 Multiplicity           Mult            ....    1
 Number of Electrons    NEL             ....   40
 Basis Dimension        Dim             ....  115

ORBITAL ENERGIES
----------------

  NO   OCC          E(Eh)            E(eV)
   0   2.0000     -14.269783      -388.3005
   1   2.0000     -14.265181      -388.1753
   2   2.0000     -10.232939      -278.4524
   3   2.0000     -10.118222      -275.3308
   4   2.0000     -10.079018      -274.2640
   5   2.0000      -1.103018       -30.0147
   6   2.0000      -1.015023       -27.6202
   7   2.0000      -0.881505       -23.9870
   8   2.0000      -0.785802       -21.3828
   9   2.0000      -0.747249       -20.3337
  10   2.0000      -0.718304       -19.5460
  11   2.0000      -0.687651       -18.7119
  12   2.0000      -0.649022       -17.6608
  13   2.0000      -0.593067       -16.1382
  14   2.0000      -0.569666       -15.5014
  15   2.0000      -0.559672       -15.2295
  16   2.0000      -0.496100       -13.4996
  17   2.0000      -0.487643       -13.2694
  18   2.0000      -0.480065       -13.0632
  19   2.0000      -0.446678       -12.1547
  20   0.0000      -0.230770        -6.2796
  21   0.0000      -0.171259        -4.6602
  22   0.0000      -0.126831        -3.4512
  23   0.0000      -0.125487        -3.4147
  24   0.0000      -0.100240        -2.7277

MULLIKEN ATOMIC CHARGES
-----------------------
   0 C :    0.064728
   1 C :    0.094441
   2 C :   -0.188352
   3 N :    0.092826
   4 N :    0.146262
   5 H :    0.153339
   6 H :    0.163784
   7 H :    0.164260
   8 H :    0.148613
   9 H :    0.046263
  10 H :    0.028134
  11 H :    0.020001
  12 H :    0.054295
  13 H :    0.011405
Sum of atomic charges:    1.0000000

LOEWDIN ATOMIC CHARGES
----------------------
   0 C :   -0.020328
   1 C :   -0.008097
   2 C :    0.122933
   3 N :    0.110069
   4 N :    0.131967
   5 H :    0.109996
   6 H :    0.120618
   7 H :    0.117943
   8 H :    0.105021
   9 H :    0.053753
  10 H :    0.048436
  11 H :    0.032302
  12 H :    0.049079
  13 H :    0.026308

  Mayer bond orders larger than 0.100000
B(  0-C ,  1-C ) :   1.1015 B(  0-C ,  2-C ) :   1.0487 B(  0-C ,  9-H ) :   0.9076
B(  0-C , 10-H ) :   0.9073 B(  1-C , 11-H ) :   0.9637 B(  1-C , 12-H ) :   0.9559
B(  1-C , 13-H ) :   0.9659 B(  2-C ,  3-N ) :   1.5102 B(  2-C ,  4-N ) :   1.5493
B(  3-N ,  7-H ) :   0.9197 B(  3-N ,  8-H ) :   0.9300 B(  4-N ,  5-H ) :   0.9249
B(  4-N ,  6-H ) :   0.9131

Dispersion correction           -0.020540732
FINAL SINGLE POINT ENERGY      -228.768817141456

DIPOLE MOMENT
-------------
                                X             Y             Z
Electronic contribution:      2.41579       2.59815      -2.34058
Nuclear contribution   :     -1.74195      -2.09431       1.58516
                        -----------------------------------------
Total Dipole Moment    :      0.67384       0.50384      -0.75542
                        -----------------------------------------
Magnitude (a.u.)       :      1.13074
Magnitude (Debye)      :      2.87412

Rotational constants in cm-1:     0.258965     0.126500     0.098780
Rotational constants in MHz :  7763.584551  3792.383135  2961.336502

                             ****ORCA TERMINATED NORMALLY****
TOTAL RUN TIME: 0 days 0 hours 0 minutes 7 seconds 254 msec
