                         Program Version 5.0.0 -  RELEASE  -
|  1> !BLYP D3BJ RIJCOSX def2-SVP def2/J TightSCF
|  2>
|  3> *xyz 0 1
|  4> C          2.95263        1.86308       -3.57485
|  5> C          4.12921        0.89839       -3.41895
|  6> H          3.73369       -0.10060       -3.23763
|  7> H          4.71910        0.86256       -4.33901
|  8> C          5.01734        1.31521       -2.22130
|  9> F          4.73706        0.85411       -1.12283
| 10> O          5.92815        2.16811       -2.49136
| 11> H          2.35067        1.56005       -4.40594
| 12> H          3.32277        2.85258       -3.74453
| 13> H          2.36134        1.85149       -2.68315
| 14> *
| 15> %MaxCore 64000
| 16>
| 17> %pal nprocs 4
| 18> end
| 19>
| 20> %scf
| 21>   MaxIter 150
| 22> end
| 23>
| 24>
| 25>                          ****END OF INPUT****

CARTESIAN COORDINATES (ANGSTROEM)
---------------------------------
  C      2.952630    1.863080   -3.574850
  C      4.129210    0.898390   -3.418950
  H      3.733690   -0.100600   -3.237630
  H      4.719100    0.862560   -4.339010
  C      5.017340    1.315210   -2.221300
  F      4.737060    0.854110   -1.122830
  O      5.928150    2.168110   -2.491360
  H      2.350670    1.560050   -4.405940
  H      3.322770    2.852580   -3.744530
  H      2.361340    1.851490   -2.683150

 Total Charge           Charge          ....    0
 Multiplicity           Mult            ....    1
 Number of Electrons    NEL             ....   40
 Basis Dimension        Dim             ....   95

ORBITAL ENERGIES
----------------

  NO   OCC          E(Eh)            E(eV)
   0   2.0000     -24.366245      -663.0392
   1   2.0000     -18.773654      -510.8571
   2   2.0000     -10.081345      -274.3273
   3   2.0000      -9.943845      -270.5858
   4   2.0000      -9.928210      -270.1603
   5   2.0000      -1.204525       -32.7768
   6   2.0000      -0.901494       -24.5309
   7   2.0000      -0.707600       -19.2548
   8   2.0000      -0.604554       -16.4507
   9   2.0000      -0.566260       -15.4087
  10   2.0000      -0.486404       -13.2357
  11   2.0000      -0.470423       -12.8009
  12   2.0000      -0.431134       -11.7318
  13   2.0000      -0.403358       -10.9759
  14   2.0000      -0.371500       -10.1090
  15   2.0000      -0.343919        -9.3585
  16   2.0000      -0.321540        -8.7495
  17   2.0000      -0.314628        -8.5615
  18   2.0000      -0.286485        -7.7956
  19   2.0000      -0.217941        -5.9305
  20   0.0000      -0.049781        -1.3546
  21   0.0000       0.039137         1.0650
  22   0.0000       0.082648         2.2490
  23   0.0000       0.085722         2.3326
  24   0.0000       0.108459         2.9513

MULLIKEN ATOMIC CHARGES
-----------------------
   0 C :    0.067995
   1 C :    0.037017
   2 H :   -0.016857
   3 H :    0.015592
   4 C :    0.117535
   5 F :    0.008589
   6 O :   -0.233601
   7 H :    0.001265
   8 H :    0.009633
   9 H :   -0.007168
Sum of atomic charges:   -0.0000000

LOEWDIN ATOMIC CHARGES
----------------------
   0 C :   -0.027328
   1 C :   -0.056574
   2 H :    0.018670
   3 H :    0.037252
   4 C :    0.053006
   5 F :    0.103531
   6 O :   -0.194685
   7 H :    0.023857
   8 H :    0.023787
   9 H :    0.018483

  Mayer bond orders larger than 0.100000
B(  0-C ,  1-C ) :   1.1166 B(  0-C ,  7-H ) :   0.9608 B(  0-C ,  8-H ) :   0.9672
B(  0-C ,  9-H ) :   0.9676 B(  1-C ,  2-H ) :   0.9164 B(  1-C ,  3-H ) :   0.9330
B(  1-C ,  4-C ) :   1.0014 B(  4-C ,  5-F ) :   1.2765 B(  4-C ,  6-O ) :   2.0688

Dispersion correction           -0.012840765
FINAL SINGLE POINT ENERGY      -292.088826448518

DIPOLE MOMENT
-------------
                                X             Y             Z
Electronic contribution:      5.18397      -1.09946       6.62342
Nuclear contribution   :     -6.06116       0.51860      -6.80802
                        -----------------------------------------
Total Dipole Moment    :     -0.87718      -0.58086      -0.18460
                        -----------------------------------------
Magnitude (a.u.)       :      1.06814
Magnitude (Debye)      :      2.71499

Rotational constants in cm-1:     0.276196     0.132056     0.105465
Rotational constants in MHz :  8280.156449  3958.940601  3161.775929

                             ****ORCA TERMINATED NORMALLY****
TOTAL RUN TIME: 0 days 0 hours 0 minutes 6 seconds 373 msec
