                         Program Version 5.0.0 -  RELEASE  -
|  1> !BLYP D3BJ RIJCOSX def2-SVP def2/J TightSCF
|  2>
|  3> *xyz 0 1
|  4> C          3.34350        3.35457       -3.59200
|  5> C          2.95263        1.86308       -3.57485
|  6> C          4.25587        3.70385       -4.72605
|  7> C          3.73403        4.29378       -5.80077
|  8> N          5.51504        3.40725       -4.63718
|  9> H          6.14919        3.60120       -5.39905
| 10> H          5.81358        2.89950       -3.80879
| 11> H          2.74138        4.51311       -5.82470
| 12> H          4.28755        4.52126       -6.61434
| 13> H          3.86125        3.59725       -2.66298
| 14> H          2.44649        3.97346       -3.65656
| 15> H          2.44395        1.61721       -4.48352
| 16> H          2.30781        1.67290       -2.74242
| 17> H          3.83491        1.26414       -3.48670
| 18> *
| 19> %MaxCore 64000
| 20>
| 21> %pal nprocs 4
| 22> end
| 23>
| 24> %scf
| 25>   MaxIter 150
| 26> end
| 27>
| 28>
| 29>                          ****END OF INPUT****

CARTESIAN COORDINATES (ANGSTROEM)
---------------------------------
  C      3.343500    3.354570   -3.592000
  C      2.952630    1.863080   -3.574850
  C      4.255870    3.703850   -4.726050
  C      3.734030    4.293780   -5.800770
  N      5.515040    3.407250   -4.637180
  H      6.149190    3.601200   -5.399050
  H      5.813580    2.899500   -3.808790
  H      2.741380    4.513110   -5.824700
  H      4.287550    4.521260   -6.614340
  H      3.861250    3.597250   -2.662980
  H      2.446490    3.973460   -3.656560
  H      2.443950    1.617210   -4.483520
  H      2.307810    1.672900   -2.742420
  H      3.834910    1.264140   -3.486700

 Total Charge           Charge          ....    0
 Multiplicity           Mult            ....    1
 Number of Electrons    NEL             ....   40
 Basis Dimension        Dim             ....  115

ORBITAL ENERGIES
----------------

  NO   OCC          E(Eh)            E(eV)
   0   2.0000     -14.019802      -381.4982
   1   2.0000      -9.928595      -270.1708
   2   2.0000      -9.916214      -269.8339
   3   2.0000      -9.907707      -269.6024
   4   2.0000      -9.848147      -267.9817
   5   2.0000      -0.832092       -22.6424
   6   2.0000      -0.685876       -18.6636
   7   2.0000      -0.623325       -16.9615
   8   2.0000      -0.556274       -15.1370
   9   2.0000      -0.499580       -13.5943
  10   2.0000      -0.468047       -12.7362
  11   2.0000      -0.415071       -11.2947
  12   2.0000      -0.380770       -10.3613
  13   2.0000      -0.362498        -9.8641
  14   2.0000      -0.335536        -9.1304
  15   2.0000      -0.326022        -8.8715
  16   2.0000      -0.303079        -8.2472
  17   2.0000      -0.282275        -7.6811
  18   2.0000      -0.276362        -7.5202
  19   2.0000      -0.140096        -3.8122
  20   0.0000       0.021590         0.5875
  21   0.0000       0.040965         1.1147
  22   0.0000       0.069319         1.8863
  23   0.0000       0.080030         2.1777
  24   0.0000       0.094338         2.5671

MULLIKEN ATOMIC CHARGES
-----------------------
   0 C :    0.112968
   1 C :    0.111643
   2 C :   -0.189634
   3 C :    0.019324
   4 N :    0.066573
   5 H :    0.090062
   6 H :    0.083180
   7 H :   -0.074901
   8 H :   -0.094610
   9 H :   -0.040946
  10 H :   -0.023312
  11 H :   -0.014019
  12 H :   -0.015492
  13 H :   -0.030836
Sum of atomic charges:    0.0000000

LOEWDIN ATOMIC CHARGES
----------------------
   0 C :   -0.016285
   1 C :   -0.033349
   2 C :   -0.010389
   3 C :   -0.170381
   4 N :    0.028988
   5 H :    0.073881
   6 H :    0.067532
   7 H :   -0.006601
   8 H :   -0.016784
   9 H :    0.010855
  10 H :    0.028003
  11 H :    0.018971
  12 H :    0.016230
  13 H :    0.009328

  Mayer bond orders larger than 0.100000
B(  0-C ,  1-C ) :   1.1191 B(  0-C ,  2-C ) :   1.0534 B(  0-C ,  9-H ) :   0.9046
B(  0-C , 10-H ) :   0.9130 B(  1-C , 11-H ) :   0.9617 B(  1-C , 12-H ) :   0.9572
B(  1-C , 13-H ) :   0.9617 B(  2-C ,  3-C ) :   1.8414 B(  2-C ,  4-N ) :   1.3251
B(  3-C ,  7-H ) :   0.9168 B(  3-C ,  8-H ) :   0.9281 B(  4-N ,  5-H ) :   0.9389
B(  4-N ,  6-H ) :   0.9392

Dispersion correction           -0.021432508
FINAL SINGLE POINT ENERGY      -212.296489568223

DIPOLE MOMENT
-------------
                                X             Y             Z
Electronic contribution:      2.43476       1.46523      -0.85518
Nuclear contribution   :     -1.79713      -1.86925       1.28073
                        -----------------------------------------
Total Dipole Moment    :      0.63763      -0.40401       0.42556
                        -----------------------------------------
Magnitude (a.u.)       :      0.86655
Magnitude (Debye)      :      2.20259

Rotational constants in cm-1:     0.269040     0.129645     0.102087
Rotational constants in MHz :  8065.609820  3886.645139  3060.489045

                             ****ORCA TERMINATED NORMALLY****
TOTAL RUN TIME: 0 days 0 hours 0 minutes 7 seconds 499 msec
