                         Program Version 5.0.0 -  RELEASE  -
|  1> !BLYP D3BJ RIJCOSX def2-SVP def2/J TightSCF
|  2>
|  3> *xyz 0 1
|  4> C          2.95263        1.86308       -3.57485
|  5> C          4.12921        0.89839       -3.41895
|  6> H          3.73369       -0.10060       -3.23763
|  7> H          4.71910        0.86256       -4.33901
|  8> C          5.01734        1.31521       -2.22130
|  9> O          4.73706        0.85411       -1.12283
| 10> F          5.92815        2.16811       -2.49136
| 11> H          2.35067        1.56005       -4.40594
| 12> H          3.32277        2.85258       -3.74453
| 13> H          2.36134        1.85149       -2.68315
| 14> *
| 15> %MaxCore 64000
| 16>
| 17> %pal nprocs 4
| 18> end
| 19>
| 20> %scf
| 21>   MaxIter 150
| 22> end
| 23>
| 24>
| 25>                          ****END OF INPUT****

CARTESIAN COORDINATES (ANGSTROEM)
---------------------------------
  C      2.952630    1.863080   -3.574850
  C      4.129210    0.898390   -3.418950
  H      3.733690   -0.100600   -3.237630
  H      4.719100    0.862560   -4.339010
  C      5.017340    1.315210   -2.221300
  O      4.737060    0.854110   -1.122830
  F      5.928150    2.168110   -2.491360
  H      2.350670    1.560050   -4.405940
  H      3.322770    2.852580   -3.744530
  H      2.361340    1.851490   -2.683150

 Total Charge           Charge          ....    0
 Multiplicity           Mult            ....    1
 Number of Electrons    NEL             ....   40
 Basis Dimension        Dim             ....   95

ORBITAL ENERGIES
----------------

  NO   OCC          E(Eh)            E(eV)
   0   2.0000     -24.345269      -662.4685
   1   2.0000     -18.783812      -511.1335
   2   2.0000     -10.078154      -274.2405
   3   2.0000      -9.943698      -270.5818
   4   2.0000      -9.928777      -270.1758
   5   2.0000      -1.164218       -31.6800
   6   2.0000      -0.934429       -25.4271
   7   2.0000      -0.707779       -19.2596
   8   2.0000      -0.595615       -16.2075
   9   2.0000      -0.552749       -15.0411
  10   2.0000      -0.468841       -12.7578
  11   2.0000      -0.452479       -12.3126
  12   2.0000      -0.428900       -11.6710
  13   2.0000      -0.400837       -10.9073
  14   2.0000      -0.373992       -10.1768
  15   2.0000      -0.345263        -9.3951
  16   2.0000      -0.326981        -8.8976
  17   2.0000      -0.316835        -8.6215
  18   2.0000      -0.303244        -8.2517
  19   2.0000      -0.231228        -6.2920
  20   0.0000      -0.045206        -1.2301
  21   0.0000       0.039059         1.0629
  22   0.0000       0.081498         2.2177
  23   0.0000       0.086450         2.3524
  24   0.0000       0.107760         2.9323

MULLIKEN ATOMIC CHARGES
-----------------------
   0 C :    0.065489
   1 C :    0.035207
   2 H :    0.008875
   3 H :   -0.008009
   4 C :    0.122718
   5 O :   -0.170616
   6 F :   -0.059383
   7 H :    0.001848
   8 H :   -0.004169
   9 H :    0.008041
Sum of atomic charges:   -0.0000000

LOEWDIN ATOMIC CHARGES
----------------------
   0 C :   -0.027551
   1 C :   -0.057069
   2 H :    0.034751
   3 H :    0.022546
   4 C :    0.062340
   5 O :   -0.138962
   6 F :    0.037239
   7 H :    0.024110
   8 H :    0.018862
   9 H :    0.023734

  Mayer bond orders larger than 0.100000
B(  0-C ,  1-C ) :   1.1169 B(  0-C ,  7-H ) :   0.9612 B(  0-C ,  8-H ) :   0.9685
B(  0-C ,  9-H ) :   0.9673 B(  1-C ,  2-H ) :   0.9317 B(  1-C ,  3-H ) :   0.9201
B(  1-C ,  4-C ) :   0.9999 B(  4-C ,  5-O ) :   2.1460 B(  4-C ,  6-F ) :   1.2040

Dispersion correction           -0.012839962
FINAL SINGLE POINT ENERGY      -292.104663611043

DIPOLE MOMENT
-------------
                                X             Y             Z
Electronic contribution:      7.11256       1.03629       4.38254
Nuclear contribution   :     -7.35982      -0.91407      -5.31589
                        -----------------------------------------
Total Dipole Moment    :     -0.24725       0.12221      -0.93335
                        -----------------------------------------
Magnitude (a.u.)       :      0.97325
Magnitude (Debye)      :      2.47380

Rotational constants in cm-1:     0.275433     0.132201     0.105422
Rotational constants in MHz :  8257.268192  3963.279062  3160.465566

                             ****ORCA TERMINATED NORMALLY****
TOTAL RUN TIME: 0 days 0 hours 0 minutes 6 seconds 312 msec
