                         Program Version 5.0.0 -  RELEASE  -
|  1> !BLYP D3BJ RIJCOSX def2-SVP def2/J TightSCF
|  2>
|  3> *xyz 0 1
|  4> C          3.34350        3.35457       -3.59200
|  5> C          2.95263        1.86308       -3.57485
|  6> C          4.25587        3.70385       -4.72605
|  7> N          3.73403        4.29378       -5.80077
|  8> C          5.51504        3.40725       -4.63718
|  9> H          6.14919        3.60120       -5.39905
| 10> H          5.81358        2.89950       -3.80879
| 11> H          2.74138        4.51311       -5.82470
| 12> H          4.28755        4.52126       -6.61434
| 13> H          3.86125        3.59725       -2.66298
| 14> H          2.44649        3.97346       -3.65656
| 15> H          2.44395        1.61721       -4.48352
| 16> H          2.30781        1.67290       -2.74242
| 17> H          3.83491        1.26414       -3.48670
| 18> *
| 19> %MaxCore 64000
| 20>
| 21> %pal nprocs 4
| 22> end
| 23>
| 24> %scf
| 25>   MaxIter 150
| 26> end
| 27>
| 28>
| 29>                          ****END OF INPUT****

CARTESIAN COORDINATES (ANGSTROEM)
---------------------------------
  C      3.343500    3.354570   -3.592000
  C      2.952630    1.863080   -3.574850
  C      4.255870    3.703850   -4.726050
  N      3.734030    4.293780   -5.800770
  C      5.515040    3.407250   -4.637180
  H      6.149190    3.601200   -5.399050
  H      5.813580    2.899500   -3.808790
  H      2.741380    4.513110   -5.824700
  H      4.287550    4.521260   -6.614340
  H      3.861250    3.597250   -2.662980
  H      2.446490    3.973460   -3.656560
  H      2.443950    1.617210   -4.483520
  H      2.307810    1.672900   -2.742420
  H      3.834910    1.264140   -3.486700

 Total Charge           Charge          ....    0
 Multiplicity           Mult            ....    1
 Number of Electrons    NEL             ....   40
 Basis Dimension        Dim             ....  115

ORBITAL ENERGIES
----------------

  NO   OCC          E(Eh)            E(eV)
   0   2.0000     -14.015042      -381.3687
   1   2.0000      -9.926452      -270.1125
   2   2.0000      -9.915989      -269.8278
   3   2.0000      -9.905429      -269.5404
   4   2.0000      -9.846778      -267.9444
   5   2.0000      -0.817566       -22.2471
   6   2.0000      -0.687829       -18.7168
   7   2.0000      -0.626900       -17.0588
   8   2.0000      -0.557118       -15.1600
   9   2.0000      -0.493329       -13.4242
  10   2.0000      -0.456617       -12.4252
  11   2.0000      -0.418189       -11.3795
  12   2.0000      -0.381727       -10.3873
  13   2.0000      -0.356007        -9.6875
  14   2.0000      -0.335854        -9.1391
  15   2.0000      -0.327566        -8.9135
  16   2.0000      -0.298967        -8.1353
  17   2.0000      -0.286629        -7.7996
  18   2.0000      -0.271121        -7.3776
  19   2.0000      -0.143262        -3.8984
  20   0.0000       0.025302         0.6885
  21   0.0000       0.041641         1.1331
  22   0.0000       0.071350         1.9415
  23   0.0000       0.076659         2.0860
  24   0.0000       0.098376         2.6770

MULLIKEN ATOMIC CHARGES
-----------------------
   0 C :    0.114469
   1 C :    0.108974
   2 C :   -0.149367
   3 N :    0.012167
   4 C :    0.035782
   5 H :   -0.094401
   6 H :   -0.074662
   7 H :    0.081660
   8 H :    0.084343
   9 H :   -0.014690
  10 H :   -0.051004
  11 H :   -0.022070
  12 H :   -0.018937
  13 H :   -0.012265
Sum of atomic charges:   -0.0000000

LOEWDIN ATOMIC CHARGES
----------------------
   0 C :   -0.016716
   1 C :   -0.029920
   2 C :   -0.002685
   3 N :    0.007529
   4 C :   -0.157659
   5 H :   -0.012895
   6 H :   -0.003969
   7 H :    0.063956
   8 H :    0.068204
   9 H :    0.028172
  10 H :    0.009634
  11 H :    0.014264
  12 H :    0.014185
  13 H :    0.017899

  Mayer bond orders larger than 0.100000
B(  0-C ,  1-C ) :   1.1252 B(  0-C ,  2-C ) :   1.0352 B(  0-C ,  9-H ) :   0.9163
B(  0-C , 10-H ) :   0.9069 B(  1-C , 11-H ) :   0.9606 B(  1-C , 12-H ) :   0.9562
B(  1-C , 13-H ) :   0.9659 B(  2-C ,  3-N ) :   1.2835 B(  2-C ,  4-C ) :   1.8868
B(  3-N ,  7-H ) :   0.9448 B(  3-N ,  8-H ) :   0.9457 B(  4-C ,  5-H ) :   0.9252
B(  4-C ,  6-H ) :   0.9064

Dispersion correction           -0.021459751
FINAL SINGLE POINT ENERGY      -212.296013287964

DIPOLE MOMENT
-------------
                                X             Y             Z
Electronic contribution:      0.73724       2.32760      -1.94499
Nuclear contribution   :     -1.38463      -2.07457       1.55023
                        -----------------------------------------
Total Dipole Moment    :     -0.64739       0.25303      -0.39476
                        -----------------------------------------
Magnitude (a.u.)       :      0.79935
Magnitude (Debye)      :      2.03179

Rotational constants in cm-1:     0.272312     0.128195     0.101724
Rotational constants in MHz :  8163.717141  3843.180148  3049.598073

                             ****ORCA TERMINATED NORMALLY****
TOTAL RUN TIME: 0 days 0 hours 0 minutes 7 seconds 315 msec
