                         Program Version 5.0.0 -  RELEASE  -
|  1> !BLYP D3BJ RIJCOSX def2-TZVP def2/J TightSCF xyzfile
|  2>
|  3> *xyzfile 0 1 D1.xyz
|  4>
|  5> %MaxCore 64000
|  6>
|  7> %pal nprocs 18
|  8> end
|  9>
| 10> %scf
| 11>   MaxIter 150
| 12> end
| 13>
| 14>
| 15>                          ****END OF INPUT****

CARTESIAN COORDINATES (ANGSTROEM)
---------------------------------
  C      3.343500    3.354571   -3.591998
  C      2.952633    1.863077   -3.574849
  C      4.129209    0.898394   -3.418950
  H      3.733687   -0.100605   -3.237633
  H      4.719095    0.862556   -4.339005
  C      5.017344    1.315212   -2.221305
  C      4.255868    3.703851   -4.726054
  C      3.734032    4.293783   -5.800770
  N      5.515039    3.407255   -4.637185
  H      6.149187    3.601203   -5.399053
  H      5.813584    2.899504   -3.808785
  H      2.741380    4.513109   -5.824701
  H      4.287548    4.521260   -6.614341
  H      2.278938    1.735250   -2.725496
  H      2.377466    1.625787   -4.475869
  F      4.737055    0.854112   -1.122825
  O      5.928146    2.168108   -2.491365
  H      3.861246    3.597252   -2.662979
  H      2.446493    3.973461   -3.656556

 Total Charge           Charge          ....    0
 Multiplicity           Mult            ....    1
 Number of Electrons    NEL             ....   70
 Basis Dimension        Dim             ....  339

ORBITAL ENERGIES
----------------

  NO   OCC          E(Eh)            E(eV)
   0   2.0000     -24.386087      -663.5792
   1   2.0000     -18.799814      -511.5689
   2   2.0000     -13.970731      -380.1629
   3   2.0000     -10.102389      -274.9000
   4   2.0000      -9.941396      -270.5191
   5   2.0000      -9.924944      -270.0715
   6   2.0000      -9.907803      -269.6050
   7   2.0000      -9.904078      -269.5037
   8   2.0000      -9.823715      -267.3169
   9   2.0000      -1.252640       -34.0861
  10   2.0000      -0.962330       -26.1863
  11   2.0000      -0.827286       -22.5116
  12   2.0000      -0.740648       -20.1541
  13   2.0000      -0.672799       -18.3078
  14   2.0000      -0.635276       -17.2867
  15   2.0000      -0.606529       -16.5045
  16   2.0000      -0.562404       -15.3038
  17   2.0000      -0.518254       -14.1024
  18   2.0000      -0.509230       -13.8569
  19   2.0000      -0.488357       -13.2889
  20   2.0000      -0.482814       -13.1380
  21   2.0000      -0.447208       -12.1691
  22   2.0000      -0.427707       -11.6385
  23   2.0000      -0.405136       -11.0243
  24   2.0000      -0.390885       -10.6365
  25   2.0000      -0.375916       -10.2292
  26   2.0000      -0.344131        -9.3643
  27   2.0000      -0.336423        -9.1545
  28   2.0000      -0.327014        -8.8985
  29   2.0000      -0.324376        -8.8267
  30   2.0000      -0.312436        -8.5018
  31   2.0000      -0.282629        -7.6907
  32   2.0000      -0.274980        -7.4826
  33   2.0000      -0.255709        -6.9582
  34   2.0000      -0.137221        -3.7340
  35   0.0000      -0.087778        -2.3886
  36   0.0000       0.006535         0.1778
  37   0.0000       0.027269         0.7420
  38   0.0000       0.041964         1.1419
  39   0.0000       0.045249         1.2313

MULLIKEN ATOMIC CHARGES
-----------------------
   0 C :   -0.199727
   1 C :   -0.160790
   2 C :   -0.207556
   3 H :    0.100239
   4 H :    0.126623
   5 C :    0.349658
   6 C :    0.207527
   7 C :   -0.409700
   8 N :   -0.394047
   9 H :    0.183846
  10 H :    0.254205
  11 H :    0.063831
  12 H :    0.064622
  13 H :    0.086189
  14 H :    0.098567
  15 F :   -0.036072
  16 O :   -0.317682
  17 H :    0.098624
  18 H :    0.091642
Sum of atomic charges:    0.0000000

LOEWDIN ATOMIC CHARGES
----------------------
   0 C :   -0.207431
   1 C :   -0.241487
   2 C :   -0.228890
   3 H :    0.140135
   4 H :    0.152039
   5 C :   -0.505786
   6 C :   -0.376789
   7 C :   -0.292428
   8 N :    0.030748
   9 H :    0.162135
  10 H :    0.128527
  11 H :    0.098303
  12 H :    0.090375
  13 H :    0.135221
  14 H :    0.142794
  15 F :    0.404886
  16 O :    0.081445
  17 H :    0.138306
  18 H :    0.147898

  Mayer bond orders larger than 0.100000
B(  0-C ,  1-C ) :   0.9473 B(  0-C ,  6-C ) :   0.9484 B(  0-C , 17-H ) :   0.9686
B(  0-C , 18-H ) :   0.9699 B(  1-C ,  2-C ) :   0.9627 B(  1-C , 13-H ) :   0.9588
B(  1-C , 14-H ) :   0.9514 B(  2-C ,  3-H ) :   0.9468 B(  2-C ,  4-H ) :   0.9394
B(  2-C ,  5-C ) :   0.9906 B(  5-C , 15-F ) :   1.2292 B(  5-C , 16-O ) :   1.8843
B(  6-C ,  7-C ) :   1.6793 B(  6-C ,  8-N ) :   1.2500 B(  7-C ,  8-N ) :   0.1031
B(  7-C , 11-H ) :   0.9891 B(  7-C , 12-H ) :   0.9880 B(  8-N ,  9-H ) :   0.9271
B(  8-N , 10-H ) :   0.8300 B( 10-H , 16-O ) :   0.1481

Dispersion correction           -0.038462817
FINAL SINGLE POINT ENERGY      -464.489621042150

DIPOLE MOMENT
-------------
                                X             Y             Z
Electronic contribution:      5.61412      -5.91920      10.57106
Nuclear contribution   :     -5.86483       4.68058     -10.07545
                        -----------------------------------------
Total Dipole Moment    :     -0.25071      -1.23861       0.49561
                        -----------------------------------------
Magnitude (a.u.)       :      1.35744
Magnitude (Debye)      :      3.45034

Rotational constants in cm-1:     0.107256     0.035474     0.030113
Rotational constants in MHz :  3215.453922  1063.481574   902.777619

                             ****ORCA TERMINATED NORMALLY****
TOTAL RUN TIME: 0 days 0 hours 0 minutes 9 seconds 607 msec
