                         Program Version 5.0.0 -  RELEASE  -
|  1> !BLYP D3BJ RIJCOSX def2-TZVP def2/J TightSCF xyzfile
|  2>
|  3> *xyzfile 0 1 D2.xyz
|  4>
|  5> %MaxCore 64000
|  6>
|  7> %pal nprocs 18
|  8> end
|  9>
| 10> %scf
| 11>   MaxIter 150
| 12> end
| 13>
| 14>
| 15>                          ****END OF INPUT****

CARTESIAN COORDINATES (ANGSTROEM)
---------------------------------
  C      3.343500    3.354571   -3.591998
  C      2.952633    1.863077   -3.574849
  C      4.129209    0.898394   -3.418950
  H      3.733687   -0.100605   -3.237633
  H      4.719095    0.862556   -4.339005
  C      5.017344    1.315212   -2.221305
  C      4.255868    3.703851   -4.726054
  N      3.734032    4.293783   -5.800770
  C      5.515039    3.407255   -4.637185
  H      6.149187    3.601203   -5.399053
  H      5.813584    2.899504   -3.808785
  H      2.741380    4.513109   -5.824701
  H      4.287548    4.521260   -6.614341
  H      2.278938    1.735250   -2.725496
  H      2.377466    1.625787   -4.475869
  F      4.737055    0.854112   -1.122825
  O      5.928146    2.168108   -2.491365
  H      3.861246    3.597252   -2.662979
  H      2.446493    3.973461   -3.656556

 Total Charge           Charge          ....    0
 Multiplicity           Mult            ....    1
 Number of Electrons    NEL             ....   70
 Basis Dimension        Dim             ....  339

ORBITAL ENERGIES
----------------

  NO   OCC          E(Eh)            E(eV)
   0   2.0000     -24.366559      -663.0478
   1   2.0000     -18.772743      -510.8323
   2   2.0000     -13.994197      -380.8015
   3   2.0000     -10.079434      -274.2753
   4   2.0000      -9.928059      -270.1562
   5   2.0000      -9.920831      -269.9595
   6   2.0000      -9.903762      -269.4951
   7   2.0000      -9.903612      -269.4910
   8   2.0000      -9.801952      -266.7247
   9   2.0000      -1.233775       -33.5727
  10   2.0000      -0.936312       -25.4783
  11   2.0000      -0.825928       -22.4746
  12   2.0000      -0.733843       -19.9689
  13   2.0000      -0.670272       -18.2390
  14   2.0000      -0.624835       -17.0026
  15   2.0000      -0.604934       -16.4611
  16   2.0000      -0.552251       -15.0275
  17   2.0000      -0.507530       -13.8106
  18   2.0000      -0.495909       -13.4944
  19   2.0000      -0.478243       -13.0137
  20   2.0000      -0.468504       -12.7486
  21   2.0000      -0.439937       -11.9713
  22   2.0000      -0.421643       -11.4735
  23   2.0000      -0.409243       -11.1361
  24   2.0000      -0.391570       -10.6552
  25   2.0000      -0.361432        -9.8351
  26   2.0000      -0.341322        -9.2878
  27   2.0000      -0.339511        -9.2386
  28   2.0000      -0.314927        -8.5696
  29   2.0000      -0.307142        -8.3578
  30   2.0000      -0.301056        -8.1921
  31   2.0000      -0.278300        -7.5729
  32   2.0000      -0.271563        -7.3896
  33   2.0000      -0.216362        -5.8875
  34   2.0000      -0.141726        -3.8566
  35   0.0000      -0.067620        -1.8400
  36   0.0000       0.004254         0.1158
  37   0.0000       0.024140         0.6569
  38   0.0000       0.033333         0.9070
  39   0.0000       0.047891         1.3032

MULLIKEN ATOMIC CHARGES
-----------------------
   0 C :   -0.199217
   1 C :   -0.165529
   2 C :   -0.192052
   3 H :    0.090338
   4 H :    0.128841
   5 C :    0.314401
   6 C :    0.251527
   7 N :   -0.418225
   8 C :   -0.471174
   9 H :    0.050733
  10 H :    0.186766
  11 H :    0.192239
  12 H :    0.199848
  13 H :    0.087066
  14 H :    0.087623
  15 F :   -0.043678
  16 O :   -0.282629
  17 H :    0.118843
  18 H :    0.064280
Sum of atomic charges:    0.0000000

LOEWDIN ATOMIC CHARGES
----------------------
   0 C :   -0.209467
   1 C :   -0.242857
   2 C :   -0.229095
   3 H :    0.137183
   4 H :    0.153308
   5 C :   -0.519807
   6 C :   -0.374860
   7 N :   -0.006102
   8 C :   -0.253271
   9 H :    0.092134
  10 H :    0.086834
  11 H :    0.158081
  12 H :    0.161752
  13 H :    0.134787
  14 H :    0.138170
  15 F :    0.394763
  16 O :    0.096274
  17 H :    0.149511
  18 H :    0.132662

  Mayer bond orders larger than 0.100000
B(  0-C ,  1-C ) :   0.9468 B(  0-C ,  6-C ) :   0.9434 B(  0-C , 17-H ) :   0.9839
B(  0-C , 18-H ) :   0.9643 B(  1-C ,  2-C ) :   0.9708 B(  1-C , 13-H ) :   0.9629
B(  1-C , 14-H ) :   0.9510 B(  2-C ,  3-H ) :   0.9458 B(  2-C ,  4-H ) :   0.9404
B(  2-C ,  5-C ) :   0.9907 B(  5-C , 15-F ) :   1.2109 B(  5-C , 16-O ) :   1.9527
B(  6-C ,  7-N ) :   1.1217 B(  6-C ,  8-C ) :   1.7062 B(  7-N , 11-H ) :   0.9309
B(  7-N , 12-H ) :   0.9258 B(  8-C ,  9-H ) :   0.9823 B(  8-C , 10-H ) :   0.9497
B( 10-H , 16-O ) :   0.1086

Dispersion correction           -0.038743619
FINAL SINGLE POINT ENERGY      -464.464458870078

DIPOLE MOMENT
-------------
                                X             Y             Z
Electronic contribution:      4.32736      -5.06712       9.53786
Nuclear contribution   :     -5.64491       4.57111      -9.93176
                        -----------------------------------------
Total Dipole Moment    :     -1.31755      -0.49601      -0.39390
                        -----------------------------------------
Magnitude (a.u.)       :      1.46189
Magnitude (Debye)      :      3.71582

Rotational constants in cm-1:     0.109825     0.034347     0.029470
Rotational constants in MHz :  3292.465653  1029.684117   883.494260

                             ****ORCA TERMINATED NORMALLY****
TOTAL RUN TIME: 0 days 0 hours 0 minutes 11 seconds 306 msec
