                         Program Version 5.0.0 -  RELEASE  -
|  1> !BLYP D3BJ RIJCOSX def2-TZVP def2/J TightSCF xyzfile
|  2>
|  3> *xyzfile 0 1 D3.xyz
|  4>
|  5> %MaxCore 64000
|  6>
|  7> %pal nprocs 18
|  8> end
|  9>
| 10> %scf
| 11>   MaxIter 150
| 12> end
| 13>
| 14>
| 15>                          ****END OF INPUT****

CARTESIAN COORDINATES (ANGSTROEM)
---------------------------------
  C      3.343500    3.354571   -3.591998
  C      2.952633    1.863077   -3.574849
  C      4.129209    0.898394   -3.418950
  H      3.733687   -0.100605   -3.237633
  H      4.719095    0.862556   -4.339005
  C      5.017344    1.315212   -2.221305
  C      4.255868    3.703851   -4.726054
  C      3.734032    4.293783   -5.800770
  N      5.515039    3.407255   -4.637185
  H      6.149187    3.601203   -5.399053
  H      5.813584    2.899504   -3.808785
  H      2.741380    4.513109   -5.824701
  H      4.287548    4.521260   -6.614341
  H      2.278938    1.735250   -2.725496
  H      2.377466    1.625787   -4.475869
  O      4.737055    0.854112   -1.122825
  F      5.928146    2.168108   -2.491365
  H      3.861246    3.597252   -2.662979
  H      2.446493    3.973461   -3.656556

 Total Charge           Charge          ....    0
 Multiplicity           Mult            ....    1
 Number of Electrons    NEL             ....   70
 Basis Dimension        Dim             ....  339

ORBITAL ENERGIES
----------------

  NO   OCC          E(Eh)            E(eV)
   0   2.0000     -24.375151      -663.2816
   1   2.0000     -18.796744      -511.4854
   2   2.0000     -13.996743      -380.8707
   3   2.0000     -10.088237      -274.5149
   4   2.0000      -9.937926      -270.4247
   5   2.0000      -9.924089      -270.0482
   6   2.0000      -9.921102      -269.9669
   7   2.0000      -9.912724      -269.7389
   8   2.0000      -9.836669      -267.6694
   9   2.0000      -1.229048       -33.4441
  10   2.0000      -0.973039       -26.4777
  11   2.0000      -0.848811       -23.0973
  12   2.0000      -0.741058       -20.1652
  13   2.0000      -0.678636       -18.4666
  14   2.0000      -0.643430       -17.5086
  15   2.0000      -0.607597       -16.5335
  16   2.0000      -0.570896       -15.5349
  17   2.0000      -0.521832       -14.1998
  18   2.0000      -0.506636       -13.7863
  19   2.0000      -0.489240       -13.3129
  20   2.0000      -0.466816       -12.7027
  21   2.0000      -0.446548       -12.1512
  22   2.0000      -0.428289       -11.6543
  23   2.0000      -0.415531       -11.3072
  24   2.0000      -0.394756       -10.7418
  25   2.0000      -0.370724       -10.0879
  26   2.0000      -0.352934        -9.6038
  27   2.0000      -0.346377        -9.4254
  28   2.0000      -0.337263        -9.1774
  29   2.0000      -0.329527        -8.9669
  30   2.0000      -0.316065        -8.6006
  31   2.0000      -0.291066        -7.9203
  32   2.0000      -0.287735        -7.8297
  33   2.0000      -0.257801        -7.0151
  34   2.0000      -0.152432        -4.1479
  35   0.0000      -0.074151        -2.0177
  36   0.0000       0.005803         0.1579
  37   0.0000       0.017880         0.4865
  38   0.0000       0.034922         0.9503
  39   0.0000       0.043349         1.1796

MULLIKEN ATOMIC CHARGES
-----------------------
   0 C :   -0.220609
   1 C :   -0.136094
   2 C :   -0.209869
   3 H :    0.110004
   4 H :    0.114878
   5 C :    0.308057
   6 C :    0.213966
   7 C :   -0.399907
   8 N :   -0.397257
   9 H :    0.195611
  10 H :    0.232841
  11 H :    0.070680
  12 H :    0.069033
  13 H :    0.093467
  14 H :    0.092851
  15 O :   -0.233770
  16 F :   -0.101465
  17 H :    0.100766
  18 H :    0.096819
Sum of atomic charges:    0.0000000

LOEWDIN ATOMIC CHARGES
----------------------
   0 C :   -0.207013
   1 C :   -0.239024
   2 C :   -0.229519
   3 H :    0.149395
   4 H :    0.141392
   5 C :   -0.520059
   6 C :   -0.376745
   7 C :   -0.278440
   8 N :    0.024905
   9 H :    0.167091
  10 H :    0.137942
  11 H :    0.101201
  12 H :    0.091769
  13 H :    0.140111
  14 H :    0.140960
  15 O :    0.140015
  16 F :    0.328592
  17 H :    0.137547
  18 H :    0.149881

  Mayer bond orders larger than 0.100000
B(  0-C ,  1-C ) :   0.9559 B(  0-C ,  6-C ) :   0.9444 B(  0-C , 17-H ) :   0.9712
B(  0-C , 18-H ) :   0.9713 B(  1-C ,  2-C ) :   0.9704 B(  1-C , 13-H ) :   0.9537
B(  1-C , 14-H ) :   0.9495 B(  2-C ,  3-H ) :   0.9545 B(  2-C ,  4-H ) :   0.9288
B(  2-C ,  5-C ) :   0.9751 B(  5-C , 15-O ) :   2.1476 B(  5-C , 16-F ) :   1.0501
B(  6-C ,  7-C ) :   1.6936 B(  6-C ,  8-N ) :   1.2163 B(  7-C , 11-H ) :   0.9901
B(  7-C , 12-H ) :   0.9874 B(  8-N ,  9-H ) :   0.9240 B(  8-N , 10-H ) :   0.8808

Dispersion correction           -0.038080121
FINAL SINGLE POINT ENERGY      -464.494694289193

DIPOLE MOMENT
-------------
                                X             Y             Z
Electronic contribution:      7.50692      -3.58403       8.09614
Nuclear contribution   :     -7.21688       3.18902      -8.52197
                        -----------------------------------------
Total Dipole Moment    :      0.29004      -0.39500      -0.42584
                        -----------------------------------------
Magnitude (a.u.)       :      0.64922
Magnitude (Debye)      :      1.65019

Rotational constants in cm-1:     0.103917     0.036987     0.030872
Rotational constants in MHz :  3115.342573  1108.839114   925.506342

                             ****ORCA TERMINATED NORMALLY****
TOTAL RUN TIME: 0 days 0 hours 0 minutes 11 seconds 262 msec
