                         Program Version 5.0.0 -  RELEASE  -
|  1> !LC-PBE RIJCOSX def2-SVPD def2/J TightSCF
|  2> *xyz -1 1
|  3> C         -0.81136       -2.90878       -4.60763
|  4> C         -1.91658       -2.48508       -3.64367
|  5> H         -2.55452       -1.71243       -4.09199
|  6> C         -1.36353       -1.98134       -2.29361
|  7> H         -2.55345       -3.35567       -3.45881
|  8> O         -0.35039       -2.74969       -1.79601
|  9> H         -2.22622       -1.90839       -1.60204
| 10> H         -1.05135       -0.91567       -2.44333
| 11> H         -1.24783       -3.24801       -5.52377
| 12> H         -0.24047       -3.70079       -4.16978
| 13> H         -0.17107       -2.07453       -4.80501
| 14> *
| 15>
| 16> %MaxCore 64000
| 17> %pal nprocs 4
| 18> end
| 19>
| 20> %scf
| 21>   MaxIter 150
| 22> end
| 23>
| 24>
| 25>                          ****END OF INPUT****

CARTESIAN COORDINATES (ANGSTROEM)
---------------------------------
  C     -0.811360   -2.908780   -4.607630
  C     -1.916580   -2.485080   -3.643670
  H     -2.554520   -1.712430   -4.091990
  C     -1.363530   -1.981340   -2.293610
  H     -2.553450   -3.355670   -3.458810
  O     -0.350390   -2.749690   -1.796010
  H     -2.226220   -1.908390   -1.602040
  H     -1.051350   -0.915670   -2.443330
  H     -1.247830   -3.248010   -5.523770
  H     -0.240470   -3.700790   -4.169780
  H     -0.171070   -2.074530   -4.805010

 Total Charge           Charge          ....   -1
 Multiplicity           Mult            ....    1
 Number of Electrons    NEL             ....   34
 Basis Dimension        Dim             ....  139

ORBITAL ENERGIES
----------------

  NO   OCC          E(Eh)            E(eV)
   0   2.0000     -18.652364      -507.5566
   1   2.0000      -9.942104      -270.5384
   2   2.0000      -9.938841      -270.4496
   3   2.0000      -9.935670      -270.3633
   4   2.0000      -0.842126       -22.9154
   5   2.0000      -0.747374       -20.3371
   6   2.0000      -0.625787       -17.0285
   7   2.0000      -0.511365       -13.9150
   8   2.0000      -0.420463       -11.4414
   9   2.0000      -0.408467       -11.1150
  10   2.0000      -0.350980        -9.5507
  11   2.0000      -0.321876        -8.7587
  12   2.0000      -0.292839        -7.9686
  13   2.0000      -0.277868        -7.5612
  14   2.0000      -0.243270        -6.6197
  15   2.0000      -0.098076        -2.6688
  16   2.0000      -0.093116        -2.5338
  17   0.0000       0.232407         6.3241
  18   0.0000       0.256432         6.9779
  19   0.0000       0.275353         7.4927
  20   0.0000       0.304752         8.2927
  21   0.0000       0.326150         8.8750

MULLIKEN ATOMIC CHARGES
-----------------------
   0 C :    0.406187
   1 C :   -0.582285
   2 H :   -0.033134
   3 C :    0.222248
   4 H :    0.000198
   5 O :   -0.843097
   6 H :   -0.094888
   7 H :   -0.049303
   8 H :   -0.039757
   9 H :    0.038067
  10 H :   -0.024234
Sum of atomic charges:   -1.0000000

LOEWDIN ATOMIC CHARGES
----------------------
   0 C :    0.051869
   1 C :   -0.139927
   2 H :    0.003209
   3 C :   -0.250155
   4 H :    0.010130
   5 O :   -0.566879
   6 H :   -0.018455
   7 H :   -0.011407
   8 H :   -0.037437
   9 H :   -0.023532
  10 H :   -0.017418

  Mayer bond orders larger than 0.100000
B(  0-C ,  1-C ) :   1.2801 B(  0-C ,  8-H ) :   0.8371 B(  0-C ,  9-H ) :   0.8521
B(  0-C , 10-H ) :   0.8588 B(  1-C ,  2-H ) :   1.0074 B(  1-C ,  3-C ) :   1.0706
B(  1-C ,  4-H ) :   0.9734 B(  1-C ,  6-H ) :   0.1071 B(  1-C ,  7-H ) :   0.1060
B(  1-C ,  8-H ) :   0.1626 B(  1-C ,  9-H ) :   0.1688 B(  1-C , 10-H ) :   0.1652
B(  3-C ,  5-O ) :   1.3176 B(  3-C ,  6-H ) :   0.9770 B(  3-C ,  7-H ) :   0.9621

FINAL SINGLE POINT ENERGY      -192.998489638429

DIPOLE MOMENT
-------------
                                X             Y             Z
Electronic contribution:      1.14787      -0.48103       2.43894
Nuclear contribution   :     -2.20255       0.75707      -4.26861
                        -----------------------------------------
Total Dipole Moment    :     -1.05469       0.27604      -1.82967
                        -----------------------------------------
Magnitude (a.u.)       :      2.12985
Magnitude (Debye)      :      5.41365

Rotational constants in cm-1:     0.480704     0.187939     0.150770
Rotational constants in MHz : 14411.155440  5634.276828  4519.982802

                             ****ORCA TERMINATED NORMALLY****
TOTAL RUN TIME: 0 days 0 hours 0 minutes 10 seconds 918 msec
