                         Program Version 5.0.0 -  RELEASE  -
|  1> !LC-PBE RIJCOSX def2-SVPD def2/J TightSCF
|  2> *xyz 1 1
|  3> C          1.64703       -2.34528       -5.02041
|  4> C          0.21763       -1.81402       -4.92439
|  5> C          2.20996       -2.81239       -3.66571
|  6> H          2.30838       -1.58870       -5.45713
|  7> H          1.67429       -3.20348       -5.69739
|  8> C          2.48901       -1.66851       -2.73754
|  9> N          3.59631       -0.94761       -2.95225
| 10> N          1.66394       -1.41369       -1.77781
| 11> H          0.81164       -1.96318       -1.70275
| 12> H          1.84550       -0.63508       -1.15875
| 13> H          4.20535       -1.17600       -3.73383
| 14> H          3.81723       -0.12585       -2.40604
| 15> H          3.14311       -3.36280       -3.81152
| 16> H          1.48768       -3.45893       -3.16521
| 17> H         -0.11459       -1.50684       -5.89401
| 18> H          0.19193       -0.97796       -4.25713
| 19> H         -0.42543       -2.58523       -4.55479
| 20> *
| 21>
| 22> %MaxCore 64000
| 23> %pal nprocs 4
| 24> end
| 25>
| 26> %scf
| 27>   MaxIter 150
| 28> end
| 29>
| 30>
| 31>                          ****END OF INPUT****

CARTESIAN COORDINATES (ANGSTROEM)
---------------------------------
  C      1.647030   -2.345280   -5.020410
  C      0.217630   -1.814020   -4.924390
  C      2.209960   -2.812390   -3.665710
  H      2.308380   -1.588700   -5.457130
  H      1.674290   -3.203480   -5.697390
  C      2.489010   -1.668510   -2.737540
  N      3.596310   -0.947610   -2.952250
  N      1.663940   -1.413690   -1.777810
  H      0.811640   -1.963180   -1.702750
  H      1.845500   -0.635080   -1.158750
  H      4.205350   -1.176000   -3.733830
  H      3.817230   -0.125850   -2.406040
  H      3.143110   -3.362800   -3.811520
  H      1.487680   -3.458930   -3.165210
  H     -0.114590   -1.506840   -5.894010
  H      0.191930   -0.977960   -4.257130
  H     -0.425430   -2.585230   -4.554790

 Total Charge           Charge          ....    1
 Multiplicity           Mult            ....    1
 Number of Electrons    NEL             ....   48
 Basis Dimension        Dim             ....  208

ORBITAL ENERGIES
----------------

  NO   OCC          E(Eh)            E(eV)
   0   2.0000     -14.479830      -394.0162
   1   2.0000     -14.469547      -393.7364
   2   2.0000     -10.456959      -284.5483
   3   2.0000     -10.322381      -280.8863
   4   2.0000     -10.290130      -280.0087
   5   2.0000     -10.252473      -278.9840
   6   2.0000      -1.374697       -37.4074
   7   2.0000      -1.268642       -34.5215
   8   2.0000      -1.146871       -31.2080
   9   2.0000      -1.052369       -28.6364
  10   2.0000      -0.987765       -26.8785
  11   2.0000      -0.941475       -25.6189
  12   2.0000      -0.919078       -25.0094
  13   2.0000      -0.885234       -24.0884
  14   2.0000      -0.842977       -22.9386
  15   2.0000      -0.804496       -21.8915
  16   2.0000      -0.769211       -20.9313
  17   2.0000      -0.740856       -20.1597
  18   2.0000      -0.711156       -19.3515
  19   2.0000      -0.697418       -18.9777
  20   2.0000      -0.636995       -17.3335
  21   2.0000      -0.630459       -17.1556
  22   2.0000      -0.626204       -17.0399
  23   2.0000      -0.613934       -16.7060
  24   0.0000      -0.115122        -3.1326
  25   0.0000      -0.075339        -2.0501
  26   0.0000      -0.037679        -1.0253
  27   0.0000      -0.032506        -0.8845
  28   0.0000      -0.009757        -0.2655

MULLIKEN ATOMIC CHARGES
-----------------------
   0 C :   -0.406797
   1 C :    0.493107
   2 C :   -0.174577
   3 H :    0.049449
   4 H :    0.051303
   5 C :    0.667675
   6 N :   -0.057467
   7 N :   -0.018642
   8 H :    0.133159
   9 H :   -0.032577
  10 H :    0.092518
  11 H :   -0.072034
  12 H :    0.073620
  13 H :    0.130555
  14 H :    0.030142
  15 H :   -0.049089
  16 H :    0.089655
Sum of atomic charges:    1.0000000

LOEWDIN ATOMIC CHARGES
----------------------
   0 C :   -0.066421
   1 C :    0.108457
   2 C :    0.020444
   3 H :    0.037746
   4 H :    0.050445
   5 C :   -0.048626
   6 N :    0.266688
   7 N :    0.276032
   8 H :    0.069154
   9 H :    0.063938
  10 H :    0.059771
  11 H :    0.051019
  12 H :    0.059419
  13 H :    0.048828
  14 H :    0.010942
  15 H :   -0.012829
  16 H :    0.004993

  Mayer bond orders larger than 0.100000
B(  0-C ,  1-C ) :   1.3293 B(  0-C ,  2-C ) :   1.1719 B(  0-C ,  3-H ) :   0.9260
B(  0-C ,  4-H ) :   0.9912 B(  0-C , 13-H ) :   0.1041 B(  0-C , 14-H ) :   0.1655
B(  0-C , 15-H ) :   0.1808 B(  0-C , 16-H ) :   0.1575 B(  1-C , 14-H ) :   0.8419
B(  1-C , 15-H ) :   0.8511 B(  1-C , 16-H ) :   0.8141 B(  2-C ,  3-H ) :   0.1048
B(  2-C ,  5-C ) :   1.0990 B(  2-C ,  6-N ) :   0.1079 B(  2-C ,  7-N ) :   0.1034
B(  2-C , 12-H ) :   0.9388 B(  2-C , 13-H ) :   0.8603 B(  5-C ,  6-N ) :   1.0901
B(  5-C ,  7-N ) :   1.1420 B(  5-C ,  9-H ) :  -0.1491 B(  5-C , 11-H ) :  -0.1447
B(  6-N ,  7-N ) :   0.1489 B(  6-N , 10-H ) :   1.0762 B(  6-N , 11-H ) :   1.2735
B(  7-N ,  8-H ) :   1.0445 B(  7-N ,  9-H ) :   1.2663 B(  8-H ,  9-H ) :  -0.1562
B( 10-H , 11-H ) :  -0.1647

FINAL SINGLE POINT ENERGY      -267.286999790408

DIPOLE MOMENT
-------------
                                X             Y             Z
Electronic contribution:      3.27275       1.27633       4.38531
Nuclear contribution   :     -2.54148      -0.64126      -3.14660
                        -----------------------------------------
Total Dipole Moment    :      0.73127       0.63507       1.23871
                        -----------------------------------------
Magnitude (a.u.)       :      1.57241
Magnitude (Debye)      :      3.99675

Rotational constants in cm-1:     0.179759     0.078784     0.067518
Rotational constants in MHz :  5389.046501  2361.884510  2024.132984

                             ****ORCA TERMINATED NORMALLY****
TOTAL RUN TIME: 0 days 0 hours 0 minutes 25 seconds 575 msec
