                         Program Version 5.0.0 -  RELEASE  -
|  1> !LC-PBE RIJCOSX def2-SVPD def2/J TightSCF
|  2> *xyz 0 1
|  3> C         -0.81136       -2.90878       -4.60763
|  4> C         -1.91658       -2.48508       -3.64367
|  5> H         -2.55452       -1.71243       -4.09199
|  6> C         -1.36353       -1.98134       -2.29361
|  7> H         -2.55345       -3.35567       -3.45881
|  8> F         -0.35039       -2.74969       -1.79601
|  9> H         -2.22622       -1.90839       -1.60204
| 10> H         -1.05135       -0.91567       -2.44333
| 11> H         -1.24783       -3.24801       -5.52377
| 12> H         -0.24047       -3.70079       -4.16978
| 13> H         -0.17107       -2.07453       -4.80501
| 14> *
| 15>
| 16> %MaxCore 64000
| 17> %pal nprocs 4
| 18> end
| 19>
| 20> %scf
| 21>   MaxIter 150
| 22> end
| 23>
| 24>
| 25>                          ****END OF INPUT****

CARTESIAN COORDINATES (ANGSTROEM)
---------------------------------
  C     -0.811360   -2.908780   -4.607630
  C     -1.916580   -2.485080   -3.643670
  H     -2.554520   -1.712430   -4.091990
  C     -1.363530   -1.981340   -2.293610
  H     -2.553450   -3.355670   -3.458810
  F     -0.350390   -2.749690   -1.796010
  H     -2.226220   -1.908390   -1.602040
  H     -1.051350   -0.915670   -2.443330
  H     -1.247830   -3.248010   -5.523770
  H     -0.240470   -3.700790   -4.169780
  H     -0.171070   -2.074530   -4.805010

 Total Charge           Charge          ....    0
 Multiplicity           Mult            ....    1
 Number of Electrons    NEL             ....   34
 Basis Dimension        Dim             ....  139

ORBITAL ENERGIES
----------------

  NO   OCC          E(Eh)            E(eV)
   0   2.0000     -24.497018      -666.5978
   1   2.0000     -10.207841      -277.7695
   2   2.0000     -10.135125      -275.7908
   3   2.0000     -10.111921      -275.1594
   4   2.0000      -1.343799       -36.5666
   5   2.0000      -0.961510       -26.1640
   6   2.0000      -0.853743       -23.2315
   7   2.0000      -0.750873       -20.4323
   8   2.0000      -0.661235       -17.9931
   9   2.0000      -0.648588       -17.6490
  10   2.0000      -0.624073       -16.9819
  11   2.0000      -0.580769       -15.8035
  12   2.0000      -0.538475       -14.6527
  13   2.0000      -0.510765       -13.8986
  14   2.0000      -0.488335       -13.2883
  15   2.0000      -0.458900       -12.4873
  16   2.0000      -0.450856       -12.2684
  17   0.0000       0.090441         2.4610
  18   0.0000       0.115299         3.1374
  19   0.0000       0.125583         3.4173
  20   0.0000       0.147649         4.0177
  21   0.0000       0.170320         4.6346

MULLIKEN ATOMIC CHARGES
-----------------------
   0 C :    0.383324
   1 C :   -0.617444
   2 H :    0.013137
   3 C :    0.492519
   4 H :    0.027134
   5 F :   -0.414626
   6 H :    0.012158
   7 H :    0.056947
   8 H :   -0.000285
   9 H :    0.046083
  10 H :    0.001052
Sum of atomic charges:   -0.0000000

LOEWDIN ATOMIC CHARGES
----------------------
   0 C :    0.086149
   1 C :   -0.092462
   2 H :    0.038260
   3 C :    0.065821
   4 H :    0.031040
   5 F :   -0.201803
   6 H :    0.040770
   7 H :    0.049592
   8 H :   -0.007639
   9 H :   -0.006419
  10 H :   -0.003308

  Mayer bond orders larger than 0.100000
B(  0-C ,  1-C ) :   1.2952 B(  0-C ,  8-H ) :   0.8639 B(  0-C ,  9-H ) :   0.8580
B(  0-C , 10-H ) :   0.8644 B(  1-C ,  2-H ) :   0.9919 B(  1-C ,  3-C ) :   1.1862
B(  1-C ,  4-H ) :   0.9744 B(  1-C ,  8-H ) :   0.1499 B(  1-C ,  9-H ) :   0.1379
B(  1-C , 10-H ) :   0.1485 B(  3-C ,  5-F ) :   0.8047 B(  3-C ,  6-H ) :   0.9494
B(  3-C ,  7-H ) :   0.9220

FINAL SINGLE POINT ENERGY      -217.585449401788

DIPOLE MOMENT
-------------
                                X             Y             Z
Electronic contribution:      2.55353      -0.67008       5.46515
Nuclear contribution   :     -3.10989       1.02097      -5.82098
                        -----------------------------------------
Total Dipole Moment    :     -0.55636       0.35089      -0.35583
                        -----------------------------------------
Magnitude (a.u.)       :      0.74785
Magnitude (Debye)      :      1.90087

Rotational constants in cm-1:     0.466172     0.177379     0.142652
Rotational constants in MHz : 13975.492374  5317.681709  4276.599690

                             ****ORCA TERMINATED NORMALLY****
TOTAL RUN TIME: 0 days 0 hours 0 minutes 9 seconds 259 msec
