                         Program Version 5.0.0 -  RELEASE  -
|  1> !LC-PBE RIJCOSX def2-SVPD def2/J TightSCF
|  2> *xyz 0 1
|  3> C          1.64703       -2.34528       -5.02041
|  4> C          0.21763       -1.81402       -4.92439
|  5> C          2.20996       -2.81239       -3.66571
|  6> H          2.30838       -1.58870       -5.45713
|  7> H          1.67429       -3.20348       -5.69739
|  8> C          2.48901       -1.66851       -2.73754
|  9> C          3.59631       -0.94761       -2.95225
| 10> N          1.66394       -1.41369       -1.77781
| 11> H          0.81164       -1.96318       -1.70275
| 12> H          1.84550       -0.63508       -1.15875
| 13> H          4.20535       -1.17600       -3.73383
| 14> H          3.81723       -0.12585       -2.40604
| 15> H          3.14311       -3.36280       -3.81152
| 16> H          1.48768       -3.45893       -3.16521
| 17> H         -0.11459       -1.50684       -5.89401
| 18> H          0.19193       -0.97796       -4.25713
| 19> H         -0.42543       -2.58523       -4.55479
| 20> *
| 21>
| 22> %MaxCore 64000
| 23> %pal nprocs 4
| 24> end
| 25>
| 26> %scf
| 27>   MaxIter 150
| 28> end
| 29>
| 30>
| 31>                          ****END OF INPUT****

CARTESIAN COORDINATES (ANGSTROEM)
---------------------------------
  C      1.647030   -2.345280   -5.020410
  C      0.217630   -1.814020   -4.924390
  C      2.209960   -2.812390   -3.665710
  H      2.308380   -1.588700   -5.457130
  H      1.674290   -3.203480   -5.697390
  C      2.489010   -1.668510   -2.737540
  C      3.596310   -0.947610   -2.952250
  N      1.663940   -1.413690   -1.777810
  H      0.811640   -1.963180   -1.702750
  H      1.845500   -0.635080   -1.158750
  H      4.205350   -1.176000   -3.733830
  H      3.817230   -0.125850   -2.406040
  H      3.143110   -3.362800   -3.811520
  H      1.487680   -3.458930   -3.165210
  H     -0.114590   -1.506840   -5.894010
  H      0.191930   -0.977960   -4.257130
  H     -0.425430   -2.585230   -4.554790

 Total Charge           Charge          ....    0
 Multiplicity           Mult            ....    1
 Number of Electrons    NEL             ....   48
 Basis Dimension        Dim             ....  208

ORBITAL ENERGIES
----------------

  NO   OCC          E(Eh)            E(eV)
   0   2.0000     -14.233869      -387.3233
   1   2.0000     -10.153189      -276.2823
   2   2.0000     -10.125958      -275.5413
   3   2.0000     -10.123672      -275.4791
   4   2.0000     -10.108177      -275.0575
   5   2.0000     -10.055556      -273.6256
   6   2.0000      -1.107461       -30.1355
   7   2.0000      -0.967141       -26.3172
   8   2.0000      -0.896297       -24.3895
   9   2.0000      -0.842153       -22.9162
  10   2.0000      -0.764566       -20.8049
  11   2.0000      -0.713061       -19.4034
  12   2.0000      -0.676430       -18.4066
  13   2.0000      -0.633478       -17.2378
  14   2.0000      -0.600166       -16.3313
  15   2.0000      -0.572183       -15.5699
  16   2.0000      -0.543166       -14.7803
  17   2.0000      -0.526557       -14.3284
  18   2.0000      -0.511962       -13.9312
  19   2.0000      -0.491427       -13.3724
  20   2.0000      -0.467881       -12.7317
  21   2.0000      -0.459570       -12.5055
  22   2.0000      -0.451442       -12.2844
  23   2.0000      -0.302792        -8.2394
  24   0.0000       0.088447         2.4068
  25   0.0000       0.113771         3.0959
  26   0.0000       0.116309         3.1649
  27   0.0000       0.119291         3.2461
  28   0.0000       0.142643         3.8815

MULLIKEN ATOMIC CHARGES
-----------------------
   0 C :   -0.461253
   1 C :    0.476530
   2 C :    0.073897
   3 H :    0.038113
   4 H :   -0.002719
   5 C :   -0.096206
   6 C :    0.295669
   7 N :    0.110049
   8 H :    0.007615
   9 H :   -0.083315
  10 H :   -0.099070
  11 H :   -0.416696
  12 H :    0.101959
  13 H :    0.017821
  14 H :   -0.005554
  15 H :   -0.031521
  16 H :    0.074680
Sum of atomic charges:    0.0000000

LOEWDIN ATOMIC CHARGES
----------------------
   0 C :   -0.085990
   1 C :    0.088513
   2 C :   -0.018558
   3 H :    0.031590
   4 H :    0.027964
   5 C :   -0.272997
   6 C :    0.145334
   7 N :    0.156487
   8 H :    0.018611
   9 H :    0.025571
  10 H :   -0.069972
  11 H :   -0.081019
  12 H :    0.039953
  13 H :    0.024894
  14 H :   -0.008577
  15 H :   -0.013249
  16 H :   -0.008555

  Mayer bond orders larger than 0.100000
B(  0-C ,  1-C ) :   1.3114 B(  0-C ,  2-C ) :   1.1804 B(  0-C ,  3-H ) :   0.9603
B(  0-C ,  4-H ) :   0.9974 B(  0-C , 13-H ) :   0.1260 B(  0-C , 14-H ) :   0.1732
B(  0-C , 15-H ) :   0.1858 B(  0-C , 16-H ) :   0.1653 B(  1-C , 14-H ) :   0.8322
B(  1-C , 15-H ) :   0.8642 B(  1-C , 16-H ) :   0.8133 B(  2-C ,  3-H ) :   0.1245
B(  2-C ,  5-C ) :   1.0829 B(  2-C ,  6-C ) :   0.1797 B(  2-C ,  7-N ) :   0.1196
B(  2-C , 12-H ) :   0.8807 B(  2-C , 13-H ) :   0.7942 B(  5-C ,  6-C ) :   1.8400
B(  5-C ,  7-N ) :   1.1740 B(  5-C , 11-H ) :   0.1640 B(  5-C , 13-H ) :   0.1623
B(  6-C ,  7-N ) :   0.2505 B(  6-C , 10-H ) :   0.8695 B(  6-C , 11-H ) :   0.8250
B(  7-N ,  8-H ) :   1.0491 B(  7-N ,  9-H ) :   1.2188 B(  8-H ,  9-H ) :  -0.1443

FINAL SINGLE POINT ENERGY      -250.843246389349

DIPOLE MOMENT
-------------
                                X             Y             Z
Electronic contribution:      1.43712       0.27202       3.28215
Nuclear contribution   :     -2.15663      -0.43764      -3.01766
                        -----------------------------------------
Total Dipole Moment    :     -0.71951      -0.16561       0.26449
                        -----------------------------------------
Magnitude (a.u.)       :      0.78427
Magnitude (Debye)      :      1.99346

Rotational constants in cm-1:     0.184410     0.080989     0.069427
Rotational constants in MHz :  5528.462717  2427.993314  2081.376031

                             ****ORCA TERMINATED NORMALLY****
TOTAL RUN TIME: 0 days 0 hours 0 minutes 26 seconds 853 msec
