                         Program Version 5.0.0 -  RELEASE  -
|  1> !LC-PBE RIJCOSX def2-SVPD def2/J TightSCF
|  2> *xyz 0 1
|  3> C          1.64703       -2.34528       -5.02041
|  4> C          0.21763       -1.81402       -4.92439
|  5> C          2.20996       -2.81239       -3.66571
|  6> H          2.30838       -1.58870       -5.45713
|  7> H          1.67429       -3.20348       -5.69739
|  8> C          2.48901       -1.66851       -2.73754
|  9> N          3.59631       -0.94761       -2.95225
| 10> C          1.66394       -1.41369       -1.77781
| 11> H          0.81164       -1.96318       -1.70275
| 12> H          1.84550       -0.63508       -1.15875
| 13> H          4.20535       -1.17600       -3.73383
| 14> H          3.81723       -0.12585       -2.40604
| 15> H          3.14311       -3.36280       -3.81152
| 16> H          1.48768       -3.45893       -3.16521
| 17> H         -0.11459       -1.50684       -5.89401
| 18> H          0.19193       -0.97796       -4.25713
| 19> H         -0.42543       -2.58523       -4.55479
| 20> *
| 21>
| 22> %MaxCore 64000
| 23> %pal nprocs 4
| 24> end
| 25>
| 26> %scf
| 27>   MaxIter 150
| 28> end
| 29>
| 30>
| 31>                          ****END OF INPUT****

CARTESIAN COORDINATES (ANGSTROEM)
---------------------------------
  C      1.647030   -2.345280   -5.020410
  C      0.217630   -1.814020   -4.924390
  C      2.209960   -2.812390   -3.665710
  H      2.308380   -1.588700   -5.457130
  H      1.674290   -3.203480   -5.697390
  C      2.489010   -1.668510   -2.737540
  N      3.596310   -0.947610   -2.952250
  C      1.663940   -1.413690   -1.777810
  H      0.811640   -1.963180   -1.702750
  H      1.845500   -0.635080   -1.158750
  H      4.205350   -1.176000   -3.733830
  H      3.817230   -0.125850   -2.406040
  H      3.143110   -3.362800   -3.811520
  H      1.487680   -3.458930   -3.165210
  H     -0.114590   -1.506840   -5.894010
  H      0.191930   -0.977960   -4.257130
  H     -0.425430   -2.585230   -4.554790

 Total Charge           Charge          ....    0
 Multiplicity           Mult            ....    1
 Number of Electrons    NEL             ....   48
 Basis Dimension        Dim             ....  208

ORBITAL ENERGIES
----------------

  NO   OCC          E(Eh)            E(eV)
   0   2.0000     -14.226822      -387.1315
   1   2.0000     -10.149185      -276.1734
   2   2.0000     -10.124887      -275.5122
   3   2.0000     -10.124268      -275.4953
   4   2.0000     -10.102668      -274.9076
   5   2.0000     -10.059799      -273.7410
   6   2.0000      -1.089252       -29.6400
   7   2.0000      -0.965526       -26.2733
   8   2.0000      -0.902674       -24.5630
   9   2.0000      -0.847772       -23.0690
  10   2.0000      -0.752417       -20.4743
  11   2.0000      -0.715033       -19.4570
  12   2.0000      -0.667831       -18.1726
  13   2.0000      -0.623881       -16.9767
  14   2.0000      -0.592374       -16.1193
  15   2.0000      -0.587222       -15.9791
  16   2.0000      -0.535202       -14.5636
  17   2.0000      -0.527777       -14.3616
  18   2.0000      -0.508170       -13.8280
  19   2.0000      -0.500276       -13.6132
  20   2.0000      -0.464444       -12.6382
  21   2.0000      -0.453414       -12.3380
  22   2.0000      -0.446719       -12.1558
  23   2.0000      -0.316529        -8.6132
  24   0.0000       0.089818         2.4441
  25   0.0000       0.113445         3.0870
  26   0.0000       0.116053         3.1580
  27   0.0000       0.121348         3.3020
  28   0.0000       0.146207         3.9785

MULLIKEN ATOMIC CHARGES
-----------------------
   0 C :   -0.386859
   1 C :    0.491719
   2 C :    0.014056
   3 H :    0.010798
   4 H :    0.011657
   5 C :   -0.026001
   6 N :    0.036882
   7 C :    0.246433
   8 H :   -0.043898
   9 H :   -0.340852
  10 H :   -0.059721
  11 H :   -0.126170
  12 H :   -0.018522
  13 H :    0.154988
  14 H :   -0.003546
  15 H :   -0.022885
  16 H :    0.061922
Sum of atomic charges:    0.0000000

LOEWDIN ATOMIC CHARGES
----------------------
   0 C :   -0.090202
   1 C :    0.091742
   2 C :   -0.020152
   3 H :    0.026141
   4 H :    0.027267
   5 C :   -0.271426
   6 N :    0.156199
   7 C :    0.143712
   8 H :   -0.057579
   9 H :   -0.064576
  10 H :    0.008004
  11 H :    0.011028
  12 H :    0.033327
  13 H :    0.033909
  14 H :   -0.009846
  15 H :   -0.012712
  16 H :   -0.004836

  Mayer bond orders larger than 0.100000
B(  0-C ,  1-C ) :   1.3058 B(  0-C ,  2-C ) :   1.1566 B(  0-C ,  3-H ) :   0.9326
B(  0-C ,  4-H ) :   0.9626 B(  0-C , 13-H ) :   0.1092 B(  0-C , 14-H ) :   0.1755
B(  0-C , 15-H ) :   0.1894 B(  0-C , 16-H ) :   0.1667 B(  1-C , 14-H ) :   0.8292
B(  1-C , 15-H ) :   0.8661 B(  1-C , 16-H ) :   0.8130 B(  2-C ,  3-H ) :   0.1258
B(  2-C ,  5-C ) :   1.1326 B(  2-C ,  6-N ) :   0.1226 B(  2-C ,  7-C ) :   0.1503
B(  2-C , 12-H ) :   0.9412 B(  2-C , 13-H ) :   0.8210 B(  5-C ,  6-N ) :   1.1370
B(  5-C ,  7-C ) :   1.8776 B(  5-C ,  8-H ) :   0.1202 B(  5-C ,  9-H ) :   0.2499
B(  5-C , 12-H ) :   0.1306 B(  5-C , 13-H ) :   0.1121 B(  6-N ,  7-C ) :   0.2276
B(  6-N , 10-H ) :   1.1412 B(  6-N , 11-H ) :   1.2391 B(  7-C ,  8-H ) :   0.9460
B(  7-C ,  9-H ) :   0.6945 B( 10-H , 11-H ) :  -0.1477

FINAL SINGLE POINT ENERGY      -250.848066151068

DIPOLE MOMENT
-------------
                                X             Y             Z
Electronic contribution:      3.11026       0.69090       2.29714
Nuclear contribution   :     -2.61370      -0.54788      -2.73987
                        -----------------------------------------
Total Dipole Moment    :      0.49656       0.14303      -0.44272
                        -----------------------------------------
Magnitude (a.u.)       :      0.68047
Magnitude (Debye)      :      1.72961

Rotational constants in cm-1:     0.186678     0.079942     0.069329
Rotational constants in MHz :  5596.476267  2396.611465  2078.426257

                             ****ORCA TERMINATED NORMALLY****
TOTAL RUN TIME: 0 days 0 hours 0 minutes 27 seconds 780 msec
