                         Program Version 5.0.0 -  RELEASE  -
|  1> !LC-PBE RIJCOSX def2-SVPD def2/J TightSCF xyzfile
|  2>
|  3> *xyzfile 0 1 D2.xyz
|  4>
|  5> %MaxCore 64000
|  6>
|  7> %pal nprocs 4
|  8> end
|  9>
| 10> %scf
| 11>   MaxIter 150
| 12> end
| 13>
| 14>
| 15>                          ****END OF INPUT****

CARTESIAN COORDINATES (ANGSTROEM)
---------------------------------
  C      1.647032   -2.345276   -5.020411
  C      0.217628   -1.814022   -4.924389
  C      2.209964   -2.812388   -3.665708
  C     -0.811356   -2.908780   -4.607625
  C     -1.916579   -2.485081   -3.643665
  H     -2.554525   -1.712428   -4.091993
  C     -1.363531   -1.981337   -2.293608
  H     -2.553448   -3.355667   -3.458815
  F     -0.350395   -2.749689   -1.796006
  H      2.308385   -1.588704   -5.457128
  H      1.674286   -3.203478   -5.697392
  C      2.489007   -1.668510   -2.737538
  N      3.596314   -0.947608   -2.952247
  C      1.663936   -1.413685   -1.777806
  H      0.811642   -1.963178   -1.702755
  H      1.845503   -0.635078   -1.158749
  H      4.205351   -1.176003   -3.733825
  H      3.817230   -0.125845   -2.406041
  H     -1.244829   -3.280884   -5.541040
  H     -0.306331   -3.757746   -4.142734
  H     -0.036244   -1.318555   -5.865303
  H      0.175004   -1.035382   -4.158095
  H      3.143106   -3.362803   -3.811524
  H      1.487683   -3.458935   -3.165211
  H     -2.226220   -1.908386   -1.602039
  H     -1.051353   -0.915671   -2.443331

 Total Charge           Charge          ....    0
 Multiplicity           Mult            ....    1
 Number of Electrons    NEL             ....   80
 Basis Dimension        Dim             ....  331

ORBITAL ENERGIES
----------------

  NO   OCC          E(Eh)            E(eV)
   0   2.0000     -24.510495      -666.9645
   1   2.0000     -14.213143      -386.7593
   2   2.0000     -10.211351      -277.8650
   3   2.0000     -10.135552      -275.8024
   4   2.0000     -10.131341      -275.6878
   5   2.0000     -10.122855      -275.4569
   6   2.0000     -10.119783      -275.3733
   7   2.0000     -10.115758      -275.2638
   8   2.0000     -10.113528      -275.2031
   9   2.0000     -10.025632      -272.8113
  10   2.0000      -1.367949       -37.2238
  11   2.0000      -1.074990       -29.2520
  12   2.0000      -0.989113       -26.9151
  13   2.0000      -0.948888       -25.8206
  14   2.0000      -0.892519       -24.2867
  15   2.0000      -0.866209       -23.5708
  16   2.0000      -0.819830       -22.3087
  17   2.0000      -0.760286       -20.6884
  18   2.0000      -0.725531       -19.7427
  19   2.0000      -0.722213       -19.6524
  20   2.0000      -0.678778       -18.4705
  21   2.0000      -0.666601       -18.1391
  22   2.0000      -0.646293       -17.5865
  23   2.0000      -0.636219       -17.3124
  24   2.0000      -0.609494       -16.5852
  25   2.0000      -0.592734       -16.1291
  26   2.0000      -0.585766       -15.9395
  27   2.0000      -0.572240       -15.5714
  28   2.0000      -0.542901       -14.7731
  29   2.0000      -0.520296       -14.1580
  30   2.0000      -0.504370       -13.7246
  31   2.0000      -0.490098       -13.3363
  32   2.0000      -0.483659       -13.1610
  33   2.0000      -0.470484       -12.8025
  34   2.0000      -0.458979       -12.4894
  35   2.0000      -0.453090       -12.3292
  36   2.0000      -0.438362       -11.9284
  37   2.0000      -0.435348       -11.8464
  38   2.0000      -0.420020       -11.4293
  39   2.0000      -0.298785        -8.1304
  40   0.0000       0.092754         2.5240
  41   0.0000       0.099089         2.6963
  42   0.0000       0.107482         2.9247
  43   0.0000       0.115953         3.1552
  44   0.0000       0.130105         3.5403

MULLIKEN ATOMIC CHARGES
-----------------------
   0 C :    0.132534
   1 C :    0.055727
   2 C :    0.138986
   3 C :   -0.065541
   4 C :    0.025353
   5 H :   -0.034272
   6 C :    0.405158
   7 H :    0.094002
   8 F :   -0.488933
   9 H :    0.038087
  10 H :   -0.028476
  11 C :    0.012933
  12 N :    0.021186
  13 C :    0.999950
  14 H :   -0.511389
  15 H :   -0.641194
  16 H :   -0.068111
  17 H :   -0.126074
  18 H :   -0.106048
  19 H :    0.063791
  20 H :   -0.078870
  21 H :   -0.007943
  22 H :   -0.079095
  23 H :    0.053230
  24 H :   -0.165717
  25 H :    0.360725
Sum of atomic charges:   -0.0000000

LOEWDIN ATOMIC CHARGES
----------------------
   0 C :   -0.041961
   1 C :   -0.037073
   2 C :    0.000108
   3 C :   -0.048389
   4 C :   -0.036794
   5 H :    0.045080
   6 C :    0.116979
   7 H :    0.034781
   8 F :   -0.186390
   9 H :    0.028096
  10 H :    0.031951
  11 C :   -0.247761
  12 N :    0.150614
  13 C :    0.177530
  14 H :   -0.179264
  15 H :   -0.058189
  16 H :    0.003682
  17 H :    0.007905
  18 H :    0.034677
  19 H :    0.017858
  20 H :    0.031297
  21 H :    0.010409
  22 H :    0.034734
  23 H :    0.013182
  24 H :    0.048050
  25 H :    0.048886

  Mayer bond orders larger than 0.100000
B(  0-C ,  1-C ) :   1.2504 B(  0-C ,  2-C ) :   1.1321 B(  0-C ,  9-H ) :   0.7853
B(  0-C , 10-H ) :   0.8824 B(  0-C , 21-H ) :   0.1668 B(  1-C ,  3-C ) :   1.1734
B(  1-C ,  9-H ) :   0.1562 B(  1-C , 18-H ) :   0.1729 B(  1-C , 20-H ) :   0.9121
B(  1-C , 21-H ) :   0.8372 B(  2-C ,  9-H ) :   0.1171 B(  2-C , 10-H ) :   0.1214
B(  2-C , 11-C ) :   1.2166 B(  2-C , 12-N ) :   0.1462 B(  2-C , 13-C ) :   0.1253
B(  2-C , 22-H ) :   0.8853 B(  2-C , 23-H ) :   0.8526 B(  3-C ,  4-C ) :   1.2455
B(  3-C ,  5-H ) :   0.1115 B(  3-C ,  7-H ) :   0.1705 B(  3-C , 18-H ) :   0.9393
B(  3-C , 19-H ) :   0.8431 B(  3-C , 20-H ) :   0.1086 B(  3-C , 21-H ) :   0.1237
B(  4-C ,  5-H ) :   0.9297 B(  4-C ,  6-C ) :   1.2506 B(  4-C ,  7-H ) :   0.7597
B(  4-C , 24-H ) :   0.1082 B(  5-H ,  6-C ) :   0.1002 B(  6-C ,  8-F ) :   0.6537
B(  6-C , 14-H ) :   0.1010 B(  6-C , 24-H ) :   1.0664 B(  6-C , 25-H ) :   0.7292
B(  8-F , 14-H ) :   0.2691 B( 11-C , 12-N ) :   0.9899 B( 11-C , 13-C ) :   1.9807
B( 11-C , 14-H ) :   0.2333 B( 11-C , 15-H ) :   0.1924 B( 11-C , 22-H ) :   0.1959
B( 11-C , 23-H ) :   0.1071 B( 12-N , 13-C ) :   0.3187 B( 12-N , 16-H ) :   1.1537
B( 12-N , 17-H ) :   1.2585 B( 13-C , 14-H ) :   0.5127 B( 13-C , 15-H ) :   0.6307
B( 13-C , 23-H ) :  -0.1056 B( 14-H , 15-H ) :  -0.2625 B( 15-H , 21-H ) :  -0.1099
B( 16-H , 17-H ) :  -0.1483 B( 19-H , 23-H ) :   0.1175

FINAL SINGLE POINT ENERGY      -467.217458809888

DIPOLE MOMENT
-------------
                                X             Y             Z
Electronic contribution:      0.36075      -1.30085       6.04854
Nuclear contribution   :     -0.73748       1.64619      -6.72655
                        -----------------------------------------
Total Dipole Moment    :     -0.37673       0.34534      -0.67801
                        -----------------------------------------
Magnitude (a.u.)       :      0.84905
Magnitude (Debye)      :      2.15811

Rotational constants in cm-1:     0.063169     0.031711     0.023958
Rotational constants in MHz :  1893.751676   950.657187   718.229932

                             ****ORCA TERMINATED NORMALLY****
TOTAL RUN TIME: 0 days 0 hours 1 minutes 55 seconds 821 msec
