                         Program Version 5.0.0 -  RELEASE  -
|  1> !PBE D3BJ RIJCOSX def2-SVP def2/J TightSCF
|  2> *xyz -1 1
|  3> C         -0.87096        0.24804       -2.66280
|  4> C         -0.47749        0.60819       -4.10105
|  5> H          0.20677        1.45830       -4.11875
|  6> H         -1.36844        0.92942       -4.64785
|  7> C          0.18467       -0.50664       -4.91676
|  8> O         -0.15869       -1.70109       -4.65798
|  9> O          1.05594       -0.17441       -5.74037
| 10> H         -1.54056       -0.58646       -2.67455
| 11> H         -1.35339        1.08600       -2.20455
| 12> H          0.00660       -0.00662       -2.10609
| 13> *
| 14>
| 15> %MaxCore 64000
| 16>
| 17> %pal nprocs 4
| 18> end
| 19>
| 20> %scf
| 21>   MaxIter 150
| 22> end
| 23>
| 24>
| 25>                          ****END OF INPUT****

CARTESIAN COORDINATES (ANGSTROEM)
---------------------------------
  C     -0.870960    0.248040   -2.662800
  C     -0.477490    0.608190   -4.101050
  H      0.206770    1.458300   -4.118750
  H     -1.368440    0.929420   -4.647850
  C      0.184670   -0.506640   -4.916760
  O     -0.158690   -1.701090   -4.657980
  O      1.055940   -0.174410   -5.740370
  H     -1.540560   -0.586460   -2.674550
  H     -1.353390    1.086000   -2.204550
  H      0.006600   -0.006620   -2.106090

 Total Charge           Charge          ....   -1
 Multiplicity           Mult            ....    1
 Number of Electrons    NEL             ....   40
 Basis Dimension        Dim             ....   95

ORBITAL ENERGIES
----------------

  NO   OCC          E(Eh)            E(eV)
   0   2.0000     -18.458530      -502.2821
   1   2.0000     -18.457105      -502.2434
   2   2.0000      -9.734590      -264.8916
   3   2.0000      -9.718640      -264.4576
   4   2.0000      -9.700787      -263.9718
   5   2.0000      -0.684711       -18.6319
   6   2.0000      -0.594204       -16.1691
   7   2.0000      -0.507855       -13.8194
   8   2.0000      -0.386968       -10.5299
   9   2.0000      -0.240180        -6.5356
  10   2.0000      -0.226636        -6.1671
  11   2.0000      -0.183713        -4.9991
  12   2.0000      -0.158353        -4.3090
  13   2.0000      -0.146986        -3.9997
  14   2.0000      -0.126488        -3.4419
  15   2.0000      -0.096570        -2.6278
  16   2.0000      -0.087406        -2.3784
  17   2.0000       0.028604         0.7783
  18   2.0000       0.039120         1.0645
  19   2.0000       0.058640         1.5957
  20   0.0000       0.197650         5.3783
  21   0.0000       0.241232         6.5643
  22   0.0000       0.248112         6.7515
  23   0.0000       0.261389         7.1128
  24   0.0000       0.266589         7.2543

MULLIKEN ATOMIC CHARGES
-----------------------
   0 C :    0.033302
   1 C :   -0.027331
   2 H :   -0.056185
   3 H :   -0.037411
   4 C :   -0.042382
   5 O :   -0.401047
   6 O :   -0.372725
   7 H :   -0.018750
   8 H :   -0.060942
   9 H :   -0.016528
Sum of atomic charges:   -1.0000000

LOEWDIN ATOMIC CHARGES
----------------------
   0 C :   -0.073861
   1 C :   -0.105033
   2 H :   -0.004136
   3 H :    0.006282
   4 C :   -0.096341
   5 O :   -0.379257
   6 O :   -0.351778
   7 H :    0.005347
   8 H :   -0.010425
   9 H :    0.009202

  Mayer bond orders larger than 0.100000
B(  0-C ,  1-C ) :   1.0867 B(  0-C ,  7-H ) :   0.9490 B(  0-C ,  8-H ) :   0.9441
B(  0-C ,  9-H ) :   0.9708 B(  1-C ,  2-H ) :   0.9254 B(  1-C ,  3-H ) :   0.9253
B(  1-C ,  4-C ) :   0.8997 B(  4-C ,  5-O ) :   1.8451 B(  4-C ,  6-O ) :   1.8956
B(  5-O ,  6-O ) :   0.1400

Dispersion correction           -0.006499158
FINAL SINGLE POINT ENERGY      -267.310068694314

DIPOLE MOMENT
-------------
                                X             Y             Z
Electronic contribution:      2.79776      -3.16603      -4.81841
Nuclear contribution   :     -3.54611       4.15440       5.90446
                        -----------------------------------------
Total Dipole Moment    :     -0.74835       0.98837       1.08605
                        -----------------------------------------
Magnitude (a.u.)       :      1.64816
Magnitude (Debye)      :      4.18928

Rotational constants in cm-1:     0.332789     0.132085     0.101080
Rotational constants in MHz :  9976.755824  3959.803182  3030.288811

                             ****ORCA TERMINATED NORMALLY****
TOTAL RUN TIME: 0 days 0 hours 0 minutes 6 seconds 795 msec
