                         Program Version 5.0.0 -  RELEASE  -
|  1> !PBE D3BJ RIJCOSX def2-SVP def2/J TightSCF
|  2> *xyz 1 1
|  3> C          2.48645       -2.67712       -2.56345
|  4> C          3.03764       -2.36672       -3.92351
|  5> N          2.28036       -2.45441       -4.96769
|  6> N          4.32174       -2.01793       -4.01664
|  7> H          4.87994       -1.91167       -3.17382
|  8> H          4.71015       -1.67088       -4.88356
|  9> H          1.27042       -2.41265       -4.86614
| 10> H          2.58183       -2.05528       -5.84688
| 11> C          2.49799       -1.46946       -1.61030
| 12> H          1.47259       -3.05153       -2.69437
| 13> H          3.08320       -3.49064       -2.14147
| 14> H          1.91240       -0.67831       -2.02991
| 15> H          3.50450       -1.13364       -1.47227
| 16> H          2.08509       -1.75655       -0.66585
| 17> *
| 18>
| 19> %MaxCore 64000
| 20>
| 21> %pal nprocs 4
| 22> end
| 23>
| 24> %scf
| 25>   MaxIter 150
| 26> end
| 27>
| 28>
| 29>                          ****END OF INPUT****

CARTESIAN COORDINATES (ANGSTROEM)
---------------------------------
  C      2.486450   -2.677120   -2.563450
  C      3.037640   -2.366720   -3.923510
  N      2.280360   -2.454410   -4.967690
  N      4.321740   -2.017930   -4.016640
  H      4.879940   -1.911670   -3.173820
  H      4.710150   -1.670880   -4.883560
  H      1.270420   -2.412650   -4.866140
  H      2.581830   -2.055280   -5.846880
  C      2.497990   -1.469460   -1.610300
  H      1.472590   -3.051530   -2.694370
  H      3.083200   -3.490640   -2.141470
  H      1.912400   -0.678310   -2.029910
  H      3.504500   -1.133640   -1.472270
  H      2.085090   -1.756550   -0.665850

 Total Charge           Charge          ....    1
 Multiplicity           Mult            ....    1
 Number of Electrons    NEL             ....   40
 Basis Dimension        Dim             ....  115

ORBITAL ENERGIES
----------------

  NO   OCC          E(Eh)            E(eV)
   0   2.0000     -14.246941      -387.6790
   1   2.0000     -14.242187      -387.5496
   2   2.0000     -10.207978      -277.7732
   3   2.0000     -10.092677      -274.6357
   4   2.0000     -10.053488      -273.5693
   5   2.0000      -1.116019       -30.3684
   6   2.0000      -1.025109       -27.8946
   7   2.0000      -0.891267       -24.2526
   8   2.0000      -0.798681       -21.7332
   9   2.0000      -0.753423       -20.5017
  10   2.0000      -0.722466       -19.6593
  11   2.0000      -0.692598       -18.8465
  12   2.0000      -0.652733       -17.7618
  13   2.0000      -0.603097       -16.4111
  14   2.0000      -0.574821       -15.6417
  15   2.0000      -0.561390       -15.2762
  16   2.0000      -0.506174       -13.7737
  17   2.0000      -0.493336       -13.4244
  18   2.0000      -0.483461       -13.1556
  19   2.0000      -0.455725       -12.4009
  20   0.0000      -0.242722        -6.6048
  21   0.0000      -0.167335        -4.5534
  22   0.0000      -0.128857        -3.5064
  23   0.0000      -0.124384        -3.3847
  24   0.0000      -0.097039        -2.6406

MULLIKEN ATOMIC CHARGES
-----------------------
   0 C :   -0.014720
   1 C :   -0.123580
   2 N :    0.083073
   3 N :    0.038171
   4 H :    0.175537
   5 H :    0.166159
   6 H :    0.180323
   7 H :    0.160712
   8 C :   -0.002803
   9 H :    0.055488
  10 H :    0.100526
  11 H :    0.053839
  12 H :    0.042372
  13 H :    0.084903
Sum of atomic charges:    1.0000000

LOEWDIN ATOMIC CHARGES
----------------------
   0 C :   -0.036387
   1 C :    0.117997
   2 N :    0.127355
   3 N :    0.106784
   4 H :    0.118443
   5 H :    0.109027
   6 H :    0.123564
   7 H :    0.110375
   8 C :   -0.028950
   9 H :    0.052989
  10 H :    0.071000
  11 H :    0.040042
  12 H :    0.031014
  13 H :    0.056749

  Mayer bond orders larger than 0.100000
B(  0-C ,  1-C ) :   1.0396 B(  0-C ,  8-C ) :   1.0882 B(  0-C ,  9-H ) :   0.9141
B(  0-C , 10-H ) :   0.9068 B(  1-C ,  2-N ) :   1.5363 B(  1-C ,  3-N ) :   1.5005
B(  2-N ,  6-H ) :   0.9159 B(  2-N ,  7-H ) :   0.9293 B(  3-N ,  4-H ) :   0.9206
B(  3-N ,  5-H ) :   0.9287 B(  8-C , 11-H ) :   0.9661 B(  8-C , 12-H ) :   0.9668
B(  8-C , 13-H ) :   0.9545

Dispersion correction           -0.010135719
FINAL SINGLE POINT ENERGY      -228.572956409379

DIPOLE MOMENT
-------------
                                X             Y             Z
Electronic contribution:      1.08887      -1.05855      -3.97608
Nuclear contribution   :     -0.84604       1.34287       2.92710
                        -----------------------------------------
Total Dipole Moment    :      0.24283       0.28432      -1.04898
                        -----------------------------------------
Magnitude (a.u.)       :      1.11362
Magnitude (Debye)      :      2.83061

Rotational constants in cm-1:     0.265816     0.126189     0.097583
Rotational constants in MHz :  7968.948902  3783.040103  2925.457702

                             ****ORCA TERMINATED NORMALLY****
TOTAL RUN TIME: 0 days 0 hours 0 minutes 7 seconds 567 msec
