                         Program Version 5.0.0 -  RELEASE  -
|  1> !PBE D3BJ RIJCOSX def2-TZVP def2/J TightSCF xyzfile
|  2>
|  3> *xyzfile 0 1 B.xyz
|  4>
|  5> %MaxCore 64000
|  6>
|  7> %pal nprocs 18
|  8> end
|  9>
| 10> %scf
| 11>   MaxIter 150
| 12> end
| 13>
| 14>
| 15>                          ****END OF INPUT****

CARTESIAN COORDINATES (ANGSTROEM)
---------------------------------
  C      2.486452   -2.677121   -2.563447
  C     -0.870963    0.248043   -2.662804
  C     -0.477492    0.608191   -4.101052
  H      0.206773    1.458299   -4.118748
  H     -1.368442    0.929419   -4.647855
  C      0.184673   -0.506640   -4.916760
  C      3.037640   -2.366715   -3.923509
  N      2.280360   -2.454408   -4.967692
  N      4.321736   -2.017932   -4.016641
  H      4.879940   -1.911668   -3.173823
  H      4.710148   -1.670882   -4.883561
  H      1.270423   -2.412650   -4.866143
  H      2.581829   -2.055282   -5.846878
  O     -0.158685   -1.701088   -4.657981
  O      1.055938   -0.174410   -5.740373
  C      2.497991   -1.469464   -1.610303
  C      1.582841   -0.321986   -2.042619
  H      2.193083   -1.833912   -0.625420
  H      3.523356   -1.103982   -1.490392
  C      0.100160   -0.673551   -1.915815
  H      1.822311   -0.040361   -3.072834
  H      1.813180    0.557019   -1.433266
  H     -0.063284   -1.679120   -2.301112
  H     -0.168820   -0.691680   -0.853831
  H     -1.001048    1.181040   -2.104071
  H     -1.844645   -0.246592   -2.663281
  H      1.472592   -3.051527   -2.694366
  H      3.083201   -3.490638   -2.141472

 Total Charge           Charge          ....    0
 Multiplicity           Mult            ....    1
 Number of Electrons    NEL             ....   94
 Basis Dimension        Dim             ....  468

ORBITAL ENERGIES
----------------

  NO   OCC          E(Eh)            E(eV)
   0   2.0000     -18.663273      -507.8535
   1   2.0000     -18.654981      -507.6279
   2   2.0000     -14.062721      -382.6661
   3   2.0000     -14.026393      -381.6776
   4   2.0000     -10.016127      -272.5527
   5   2.0000      -9.923214      -270.0244
   6   2.0000      -9.920826      -269.9594
   7   2.0000      -9.906486      -269.5692
   8   2.0000      -9.877060      -268.7685
   9   2.0000      -9.859724      -268.2967
  10   2.0000      -9.855193      -268.1734
  11   2.0000      -9.842965      -267.8407
  12   2.0000      -0.946101       -25.7447
  13   2.0000      -0.910338       -24.7716
  14   2.0000      -0.854076       -23.2406
  15   2.0000      -0.820234       -22.3197
  16   2.0000      -0.755944       -20.5703
  17   2.0000      -0.704850       -19.1799
  18   2.0000      -0.663994       -18.0682
  19   2.0000      -0.614254       -16.7147
  20   2.0000      -0.596445       -16.2301
  21   2.0000      -0.555870       -15.1260
  22   2.0000      -0.551844       -15.0164
  23   2.0000      -0.522470       -14.2171
  24   2.0000      -0.498697       -13.5702
  25   2.0000      -0.470546       -12.8042
  26   2.0000      -0.447924       -12.1886
  27   2.0000      -0.429340       -11.6829
  28   2.0000      -0.407133       -11.0786
  29   2.0000      -0.402087       -10.9413
  30   2.0000      -0.393538       -10.7087
  31   2.0000      -0.374981       -10.2038
  32   2.0000      -0.365000        -9.9322
  33   2.0000      -0.361144        -9.8272
  34   2.0000      -0.341419        -9.2905
  35   2.0000      -0.333378        -9.0717
  36   2.0000      -0.320393        -8.7183
  37   2.0000      -0.312886        -8.5141
  38   2.0000      -0.307019        -8.3544
  39   2.0000      -0.292114        -7.9488
  40   2.0000      -0.282218        -7.6795
  41   2.0000      -0.272230        -7.4078
  42   2.0000      -0.264783        -7.2051
  43   2.0000      -0.255420        -6.9503
  44   2.0000      -0.187272        -5.0959
  45   2.0000      -0.170207        -4.6316
  46   2.0000      -0.154477        -4.2035
  47   0.0000      -0.072821        -1.9816
  48   0.0000      -0.034945        -0.9509
  49   0.0000       0.005201         0.1415
  50   0.0000       0.026421         0.7190
  51   0.0000       0.032483         0.8839

MULLIKEN ATOMIC CHARGES
-----------------------
   0 C :   -0.234418
   1 C :   -0.140883
   2 C :   -0.194100
   3 H :    0.092290
   4 H :    0.094627
   5 C :    0.169556
   6 C :    0.202540
   7 N :   -0.211444
   8 N :   -0.348394
   9 H :    0.250054
  10 H :    0.248213
  11 H :    0.251114
  12 H :    0.227756
  13 O :   -0.474085
  14 O :   -0.431052
  15 C :   -0.159099
  16 C :   -0.210083
  17 H :    0.102049
  18 H :    0.089019
  19 C :   -0.167839
  20 H :    0.135426
  21 H :    0.079451
  22 H :    0.105655
  23 H :    0.077354
  24 H :    0.076194
  25 H :    0.081780
  26 H :    0.152127
  27 H :    0.136191
Sum of atomic charges:   -0.0000000

LOEWDIN ATOMIC CHARGES
----------------------
   0 C :   -0.212575
   1 C :   -0.269065
   2 C :   -0.258664
   3 H :    0.139290
   4 H :    0.146540
   5 C :   -0.685602
   6 C :   -0.344658
   7 N :    0.157043
   8 N :    0.065382
   9 H :    0.185704
  10 H :    0.181106
  11 H :    0.155186
  12 H :    0.179782
  13 O :   -0.045304
  14 O :   -0.024687
  15 C :   -0.258823
  16 C :   -0.261332
  17 H :    0.146076
  18 H :    0.130086
  19 C :   -0.275473
  20 H :    0.150845
  21 H :    0.137342
  22 H :    0.139767
  23 H :    0.131632
  24 H :    0.132078
  25 H :    0.140031
  26 H :    0.162009
  27 H :    0.156282

  Mayer bond orders larger than 0.100000
B(  0-C ,  6-C ) :   0.9996 B(  0-C , 15-C ) :   0.9874 B(  0-C , 26-H ) :   0.9553
B(  0-C , 27-H ) :   0.9351 B(  1-C ,  2-C ) :   0.9959 B(  1-C , 19-C ) :   1.0212
B(  1-C , 24-H ) :   0.9451 B(  1-C , 25-H ) :   0.9402 B(  2-C ,  3-H ) :   0.9525
B(  2-C ,  4-H ) :   0.9240 B(  2-C ,  5-C ) :   0.9724 B(  5-C , 13-O ) :   1.6495
B(  5-C , 14-O ) :   1.8593 B(  6-C ,  7-N ) :   1.6272 B(  6-C ,  8-N ) :   1.3152
B(  7-N , 11-H ) :   0.7337 B(  7-N , 12-H ) :   0.8879 B(  8-N ,  9-H ) :   0.9001
B(  8-N , 10-H ) :   0.9009 B( 11-H , 13-O ) :   0.2644 B( 15-C , 16-C ) :   0.9812
B( 15-C , 17-H ) :   0.9358 B( 15-C , 18-H ) :   0.9560 B( 16-C , 19-C ) :   0.9859
B( 16-C , 20-H ) :   0.9575 B( 16-C , 21-H ) :   0.9356 B( 19-C , 22-H ) :   0.9536
B( 19-C , 23-H ) :   0.9347

Dispersion correction           -0.031453649
FINAL SINGLE POINT ENERGY      -573.996912249653

DIPOLE MOMENT
-------------
                                X             Y             Z
Electronic contribution:      1.63843      -2.88471      -8.95858
Nuclear contribution   :      1.39386       1.90489      10.36520
                        -----------------------------------------
Total Dipole Moment    :      3.03229      -0.97982       1.40662
                        -----------------------------------------
Magnitude (a.u.)       :      3.48330
Magnitude (Debye)      :      8.85386

Rotational constants in cm-1:     0.041165     0.025922     0.019001
Rotational constants in MHz :  1234.086888   777.109255   569.639629

                             ****ORCA TERMINATED NORMALLY****
TOTAL RUN TIME: 0 days 0 hours 0 minutes 15 seconds 505 msec
