                         Program Version 5.0.0 -  RELEASE  -
|  1> !PBE D3BJ RIJCOSX def2-SVP def2/J TightSCF
|  2> *xyz 0 1
|  3> C         -0.87096        0.24804       -2.66280
|  4> C         -0.47749        0.60819       -4.10105
|  5> H          0.20677        1.45830       -4.11875
|  6> H         -1.36844        0.92942       -4.64785
|  7> C          0.18467       -0.50664       -4.91676
|  8> F         -0.15869       -1.70109       -4.65798
|  9> O          1.05594       -0.17441       -5.74037
| 10> H         -1.54056       -0.58646       -2.67455
| 11> H         -1.35339        1.08600       -2.20455
| 12> H          0.00660       -0.00662       -2.10609
| 13> *
| 14>
| 15> %MaxCore 64000
| 16>
| 17> %pal nprocs 4
| 18> end
| 19>
| 20> %scf
| 21>   MaxIter 150
| 22> end
| 23>
| 24>
| 25>                          ****END OF INPUT****

CARTESIAN COORDINATES (ANGSTROEM)
---------------------------------
  C     -0.870960    0.248040   -2.662800
  C     -0.477490    0.608190   -4.101050
  H      0.206770    1.458300   -4.118750
  H     -1.368440    0.929420   -4.647850
  C      0.184670   -0.506640   -4.916760
  F     -0.158690   -1.701090   -4.657980
  O      1.055940   -0.174410   -5.740370
  H     -1.540560   -0.586460   -2.674550
  H     -1.353390    1.086000   -2.204550
  H      0.006600   -0.006620   -2.106090

 Total Charge           Charge          ....    0
 Multiplicity           Mult            ....    1
 Number of Electrons    NEL             ....   40
 Basis Dimension        Dim             ....   95

ORBITAL ENERGIES
----------------

  NO   OCC          E(Eh)            E(eV)
   0   2.0000     -24.320953      -661.8068
   1   2.0000     -18.754476      -510.3352
   2   2.0000     -10.050257      -273.4814
   3   2.0000      -9.920486      -269.9502
   4   2.0000      -9.900504      -269.4064
   5   2.0000      -1.180320       -32.1181
   6   2.0000      -0.930597       -25.3228
   7   2.0000      -0.717664       -19.5286
   8   2.0000      -0.605634       -16.4801
   9   2.0000      -0.565804       -15.3963
  10   2.0000      -0.477066       -12.9816
  11   2.0000      -0.468564       -12.7503
  12   2.0000      -0.426191       -11.5972
  13   2.0000      -0.408893       -11.1265
  14   2.0000      -0.377021       -10.2593
  15   2.0000      -0.348803        -9.4914
  16   2.0000      -0.334407        -9.0997
  17   2.0000      -0.325549        -8.8586
  18   2.0000      -0.300389        -8.1740
  19   2.0000      -0.232319        -6.3217
  20   0.0000      -0.053226        -1.4484
  21   0.0000       0.032526         0.8851
  22   0.0000       0.081357         2.2138
  23   0.0000       0.090278         2.4566
  24   0.0000       0.103612         2.8194

MULLIKEN ATOMIC CHARGES
-----------------------
   0 C :   -0.017516
   1 C :   -0.108676
   2 H :    0.054526
   3 H :    0.059472
   4 C :    0.174950
   5 F :   -0.052505
   6 O :   -0.204690
   7 H :    0.031276
   8 H :    0.028521
   9 H :    0.034642
Sum of atomic charges:   -0.0000000

LOEWDIN ATOMIC CHARGES
----------------------
   0 C :   -0.058817
   1 C :   -0.081276
   2 H :    0.047324
   3 H :    0.050706
   4 C :    0.062952
   5 F :    0.050546
   6 O :   -0.157383
   7 H :    0.025883
   8 H :    0.031608
   9 H :    0.028456

  Mayer bond orders larger than 0.100000
B(  0-C ,  1-C ) :   1.0815 B(  0-C ,  7-H ) :   0.9678 B(  0-C ,  8-H ) :   0.9583
B(  0-C ,  9-H ) :   0.9762 B(  1-C ,  2-H ) :   0.9401 B(  1-C ,  3-H ) :   0.9183
B(  1-C ,  4-C ) :   1.0021 B(  4-C ,  5-F ) :   1.2114 B(  4-C ,  6-O ) :   2.1079

Dispersion correction           -0.006134695
FINAL SINGLE POINT ENERGY      -291.853990864272

DIPOLE MOMENT
-------------
                                X             Y             Z
Electronic contribution:      2.69703      -5.43595      -5.41759
Nuclear contribution   :     -3.42837       5.66737       6.17046
                        -----------------------------------------
Total Dipole Moment    :     -0.73134       0.23142       0.75286
                        -----------------------------------------
Magnitude (a.u.)       :      1.07481
Magnitude (Debye)      :      2.73195

Rotational constants in cm-1:     0.304660     0.130969     0.097716
Rotational constants in MHz :  9133.464515  3926.366384  2929.457090

                             ****ORCA TERMINATED NORMALLY****
TOTAL RUN TIME: 0 days 0 hours 0 minutes 6 seconds 407 msec
