                         Program Version 5.0.0 -  RELEASE  -
|  1> !PBE D3BJ RIJCOSX def2-SVP def2/J TightSCF
|  2> *xyz 0 1
|  3> C          2.48645       -2.67712       -2.56345
|  4> C          3.03764       -2.36672       -3.92351
|  5> C          2.28036       -2.45441       -4.96769
|  6> N          4.32174       -2.01793       -4.01664
|  7> H          4.87994       -1.91167       -3.17382
|  8> H          4.71015       -1.67088       -4.88356
|  9> H          1.27042       -2.41265       -4.86614
| 10> H          2.58183       -2.05528       -5.84688
| 11> C          2.49799       -1.46946       -1.61030
| 12> H          1.47259       -3.05153       -2.69437
| 13> H          3.08320       -3.49064       -2.14147
| 14> H          1.91240       -0.67831       -2.02991
| 15> H          3.50450       -1.13364       -1.47227
| 16> H          2.08509       -1.75655       -0.66585
| 17> *
| 18>
| 19> %MaxCore 64000
| 20>
| 21> %pal nprocs 4
| 22> end
| 23>
| 24> %scf
| 25>   MaxIter 150
| 26> end
| 27>
| 28>
| 29>                          ****END OF INPUT****

CARTESIAN COORDINATES (ANGSTROEM)
---------------------------------
  C      2.486450   -2.677120   -2.563450
  C      3.037640   -2.366720   -3.923510
  C      2.280360   -2.454410   -4.967690
  N      4.321740   -2.017930   -4.016640
  H      4.879940   -1.911670   -3.173820
  H      4.710150   -1.670880   -4.883560
  H      1.270420   -2.412650   -4.866140
  H      2.581830   -2.055280   -5.846880
  C      2.497990   -1.469460   -1.610300
  H      1.472590   -3.051530   -2.694370
  H      3.083200   -3.490640   -2.141470
  H      1.912400   -0.678310   -2.029910
  H      3.504500   -1.133640   -1.472270
  H      2.085090   -1.756550   -0.665850

 Total Charge           Charge          ....    0
 Multiplicity           Mult            ....    1
 Number of Electrons    NEL             ....   40
 Basis Dimension        Dim             ....  115

ORBITAL ENERGIES
----------------

  NO   OCC          E(Eh)            E(eV)
   0   2.0000     -13.993798      -380.7906
   1   2.0000      -9.904169      -269.5061
   2   2.0000      -9.890465      -269.1332
   3   2.0000      -9.883354      -268.9397
   4   2.0000      -9.820771      -267.2368
   5   2.0000      -0.829865       -22.5818
   6   2.0000      -0.696081       -18.9413
   7   2.0000      -0.642699       -17.4887
   8   2.0000      -0.562958       -15.3189
   9   2.0000      -0.503887       -13.7115
  10   2.0000      -0.466945       -12.7062
  11   2.0000      -0.420175       -11.4335
  12   2.0000      -0.384705       -10.4683
  13   2.0000      -0.378733       -10.3058
  14   2.0000      -0.336753        -9.1635
  15   2.0000      -0.332407        -9.0453
  16   2.0000      -0.307153        -8.3581
  17   2.0000      -0.285733        -7.7752
  18   2.0000      -0.276336        -7.5195
  19   2.0000      -0.155622        -4.2347
  20   0.0000       0.024324         0.6619
  21   0.0000       0.029253         0.7960
  22   0.0000       0.073472         1.9993
  23   0.0000       0.078251         2.1293
  24   0.0000       0.097364         2.6494

MULLIKEN ATOMIC CHARGES
-----------------------
   0 C :    0.034431
   1 C :   -0.137902
   2 C :   -0.032878
   3 N :   -0.046499
   4 H :    0.098417
   5 H :    0.106652
   6 H :   -0.035835
   7 H :   -0.056536
   8 C :    0.005695
   9 H :    0.005516
  10 H :    0.015118
  11 H :    0.021230
  12 H :    0.002573
  13 H :    0.020017
Sum of atomic charges:   -0.0000000

LOEWDIN ATOMIC CHARGES
----------------------
   0 C :   -0.034445
   1 C :   -0.006918
   2 C :   -0.173498
   3 N :    0.003337
   4 H :    0.067185
   5 H :    0.073932
   6 H :    0.003165
   7 H :   -0.006739
   8 C :   -0.054862
   9 H :    0.034541
  10 H :    0.027234
  11 H :    0.026534
  12 H :    0.015017
  13 H :    0.025516

  Mayer bond orders larger than 0.100000
B(  0-C ,  1-C ) :   1.0477 B(  0-C ,  8-C ) :   1.1013 B(  0-C ,  9-H ) :   0.9210
B(  0-C , 10-H ) :   0.9198 B(  1-C ,  2-C ) :   1.8709 B(  1-C ,  3-N ) :   1.2791
B(  2-C ,  6-H ) :   0.9243 B(  2-C ,  7-H ) :   0.9397 B(  3-N ,  4-H ) :   0.9483
B(  3-N ,  5-H ) :   0.9450 B(  8-C , 11-H ) :   0.9660 B(  8-C , 12-H ) :   0.9665
B(  8-C , 13-H ) :   0.9617

Dispersion correction           -0.010500897
FINAL SINGLE POINT ENERGY      -212.114783273501

DIPOLE MOMENT
-------------
                                X             Y             Z
Electronic contribution:      1.63728      -0.87356      -2.14280
Nuclear contribution   :     -0.99743       1.27863       2.57190
                        -----------------------------------------
Total Dipole Moment    :      0.63985       0.40507       0.42910
                        -----------------------------------------
Magnitude (a.u.)       :      0.87041
Magnitude (Debye)      :      2.21241

Rotational constants in cm-1:     0.274050     0.130114     0.100964
Rotational constants in MHz :  8215.815505  3900.722919  3026.834930

                             ****ORCA TERMINATED NORMALLY****
TOTAL RUN TIME: 0 days 0 hours 0 minutes 7 seconds 487 msec
