                         Program Version 5.0.0 -  RELEASE  -
|  1> !PBE D3BJ RIJCOSX def2-SVP def2/J TightSCF
|  2> *xyz 0 1
|  3> C         -0.87096        0.24804       -2.66280
|  4> C         -0.47749        0.60819       -4.10105
|  5> H          0.20677        1.45830       -4.11875
|  6> H         -1.36844        0.92942       -4.64785
|  7> C          0.18467       -0.50664       -4.91676
|  8> O         -0.15869       -1.70109       -4.65798
|  9> F          1.05594       -0.17441       -5.74037
| 10> H         -1.54056       -0.58646       -2.67455
| 11> H         -1.35339        1.08600       -2.20455
| 12> H          0.00660       -0.00662       -2.10609
| 13> *
| 14>
| 15> %MaxCore 64000
| 16>
| 17> %pal nprocs 4
| 18> end
| 19>
| 20> %scf
| 21>   MaxIter 150
| 22> end
| 23>
| 24>
| 25>                          ****END OF INPUT****

CARTESIAN COORDINATES (ANGSTROEM)
---------------------------------
  C     -0.870960    0.248040   -2.662800
  C     -0.477490    0.608190   -4.101050
  H      0.206770    1.458300   -4.118750
  H     -1.368440    0.929420   -4.647850
  C      0.184670   -0.506640   -4.916760
  O     -0.158690   -1.701090   -4.657980
  F      1.055940   -0.174410   -5.740370
  H     -1.540560   -0.586460   -2.674550
  H     -1.353390    1.086000   -2.204550
  H      0.006600   -0.006620   -2.106090

 Total Charge           Charge          ....    0
 Multiplicity           Mult            ....    1
 Number of Electrons    NEL             ....   40
 Basis Dimension        Dim             ....   95

ORBITAL ENERGIES
----------------

  NO   OCC          E(Eh)            E(eV)
   0   2.0000     -24.329703      -662.0449
   1   2.0000     -18.751907      -510.2653
   2   2.0000     -10.052505      -273.5426
   3   2.0000      -9.921878      -269.9880
   4   2.0000      -9.894870      -269.2531
   5   2.0000      -1.198684       -32.6179
   6   2.0000      -0.916668       -24.9438
   7   2.0000      -0.713817       -19.4239
   8   2.0000      -0.614368       -16.7178
   9   2.0000      -0.565319       -15.3831
  10   2.0000      -0.484110       -13.1733
  11   2.0000      -0.468864       -12.7584
  12   2.0000      -0.436709       -11.8834
  13   2.0000      -0.409835       -11.1522
  14   2.0000      -0.372819       -10.1449
  15   2.0000      -0.345333        -9.3970
  16   2.0000      -0.325244        -8.8503
  17   2.0000      -0.319202        -8.6859
  18   2.0000      -0.295847        -8.0504
  19   2.0000      -0.229233        -6.2378
  20   0.0000      -0.055971        -1.5231
  21   0.0000       0.038201         1.0395
  22   0.0000       0.081649         2.2218
  23   0.0000       0.089939         2.4474
  24   0.0000       0.102888         2.7997

MULLIKEN ATOMIC CHARGES
-----------------------
   0 C :    0.009135
   1 C :   -0.110774
   2 H :    0.028839
   3 H :    0.060556
   4 C :    0.170662
   5 O :   -0.234076
   6 F :   -0.019546
   7 H :    0.043184
   8 H :    0.021347
   9 H :    0.030673
Sum of atomic charges:   -0.0000000

LOEWDIN ATOMIC CHARGES
----------------------
   0 C :   -0.046311
   1 C :   -0.083706
   2 H :    0.031235
   3 H :    0.052446
   4 C :    0.058387
   5 O :   -0.184671
   6 F :    0.082229
   7 H :    0.032323
   8 H :    0.028738
   9 H :    0.029329

  Mayer bond orders larger than 0.100000
B(  0-C ,  1-C ) :   1.1112 B(  0-C ,  7-H ) :   0.9627 B(  0-C ,  8-H ) :   0.9574
B(  0-C ,  9-H ) :   0.9759 B(  1-C ,  2-H ) :   0.9281 B(  1-C ,  3-H ) :   0.9132
B(  1-C ,  4-C ) :   0.9996 B(  4-C ,  5-O ) :   2.0699 B(  4-C ,  6-F ) :   1.2480

Dispersion correction           -0.006184933
FINAL SINGLE POINT ENERGY      -291.847830767482

DIPOLE MOMENT
-------------
                                X             Y             Z
Electronic contribution:      4.68557      -2.97018      -7.20439
Nuclear contribution   :     -4.75269       4.00281       7.35060
                        -----------------------------------------
Total Dipole Moment    :     -0.06712       1.03264       0.14621
                        -----------------------------------------
Magnitude (a.u.)       :      1.04509
Magnitude (Debye)      :      2.65641

Rotational constants in cm-1:     0.323805     0.124913     0.096140
Rotational constants in MHz :  9707.430323  3744.789513  2882.191141

                             ****ORCA TERMINATED NORMALLY****
TOTAL RUN TIME: 0 days 0 hours 0 minutes 6 seconds 130 msec
