                         Program Version 5.0.0 -  RELEASE  -
|  1> !PBE D3BJ RIJCOSX def2-SVP def2/J TightSCF
|  2> *xyz 0 1
|  3> C          2.48645       -2.67712       -2.56345
|  4> C          3.03764       -2.36672       -3.92351
|  5> N          2.28036       -2.45441       -4.96769
|  6> C          4.32174       -2.01793       -4.01664
|  7> H          4.87994       -1.91167       -3.17382
|  8> H          4.71015       -1.67088       -4.88356
|  9> H          1.27042       -2.41265       -4.86614
| 10> H          2.58183       -2.05528       -5.84688
| 11> C          2.49799       -1.46946       -1.61030
| 12> H          1.47259       -3.05153       -2.69437
| 13> H          3.08320       -3.49064       -2.14147
| 14> H          1.91240       -0.67831       -2.02991
| 15> H          3.50450       -1.13364       -1.47227
| 16> H          2.08509       -1.75655       -0.66585
| 17> *
| 18>
| 19> %MaxCore 64000
| 20>
| 21> %pal nprocs 4
| 22> end
| 23>
| 24> %scf
| 25>   MaxIter 150
| 26> end
| 27>
| 28>
| 29>                          ****END OF INPUT****

CARTESIAN COORDINATES (ANGSTROEM)
---------------------------------
  C      2.486450   -2.677120   -2.563450
  C      3.037640   -2.366720   -3.923510
  N      2.280360   -2.454410   -4.967690
  C      4.321740   -2.017930   -4.016640
  H      4.879940   -1.911670   -3.173820
  H      4.710150   -1.670880   -4.883560
  H      1.270420   -2.412650   -4.866140
  H      2.581830   -2.055280   -5.846880
  C      2.497990   -1.469460   -1.610300
  H      1.472590   -3.051530   -2.694370
  H      3.083200   -3.490640   -2.141470
  H      1.912400   -0.678310   -2.029910
  H      3.504500   -1.133640   -1.472270
  H      2.085090   -1.756550   -0.665850

 Total Charge           Charge          ....    0
 Multiplicity           Mult            ....    1
 Number of Electrons    NEL             ....   40
 Basis Dimension        Dim             ....  115

ORBITAL ENERGIES
----------------

  NO   OCC          E(Eh)            E(eV)
   0   2.0000     -13.997217      -380.8836
   1   2.0000      -9.904546      -269.5164
   2   2.0000      -9.891436      -269.1597
   3   2.0000      -9.878830      -268.8166
   4   2.0000      -9.821361      -267.2528
   5   2.0000      -0.844594       -22.9826
   6   2.0000      -0.697276       -18.9738
   7   2.0000      -0.627825       -17.0840
   8   2.0000      -0.568036       -15.4571
   9   2.0000      -0.507095       -13.7988
  10   2.0000      -0.463812       -12.6210
  11   2.0000      -0.423742       -11.5306
  12   2.0000      -0.392166       -10.6714
  13   2.0000      -0.355915        -9.6849
  14   2.0000      -0.343571        -9.3491
  15   2.0000      -0.327199        -8.9035
  16   2.0000      -0.305040        -8.3006
  17   2.0000      -0.289348        -7.8736
  18   2.0000      -0.284580        -7.7438
  19   2.0000      -0.147177        -4.0049
  20   0.0000       0.024811         0.6751
  21   0.0000       0.028737         0.7820
  22   0.0000       0.071351         1.9416
  23   0.0000       0.076904         2.0927
  24   0.0000       0.101041         2.7495

MULLIKEN ATOMIC CHARGES
-----------------------
   0 C :    0.029899
   1 C :   -0.191827
   2 N :    0.000451
   3 C :   -0.025991
   4 H :   -0.039917
   5 H :   -0.054420
   6 H :    0.097936
   7 H :    0.101091
   8 C :    0.012070
   9 H :   -0.016297
  10 H :    0.034927
  11 H :    0.013163
  12 H :    0.025807
  13 H :    0.013109
Sum of atomic charges:   -0.0000000

LOEWDIN ATOMIC CHARGES
----------------------
   0 C :   -0.034701
   1 C :   -0.022819
   2 N :    0.026153
   3 C :   -0.177866
   4 H :   -0.001686
   5 H :   -0.009071
   6 H :    0.067481
   7 H :    0.074332
   8 C :   -0.048168
   9 H :    0.016469
  10 H :    0.040326
  11 H :    0.022497
  12 H :    0.025421
  13 H :    0.021632

  Mayer bond orders larger than 0.100000
B(  0-C ,  1-C ) :   1.0201 B(  0-C ,  8-C ) :   1.1125 B(  0-C ,  9-H ) :   0.9222
B(  0-C , 10-H ) :   0.9265 B(  1-C ,  2-N ) :   1.3121 B(  1-C ,  3-C ) :   1.8311
B(  2-N ,  6-H ) :   0.9429 B(  2-N ,  7-H ) :   0.9453 B(  3-C ,  4-H ) :   0.9369
B(  3-C ,  5-H ) :   0.9403 B(  8-C , 11-H ) :   0.9663 B(  8-C , 12-H ) :   0.9690
B(  8-C , 13-H ) :   0.9589

Dispersion correction           -0.010523076
FINAL SINGLE POINT ENERGY      -212.115760310362

DIPOLE MOMENT
-------------
                                X             Y             Z
Electronic contribution:     -0.30028      -1.22291      -3.04742
Nuclear contribution   :     -0.52463       1.37972       2.79217
                        -----------------------------------------
Total Dipole Moment    :     -0.82491       0.15681      -0.25525
                        -----------------------------------------
Magnitude (a.u.)       :      0.87762
Magnitude (Debye)      :      2.23074

Rotational constants in cm-1:     0.281086     0.127387     0.100311
Rotational constants in MHz :  8426.743103  3818.969834  3007.238026

                             ****ORCA TERMINATED NORMALLY****
TOTAL RUN TIME: 0 days 0 hours 0 minutes 7 seconds 288 msec
