                         Program Version 5.0.0 -  RELEASE  -
|  1> !PBE D3BJ RIJCOSX def2-TZVP def2/J TightSCF xyzfile
|  2>
|  3> *xyzfile 0 1 D1.xyz
|  4>
|  5> %MaxCore 64000
|  6>
|  7> %pal nprocs 18
|  8> end
|  9>
| 10> %scf
| 11>   MaxIter 150
| 12> end
| 13>
| 14>
| 15>                          ****END OF INPUT****

CARTESIAN COORDINATES (ANGSTROEM)
---------------------------------
  C      2.486452   -2.677121   -2.563447
  C     -0.870963    0.248043   -2.662804
  C     -0.477492    0.608191   -4.101052
  H      0.206773    1.458299   -4.118748
  H     -1.368442    0.929419   -4.647855
  C      0.184673   -0.506640   -4.916760
  C      3.037640   -2.366715   -3.923509
  C      2.280360   -2.454408   -4.967692
  N      4.321736   -2.017932   -4.016641
  H      4.879940   -1.911668   -3.173823
  H      4.710148   -1.670882   -4.883561
  H      1.270423   -2.412650   -4.866143
  H      2.581829   -2.055282   -5.846878
  F     -0.158685   -1.701088   -4.657981
  O      1.055938   -0.174410   -5.740373
  C      2.497991   -1.469464   -1.610303
  C      1.582841   -0.321986   -2.042619
  H      2.193083   -1.833912   -0.625420
  H      3.523356   -1.103982   -1.490392
  C      0.100160   -0.673551   -1.915815
  H      1.822311   -0.040361   -3.072834
  H      1.813180    0.557019   -1.433266
  H     -0.063284   -1.679120   -2.301112
  H     -0.168820   -0.691680   -0.853831
  H     -1.001048    1.181040   -2.104071
  H     -1.844645   -0.246592   -2.663281
  H      1.472592   -3.051527   -2.694366
  H      3.083201   -3.490638   -2.141472

 Total Charge           Charge          ....    0
 Multiplicity           Mult            ....    1
 Number of Electrons    NEL             ....   94
 Basis Dimension        Dim             ....  468

ORBITAL ENERGIES
----------------

  NO   OCC          E(Eh)            E(eV)
   0   2.0000     -24.321374      -661.8182
   1   2.0000     -18.749581      -510.2020
   2   2.0000     -13.972451      -380.2097
   3   2.0000     -10.043843      -273.3069
   4   2.0000      -9.907543      -269.5980
   5   2.0000      -9.893844      -269.2252
   6   2.0000      -9.882585      -268.9188
   7   2.0000      -9.881805      -268.8976
   8   2.0000      -9.880046      -268.8497
   9   2.0000      -9.878458      -268.8065
  10   2.0000      -9.873660      -268.6759
  11   2.0000      -9.787795      -266.3394
  12   2.0000      -1.211856       -32.9763
  13   2.0000      -0.948995       -25.8235
  14   2.0000      -0.833301       -22.6753
  15   2.0000      -0.751340       -20.4450
  16   2.0000      -0.718661       -19.5558
  17   2.0000      -0.672850       -18.3092
  18   2.0000      -0.650550       -17.7024
  19   2.0000      -0.609592       -16.5878
  20   2.0000      -0.591431       -16.0936
  21   2.0000      -0.554563       -15.0904
  22   2.0000      -0.521100       -14.1799
  23   2.0000      -0.511064       -13.9068
  24   2.0000      -0.486729       -13.2446
  25   2.0000      -0.478115       -13.0102
  26   2.0000      -0.457089       -12.4380
  27   2.0000      -0.437374       -11.9016
  28   2.0000      -0.428659       -11.6644
  29   2.0000      -0.418858       -11.3977
  30   2.0000      -0.407496       -11.0885
  31   2.0000      -0.393660       -10.7120
  32   2.0000      -0.382441       -10.4067
  33   2.0000      -0.360056        -9.7976
  34   2.0000      -0.357166        -9.7190
  35   2.0000      -0.342309        -9.3147
  36   2.0000      -0.330116        -8.9829
  37   2.0000      -0.328449        -8.9376
  38   2.0000      -0.311998        -8.4899
  39   2.0000      -0.306956        -8.3527
  40   2.0000      -0.298069        -8.1109
  41   2.0000      -0.291119        -7.9218
  42   2.0000      -0.277859        -7.5609
  43   2.0000      -0.271216        -7.3802
  44   2.0000      -0.267786        -7.2868
  45   2.0000      -0.238154        -6.4805
  46   2.0000      -0.149958        -4.0806
  47   0.0000      -0.062998        -1.7143
  48   0.0000       0.003781         0.1029
  49   0.0000       0.012427         0.3382
  50   0.0000       0.024960         0.6792
  51   0.0000       0.035607         0.9689

MULLIKEN ATOMIC CHARGES
-----------------------
   0 C :   -0.241921
   1 C :   -0.172883
   2 C :   -0.218451
   3 H :    0.138849
   4 H :    0.130038
   5 C :    0.261644
   6 C :    0.150691
   7 C :   -0.351808
   8 N :   -0.420157
   9 H :    0.209527
  10 H :    0.217827
  11 H :    0.100781
  12 H :    0.070832
  13 F :   -0.074087
  14 O :   -0.265770
  15 C :   -0.129832
  16 C :   -0.207942
  17 H :    0.083878
  18 H :    0.086197
  19 C :   -0.210707
  20 H :    0.143952
  21 H :    0.080306
  22 H :    0.102253
  23 H :    0.097261
  24 H :    0.099455
  25 H :    0.104253
  26 H :    0.112303
  27 H :    0.103510
Sum of atomic charges:    0.0000000

LOEWDIN ATOMIC CHARGES
----------------------
   0 C :   -0.222524
   1 C :   -0.269477
   2 C :   -0.242958
   3 H :    0.158429
   4 H :    0.157805
   5 C :   -0.533375
   6 C :   -0.387935
   7 C :   -0.267412
   8 N :    0.001856
   9 H :    0.162397
  10 H :    0.167701
  11 H :    0.098130
  12 H :    0.102518
  13 F :    0.344914
  14 O :    0.124570
  15 C :   -0.264282
  16 C :   -0.263251
  17 H :    0.138248
  18 H :    0.132025
  19 C :   -0.273285
  20 H :    0.150033
  21 H :    0.136241
  22 H :    0.137051
  23 H :    0.139385
  24 H :    0.141531
  25 H :    0.140998
  26 H :    0.146674
  27 H :    0.143993

  Mayer bond orders larger than 0.100000
B(  0-C ,  6-C ) :   0.9944 B(  0-C , 15-C ) :   0.9693 B(  0-C , 26-H ) :   0.9790
B(  0-C , 27-H ) :   0.9443 B(  1-C ,  2-C ) :   0.9856 B(  1-C , 19-C ) :   1.0005
B(  1-C , 24-H ) :   0.9435 B(  1-C , 25-H ) :   0.9536 B(  2-C ,  3-H ) :   0.9471
B(  2-C ,  4-H ) :   0.9220 B(  2-C ,  5-C ) :   1.0233 B(  5-C , 13-F ) :   1.1356
B(  5-C , 14-O ) :   2.0889 B(  6-C ,  7-C ) :   1.7692 B(  6-C ,  8-N ) :   1.1482
B(  7-C , 11-H ) :   0.9921 B(  7-C , 12-H ) :   0.9640 B(  8-N ,  9-H ) :   0.9232
B(  8-N , 10-H ) :   0.9140 B( 15-C , 16-C ) :   0.9917 B( 15-C , 17-H ) :   0.9416
B( 15-C , 18-H ) :   0.9491 B( 16-C , 19-C ) :   0.9938 B( 16-C , 20-H ) :   0.9518
B( 16-C , 21-H ) :   0.9372 B( 19-C , 22-H ) :   0.9656 B( 19-C , 23-H ) :   0.9437

Dispersion correction           -0.031263283
FINAL SINGLE POINT ENERGY      -581.878783586209

DIPOLE MOMENT
-------------
                                X             Y             Z
Electronic contribution:     -3.60792      -1.65186     -10.31334
Nuclear contribution   :      3.32973       2.37270      11.37738
                        -----------------------------------------
Total Dipole Moment    :     -0.27819       0.72084       1.06404
                        -----------------------------------------
Magnitude (a.u.)       :      1.31498
Magnitude (Debye)      :      3.34243

Rotational constants in cm-1:     0.040902     0.025807     0.019036
Rotational constants in MHz :  1226.202138   773.670450   570.681201

                             ****ORCA TERMINATED NORMALLY****
TOTAL RUN TIME: 0 days 0 hours 0 minutes 18 seconds 657 msec
