                         Program Version 5.0.0 -  RELEASE  -
|  1> !PBE D3BJ RIJCOSX def2-TZVP def2/J TightSCF xyzfile
|  2>
|  3> *xyzfile 0 1 D3.xyz
|  4>
|  5> %MaxCore 64000
|  6>
|  7> %pal nprocs 18
|  8> end
|  9>
| 10> %scf
| 11>   MaxIter 150
| 12> end
| 13>
| 14>
| 15>                          ****END OF INPUT****

CARTESIAN COORDINATES (ANGSTROEM)
---------------------------------
  C      2.486452   -2.677121   -2.563447
  C     -0.870963    0.248043   -2.662804
  C     -0.477492    0.608191   -4.101052
  H      0.206773    1.458299   -4.118748
  H     -1.368442    0.929419   -4.647855
  C      0.184673   -0.506640   -4.916760
  C      3.037640   -2.366715   -3.923509
  C      2.280360   -2.454408   -4.967692
  N      4.321736   -2.017932   -4.016641
  H      4.879940   -1.911668   -3.173823
  H      4.710148   -1.670882   -4.883561
  H      1.270423   -2.412650   -4.866143
  H      2.581829   -2.055282   -5.846878
  O     -0.158685   -1.701088   -4.657981
  F      1.055938   -0.174410   -5.740373
  C      2.497991   -1.469464   -1.610303
  C      1.582841   -0.321986   -2.042619
  H      2.193083   -1.833912   -0.625420
  H      3.523356   -1.103982   -1.490392
  C      0.100160   -0.673551   -1.915815
  H      1.822311   -0.040361   -3.072834
  H      1.813180    0.557019   -1.433266
  H     -0.063284   -1.679120   -2.301112
  H     -0.168820   -0.691680   -0.853831
  H     -1.001048    1.181040   -2.104071
  H     -1.844645   -0.246592   -2.663281
  H      1.472592   -3.051527   -2.694366
  H      3.083201   -3.490638   -2.141472

 Total Charge           Charge          ....    0
 Multiplicity           Mult            ....    1
 Number of Electrons    NEL             ....   94
 Basis Dimension        Dim             ....  468

ORBITAL ENERGIES
----------------

  NO   OCC          E(Eh)            E(eV)
   0   2.0000     -24.327370      -661.9814
   1   2.0000     -18.749817      -510.2085
   2   2.0000     -13.971337      -380.1794
   3   2.0000     -10.048469      -273.4327
   4   2.0000      -9.909870      -269.6613
   5   2.0000      -9.891287      -269.1556
   6   2.0000      -9.879676      -268.8397
   7   2.0000      -9.877242      -268.7734
   8   2.0000      -9.876748      -268.7600
   9   2.0000      -9.874364      -268.6951
  10   2.0000      -9.868871      -268.5456
  11   2.0000      -9.781010      -266.1548
  12   2.0000      -1.222076       -33.2544
  13   2.0000      -0.944331       -25.6965
  14   2.0000      -0.832022       -22.6405
  15   2.0000      -0.746334       -20.3088
  16   2.0000      -0.716172       -19.4880
  17   2.0000      -0.671128       -18.2623
  18   2.0000      -0.648517       -17.6470
  19   2.0000      -0.611954       -16.6521
  20   2.0000      -0.588025       -16.0010
  21   2.0000      -0.550672       -14.9845
  22   2.0000      -0.517204       -14.0738
  23   2.0000      -0.504043       -13.7157
  24   2.0000      -0.489204       -13.3119
  25   2.0000      -0.468141       -12.7388
  26   2.0000      -0.462420       -12.5831
  27   2.0000      -0.453389       -12.3373
  28   2.0000      -0.426308       -11.6004
  29   2.0000      -0.418318       -11.3830
  30   2.0000      -0.403390       -10.9768
  31   2.0000      -0.391801       -10.6614
  32   2.0000      -0.383781       -10.4432
  33   2.0000      -0.355489        -9.6734
  34   2.0000      -0.349995        -9.5238
  35   2.0000      -0.343381        -9.3439
  36   2.0000      -0.333400        -9.0723
  37   2.0000      -0.321123        -8.7382
  38   2.0000      -0.313975        -8.5437
  39   2.0000      -0.309332        -8.4174
  40   2.0000      -0.292232        -7.9521
  41   2.0000      -0.286596        -7.7987
  42   2.0000      -0.275598        -7.4994
  43   2.0000      -0.269151        -7.3240
  44   2.0000      -0.268273        -7.3001
  45   2.0000      -0.219979        -5.9859
  46   2.0000      -0.148961        -4.0534
  47   0.0000      -0.067815        -1.8453
  48   0.0000       0.006556         0.1784
  49   0.0000       0.015125         0.4116
  50   0.0000       0.024877         0.6769
  51   0.0000       0.039602         1.0776

MULLIKEN ATOMIC CHARGES
-----------------------
   0 C :   -0.229313
   1 C :   -0.150278
   2 C :   -0.232010
   3 H :    0.122198
   4 H :    0.132047
   5 C :    0.292047
   6 C :    0.133482
   7 C :   -0.394885
   8 N :   -0.413238
   9 H :    0.208945
  10 H :    0.211957
  11 H :    0.158267
  12 H :    0.046627
  13 O :   -0.302772
  14 F :   -0.050493
  15 C :   -0.134451
  16 C :   -0.192412
  17 H :    0.084947
  18 H :    0.083101
  19 C :   -0.203845
  20 H :    0.112674
  21 H :    0.077910
  22 H :    0.121874
  23 H :    0.092063
  24 H :    0.097223
  25 H :    0.101296
  26 H :    0.125752
  27 H :    0.101286
Sum of atomic charges:   -0.0000000

LOEWDIN ATOMIC CHARGES
----------------------
   0 C :   -0.219460
   1 C :   -0.258478
   2 C :   -0.247100
   3 H :    0.146550
   4 H :    0.159390
   5 C :   -0.531289
   6 C :   -0.390709
   7 C :   -0.269795
   8 N :   -0.001692
   9 H :    0.161550
  10 H :    0.164758
  11 H :    0.099343
  12 H :    0.094523
  13 O :    0.097451
  14 F :    0.380778
  15 C :   -0.263767
  16 C :   -0.262577
  17 H :    0.139045
  18 H :    0.130593
  19 C :   -0.270361
  20 H :    0.143445
  21 H :    0.134948
  22 H :    0.144106
  23 H :    0.138041
  24 H :    0.140961
  25 H :    0.144639
  26 H :    0.151852
  27 H :    0.143256

  Mayer bond orders larger than 0.100000
B(  0-C ,  6-C ) :   0.9915 B(  0-C , 15-C ) :   0.9675 B(  0-C , 26-H ) :   0.9774
B(  0-C , 27-H ) :   0.9446 B(  1-C ,  2-C ) :   1.0089 B(  1-C , 19-C ) :   1.0131
B(  1-C , 24-H ) :   0.9468 B(  1-C , 25-H ) :   0.9436 B(  2-C ,  3-H ) :   0.9383
B(  2-C ,  4-H ) :   0.9155 B(  2-C ,  5-C ) :   1.0247 B(  5-C , 13-O ) :   1.9690
B(  5-C , 14-F ) :   1.2051 B(  6-C ,  7-C ) :   1.7674 B(  6-C ,  8-N ) :   1.1416
B(  7-C , 11-H ) :   0.9547 B(  7-C , 12-H ) :   0.9679 B(  8-N ,  9-H ) :   0.9228
B(  8-N , 10-H ) :   0.9141 B( 15-C , 16-C ) :   0.9993 B( 15-C , 17-H ) :   0.9419
B( 15-C , 18-H ) :   0.9495 B( 16-C , 19-C ) :   1.0026 B( 16-C , 20-H ) :   0.9490
B( 16-C , 21-H ) :   0.9380 B( 19-C , 22-H ) :   0.9571 B( 19-C , 23-H ) :   0.9420

Dispersion correction           -0.031405535
FINAL SINGLE POINT ENERGY      -581.874692471013

DIPOLE MOMENT
-------------
                                X             Y             Z
Electronic contribution:     -1.68522       0.85245     -12.14738
Nuclear contribution   :      1.88979       0.56282      12.66056
                        -----------------------------------------
Total Dipole Moment    :      0.20457       1.41527       0.51318
                        -----------------------------------------
Magnitude (a.u.)       :      1.51927
Magnitude (Debye)      :      3.86168

Rotational constants in cm-1:     0.040271     0.025954     0.018866
Rotational constants in MHz :  1207.302496   778.083475   565.600538

                             ****ORCA TERMINATED NORMALLY****
TOTAL RUN TIME: 0 days 0 hours 0 minutes 14 seconds 336 msec
