                         Program Version 5.0.0 -  RELEASE  -
|  1> !PBE D3BJ RIJCOSX def2-TZVP def2/J TightSCF xyzfile
|  2>
|  3> *xyzfile 0 1 D4.xyz
|  4>
|  5> %MaxCore 64000
|  6>
|  7> %pal nprocs 18
|  8> end
|  9>
| 10> %scf
| 11>   MaxIter 150
| 12> end
| 13>
| 14>
| 15>                          ****END OF INPUT****

CARTESIAN COORDINATES (ANGSTROEM)
---------------------------------
  C      2.486452   -2.677121   -2.563447
  C     -0.870963    0.248043   -2.662804
  C     -0.477492    0.608191   -4.101052
  H      0.206773    1.458299   -4.118748
  H     -1.368442    0.929419   -4.647855
  C      0.184673   -0.506640   -4.916760
  C      3.037640   -2.366715   -3.923509
  N      2.280360   -2.454408   -4.967692
  C      4.321736   -2.017932   -4.016641
  H      4.879940   -1.911668   -3.173823
  H      4.710148   -1.670882   -4.883561
  H      1.270423   -2.412650   -4.866143
  H      2.581829   -2.055282   -5.846878
  O     -0.158685   -1.701088   -4.657981
  F      1.055938   -0.174410   -5.740373
  C      2.497991   -1.469464   -1.610303
  C      1.582841   -0.321986   -2.042619
  H      2.193083   -1.833912   -0.625420
  H      3.523356   -1.103982   -1.490392
  C      0.100160   -0.673551   -1.915815
  H      1.822311   -0.040361   -3.072834
  H      1.813180    0.557019   -1.433266
  H     -0.063284   -1.679120   -2.301112
  H     -0.168820   -0.691680   -0.853831
  H     -1.001048    1.181040   -2.104071
  H     -1.844645   -0.246592   -2.663281
  H      1.472592   -3.051527   -2.694366
  H      3.083201   -3.490638   -2.141472

 Total Charge           Charge          ....    0
 Multiplicity           Mult            ....    1
 Number of Electrons    NEL             ....   94
 Basis Dimension        Dim             ....  468

ORBITAL ENERGIES
----------------

  NO   OCC          E(Eh)            E(eV)
   0   2.0000     -24.349809      -662.5920
   1   2.0000     -18.776698      -510.9399
   2   2.0000     -13.953560      -379.6957
   3   2.0000     -10.071845      -274.0688
   4   2.0000      -9.923351      -270.0281
   5   2.0000      -9.899996      -269.3926
   6   2.0000      -9.881832      -268.8983
   7   2.0000      -9.880133      -268.8521
   8   2.0000      -9.879465      -268.8339
   9   2.0000      -9.874505      -268.6989
  10   2.0000      -9.869304      -268.5574
  11   2.0000      -9.795817      -266.5577
  12   2.0000      -1.244411       -33.8621
  13   2.0000      -0.970557       -26.4102
  14   2.0000      -0.837400       -22.7868
  15   2.0000      -0.755553       -20.5596
  16   2.0000      -0.719372       -19.5751
  17   2.0000      -0.681014       -18.5313
  18   2.0000      -0.642399       -17.4806
  19   2.0000      -0.617684       -16.8080
  20   2.0000      -0.598769       -16.2933
  21   2.0000      -0.559650       -15.2288
  22   2.0000      -0.525482       -14.2991
  23   2.0000      -0.516197       -14.0464
  24   2.0000      -0.498955       -13.5773
  25   2.0000      -0.485917       -13.2225
  26   2.0000      -0.473029       -12.8718
  27   2.0000      -0.445931       -12.1344
  28   2.0000      -0.431438       -11.7400
  29   2.0000      -0.426793       -11.6136
  30   2.0000      -0.419797       -11.4233
  31   2.0000      -0.395108       -10.7514
  32   2.0000      -0.378354       -10.2955
  33   2.0000      -0.363321        -9.8865
  34   2.0000      -0.360342        -9.8054
  35   2.0000      -0.347594        -9.4585
  36   2.0000      -0.336449        -9.1553
  37   2.0000      -0.328268        -8.9326
  38   2.0000      -0.318151        -8.6573
  39   2.0000      -0.316367        -8.6088
  40   2.0000      -0.299002        -8.1363
  41   2.0000      -0.293028        -7.9737
  42   2.0000      -0.281936        -7.6719
  43   2.0000      -0.276283        -7.5181
  44   2.0000      -0.273308        -7.4371
  45   2.0000      -0.254622        -6.9286
  46   2.0000      -0.139749        -3.8028
  47   0.0000      -0.089577        -2.4375
  48   0.0000       0.002146         0.0584
  49   0.0000       0.018237         0.4963
  50   0.0000       0.030351         0.8259
  51   0.0000       0.033792         0.9195

MULLIKEN ATOMIC CHARGES
-----------------------
   0 C :   -0.220418
   1 C :   -0.149424
   2 C :   -0.242704
   3 H :    0.133228
   4 H :    0.138192
   5 C :    0.296973
   6 C :    0.114657
   7 N :   -0.351053
   8 C :   -0.414492
   9 H :    0.084280
  10 H :    0.071763
  11 H :    0.227204
  12 H :    0.195651
  13 O :   -0.321138
  14 F :   -0.047646
  15 C :   -0.118491
  16 C :   -0.202156
  17 H :    0.075362
  18 H :    0.100938
  19 C :   -0.211571
  20 H :    0.110324
  21 H :    0.082891
  22 H :    0.122081
  23 H :    0.096978
  24 H :    0.102999
  25 H :    0.104764
  26 H :    0.106544
  27 H :    0.114265
Sum of atomic charges:    0.0000000

LOEWDIN ATOMIC CHARGES
----------------------
   0 C :   -0.216629
   1 C :   -0.257599
   2 C :   -0.243337
   3 H :    0.150879
   4 H :    0.162093
   5 C :   -0.527623
   6 C :   -0.397942
   7 N :    0.040247
   8 C :   -0.295931
   9 H :    0.101940
  10 H :    0.093139
  11 H :    0.137239
  12 H :    0.160603
  13 O :    0.086607
  14 F :    0.377669
  15 C :   -0.254494
  16 C :   -0.262982
  17 H :    0.136949
  18 H :    0.139941
  19 C :   -0.271655
  20 H :    0.141958
  21 H :    0.136804
  22 H :    0.142147
  23 H :    0.139761
  24 H :    0.143154
  25 H :    0.145028
  26 H :    0.138817
  27 H :    0.153216

  Mayer bond orders larger than 0.100000
B(  0-C ,  6-C ) :   0.9530 B(  0-C , 15-C ) :   0.9910 B(  0-C , 26-H ) :   0.9757
B(  0-C , 27-H ) :   0.9484 B(  1-C ,  2-C ) :   1.0046 B(  1-C , 19-C ) :   1.0067
B(  1-C , 24-H ) :   0.9462 B(  1-C , 25-H ) :   0.9452 B(  2-C ,  3-H ) :   0.9394
B(  2-C ,  4-H ) :   0.9090 B(  2-C ,  5-C ) :   1.0292 B(  5-C , 13-O ) :   1.9320
B(  5-C , 14-F ) :   1.2073 B(  6-C ,  7-N ) :   1.2860 B(  6-C ,  8-C ) :   1.7255
B(  7-N , 11-H ) :   0.8516 B(  7-N , 12-H ) :   0.9218 B(  8-C ,  9-H ) :   0.9792
B(  8-C , 10-H ) :   0.9726 B( 11-H , 13-O ) :   0.1338 B( 15-C , 16-C ) :   1.0116
B( 15-C , 17-H ) :   0.9362 B( 15-C , 18-H ) :   0.9431 B( 16-C , 19-C ) :   0.9958
B( 16-C , 20-H ) :   0.9424 B( 16-C , 21-H ) :   0.9396 B( 19-C , 22-H ) :   0.9589
B( 19-C , 23-H ) :   0.9433

Dispersion correction           -0.031301268
FINAL SINGLE POINT ENERGY      -581.893949237507

DIPOLE MOMENT
-------------
                                X             Y             Z
Electronic contribution:     -3.42257       0.72881     -12.79496
Nuclear contribution   :      2.21030       0.63135      12.80988
                        -----------------------------------------
Total Dipole Moment    :     -1.21227       1.36016       0.01492
                        -----------------------------------------
Magnitude (a.u.)       :      1.82205
Magnitude (Debye)      :      4.63127

Rotational constants in cm-1:     0.039980     0.026547     0.019089
Rotational constants in MHz :  1198.568620   795.867393   572.288555

                             ****ORCA TERMINATED NORMALLY****
TOTAL RUN TIME: 0 days 0 hours 0 minutes 15 seconds 787 msec
