                         Program Version 5.0.0 -  RELEASE  -
|  1> !wB97X-D3 RIJCOSX def2-TZVP def2/J TightSCF
|  2> *xyz -1 1
|  3> C         -7.33044       -2.67899       -3.20681
|  4> S         -6.01966       -2.92697       -4.41913
|  5> O         -5.64583       -1.58838       -4.91931
|  6> O         -4.88196       -3.50370       -3.66724
|  7> O         -6.54927       -3.80515       -5.42507
|  8> C         -7.46900       -1.24615       -2.71383
|  9> H         -7.11825       -3.37982       -2.39805
| 10> H         -8.24184       -3.00474       -3.70651
| 11> H         -7.67580       -0.60214       -3.54292
| 12> H         -6.55749       -0.94096       -2.24382
| 13> H         -8.27114       -1.18777       -2.00810
| 14> *
| 15> %MaxCore 64000
| 16>
| 17> %pal nprocs 4
| 18> end
| 19>
| 20> %scf
| 21>   MaxIter 150
| 22> end
| 23>
| 24>
| 25>                          ****END OF INPUT****

CARTESIAN COORDINATES (ANGSTROEM)
---------------------------------
  C     -7.330440   -2.678990   -3.206810
  S     -6.019660   -2.926970   -4.419130
  O     -5.645830   -1.588380   -4.919310
  O     -4.881960   -3.503700   -3.667240
  O     -6.549270   -3.805150   -5.425070
  C     -7.469000   -1.246150   -2.713830
  H     -7.118250   -3.379820   -2.398050
  H     -8.241840   -3.004740   -3.706510
  H     -7.675800   -0.602140   -3.542920
  H     -6.557490   -0.940960   -2.243820
  H     -8.271140   -1.187770   -2.008100

 Total Charge           Charge          ....   -1
 Multiplicity           Mult            ....    1
 Number of Electrons    NEL             ....   58
 Basis Dimension        Dim             ....  222

ORBITAL ENERGIES
----------------

  NO   OCC          E(Eh)            E(eV)
   0   2.0000     -88.928733     -2419.8738
   1   2.0000     -19.004840      -517.1480
   2   2.0000     -18.993754      -516.8463
   3   2.0000     -18.989685      -516.7356
   4   2.0000     -10.135797      -275.8090
   5   2.0000     -10.128278      -275.6045
   6   2.0000      -7.991331      -217.4552
   7   2.0000      -5.945555      -161.7868
   8   2.0000      -5.944346      -161.7539
   9   2.0000      -5.944054      -161.7459
  10   2.0000      -1.029393       -28.0112
  11   2.0000      -0.896344       -24.3908
  12   2.0000      -0.873800       -23.7773
  13   2.0000      -0.749328       -20.3902
  14   2.0000      -0.617811       -16.8115
  15   2.0000      -0.484565       -13.1857
  16   2.0000      -0.420439       -11.4407
  17   2.0000      -0.412228       -11.2173
  18   2.0000      -0.370951       -10.0941
  19   2.0000      -0.351903        -9.5758
  20   2.0000      -0.349448        -9.5090
  21   2.0000      -0.321173        -8.7396
  22   2.0000      -0.312775        -8.5110
  23   2.0000      -0.239600        -6.5198
  24   2.0000      -0.238464        -6.4889
  25   2.0000      -0.201820        -5.4918
  26   2.0000      -0.194756        -5.2996
  27   2.0000      -0.186499        -5.0749
  28   2.0000      -0.149024        -4.0552
  29   0.0000       0.251747         6.8504
  30   0.0000       0.298409         8.1201
  31   0.0000       0.310048         8.4368
  32   0.0000       0.316846         8.6218
  33   0.0000       0.340976         9.2784

MULLIKEN ATOMIC CHARGES
-----------------------
   0 C :   -0.257236
   1 S :    0.861493
   2 O :   -0.596450
   3 O :   -0.604573
   4 O :   -0.559829
   5 C :   -0.311261
   6 H :    0.094536
   7 H :    0.088801
   8 H :    0.113410
   9 H :    0.108633
  10 H :    0.062476
Sum of atomic charges:   -1.0000000

LOEWDIN ATOMIC CHARGES
----------------------
   0 C :   -0.424384
   1 S :    0.431092
   2 O :   -0.417872
   3 O :   -0.435004
   4 O :   -0.376001
   5 C :   -0.342247
   6 H :    0.119427
   7 H :    0.117093
   8 H :    0.114876
   9 H :    0.115321
  10 H :    0.097697

  Mayer bond orders larger than 0.100000
B(  0-C ,  1-S ) :   0.8804 B(  0-C ,  5-C ) :   0.9713 B(  0-C ,  6-H ) :   0.9664
B(  0-C ,  7-H ) :   0.9625 B(  1-S ,  2-O ) :   1.7375 B(  1-S ,  3-O ) :   1.7544
B(  1-S ,  4-O ) :   1.8111 B(  5-C ,  8-H ) :   0.9774 B(  5-C ,  9-H ) :   0.9797
B(  5-C , 10-H ) :   0.9653

Dispersion correction           -0.002806043
FINAL SINGLE POINT ENERGY      -703.213704966172

DIPOLE MOMENT
-------------
                                X             Y             Z
Electronic contribution:      4.68822      -3.52644      -5.10893
Nuclear contribution   :     -6.18165       4.01759       6.33106
                        -----------------------------------------
Total Dipole Moment    :     -1.49343       0.49115       1.22213
                        -----------------------------------------
Magnitude (a.u.)       :      1.99128
Magnitude (Debye)      :      5.06142

Rotational constants in cm-1:     0.161711     0.082788     0.081165
Rotational constants in MHz :  4847.971521  2481.906910  2433.276832

                             ****ORCA TERMINATED NORMALLY****
TOTAL RUN TIME: 0 days 0 hours 0 minutes 39 seconds 307 msec
