                         Program Version 5.0.0 -  RELEASE  -
|  1> !wB97X-D3 RIJCOSX def2-TZVP def2/J TightSCF
|  2> *xyz 1 1
|  3> C         -2.16038       -1.36949       -3.46710
|  4> N         -3.03011       -1.91086       -4.54107
|  5> C         -2.04772        0.14658       -3.51177
|  6> H         -3.47744       -2.79151       -4.25710
|  7> H         -2.53801       -2.01786       -5.43808
|  8> H         -3.89159       -1.37604       -4.71437
|  9> H         -1.18444       -1.84400       -3.56639
| 10> H         -2.59819       -1.70838       -2.52848
| 11> H         -1.61525        0.44478       -4.44395
| 12> H         -1.42718        0.48198       -2.70720
| 13> H         -3.02145        0.57958       -3.41560
| 14> *
| 15> %MaxCore 64000
| 16>
| 17> %pal nprocs 4
| 18> end
| 19>
| 20> %scf
| 21>   MaxIter 150
| 22> end
| 23>
| 24>
| 25>                          ****END OF INPUT****

CARTESIAN COORDINATES (ANGSTROEM)
---------------------------------
  C     -2.160380   -1.369490   -3.467100
  N     -3.030110   -1.910860   -4.541070
  C     -2.047720    0.146580   -3.511770
  H     -3.477440   -2.791510   -4.257100
  H     -2.538010   -2.017860   -5.438080
  H     -3.891590   -1.376040   -4.714370
  H     -1.184440   -1.844000   -3.566390
  H     -2.598190   -1.708380   -2.528480
  H     -1.615250    0.444780   -4.443950
  H     -1.427180    0.481980   -2.707200
  H     -3.021450    0.579580   -3.415600

 Total Charge           Charge          ....    1
 Multiplicity           Mult            ....    1
 Number of Electrons    NEL             ....   26
 Basis Dimension        Dim             ....  141

ORBITAL ENERGIES
----------------

  NO   OCC          E(Eh)            E(eV)
   0   2.0000     -14.758399      -401.5965
   1   2.0000     -10.528986      -286.5083
   2   2.0000     -10.446267      -284.2574
   3   2.0000      -1.334817       -36.3222
   4   2.0000      -1.083010       -29.4702
   5   2.0000      -0.957521       -26.0555
   6   2.0000      -0.912503       -24.8305
   7   2.0000      -0.872231       -23.7346
   8   2.0000      -0.800306       -21.7774
   9   2.0000      -0.742693       -20.2097
  10   2.0000      -0.677946       -18.4478
  11   2.0000      -0.662783       -18.0353
  12   2.0000      -0.644617       -17.5409
  13   0.0000      -0.109458        -2.9785
  14   0.0000      -0.048561        -1.3214
  15   0.0000      -0.046658        -1.2696
  16   0.0000      -0.026963        -0.7337
  17   0.0000       0.011215         0.3052

MULLIKEN ATOMIC CHARGES
-----------------------
   0 C :   -0.190018
   1 N :   -0.317575
   2 C :   -0.361724
   3 H :    0.338320
   4 H :    0.345105
   5 H :    0.328194
   6 H :    0.193112
   7 H :    0.183280
   8 H :    0.150154
   9 H :    0.182572
  10 H :    0.148578
Sum of atomic charges:    1.0000000

LOEWDIN ATOMIC CHARGES
----------------------
   0 C :   -0.276475
   1 N :    0.166220
   2 C :   -0.275365
   3 H :    0.225697
   4 H :    0.225565
   5 H :    0.222399
   6 H :    0.153727
   7 H :    0.151679
   8 H :    0.130437
   9 H :    0.146979
  10 H :    0.129138

  Mayer bond orders larger than 0.100000
B(  0-C ,  1-N ) :   0.8603 B(  0-C ,  2-C ) :   1.0039 B(  0-C ,  6-H ) :   0.9547
B(  0-C ,  7-H ) :   0.9545 B(  1-N ,  3-H ) :   0.8765 B(  1-N ,  4-H ) :   0.8676
B(  1-N ,  5-H ) :   0.8744 B(  2-C ,  8-H ) :   0.9603 B(  2-C ,  9-H ) :   0.9587
B(  2-C , 10-H ) :   0.9621

Dispersion correction           -0.001538115
FINAL SINGLE POINT ENERGY      -135.547396651057

DIPOLE MOMENT
-------------
                                X             Y             Z
Electronic contribution:     -0.66234      -1.50819      -0.78681
Nuclear contribution   :     -0.15215       0.37393      -0.04773
                        -----------------------------------------
Total Dipole Moment    :     -0.81448      -1.13426      -0.83454
                        -----------------------------------------
Magnitude (a.u.)       :      1.62677
Magnitude (Debye)      :      4.13492

Rotational constants in cm-1:     1.020762     0.277172     0.247319
Rotational constants in MHz : 30601.664035  8309.399682  7414.438136

                             ****ORCA TERMINATED NORMALLY****
TOTAL RUN TIME: 0 days 0 hours 0 minutes 17 seconds 887 msec
