                         Program Version 5.0.0 -  RELEASE  -
|  1> !wB97X-D3 RIJCOSX def2-TZVP def2/J TightSCF
|  2> *xyz 0 1
|  3> C         -7.33044       -2.67899       -3.20681
|  4> S         -6.01966       -2.92697       -4.41913
|  5> F         -5.64583       -1.58838       -4.91931
|  6> O         -4.88196       -3.50370       -3.66724
|  7> O         -6.54927       -3.80515       -5.42507
|  8> C         -7.46900       -1.24615       -2.71383
|  9> H         -7.11825       -3.37982       -2.39805
| 10> H         -8.24184       -3.00474       -3.70651
| 11> H         -7.67580       -0.60214       -3.54292
| 12> H         -6.55749       -0.94096       -2.24382
| 13> H         -8.27114       -1.18777       -2.00810
| 14> *
| 15> %MaxCore 64000
| 16>
| 17> %pal nprocs 4
| 18> end
| 19>
| 20> %scf
| 21>   MaxIter 150
| 22> end
| 23>
| 24>
| 25>                          ****END OF INPUT****

CARTESIAN COORDINATES (ANGSTROEM)
---------------------------------
  C     -7.330440   -2.678990   -3.206810
  S     -6.019660   -2.926970   -4.419130
  F     -5.645830   -1.588380   -4.919310
  O     -4.881960   -3.503700   -3.667240
  O     -6.549270   -3.805150   -5.425070
  C     -7.469000   -1.246150   -2.713830
  H     -7.118250   -3.379820   -2.398050
  H     -8.241840   -3.004740   -3.706510
  H     -7.675800   -0.602140   -3.542920
  H     -6.557490   -0.940960   -2.243820
  H     -8.271140   -1.187770   -2.008100

 Total Charge           Charge          ....    0
 Multiplicity           Mult            ....    1
 Number of Electrons    NEL             ....   58
 Basis Dimension        Dim             ....  222

ORBITAL ENERGIES
----------------

  NO   OCC          E(Eh)            E(eV)
   0   2.0000     -89.193683     -2427.0835
   1   2.0000     -24.890656      -677.3092
   2   2.0000     -19.245063      -523.6848
   3   2.0000     -19.229987      -523.2746
   4   2.0000     -10.340040      -281.3668
   5   2.0000     -10.301346      -280.3139
   6   2.0000      -8.256992      -224.6842
   7   2.0000      -6.214513      -169.1055
   8   2.0000      -6.207933      -168.9264
   9   2.0000      -6.207549      -168.9160
  10   2.0000      -1.472597       -40.0714
  11   2.0000      -1.222699       -33.2713
  12   2.0000      -1.122026       -30.5319
  13   2.0000      -0.946796       -25.7636
  14   2.0000      -0.835489       -22.7348
  15   2.0000      -0.786907       -21.4128
  16   2.0000      -0.692131       -18.8338
  17   2.0000      -0.672654       -18.3038
  18   2.0000      -0.646718       -17.5981
  19   2.0000      -0.602313       -16.3898
  20   2.0000      -0.574485       -15.6325
  21   2.0000      -0.549783       -14.9604
  22   2.0000      -0.542062       -14.7503
  23   2.0000      -0.512994       -13.9593
  24   2.0000      -0.495414       -13.4809
  25   2.0000      -0.482867       -13.1395
  26   2.0000      -0.430005       -11.7010
  27   2.0000      -0.416841       -11.3428
  28   2.0000      -0.404714       -11.0128
  29   0.0000       0.086015         2.3406
  30   0.0000       0.128371         3.4932
  31   0.0000       0.145960         3.9718
  32   0.0000       0.146501         3.9865
  33   0.0000       0.158684         4.3180

MULLIKEN ATOMIC CHARGES
-----------------------
   0 C :   -0.258361
   1 S :    0.886926
   2 F :   -0.124344
   3 O :   -0.461779
   4 O :   -0.416721
   5 C :   -0.357270
   6 H :    0.168876
   7 H :    0.156993
   8 H :    0.130140
   9 H :    0.141205
  10 H :    0.134334
Sum of atomic charges:    0.0000000

LOEWDIN ATOMIC CHARGES
----------------------
   0 C :   -0.382353
   1 S :    0.558032
   2 F :    0.060358
   3 O :   -0.318300
   4 O :   -0.261640
   5 C :   -0.316350
   6 H :    0.148507
   7 H :    0.141597
   8 H :    0.120091
   9 H :    0.124159
  10 H :    0.125899

  Mayer bond orders larger than 0.100000
B(  0-C ,  1-S ) :   0.9097 B(  0-C ,  5-C ) :   0.9786 B(  0-C ,  6-H ) :   0.9421
B(  0-C ,  7-H ) :   0.9442 B(  1-S ,  2-F ) :   1.1091 B(  1-S ,  3-O ) :   1.8851
B(  1-S ,  4-O ) :   1.9401 B(  5-C ,  8-H ) :   0.9702 B(  5-C ,  9-H ) :   0.9694
B(  5-C , 10-H ) :   0.9640

Dispersion correction           -0.002799584
FINAL SINGLE POINT ENERGY      -727.746657759970

DIPOLE MOMENT
-------------
                                X             Y             Z
Electronic contribution:      5.64236      -1.70167      -6.38610
Nuclear contribution   :     -6.81251       2.87933       7.15058
                        -----------------------------------------
Total Dipole Moment    :     -1.17015       1.17766       0.76447
                        -----------------------------------------
Magnitude (a.u.)       :      1.82772
Magnitude (Debye)      :      4.64569

Rotational constants in cm-1:     0.152543     0.082494     0.078987
Rotational constants in MHz :  4573.135887  2473.116216  2367.980829

                             ****ORCA TERMINATED NORMALLY****
TOTAL RUN TIME: 0 days 0 hours 0 minutes 39 seconds 458 msec
