                         Program Version 5.0.0 -  RELEASE  -
|  1> !wB97X-D3 RIJCOSX def2-TZVP def2/J TightSCF
|  2> *xyz 0 1
|  3> C         -2.16038       -1.36949       -3.46710
|  4> C         -3.03011       -1.91086       -4.54107
|  5> C         -2.04772        0.14658       -3.51177
|  6> H         -3.47744       -2.79151       -4.25710
|  7> H         -2.53801       -2.01786       -5.43808
|  8> H         -3.89159       -1.37604       -4.71437
|  9> H         -1.18444       -1.84400       -3.56639
| 10> H         -2.59819       -1.70838       -2.52848
| 11> H         -1.61525        0.44478       -4.44395
| 12> H         -1.42718        0.48198       -2.70720
| 13> H         -3.02145        0.57958       -3.41560
| 14> *
| 15> %MaxCore 64000
| 16>
| 17> %pal nprocs 4
| 18> end
| 19>
| 20> %scf
| 21>   MaxIter 150
| 22> end
| 23>
| 24>
| 25>                          ****END OF INPUT****

CARTESIAN COORDINATES (ANGSTROEM)
---------------------------------
  C     -2.160380   -1.369490   -3.467100
  C     -3.030110   -1.910860   -4.541070
  C     -2.047720    0.146580   -3.511770
  H     -3.477440   -2.791510   -4.257100
  H     -2.538010   -2.017860   -5.438080
  H     -3.891590   -1.376040   -4.714370
  H     -1.184440   -1.844000   -3.566390
  H     -2.598190   -1.708380   -2.528480
  H     -1.615250    0.444780   -4.443950
  H     -1.427180    0.481980   -2.707200
  H     -3.021450    0.579580   -3.415600

 Total Charge           Charge          ....    0
 Multiplicity           Mult            ....    1
 Number of Electrons    NEL             ....   26
 Basis Dimension        Dim             ....  141

ORBITAL ENERGIES
----------------

  NO   OCC          E(Eh)            E(eV)
   0   2.0000     -10.260388      -279.1993
   1   2.0000     -10.250081      -278.9189
   2   2.0000     -10.230848      -278.3955
   3   2.0000      -0.907788       -24.7022
   4   2.0000      -0.805553       -21.9202
   5   2.0000      -0.698250       -19.0003
   6   2.0000      -0.571735       -15.5577
   7   2.0000      -0.540081       -14.6964
   8   2.0000      -0.499334       -13.5876
   9   2.0000      -0.490818       -13.3558
  10   2.0000      -0.433310       -11.7910
  11   2.0000      -0.421010       -11.4563
  12   2.0000      -0.419939       -11.4271
  13   0.0000       0.121681         3.3111
  14   0.0000       0.165151         4.4940
  15   0.0000       0.170454         4.6383
  16   0.0000       0.175553         4.7770
  17   0.0000       0.199054         5.4165

MULLIKEN ATOMIC CHARGES
-----------------------
   0 C :   -0.145468
   1 C :   -0.341403
   2 C :   -0.326350
   3 H :    0.110657
   4 H :    0.110498
   5 H :    0.102832
   6 H :    0.085538
   7 H :    0.084292
   8 H :    0.103854
   9 H :    0.109827
  10 H :    0.105722
Sum of atomic charges:   -0.0000000

LOEWDIN ATOMIC CHARGES
----------------------
   0 C :   -0.320623
   1 C :   -0.308906
   2 C :   -0.303777
   3 H :    0.110464
   4 H :    0.107387
   5 H :    0.109101
   6 H :    0.131708
   7 H :    0.131774
   8 H :    0.115042
   9 H :    0.113496
  10 H :    0.114333

  Mayer bond orders larger than 0.100000
B(  0-C ,  1-C ) :   0.9713 B(  0-C ,  2-C ) :   0.9820 B(  0-C ,  6-H ) :   0.9764
B(  0-C ,  7-H ) :   0.9811 B(  1-C ,  3-H ) :   0.9859 B(  1-C ,  4-H ) :   0.9800
B(  1-C ,  5-H ) :   0.9831 B(  2-C ,  8-H ) :   0.9779 B(  2-C ,  9-H ) :   0.9825
B(  2-C , 10-H ) :   0.9809

Dispersion correction           -0.001485600
FINAL SINGLE POINT ENERGY      -119.135870567238

DIPOLE MOMENT
-------------
                                X             Y             Z
Electronic contribution:      0.31601      -0.13200       0.27621
Nuclear contribution   :     -0.34625       0.09603      -0.26933
                        -----------------------------------------
Total Dipole Moment    :     -0.03024      -0.03597       0.00688
                        -----------------------------------------
Magnitude (a.u.)       :      0.04749
Magnitude (Debye)      :      0.12071

Rotational constants in cm-1:     1.028617     0.291238     0.258956
Rotational constants in MHz : 30837.159054  8731.095379  7763.318586

                             ****ORCA TERMINATED NORMALLY****
TOTAL RUN TIME: 0 days 0 hours 0 minutes 17 seconds 6 msec
