                         Program Version 5.0.0 -  RELEASE  -
|  1> !wB97X-D3 RIJCOSX def2-TZVP def2/J TightSCF
|  2> *xyz 0 1
|  3> C         -7.33044       -2.67899       -3.20681
|  4> S         -6.01966       -2.92697       -4.41913
|  5> O         -5.64583       -1.58838       -4.91931
|  6> F         -4.88196       -3.50370       -3.66724
|  7> O         -6.54927       -3.80515       -5.42507
|  8> C         -7.46900       -1.24615       -2.71383
|  9> H         -7.11825       -3.37982       -2.39805
| 10> H         -8.24184       -3.00474       -3.70651
| 11> H         -7.67580       -0.60214       -3.54292
| 12> H         -6.55749       -0.94096       -2.24382
| 13> H         -8.27114       -1.18777       -2.00810
| 14> *
| 15> %MaxCore 64000
| 16>
| 17> %pal nprocs 4
| 18> end
| 19>
| 20> %scf
| 21>   MaxIter 150
| 22> end
| 23>
| 24>
| 25>                          ****END OF INPUT****

CARTESIAN COORDINATES (ANGSTROEM)
---------------------------------
  C     -7.330440   -2.678990   -3.206810
  S     -6.019660   -2.926970   -4.419130
  O     -5.645830   -1.588380   -4.919310
  F     -4.881960   -3.503700   -3.667240
  O     -6.549270   -3.805150   -5.425070
  C     -7.469000   -1.246150   -2.713830
  H     -7.118250   -3.379820   -2.398050
  H     -8.241840   -3.004740   -3.706510
  H     -7.675800   -0.602140   -3.542920
  H     -6.557490   -0.940960   -2.243820
  H     -8.271140   -1.187770   -2.008100

 Total Charge           Charge          ....    0
 Multiplicity           Mult            ....    1
 Number of Electrons    NEL             ....   58
 Basis Dimension        Dim             ....  222

ORBITAL ENERGIES
----------------

  NO   OCC          E(Eh)            E(eV)
   0   2.0000     -89.193904     -2427.0895
   1   2.0000     -24.887793      -677.2313
   2   2.0000     -19.245186      -523.6881
   3   2.0000     -19.233526      -523.3708
   4   2.0000     -10.340370      -281.3758
   5   2.0000     -10.292298      -280.0677
   6   2.0000      -8.257200      -224.6898
   7   2.0000      -6.214645      -169.1091
   8   2.0000      -6.208330      -168.9372
   9   2.0000      -6.207662      -168.9191
  10   2.0000      -1.469012       -39.9738
  11   2.0000      -1.223878       -33.3034
  12   2.0000      -1.125583       -30.6287
  13   2.0000      -0.942271       -25.6405
  14   2.0000      -0.836716       -22.7682
  15   2.0000      -0.779631       -21.2148
  16   2.0000      -0.682582       -18.5740
  17   2.0000      -0.668808       -18.1992
  18   2.0000      -0.655400       -17.8343
  19   2.0000      -0.596280       -16.2256
  20   2.0000      -0.582973       -15.8635
  21   2.0000      -0.553720       -15.0675
  22   2.0000      -0.526968       -14.3395
  23   2.0000      -0.500983       -13.6325
  24   2.0000      -0.495883       -13.4937
  25   2.0000      -0.480537       -13.0761
  26   2.0000      -0.429535       -11.6883
  27   2.0000      -0.423123       -11.5138
  28   2.0000      -0.407795       -11.0967
  29   0.0000       0.099746         2.7142
  30   0.0000       0.111710         3.0398
  31   0.0000       0.135804         3.6954
  32   0.0000       0.158353         4.3090
  33   0.0000       0.160799         4.3756

MULLIKEN ATOMIC CHARGES
-----------------------
   0 C :   -0.270394
   1 S :    0.889570
   2 O :   -0.457481
   3 F :   -0.126737
   4 O :   -0.418603
   5 C :   -0.330966
   6 H :    0.141050
   7 H :    0.166854
   8 H :    0.150257
   9 H :    0.128282
  10 H :    0.128168
Sum of atomic charges:    0.0000000

LOEWDIN ATOMIC CHARGES
----------------------
   0 C :   -0.388993
   1 S :    0.559265
   2 O :   -0.304702
   3 F :    0.049763
   4 O :   -0.262424
   5 C :   -0.309364
   6 H :    0.135316
   7 H :    0.147260
   8 H :    0.127811
   9 H :    0.122913
  10 H :    0.123152

  Mayer bond orders larger than 0.100000
B(  0-C ,  1-S ) :   0.9032 B(  0-C ,  5-C ) :   0.9803 B(  0-C ,  6-H ) :   0.9487
B(  0-C ,  7-H ) :   0.9418 B(  1-S ,  2-O ) :   1.8767 B(  1-S ,  3-F ) :   1.1099
B(  1-S ,  4-O ) :   1.9404 B(  5-C ,  8-H ) :   0.9677 B(  5-C ,  9-H ) :   0.9727
B(  5-C , 10-H ) :   0.9590

Dispersion correction           -0.002786952
FINAL SINGLE POINT ENERGY      -727.749825817692

DIPOLE MOMENT
-------------
                                X             Y             Z
Electronic contribution:      6.99386      -4.99488      -4.26213
Nuclear contribution   :     -7.60849       4.87515       5.84588
                        -----------------------------------------
Total Dipole Moment    :     -0.61463      -0.11973       1.58375
                        -----------------------------------------
Magnitude (a.u.)       :      1.70305
Magnitude (Debye)      :      4.32880

Rotational constants in cm-1:     0.153704     0.080342     0.079431
Rotational constants in MHz :  4607.928650  2408.599360  2381.267225

                             ****ORCA TERMINATED NORMALLY****
TOTAL RUN TIME: 0 days 0 hours 0 minutes 39 seconds 132 msec
