                         Program Version 5.0.0 -  RELEASE  -
|  1> !wB97X-D3 RIJCOSX def2-TZVP def2/J TightSCF
|  2> *xyz 0 1
|  3> C         -7.33044       -2.67899       -3.20681
|  4> S         -6.01966       -2.92697       -4.41913
|  5> O         -5.64583       -1.58838       -4.91931
|  6> O         -4.88196       -3.50370       -3.66724
|  7> F         -6.54927       -3.80515       -5.42507
|  8> C         -7.46900       -1.24615       -2.71383
|  9> H         -7.11825       -3.37982       -2.39805
| 10> H         -8.24184       -3.00474       -3.70651
| 11> H         -7.67580       -0.60214       -3.54292
| 12> H         -6.55749       -0.94096       -2.24382
| 13> H         -8.27114       -1.18777       -2.00810
| 14> *
| 15> %MaxCore 64000
| 16>
| 17> %pal nprocs 4
| 18> end
| 19>
| 20> %scf
| 21>   MaxIter 150
| 22> end
| 23>
| 24>
| 25>                          ****END OF INPUT****

CARTESIAN COORDINATES (ANGSTROEM)
---------------------------------
  C     -7.330440   -2.678990   -3.206810
  S     -6.019660   -2.926970   -4.419130
  O     -5.645830   -1.588380   -4.919310
  O     -4.881960   -3.503700   -3.667240
  F     -6.549270   -3.805150   -5.425070
  C     -7.469000   -1.246150   -2.713830
  H     -7.118250   -3.379820   -2.398050
  H     -8.241840   -3.004740   -3.706510
  H     -7.675800   -0.602140   -3.542920
  H     -6.557490   -0.940960   -2.243820
  H     -8.271140   -1.187770   -2.008100

 Total Charge           Charge          ....    0
 Multiplicity           Mult            ....    1
 Number of Electrons    NEL             ....   58
 Basis Dimension        Dim             ....  222

ORBITAL ENERGIES
----------------

  NO   OCC          E(Eh)            E(eV)
   0   2.0000     -89.196118     -2427.1498
   1   2.0000     -24.910508      -677.8494
   2   2.0000     -19.233806      -523.3785
   3   2.0000     -19.230641      -523.2924
   4   2.0000     -10.341006      -281.3931
   5   2.0000     -10.292354      -280.0692
   6   2.0000      -8.259404      -224.7498
   7   2.0000      -6.216732      -169.1659
   8   2.0000      -6.210382      -168.9931
   9   2.0000      -6.209988      -168.9824
  10   2.0000      -1.506073       -40.9823
  11   2.0000      -1.207654       -32.8619
  12   2.0000      -1.108496       -30.1637
  13   2.0000      -0.942396       -25.6439
  14   2.0000      -0.850616       -23.1464
  15   2.0000      -0.787570       -21.4309
  16   2.0000      -0.698011       -18.9938
  17   2.0000      -0.695327       -18.9208
  18   2.0000      -0.660502       -17.9732
  19   2.0000      -0.598026       -16.2731
  20   2.0000      -0.581725       -15.8296
  21   2.0000      -0.542245       -14.7552
  22   2.0000      -0.523537       -14.2462
  23   2.0000      -0.503617       -13.7041
  24   2.0000      -0.486467       -13.2374
  25   2.0000      -0.476417       -12.9640
  26   2.0000      -0.421370       -11.4661
  27   2.0000      -0.414845       -11.2885
  28   2.0000      -0.393884       -10.7181
  29   0.0000       0.101492         2.7617
  30   0.0000       0.110419         3.0046
  31   0.0000       0.132875         3.6157
  32   0.0000       0.155137         4.2215
  33   0.0000       0.159332         4.3357

MULLIKEN ATOMIC CHARGES
-----------------------
   0 C :   -0.262769
   1 S :    0.886112
   2 O :   -0.450074
   3 O :   -0.454032
   4 F :   -0.095923
   5 C :   -0.334763
   6 H :    0.164642
   7 H :    0.131970
   8 H :    0.139734
   9 H :    0.146046
  10 H :    0.129056
Sum of atomic charges:   -0.0000000

LOEWDIN ATOMIC CHARGES
----------------------
   0 C :   -0.391401
   1 S :    0.551994
   2 O :   -0.301337
   3 O :   -0.314138
   4 F :    0.104088
   5 C :   -0.303843
   6 H :    0.144250
   7 H :    0.132411
   8 H :    0.125720
   9 H :    0.128341
  10 H :    0.123914

  Mayer bond orders larger than 0.100000
B(  0-C ,  1-S ) :   0.9066 B(  0-C ,  5-C ) :   0.9857 B(  0-C ,  6-H ) :   0.9417
B(  0-C ,  7-H ) :   0.9441 B(  1-S ,  2-O ) :   1.8789 B(  1-S ,  3-O ) :   1.8876
B(  1-S ,  4-F ) :   1.1535 B(  5-C ,  8-H ) :   0.9681 B(  5-C ,  9-H ) :   0.9699
B(  5-C , 10-H ) :   0.9587

Dispersion correction           -0.002809093
FINAL SINGLE POINT ENERGY      -727.731244623087

DIPOLE MOMENT
-------------
                                X             Y             Z
Electronic contribution:      4.13097      -5.49458      -7.28420
Nuclear contribution   :     -5.87110       5.18927       7.67759
                        -----------------------------------------
Total Dipole Moment    :     -1.74013      -0.30531       0.39340
                        -----------------------------------------
Magnitude (a.u.)       :      1.80997
Magnitude (Debye)      :      4.60059

Rotational constants in cm-1:     0.155988     0.080452     0.078187
Rotational constants in MHz :  4676.405251  2411.902056  2343.983816

                             ****ORCA TERMINATED NORMALLY****
TOTAL RUN TIME: 0 days 0 hours 0 minutes 38 seconds 851 msec
