                         Program Version 5.0.0 -  RELEASE  -
|  1> !wB97X-D3 RIJCOSX def2-TZVP def2/J TightSCF xyzfile
|  2>
|  3> *xyzfile 0 1 D1.xyz
|  4>
|  5> %MaxCore 64000
|  6>
|  7> %pal nprocs 18
|  8> end
|  9>
| 10> %scf
| 11>   MaxIter 150
| 12> end
| 13>
| 14>
| 15>                          ****END OF INPUT****

CARTESIAN COORDINATES (ANGSTROEM)
---------------------------------
  C     -2.160376   -1.369486   -3.467104
  C     -3.030108   -1.910857   -4.541074
  C     -2.047717    0.146583   -3.511774
  C     -7.330440   -2.678991   -3.206811
  S     -6.019659   -2.926965   -4.419128
  H     -3.477443   -2.791513   -4.257096
  H     -2.538013   -2.017860   -5.438075
  H     -3.891589   -1.376039   -4.714365
  F     -5.645830   -1.588384   -4.919307
  O     -4.881961   -3.503697   -3.667235
  H     -1.184438   -1.843997   -3.566393
  H     -2.598195   -1.708376   -2.528477
  O     -6.549267   -3.805150   -5.425071
  C     -3.328755    0.875037   -3.103669
  H     -1.740034    0.452343   -4.517126
  H     -1.232611    0.434938   -2.842208
  C     -3.628487    0.771601   -1.609363
  H     -4.175106    0.490791   -3.682203
  H     -3.237812    1.928663   -3.381480
  C     -4.975718    1.361432   -1.190644
  H     -2.830700    1.276234   -1.054766
  H     -3.594312   -0.275838   -1.294603
  C     -6.184720    0.784347   -1.926464
  H     -4.956292    2.445725   -1.342200
  H     -5.097256    1.205252   -0.114136
  C     -6.286921   -0.735882   -1.893531
  H     -6.163994    1.100199   -2.974250
  H     -7.094530    1.223459   -1.504509
  C     -7.468999   -1.246153   -2.713833
  H     -6.360641   -1.090347   -0.859176
  H     -5.369848   -1.171853   -2.295982
  H     -7.601914   -0.601349   -3.585329
  H     -8.389791   -1.173436   -2.126922
  H     -7.118254   -3.379818   -2.398055
  H     -8.241838   -3.004745   -3.706513

 Total Charge           Charge          ....    0
 Multiplicity           Mult            ....    1
 Number of Electrons    NEL             ....  122
 Basis Dimension        Dim             ....  566

ORBITAL ENERGIES
----------------

  NO   OCC          E(Eh)            E(eV)
   0   2.0000     -89.199619     -2427.2450
   1   2.0000     -24.896451      -677.4669
   2   2.0000     -19.250782      -523.8404
   3   2.0000     -19.235631      -523.4281
   4   2.0000     -10.339948      -281.3643
   5   2.0000     -10.308900      -280.5194
   6   2.0000     -10.287431      -279.9352
   7   2.0000     -10.279689      -279.7246
   8   2.0000     -10.272775      -279.5364
   9   2.0000     -10.265770      -279.3458
  10   2.0000     -10.263354      -279.2801
  11   2.0000     -10.255697      -279.0717
  12   2.0000     -10.245349      -278.7901
  13   2.0000     -10.195865      -277.4436
  14   2.0000      -8.263236      -224.8541
  15   2.0000      -6.220737      -169.2749
  16   2.0000      -6.214035      -169.0925
  17   2.0000      -6.213857      -169.0877
  18   2.0000      -1.481888       -40.3242
  19   2.0000      -1.230244       -33.4766
  20   2.0000      -1.132853       -30.8265
  21   2.0000      -0.965919       -26.2840
  22   2.0000      -0.934316       -25.4240
  23   2.0000      -0.905220       -24.6323
  24   2.0000      -0.876351       -23.8467
  25   2.0000      -0.835111       -22.7245
  26   2.0000      -0.819695       -22.3050
  27   2.0000      -0.783752       -21.3270
  28   2.0000      -0.749227       -20.3875
  29   2.0000      -0.732085       -19.9211
  30   2.0000      -0.699541       -19.0355
  31   2.0000      -0.689964       -18.7749
  32   2.0000      -0.675571       -18.3832
  33   2.0000      -0.657217       -17.8838
  34   2.0000      -0.653688       -17.7877
  35   2.0000      -0.601248       -16.3608
  36   2.0000      -0.593552       -16.1514
  37   2.0000      -0.579724       -15.7751
  38   2.0000      -0.571179       -15.5426
  39   2.0000      -0.564170       -15.3518
  40   2.0000      -0.550726       -14.9860
  41   2.0000      -0.537684       -14.6311
  42   2.0000      -0.532215       -14.4823
  43   2.0000      -0.526851       -14.3363
  44   2.0000      -0.510117       -13.8810
  45   2.0000      -0.494423       -13.4539
  46   2.0000      -0.488220       -13.2851
  47   2.0000      -0.486081       -13.2269
  48   2.0000      -0.471718       -12.8361
  49   2.0000      -0.462544       -12.5865
  50   2.0000      -0.451202       -12.2778
  51   2.0000      -0.448031       -12.1915
  52   2.0000      -0.434243       -11.8164
  53   2.0000      -0.428878       -11.6704
  54   2.0000      -0.423690       -11.5292
  55   2.0000      -0.416859       -11.3433
  56   2.0000      -0.409781       -11.1507
  57   2.0000      -0.406701       -11.0669
  58   2.0000      -0.396005       -10.7758
  59   2.0000      -0.393028       -10.6948
  60   2.0000      -0.369066       -10.0428
  61   0.0000       0.081439         2.2161
  62   0.0000       0.112308         3.0561
  63   0.0000       0.120974         3.2919
  64   0.0000       0.124445         3.3863
  65   0.0000       0.131448         3.5769

MULLIKEN ATOMIC CHARGES
-----------------------
   0 C :   -0.171846
   1 C :   -0.437700
   2 C :   -0.119283
   3 C :   -0.253731
   4 S :    0.912806
   5 H :    0.178295
   6 H :    0.110542
   7 H :    0.078564
   8 F :   -0.120794
   9 O :   -0.456470
  10 H :    0.095385
  11 H :    0.095945
  12 O :   -0.420753
  13 C :   -0.243147
  14 H :    0.097627
  15 H :    0.088396
  16 C :   -0.242820
  17 H :    0.086713
  18 H :    0.104669
  19 C :   -0.156484
  20 H :    0.110047
  21 H :    0.115389
  22 C :   -0.221214
  23 H :    0.105001
  24 H :    0.105105
  25 C :   -0.296809
  26 H :    0.117518
  27 H :    0.111415
  28 C :   -0.215988
  29 H :    0.116329
  30 H :    0.121100
  31 H :    0.131524
  32 H :    0.130022
  33 H :    0.167554
  34 H :    0.177093
Sum of atomic charges:    0.0000000

LOEWDIN ATOMIC CHARGES
----------------------
   0 C :   -0.298252
   1 C :   -0.337753
   2 C :   -0.266605
   3 C :   -0.352328
   4 S :    0.577257
   5 H :    0.102146
   6 H :    0.102784
   7 H :    0.090942
   8 F :    0.075910
   9 O :   -0.282108
  10 H :    0.134307
  11 H :    0.131878
  12 O :   -0.254194
  13 C :   -0.265683
  14 H :    0.135248
  15 H :    0.133657
  16 C :   -0.269415
  17 H :    0.128434
  18 H :    0.134930
  19 C :   -0.267476
  20 H :    0.137063
  21 H :    0.133607
  22 C :   -0.271990
  23 H :    0.137105
  24 H :    0.136173
  25 C :   -0.269811
  26 H :    0.135017
  27 H :    0.136959
  28 C :   -0.289126
  29 H :    0.139703
  30 H :    0.137251
  31 H :    0.141353
  32 H :    0.145861
  33 H :    0.151973
  34 H :    0.145185

  Mayer bond orders larger than 0.100000
B(  0-C ,  1-C ) :   0.9355 B(  0-C ,  2-C ) :   0.9520 B(  0-C , 10-H ) :   0.9780
B(  0-C , 11-H ) :   1.0054 B(  1-C ,  5-H ) :   0.9679 B(  1-C ,  6-H ) :   0.9689
B(  1-C ,  7-H ) :   1.0004 B(  2-C , 13-C ) :   0.9827 B(  2-C , 14-H ) :   0.9725
B(  2-C , 15-H ) :   0.9781 B(  3-C ,  4-S ) :   0.9108 B(  3-C , 28-C ) :   0.9740
B(  3-C , 33-H ) :   0.9433 B(  3-C , 34-H ) :   0.9534 B(  4-S ,  8-F ) :   1.0844
B(  4-S ,  9-O ) :   1.7924 B(  4-S , 12-O ) :   1.9708 B( 13-C , 16-C ) :   0.9492
B( 13-C , 17-H ) :   0.9904 B( 13-C , 18-H ) :   0.9715 B( 16-C , 19-C ) :   0.9645
B( 16-C , 20-H ) :   0.9704 B( 16-C , 21-H ) :   0.9906 B( 19-C , 22-C ) :   0.9771
B( 19-C , 23-H ) :   0.9813 B( 19-C , 24-H ) :   0.9827 B( 22-C , 25-C ) :   0.9380
B( 22-C , 26-H ) :   0.9858 B( 22-C , 27-H ) :   0.9749 B( 25-C , 28-C ) :   0.9303
B( 25-C , 29-H ) :   0.9604 B( 25-C , 30-H ) :   1.0009 B( 28-C , 31-H ) :   0.9894
B( 28-C , 32-H ) :   0.9580

Dispersion correction           -0.018496574
FINAL SINGLE POINT ENERGY     -1042.239272092983

DIPOLE MOMENT
-------------
                                X             Y             Z
Electronic contribution:    -10.88157     -16.19074     -13.18509
Nuclear contribution   :      9.63012      17.20461      14.03552
                        -----------------------------------------
Total Dipole Moment    :     -1.25146       1.01387       0.85043
                        -----------------------------------------
Magnitude (a.u.)       :      1.82134
Magnitude (Debye)      :      4.62949

Rotational constants in cm-1:     0.025899     0.015189     0.010690
Rotational constants in MHz :   776.424978   455.369614   320.488876

                             ****ORCA TERMINATED NORMALLY****
TOTAL RUN TIME: 0 days 0 hours 2 minutes 18 seconds 382 msec
