                         Program Version 5.0.0 -  RELEASE  -
|  1> !TPSS D3BJ RIJCOSX def2-SVPD def2/J TightSCF
|  2> *xyz -1 1
|  3> C          2.49670       -1.84416       -5.73570
|  4> O          2.45973       -0.50920       -5.50576
|  5> H          2.07863       -2.36209       -4.89793
|  6> H          3.51118       -2.15388       -5.87645
|  7> H          1.92949       -2.07059       -6.61428
|  8> *
|  9>
| 10> %MaxCore 64000
| 11>
| 12> %pal nprocs 4
| 13> end
| 14>
| 15> %scf
| 16>   MaxIter 150
| 17> end
| 18>
| 19>
| 20>                          ****END OF INPUT****

CARTESIAN COORDINATES (ANGSTROEM)
---------------------------------
  C      2.496700   -1.844160   -5.735700
  O      2.459730   -0.509200   -5.505760
  H      2.078630   -2.362090   -4.897930
  H      3.511180   -2.153880   -5.876450
  H      1.929490   -2.070590   -6.614280

 Total Charge           Charge          ....   -1
 Multiplicity           Mult            ....    1
 Number of Electrons    NEL             ....   18
 Basis Dimension        Dim             ....   67

ORBITAL ENERGIES
----------------

  NO   OCC          E(Eh)            E(eV)
   0   2.0000     -18.547564      -504.7049
   1   2.0000      -9.787032      -266.3187
   2   2.0000      -0.588696       -16.0192
   3   2.0000      -0.338458        -9.2099
   4   2.0000      -0.155696        -4.2367
   5   2.0000      -0.155693        -4.2366
   6   2.0000      -0.056260        -1.5309
   7   2.0000       0.091697         2.4952
   8   2.0000       0.091698         2.4952
   9   0.0000       0.189907         5.1676
  10   0.0000       0.259124         7.0511
  11   0.0000       0.259127         7.0512
  12   0.0000       0.267345         7.2748
  13   0.0000       0.304603         8.2887

MULLIKEN ATOMIC CHARGES
-----------------------
   0 C :    0.809356
   1 O :   -1.031984
   2 H :   -0.259139
   3 H :   -0.259114
   4 H :   -0.259119
Sum of atomic charges:   -1.0000000

LOEWDIN ATOMIC CHARGES
----------------------
   0 C :   -0.117302
   1 O :   -0.626827
   2 H :   -0.085292
   3 H :   -0.085290
   4 H :   -0.085290

  Mayer bond orders larger than 0.100000
B(  0-C ,  1-O ) :   1.1324 B(  0-C ,  2-H ) :   0.9194 B(  0-C ,  3-H ) :   0.9194
B(  0-C ,  4-H ) :   0.9195

Dispersion correction           -0.001756923
FINAL SINGLE POINT ENERGY      -115.033645510984

DIPOLE MOMENT
-------------
                                X             Y             Z
Electronic contribution:     -0.05251       1.89502       0.32641
Nuclear contribution   :      0.07809      -2.81948      -0.48564
                        -----------------------------------------
Total Dipole Moment    :      0.02558      -0.92446      -0.15923
                        -----------------------------------------
Magnitude (a.u.)       :      0.93842
Magnitude (Debye)      :      2.38527

Rotational constants in cm-1:     5.477724     0.956378     0.956377
Rotational constants in MHz : 164218.041992 28671.483536 28671.460928

                             ****ORCA TERMINATED NORMALLY****
TOTAL RUN TIME: 0 days 0 hours 0 minutes 2 seconds 717 msec
