                         Program Version 5.0.0 -  RELEASE  -
|  1> !TPSS D3BJ RIJCOSX def2-SVPD def2/J TightSCF
|  2> *xyz 1 1
|  3> C          4.99986       -1.59613       -5.92488
|  4> N          5.28156       -1.97413       -4.53576
|  5> C          4.79250       -1.36132       -3.45730
|  6> N          3.93990       -0.37492       -3.55736
|  7> N          5.25986       -1.75422       -2.23913
|  8> H          5.92282       -2.52145       -2.18672
|  9> H          4.65468       -1.64040       -1.44202
| 10> H          5.70914       -2.87560       -4.38702
| 11> H          3.33010       -0.31764       -4.36125
| 12> H          3.69849        0.11447       -2.70833
| 13> H          5.52133       -2.25562       -6.58673
| 14> H          5.32493       -0.59081       -6.09388
| 15> H          3.94785       -1.66624       -6.10727
| 16> *
| 17>
| 18> %MaxCore 64000
| 19>
| 20> %pal nprocs 4
| 21> end
| 22>
| 23> %scf
| 24>   MaxIter 150
| 25> end
| 26>
| 27>
| 28>                          ****END OF INPUT****

CARTESIAN COORDINATES (ANGSTROEM)
---------------------------------
  C      4.999860   -1.596130   -5.924880
  N      5.281560   -1.974130   -4.535760
  C      4.792500   -1.361320   -3.457300
  N      3.939900   -0.374920   -3.557360
  N      5.259860   -1.754220   -2.239130
  H      5.922820   -2.521450   -2.186720
  H      4.654680   -1.640400   -1.442020
  H      5.709140   -2.875600   -4.387020
  H      3.330100   -0.317640   -4.361250
  H      3.698490    0.114470   -2.708330
  H      5.521330   -2.255620   -6.586730
  H      5.324930   -0.590810   -6.093880
  H      3.947850   -1.666240   -6.107270

 Total Charge           Charge          ....    1
 Multiplicity           Mult            ....    1
 Number of Electrons    NEL             ....   40
 Basis Dimension        Dim             ....  164

ORBITAL ENERGIES
----------------

  NO   OCC          E(Eh)            E(eV)
   0   2.0000     -14.350374      -390.4935
   1   2.0000     -14.346980      -390.4012
   2   2.0000     -14.340502      -390.2249
   3   2.0000     -10.328977      -281.0658
   4   2.0000     -10.209875      -277.8248
   5   2.0000      -1.143475       -31.1155
   6   2.0000      -1.040817       -28.3221
   7   2.0000      -1.025570       -27.9072
   8   2.0000      -0.848485       -23.0884
   9   2.0000      -0.780356       -21.2346
  10   2.0000      -0.744550       -20.2602
  11   2.0000      -0.704284       -19.1645
  12   2.0000      -0.660550       -17.9745
  13   2.0000      -0.653137       -17.7728
  14   2.0000      -0.611624       -16.6431
  15   2.0000      -0.593258       -16.1434
  16   2.0000      -0.552293       -15.0286
  17   2.0000      -0.544071       -14.8049
  18   2.0000      -0.446736       -12.1563
  19   2.0000      -0.424267       -11.5449
  20   0.0000      -0.207719        -5.6523
  21   0.0000      -0.169791        -4.6202
  22   0.0000      -0.135494        -3.6870
  23   0.0000      -0.126717        -3.4481
  24   0.0000      -0.109607        -2.9826

MULLIKEN ATOMIC CHARGES
-----------------------
   0 C :    1.035584
   1 N :   -0.545807
   2 C :    1.227594
   3 N :   -0.029719
   4 N :   -0.086942
   5 H :   -0.014639
   6 H :   -0.024888
   7 H :   -0.207911
   8 H :   -0.001380
   9 H :   -0.057078
  10 H :   -0.279216
  11 H :    0.000992
  12 H :   -0.016590
Sum of atomic charges:    1.0000000

LOEWDIN ATOMIC CHARGES
----------------------
   0 C :    0.267921
   1 N :    0.022770
   2 C :   -0.043090
   3 N :    0.287131
   4 N :    0.264862
   5 H :    0.033033
   6 H :    0.027128
   7 H :    0.050044
   8 H :    0.035978
   9 H :    0.044421
  10 H :    0.009191
  11 H :    0.006281
  12 H :   -0.005669

  Mayer bond orders larger than 0.100000
B(  0-C ,  1-N ) :   0.9308 B(  0-C ,  7-H ) :  -0.1142 B(  0-C , 10-H ) :   0.8562
B(  0-C , 11-H ) :   0.8215 B(  0-C , 12-H ) :   0.8307 B(  1-N ,  2-C ) :   1.0238
B(  1-N ,  3-N ) :   0.2466 B(  1-N ,  4-N ) :   0.2176 B(  1-N ,  7-H ) :   1.2643
B(  1-N , 10-H ) :   0.1639 B(  1-N , 11-H ) :   0.1562 B(  1-N , 12-H ) :   0.1364
B(  2-C ,  3-N ) :   1.0367 B(  2-C ,  4-N ) :   0.8461 B(  2-C ,  7-H ) :  -0.1771
B(  2-C ,  8-H ) :  -0.1119 B(  3-N ,  4-N ) :   0.1647 B(  3-N ,  8-H ) :   1.1168
B(  3-N ,  9-H ) :   1.1630 B(  4-N ,  5-H ) :   1.0768 B(  4-N ,  6-H ) :   1.1559
B(  5-H ,  6-H ) :  -0.1215 B(  8-H ,  9-H ) :  -0.1688

Dispersion correction           -0.011126366
FINAL SINGLE POINT ENERGY      -244.964306769223

DIPOLE MOMENT
-------------
                                X             Y             Z
Electronic contribution:      0.18369       0.12585       2.66881
Nuclear contribution   :     -0.59263      -0.40751      -2.24260
                        -----------------------------------------
Total Dipole Moment    :     -0.40894      -0.28167       0.42621
                        -----------------------------------------
Magnitude (a.u.)       :      0.65438
Magnitude (Debye)      :      1.66331

Rotational constants in cm-1:     0.316984     0.131419     0.095004
Rotational constants in MHz :  9502.926758  3939.829875  2848.138998

                             ****ORCA TERMINATED NORMALLY****
TOTAL RUN TIME: 0 days 0 hours 0 minutes 9 seconds 112 msec
