                         Program Version 5.0.0 -  RELEASE  -
|  1> !TPSS D3BJ RIJCOSX def2-SVPD def2/J TightSCF xyzfile
|  2>
|  3> *xyzfile 0 1 B.xyz
|  4>
|  5> %MaxCore 64000
|  6>
|  7> %pal nprocs 4
|  8> end
|  9>
| 10> %scf
| 11>   MaxIter 150
| 12> end
| 13>
| 14>
| 15>                          ****END OF INPUT****

CARTESIAN COORDINATES (ANGSTROEM)
---------------------------------
  C      4.999862   -1.596133   -5.924876
  N      5.281560   -1.974132   -4.535764
  C      3.766779   -2.266110   -6.511752
  C      2.496702   -1.844161   -5.735704
  H      1.626416   -2.217434   -6.308950
  H      2.481824   -2.456069   -4.793414
  O      2.459729   -0.509204   -5.505757
  C      4.792500   -1.361316   -3.457295
  N      3.939898   -0.374925   -3.557359
  N      5.259860   -1.754224   -2.239133
  H      5.922824   -2.521451   -2.186720
  H      4.654678   -1.640404   -1.442016
  H      5.709139   -2.875599   -4.387021
  H      3.330101   -0.317639   -4.361247
  H      3.698494    0.114468   -2.708333
  H      4.843333   -0.517930   -5.943019
  H      5.901695   -1.822503   -6.496467
  H      3.886191   -3.357076   -6.533604
  H      3.685602   -1.922168   -7.547128

 Total Charge           Charge          ....    0
 Multiplicity           Mult            ....    1
 Number of Electrons    NEL             ....   64
 Basis Dimension        Dim             ....  251

ORBITAL ENERGIES
----------------

  NO   OCC          E(Eh)            E(eV)
   0   2.0000     -18.761081      -510.5150
   1   2.0000     -14.180915      -385.8823
   2   2.0000     -14.171965      -385.6388
   3   2.0000     -14.130982      -384.5236
   4   2.0000     -10.146722      -276.1064
   5   2.0000     -10.035208      -273.0719
   6   2.0000      -9.987047      -271.7614
   7   2.0000      -9.971549      -271.3396
   8   2.0000      -0.964384       -26.2422
   9   2.0000      -0.865023       -23.5385
  10   2.0000      -0.848356       -23.0849
  11   2.0000      -0.808507       -22.0006
  12   2.0000      -0.695285       -18.9197
  13   2.0000      -0.620453       -16.8834
  14   2.0000      -0.580879       -15.8065
  15   2.0000      -0.562968       -15.3191
  16   2.0000      -0.537522       -14.6267
  17   2.0000      -0.493815       -13.4374
  18   2.0000      -0.477489       -12.9931
  19   2.0000      -0.458027       -12.4635
  20   2.0000      -0.428659       -11.6644
  21   2.0000      -0.414432       -11.2773
  22   2.0000      -0.394865       -10.7448
  23   2.0000      -0.365477        -9.9451
  24   2.0000      -0.325216        -8.8496
  25   2.0000      -0.304385        -8.2827
  26   2.0000      -0.294565        -8.0155
  27   2.0000      -0.269508        -7.3337
  28   2.0000      -0.260575        -7.0906
  29   2.0000      -0.242391        -6.5958
  30   2.0000      -0.130915        -3.5624
  31   2.0000      -0.123887        -3.3711
  32   0.0000      -0.035487        -0.9657
  33   0.0000      -0.024272        -0.6605
  34   0.0000       0.005312         0.1445
  35   0.0000       0.021581         0.5873
  36   0.0000       0.044208         1.2030

MULLIKEN ATOMIC CHARGES
-----------------------
   0 C :    0.687552
   1 N :   -0.474531
   2 C :   -0.003224
   3 C :    0.523242
   4 H :   -0.399620
   5 H :    0.118314
   6 O :   -0.696972
   7 C :    1.189024
   8 N :    0.280902
   9 N :   -0.121150
  10 H :   -0.068018
  11 H :   -0.042395
  12 H :   -0.255601
  13 H :   -0.361579
  14 H :   -0.133271
  15 H :    0.191836
  16 H :   -0.376838
  17 H :   -0.096373
  18 H :    0.038703
Sum of atomic charges:   -0.0000000

LOEWDIN ATOMIC CHARGES
----------------------
   0 C :    0.071040
   1 N :    0.040089
   2 C :   -0.015571
   3 C :   -0.093307
   4 H :   -0.001440
   5 H :   -0.007912
   6 O :   -0.400539
   7 C :   -0.058432
   8 N :    0.300424
   9 N :    0.224948
  10 H :    0.003499
  11 H :    0.004609
  12 H :    0.033573
  13 H :   -0.185185
  14 H :    0.023940
  15 H :    0.022013
  16 H :    0.013879
  17 H :    0.004912
  18 H :    0.019462

  Mayer bond orders larger than 0.100000
B(  0-C ,  1-N ) :   0.9530 B(  0-C ,  2-C ) :   1.1425 B(  0-C , 12-H ) :  -0.1901
B(  0-C , 15-H ) :   0.6911 B(  0-C , 16-H ) :   0.9203 B(  0-C , 17-H ) :   0.1495
B(  0-C , 18-H ) :   0.1085 B(  1-N ,  7-C ) :   0.9836 B(  1-N ,  8-N ) :   0.1842
B(  1-N ,  9-N ) :   0.2066 B(  1-N , 12-H ) :   1.3207 B(  1-N , 15-H ) :   0.1754
B(  1-N , 16-H ) :   0.1425 B(  2-C ,  3-C ) :   1.0694 B(  2-C ,  4-H ) :   0.1523
B(  2-C ,  5-H ) :   0.1100 B(  2-C , 15-H ) :   0.1157 B(  2-C , 17-H ) :   0.9144
B(  2-C , 18-H ) :   0.8739 B(  3-C ,  4-H ) :   1.0441 B(  3-C ,  5-H ) :   0.8231
B(  3-C ,  6-O ) :   1.0719 B(  3-C , 17-H ) :   0.1179 B(  3-C , 18-H ) :   0.1068
B(  6-O , 13-H ) :   0.3466 B(  7-C ,  8-N ) :   1.1356 B(  7-C ,  9-N ) :   0.7514
B(  7-C , 10-H ) :  -0.1088 B(  7-C , 12-H ) :  -0.2069 B(  7-C , 13-H ) :  -0.1659
B(  7-C , 14-H ) :  -0.1133 B(  8-N ,  9-N ) :   0.1869 B(  8-N , 13-H ) :   1.1287
B(  8-N , 14-H ) :   1.1894 B(  9-N , 10-H ) :   1.1212 B(  9-N , 11-H ) :   1.1515
B( 10-H , 11-H ) :  -0.1328 B( 13-H , 14-H ) :  -0.2199 B( 15-H , 16-H ) :  -0.1314

Dispersion correction           -0.021769315
FINAL SINGLE POINT ENERGY      -398.312131515401

DIPOLE MOMENT
-------------
                                X             Y             Z
Electronic contribution:      1.83495       2.01304       3.61548
Nuclear contribution   :      0.51577      -3.31768      -1.36804
                        -----------------------------------------
Total Dipole Moment    :      2.35072      -1.30464       2.24744
                        -----------------------------------------
Magnitude (a.u.)       :      3.50414
Magnitude (Debye)      :      8.90681

Rotational constants in cm-1:     0.111492     0.050787     0.040163
Rotational constants in MHz :  3342.457536  1522.560798  1204.057148

                             ****ORCA TERMINATED NORMALLY****
TOTAL RUN TIME: 0 days 0 hours 0 minutes 24 seconds 754 msec
