                         Program Version 5.0.0 -  RELEASE  -
|  1> !TPSS D3BJ RIJCOSX def2-SVPD def2/J TightSCF
|  2> *xyz 0 1
|  3> C          2.49670       -1.84416       -5.73570
|  4> F          2.45973       -0.50920       -5.50576
|  5> H          2.07863       -2.36209       -4.89793
|  6> H          3.51118       -2.15388       -5.87645
|  7> H          1.92949       -2.07059       -6.61428
|  8> *
|  9>
| 10> %MaxCore 64000
| 11>
| 12> %pal nprocs 4
| 13> end
| 14>
| 15> %scf
| 16>   MaxIter 150
| 17> end
| 18>
| 19>
| 20>                          ****END OF INPUT****

CARTESIAN COORDINATES (ANGSTROEM)
---------------------------------
  C      2.496700   -1.844160   -5.735700
  F      2.459730   -0.509200   -5.505760
  H      2.078630   -2.362090   -4.897930
  H      3.511180   -2.153880   -5.876450
  H      1.929490   -2.070590   -6.614280

 Total Charge           Charge          ....    0
 Multiplicity           Mult            ....    1
 Number of Electrons    NEL             ....   18
 Basis Dimension        Dim             ....   67

ORBITAL ENERGIES
----------------

  NO   OCC          E(Eh)            E(eV)
   0   2.0000     -24.412654      -664.3021
   1   2.0000     -10.071258      -274.0529
   2   2.0000      -1.111063       -30.2336
   3   2.0000      -0.647543       -17.6205
   4   2.0000      -0.452815       -12.3217
   5   2.0000      -0.444124       -12.0852
   6   2.0000      -0.444121       -12.0851
   7   2.0000      -0.302724        -8.2375
   8   2.0000      -0.302720        -8.2374
   9   0.0000       0.016316         0.4440
  10   0.0000       0.047761         1.2997
  11   0.0000       0.089730         2.4417
  12   0.0000       0.089731         2.4417
  13   0.0000       0.134489         3.6596

MULLIKEN ATOMIC CHARGES
-----------------------
   0 C :    0.858440
   1 F :   -0.480376
   2 H :   -0.126031
   3 H :   -0.126023
   4 H :   -0.126009
Sum of atomic charges:   -0.0000000

LOEWDIN ATOMIC CHARGES
----------------------
   0 C :    0.267060
   1 F :   -0.239170
   2 H :   -0.009298
   3 H :   -0.009296
   4 H :   -0.009296

  Mayer bond orders larger than 0.100000
B(  0-C ,  1-F ) :   0.8443 B(  0-C ,  2-H ) :   0.9436 B(  0-C ,  3-H ) :   0.9436
B(  0-C ,  4-H ) :   0.9436

Dispersion correction           -0.001538916
FINAL SINGLE POINT ENERGY      -139.659866300192

DIPOLE MOMENT
-------------
                                X             Y             Z
Electronic contribution:     -0.08065       2.91204       0.50159
Nuclear contribution   :      0.09898      -3.57380      -0.61557
                        -----------------------------------------
Total Dipole Moment    :      0.01833      -0.66176      -0.11397
                        -----------------------------------------
Magnitude (a.u.)       :      0.67176
Magnitude (Debye)      :      1.70747

Rotational constants in cm-1:     5.477724     0.890368     0.890367
Rotational constants in MHz : 164218.041992 26692.553985 26692.534390

                             ****ORCA TERMINATED NORMALLY****
TOTAL RUN TIME: 0 days 0 hours 0 minutes 2 seconds 448 msec
