                         Program Version 5.0.0 -  RELEASE  -
|  1> !TPSS D3BJ RIJCOSX def2-SVPD def2/J TightSCF
|  2> *xyz 0 1
|  3> C          4.99986       -1.59613       -5.92488
|  4> C          5.28156       -1.97413       -4.53576
|  5> C          4.79250       -1.36132       -3.45730
|  6> N          3.93990       -0.37492       -3.55736
|  7> N          5.25986       -1.75422       -2.23913
|  8> H          5.92282       -2.52145       -2.18672
|  9> H          4.65468       -1.64040       -1.44202
| 10> H          5.70914       -2.87560       -4.38702
| 11> H          3.33010       -0.31764       -4.36125
| 12> H          3.69849        0.11447       -2.70833
| 13> H          5.52133       -2.25562       -6.58673
| 14> H          5.32493       -0.59081       -6.09388
| 15> H          3.94785       -1.66624       -6.10727
| 16> *
| 17>
| 18> %MaxCore 64000
| 19>
| 20> %pal nprocs 4
| 21> end
| 22>
| 23> %scf
| 24>   MaxIter 150
| 25> end
| 26>
| 27>
| 28>                          ****END OF INPUT****

CARTESIAN COORDINATES (ANGSTROEM)
---------------------------------
  C      4.999860   -1.596130   -5.924880
  C      5.281560   -1.974130   -4.535760
  C      4.792500   -1.361320   -3.457300
  N      3.939900   -0.374920   -3.557360
  N      5.259860   -1.754220   -2.239130
  H      5.922820   -2.521450   -2.186720
  H      4.654680   -1.640400   -1.442020
  H      5.709140   -2.875600   -4.387020
  H      3.330100   -0.317640   -4.361250
  H      3.698490    0.114470   -2.708330
  H      5.521330   -2.255620   -6.586730
  H      5.324930   -0.590810   -6.093880
  H      3.947850   -1.666240   -6.107270

 Total Charge           Charge          ....    0
 Multiplicity           Mult            ....    1
 Number of Electrons    NEL             ....   40
 Basis Dimension        Dim             ....  164

ORBITAL ENERGIES
----------------

  NO   OCC          E(Eh)            E(eV)
   0   2.0000     -14.123174      -384.3111
   1   2.0000     -14.113365      -384.0442
   2   2.0000     -10.032896      -273.0090
   3   2.0000      -9.967578      -271.2316
   4   2.0000      -9.923804      -270.0404
   5   2.0000      -0.887172       -24.1412
   6   2.0000      -0.801294       -21.8043
   7   2.0000      -0.685954       -18.6658
   8   2.0000      -0.597157       -16.2495
   9   2.0000      -0.533737       -14.5237
  10   2.0000      -0.497685       -13.5427
  11   2.0000      -0.457171       -12.4402
  12   2.0000      -0.434561       -11.8250
  13   2.0000      -0.386785       -10.5249
  14   2.0000      -0.364991        -9.9319
  15   2.0000      -0.331607        -9.0235
  16   2.0000      -0.318085        -8.6555
  17   2.0000      -0.299972        -8.1627
  18   2.0000      -0.224932        -6.1207
  19   2.0000      -0.130935        -3.5629
  20   0.0000       0.003510         0.0955
  21   0.0000       0.031300         0.8517
  22   0.0000       0.044474         1.2102
  23   0.0000       0.048898         1.3306
  24   0.0000       0.071070         1.9339

MULLIKEN ATOMIC CHARGES
-----------------------
   0 C :    0.737496
   1 C :   -0.773479
   2 C :    0.893192
   3 N :    0.054380
   4 N :   -0.042681
   5 H :   -0.033472
   6 H :   -0.111532
   7 H :   -0.374498
   8 H :   -0.051745
   9 H :   -0.203935
  10 H :   -0.078356
  11 H :    0.023786
  12 H :   -0.039156
Sum of atomic charges:    0.0000000

LOEWDIN ATOMIC CHARGES
----------------------
   0 C :    0.095970
   1 C :   -0.055922
   2 C :   -0.234624
   3 N :    0.201087
   4 N :    0.179493
   5 H :   -0.002428
   6 H :   -0.027668
   7 H :   -0.064476
   8 H :    0.001653
   9 H :   -0.006334
  10 H :   -0.024386
  11 H :   -0.025304
  12 H :   -0.037060

  Mayer bond orders larger than 0.100000
B(  0-C ,  1-C ) :   1.2314 B(  0-C ,  7-H ) :   0.1524 B(  0-C , 10-H ) :   0.7727
B(  0-C , 11-H ) :   0.6995 B(  0-C , 12-H ) :   0.7625 B(  1-C ,  2-C ) :   1.3842
B(  1-C ,  3-N ) :   0.3160 B(  1-C ,  4-N ) :   0.3479 B(  1-C ,  7-H ) :   1.0504
B(  1-C , 10-H ) :   0.2729 B(  1-C , 11-H ) :   0.2979 B(  1-C , 12-H ) :   0.1919
B(  2-C ,  3-N ) :   1.0412 B(  2-C ,  4-N ) :   0.8084 B(  2-C ,  9-H ) :  -0.1022
B(  3-N ,  8-H ) :   1.1059 B(  3-N ,  9-H ) :   1.2463 B(  4-N ,  5-H ) :   1.0731
B(  4-N ,  6-H ) :   1.1453 B(  5-H ,  6-H ) :  -0.1052 B(  7-H , 10-H ) :  -0.1024
B(  8-H ,  9-H ) :  -0.1525 B( 10-H , 11-H ) :   0.1045

Dispersion correction           -0.011647046
FINAL SINGLE POINT ENERGY      -228.494234145587

DIPOLE MOMENT
-------------
                                X             Y             Z
Electronic contribution:     -0.12160       0.60550       3.07663
Nuclear contribution   :     -0.50372      -0.52081      -2.36443
                        -----------------------------------------
Total Dipole Moment    :     -0.62532       0.08469       0.71221
                        -----------------------------------------
Magnitude (a.u.)       :      0.95154
Magnitude (Debye)      :      2.41863

Rotational constants in cm-1:     0.322219     0.132365     0.095965
Rotational constants in MHz :  9659.878542  3968.206057  2876.950547

                             ****ORCA TERMINATED NORMALLY****
TOTAL RUN TIME: 0 days 0 hours 0 minutes 9 seconds 269 msec
