                         Program Version 5.0.0 -  RELEASE  -
|  1> !TPSS D3BJ RIJCOSX def2-SVPD def2/J TightSCF
|  2> *xyz 0 1
|  3> C          4.99986       -1.59613       -5.92488
|  4> N          5.28156       -1.97413       -4.53576
|  5> C          4.79250       -1.36132       -3.45730
|  6> C          3.93990       -0.37492       -3.55736
|  7> N          5.25986       -1.75422       -2.23913
|  8> H          5.92282       -2.52145       -2.18672
|  9> H          4.65468       -1.64040       -1.44202
| 10> H          5.70914       -2.87560       -4.38702
| 11> H          3.33010       -0.31764       -4.36125
| 12> H          3.69849        0.11447       -2.70833
| 13> H          5.52133       -2.25562       -6.58673
| 14> H          5.32493       -0.59081       -6.09388
| 15> H          3.94785       -1.66624       -6.10727
| 16> *
| 17>
| 18> %MaxCore 64000
| 19>
| 20> %pal nprocs 4
| 21> end
| 22>
| 23> %scf
| 24>   MaxIter 150
| 25> end
| 26>
| 27>
| 28>                          ****END OF INPUT****

CARTESIAN COORDINATES (ANGSTROEM)
---------------------------------
  C      4.999860   -1.596130   -5.924880
  N      5.281560   -1.974130   -4.535760
  C      4.792500   -1.361320   -3.457300
  C      3.939900   -0.374920   -3.557360
  N      5.259860   -1.754220   -2.239130
  H      5.922820   -2.521450   -2.186720
  H      4.654680   -1.640400   -1.442020
  H      5.709140   -2.875600   -4.387020
  H      3.330100   -0.317640   -4.361250
  H      3.698490    0.114470   -2.708330
  H      5.521330   -2.255620   -6.586730
  H      5.324930   -0.590810   -6.093880
  H      3.947850   -1.666240   -6.107270

 Total Charge           Charge          ....    0
 Multiplicity           Mult            ....    1
 Number of Electrons    NEL             ....   40
 Basis Dimension        Dim             ....  164

ORBITAL ENERGIES
----------------

  NO   OCC          E(Eh)            E(eV)
   0   2.0000     -14.120122      -384.2281
   1   2.0000     -14.115564      -384.1040
   2   2.0000     -10.036226      -273.0996
   3   2.0000     -10.028140      -272.8796
   4   2.0000      -9.915658      -269.8188
   5   2.0000      -0.886899       -24.1337
   6   2.0000      -0.807763       -21.9803
   7   2.0000      -0.663578       -18.0569
   8   2.0000      -0.638014       -17.3613
   9   2.0000      -0.517523       -14.0825
  10   2.0000      -0.495540       -13.4843
  11   2.0000      -0.467970       -12.7341
  12   2.0000      -0.413786       -11.2597
  13   2.0000      -0.395446       -10.7606
  14   2.0000      -0.376934       -10.2569
  15   2.0000      -0.345083        -9.3902
  16   2.0000      -0.343882        -9.3575
  17   2.0000      -0.313621        -8.5340
  18   2.0000      -0.211684        -5.7602
  19   2.0000      -0.143233        -3.8976
  20   0.0000       0.003703         0.1008
  21   0.0000       0.026840         0.7304
  22   0.0000       0.041819         1.1380
  23   0.0000       0.050042         1.3617
  24   0.0000       0.072464         1.9718

MULLIKEN ATOMIC CHARGES
-----------------------
   0 C :    1.003033
   1 N :   -0.517219
   2 C :    0.675641
   3 C :    0.178201
   4 N :   -0.012788
   5 H :   -0.147958
   6 H :   -0.043087
   7 H :   -0.330713
   8 H :   -0.162814
   9 H :   -0.315163
  10 H :   -0.353761
  11 H :   -0.008072
  12 H :    0.034699
Sum of atomic charges:    0.0000000

LOEWDIN ATOMIC CHARGES
----------------------
   0 C :    0.218776
   1 N :   -0.048639
   2 C :   -0.241658
   3 C :    0.158113
   4 N :    0.185630
   5 H :   -0.018500
   6 H :   -0.007569
   7 H :    0.006579
   8 H :   -0.100911
   9 H :   -0.096196
  10 H :   -0.019391
  11 H :   -0.013038
  12 H :   -0.023196

  Mayer bond orders larger than 0.100000
B(  0-C ,  1-N ) :   0.9259 B(  0-C ,  7-H ) :  -0.1191 B(  0-C , 10-H ) :   0.8792
B(  0-C , 11-H ) :   0.8258 B(  0-C , 12-H ) :   0.8283 B(  1-N ,  2-C ) :   0.9801
B(  1-N ,  3-C ) :   0.3620 B(  1-N ,  4-N ) :   0.1602 B(  1-N ,  7-H ) :   1.3399
B(  1-N , 10-H ) :   0.1554 B(  1-N , 11-H ) :   0.1566 B(  1-N , 12-H ) :   0.1206
B(  2-C ,  3-C ) :   1.6142 B(  2-C ,  4-N ) :   0.8797 B(  2-C ,  7-H ) :  -0.1852
B(  2-C ,  8-H ) :   0.1909 B(  2-C ,  9-H ) :   0.2480 B(  3-C ,  4-N ) :   0.2647
B(  3-C ,  8-H ) :   0.7922 B(  3-C ,  9-H ) :   0.8009 B(  4-N ,  5-H ) :   1.1067
B(  4-N ,  6-H ) :   1.1195 B(  5-H ,  6-H ) :  -0.1078 B(  8-H ,  9-H ) :   0.1232

Dispersion correction           -0.011623581
FINAL SINGLE POINT ENERGY      -228.487260219107

DIPOLE MOMENT
-------------
                                X             Y             Z
Electronic contribution:      1.11069      -0.84724       2.11755
Nuclear contribution   :     -0.77547      -0.19690      -2.16626
                        -----------------------------------------
Total Dipole Moment    :      0.33523      -1.04414      -0.04871
                        -----------------------------------------
Magnitude (a.u.)       :      1.09771
Magnitude (Debye)      :      2.79016

Rotational constants in cm-1:     0.340409     0.131955     0.097296
Rotational constants in MHz : 10205.195281  3955.909122  2916.861706

                             ****ORCA TERMINATED NORMALLY****
TOTAL RUN TIME: 0 days 0 hours 0 minutes 9 seconds 649 msec
