                         Program Version 5.0.0 -  RELEASE  -
|  1> !TPSS D3BJ RIJCOSX def2-SVPD def2/J TightSCF
|  2> *xyz 0 1
|  3> C          4.99986       -1.59613       -5.92488
|  4> N          5.28156       -1.97413       -4.53576
|  5> C          4.79250       -1.36132       -3.45730
|  6> N          3.93990       -0.37492       -3.55736
|  7> C          5.25986       -1.75422       -2.23913
|  8> H          5.92282       -2.52145       -2.18672
|  9> H          4.65468       -1.64040       -1.44202
| 10> H          5.70914       -2.87560       -4.38702
| 11> H          3.33010       -0.31764       -4.36125
| 12> H          3.69849        0.11447       -2.70833
| 13> H          5.52133       -2.25562       -6.58673
| 14> H          5.32493       -0.59081       -6.09388
| 15> H          3.94785       -1.66624       -6.10727
| 16> *
| 17>
| 18> %MaxCore 64000
| 19>
| 20> %pal nprocs 4
| 21> end
| 22>
| 23> %scf
| 24>   MaxIter 150
| 25> end
| 26>
| 27>
| 28>                          ****END OF INPUT****

CARTESIAN COORDINATES (ANGSTROEM)
---------------------------------
  C      4.999860   -1.596130   -5.924880
  N      5.281560   -1.974130   -4.535760
  C      4.792500   -1.361320   -3.457300
  N      3.939900   -0.374920   -3.557360
  C      5.259860   -1.754220   -2.239130
  H      5.922820   -2.521450   -2.186720
  H      4.654680   -1.640400   -1.442020
  H      5.709140   -2.875600   -4.387020
  H      3.330100   -0.317640   -4.361250
  H      3.698490    0.114470   -2.708330
  H      5.521330   -2.255620   -6.586730
  H      5.324930   -0.590810   -6.093880
  H      3.947850   -1.666240   -6.107270

 Total Charge           Charge          ....    0
 Multiplicity           Mult            ....    1
 Number of Electrons    NEL             ....   40
 Basis Dimension        Dim             ....  164

ORBITAL ENERGIES
----------------

  NO   OCC          E(Eh)            E(eV)
   0   2.0000     -14.123095      -384.3090
   1   2.0000     -14.119104      -384.2003
   2   2.0000     -10.039596      -273.1913
   3   2.0000     -10.036021      -273.0940
   4   2.0000      -9.910493      -269.6782
   5   2.0000      -0.896404       -24.3924
   6   2.0000      -0.818425       -22.2705
   7   2.0000      -0.677411       -18.4333
   8   2.0000      -0.605790       -16.4844
   9   2.0000      -0.552800       -15.0425
  10   2.0000      -0.497445       -13.5362
  11   2.0000      -0.451452       -12.2846
  12   2.0000      -0.437566       -11.9068
  13   2.0000      -0.410528       -11.1710
  14   2.0000      -0.369286       -10.0488
  15   2.0000      -0.347988        -9.4692
  16   2.0000      -0.339772        -9.2457
  17   2.0000      -0.312026        -8.4907
  18   2.0000      -0.218891        -5.9563
  19   2.0000      -0.128888        -3.5072
  20   0.0000       0.000151         0.0041
  21   0.0000       0.032063         0.8725
  22   0.0000       0.036676         0.9980
  23   0.0000       0.043691         1.1889
  24   0.0000       0.072207         1.9648

MULLIKEN ATOMIC CHARGES
-----------------------
   0 C :    1.053468
   1 N :   -0.479822
   2 C :    0.512765
   3 N :    0.029311
   4 C :    0.356248
   5 H :   -0.202677
   6 H :   -0.409898
   7 H :   -0.251187
   8 H :   -0.076155
   9 H :   -0.069207
  10 H :   -0.332411
  11 H :   -0.050934
  12 H :   -0.079501
Sum of atomic charges:   -0.0000000

LOEWDIN ATOMIC CHARGES
----------------------
   0 C :    0.212342
   1 N :   -0.035778
   2 C :   -0.241847
   3 N :    0.198871
   4 C :    0.143317
   5 H :   -0.112523
   6 H :   -0.119284
   7 H :    0.023207
   8 H :   -0.010257
   9 H :    0.011521
  10 H :   -0.017748
  11 H :   -0.019786
  12 H :   -0.032036

  Mayer bond orders larger than 0.100000
B(  0-C ,  1-N ) :   0.9275 B(  0-C ,  7-H ) :  -0.1286 B(  0-C , 10-H ) :   0.8506
B(  0-C , 11-H ) :   0.8352 B(  0-C , 12-H ) :   0.8340 B(  1-N ,  2-C ) :   1.0557
B(  1-N ,  3-N ) :   0.1988 B(  1-N ,  4-C ) :   0.2446 B(  1-N ,  7-H ) :   1.2351
B(  1-N , 10-H ) :   0.1649 B(  1-N , 11-H ) :   0.1495 B(  1-N , 12-H ) :   0.1699
B(  2-C ,  3-N ) :   1.0621 B(  2-C ,  4-C ) :   1.5813 B(  2-C ,  5-H ) :   0.1843
B(  2-C ,  6-H ) :   0.1788 B(  2-C ,  7-H ) :  -0.1343 B(  3-N ,  4-C ) :   0.2275
B(  3-N ,  8-H ) :   1.1148 B(  3-N ,  9-H ) :   1.1542 B(  4-C ,  5-H ) :   0.7889
B(  4-C ,  6-H ) :   0.8213 B(  5-H ,  6-H ) :   0.1543 B(  8-H ,  9-H ) :  -0.1604

Dispersion correction           -0.011569177
FINAL SINGLE POINT ENERGY      -228.481313711343

DIPOLE MOMENT
-------------
                                X             Y             Z
Electronic contribution:     -0.13639       0.48471       0.80323
Nuclear contribution   :     -0.50812      -0.47627      -1.89926
                        -----------------------------------------
Total Dipole Moment    :     -0.64451       0.00844      -1.09603
                        -----------------------------------------
Magnitude (a.u.)       :      1.27151
Magnitude (Debye)      :      3.23192

Rotational constants in cm-1:     0.323645     0.137193     0.098606
Rotational constants in MHz :  9702.637007  4112.943433  2956.125886

                             ****ORCA TERMINATED NORMALLY****
TOTAL RUN TIME: 0 days 0 hours 0 minutes 10 seconds 159 msec
