                         Program Version 5.0.0 -  RELEASE  -
|  1> !TPSS D3BJ RIJCOSX def2-SVPD def2/J TightSCF xyzfile
|  2>
|  3> *xyzfile 0 1 D2.xyz
|  4>
|  5> %MaxCore 64000
|  6>
|  7> %pal nprocs 4
|  8> end
|  9>
| 10> %scf
| 11>   MaxIter 150
| 12> end
| 13>
| 14>
| 15>                          ****END OF INPUT****

CARTESIAN COORDINATES (ANGSTROEM)
---------------------------------
  C      4.999862   -1.596133   -5.924876
  N      5.281560   -1.974132   -4.535764
  C      3.766779   -2.266110   -6.511752
  C      2.496702   -1.844161   -5.735704
  H      1.626416   -2.217434   -6.308950
  H      2.481824   -2.456069   -4.793414
  F      2.459729   -0.509204   -5.505757
  C      4.792500   -1.361316   -3.457295
  C      3.939898   -0.374925   -3.557359
  N      5.259860   -1.754224   -2.239133
  H      5.922824   -2.521451   -2.186720
  H      4.654678   -1.640404   -1.442016
  H      5.709139   -2.875599   -4.387021
  H      3.330101   -0.317639   -4.361247
  H      3.698494    0.114468   -2.708333
  H      4.843333   -0.517930   -5.943019
  H      5.901695   -1.822503   -6.496467
  H      3.886191   -3.357076   -6.533604
  H      3.685602   -1.922168   -7.547128

 Total Charge           Charge          ....    0
 Multiplicity           Mult            ....    1
 Number of Electrons    NEL             ....   64
 Basis Dimension        Dim             ....  251

ORBITAL ENERGIES
----------------

  NO   OCC          E(Eh)            E(eV)
   0   2.0000     -24.428658      -664.7376
   1   2.0000     -14.115856      -384.1120
   2   2.0000     -14.108575      -383.9138
   3   2.0000     -10.083275      -274.3799
   4   2.0000     -10.034806      -273.0610
   5   2.0000     -10.026254      -272.8282
   6   2.0000     -10.012018      -272.4409
   7   2.0000      -9.890098      -269.1233
   8   2.0000      -1.133472       -30.8433
   9   2.0000      -0.883097       -24.0303
  10   2.0000      -0.806129       -21.9359
  11   2.0000      -0.720925       -19.6174
  12   2.0000      -0.649217       -17.6661
  13   2.0000      -0.634029       -17.2528
  14   2.0000      -0.559835       -15.2339
  15   2.0000      -0.518109       -14.0985
  16   2.0000      -0.500075       -13.6077
  17   2.0000      -0.470565       -12.8047
  18   2.0000      -0.468296       -12.7430
  19   2.0000      -0.451490       -12.2857
  20   2.0000      -0.435533       -11.8515
  21   2.0000      -0.415251       -11.2996
  22   2.0000      -0.381967       -10.3939
  23   2.0000      -0.365971        -9.9586
  24   2.0000      -0.347203        -9.4479
  25   2.0000      -0.337702        -9.1893
  26   2.0000      -0.324559        -8.8317
  27   2.0000      -0.305122        -8.3028
  28   2.0000      -0.295470        -8.0402
  29   2.0000      -0.264060        -7.1854
  30   2.0000      -0.208338        -5.6692
  31   2.0000      -0.132529        -3.6063
  32   0.0000      -0.000179        -0.0049
  33   0.0000       0.022138         0.6024
  34   0.0000       0.030401         0.8273
  35   0.0000       0.040718         1.1080
  36   0.0000       0.051574         1.4034

MULLIKEN ATOMIC CHARGES
-----------------------
   0 C :    0.668588
   1 N :   -0.426437
   2 C :   -0.101058
   3 C :    0.719404
   4 H :   -0.329220
   5 H :    0.248931
   6 F :   -0.507019
   7 C :    0.784134
   8 C :    0.775834
   9 N :   -0.067822
  10 H :   -0.123539
  11 H :   -0.014215
  12 H :   -0.340455
  13 H :   -0.767569
  14 H :   -0.284965
  15 H :    0.216378
  16 H :   -0.393360
  17 H :   -0.082154
  18 H :    0.024543
Sum of atomic charges:   -0.0000000

LOEWDIN ATOMIC CHARGES
----------------------
   0 C :    0.069058
   1 N :   -0.012842
   2 C :    0.004716
   3 C :    0.141073
   4 H :    0.024321
   5 H :    0.039518
   6 F :   -0.193133
   7 C :   -0.227406
   8 C :    0.191346
   9 N :    0.183363
  10 H :   -0.022234
  11 H :   -0.008794
  12 H :    0.010915
  13 H :   -0.190932
  14 H :   -0.086790
  15 H :    0.022639
  16 H :    0.014621
  17 H :    0.023048
  18 H :    0.017513

  Mayer bond orders larger than 0.100000
B(  0-C ,  1-N ) :   0.9521 B(  0-C ,  2-C ) :   1.1188 B(  0-C , 12-H ) :  -0.1843
B(  0-C , 13-H ) :   0.1287 B(  0-C , 15-H ) :   0.6876 B(  0-C , 16-H ) :   0.9672
B(  0-C , 17-H ) :   0.1139 B(  0-C , 18-H ) :   0.1178 B(  1-N ,  7-C ) :   0.9285
B(  1-N ,  8-C ) :   0.3213 B(  1-N ,  9-N ) :   0.1581 B(  1-N , 12-H ) :   1.3782
B(  1-N , 15-H ) :   0.1397 B(  1-N , 16-H ) :   0.1401 B(  2-C ,  3-C ) :   1.2142
B(  2-C ,  4-H ) :   0.1520 B(  2-C ,  5-H ) :   0.1015 B(  2-C ,  6-F ) :   0.1079
B(  2-C , 15-H ) :   0.1034 B(  2-C , 17-H ) :   0.9480 B(  2-C , 18-H ) :   0.8856
B(  3-C ,  4-H ) :   1.0090 B(  3-C ,  5-H ) :   0.7893 B(  3-C ,  6-F ) :   0.6626
B(  3-C , 13-H ) :   0.1731 B(  6-F , 13-H ) :   0.2705 B(  7-C ,  8-C ) :   1.7213
B(  7-C ,  9-N ) :   0.7423 B(  7-C , 12-H ) :  -0.2407 B(  7-C , 14-H ) :   0.3849
B(  8-C ,  9-N ) :   0.3705 B(  8-C , 13-H ) :   0.2019 B(  8-C , 14-H ) :   0.6800
B(  9-N , 10-H ) :   1.0796 B(  9-N , 11-H ) :   1.0912 B(  9-N , 14-H ) :   0.1792
B( 10-H , 11-H ) :  -0.1289 B( 13-H , 14-H ) :  -0.1226 B( 13-H , 15-H ) :   0.1284
B( 15-H , 16-H ) :  -0.1521

Dispersion correction           -0.021693307
FINAL SINGLE POINT ENERGY      -406.220755877713

DIPOLE MOMENT
-------------
                                X             Y             Z
Electronic contribution:     -2.26853       2.74485      -0.13213
Nuclear contribution   :      2.43398      -4.26587      -0.19921
                        -----------------------------------------
Total Dipole Moment    :      0.16546      -1.52102      -0.33134
                        -----------------------------------------
Magnitude (a.u.)       :      1.56546
Magnitude (Debye)      :      3.97909

Rotational constants in cm-1:     0.110089     0.049944     0.039407
Rotational constants in MHz :  3300.378855  1497.273856  1181.385913

                             ****ORCA TERMINATED NORMALLY****
TOTAL RUN TIME: 0 days 0 hours 0 minutes 23 seconds 491 msec
