                         Program Version 5.0.0 -  RELEASE  -
|  1> !M062X D3Zero RIJCOSX def2-SVPD def2/J TightSCF
|  2> *xyz -1 1
|  3> C         -0.71189        0.84252       -4.21834
|  4> C         -0.39762       -0.20587       -5.28802
|  5> O          0.61717       -0.00535       -5.99827
|  6> O         -1.13317       -1.22138       -5.34147
|  7> H         -0.00939        1.64646       -4.28960
|  8> H         -0.64409        0.39449       -3.24902
|  9> H         -1.70192        1.21961       -4.36851
| 10> *
| 11>
| 12> %MaxCore 64000
| 13>
| 14> %pal nprocs 4
| 15> end
| 16>
| 17> %scf
| 18>   MaxIter 150
| 19> end
| 20>
| 21>
| 22>                          ****END OF INPUT****

CARTESIAN COORDINATES (ANGSTROEM)
---------------------------------
  C     -0.711890    0.842520   -4.218340
  C     -0.397620   -0.205870   -5.288020
  O      0.617170   -0.005350   -5.998270
  O     -1.133170   -1.221380   -5.341470
  H     -0.009390    1.646460   -4.289600
  H     -0.644090    0.394490   -3.249020
  H     -1.701920    1.219610   -4.368510

 Total Charge           Charge          ....   -1
 Multiplicity           Mult            ....    1
 Number of Electrons    NEL             ....   32
 Basis Dimension        Dim             ....  110

ORBITAL ENERGIES
----------------

  NO   OCC          E(Eh)            E(eV)
   0   2.0000     -19.368192      -527.0353
   1   2.0000     -19.367487      -527.0161
   2   2.0000     -10.436248      -283.9847
   3   2.0000     -10.361436      -281.9490
   4   2.0000      -0.925699       -25.1896
   5   2.0000      -0.825574       -22.4650
   6   2.0000      -0.628778       -17.1099
   7   2.0000      -0.379240       -10.3197
   8   2.0000      -0.328522        -8.9395
   9   2.0000      -0.315210        -8.5773
  10   2.0000      -0.303212        -8.2508
  11   2.0000      -0.256646        -6.9837
  12   2.0000      -0.235577        -6.4104
  13   2.0000      -0.108149        -2.9429
  14   2.0000      -0.108051        -2.9402
  15   2.0000      -0.099033        -2.6948
  16   0.0000       0.191229         5.2036
  17   0.0000       0.222844         6.0639
  18   0.0000       0.251135         6.8337
  19   0.0000       0.258962         7.0467
  20   0.0000       0.283788         7.7223

MULLIKEN ATOMIC CHARGES
-----------------------
   0 C :    0.464489
   1 C :    0.145827
   2 O :   -0.704475
   3 O :   -0.723864
   4 H :   -0.077692
   5 H :   -0.052273
   6 H :   -0.052011
Sum of atomic charges:   -1.0000000

LOEWDIN ATOMIC CHARGES
----------------------
   0 C :    0.143913
   1 C :   -0.324556
   2 O :   -0.351194
   3 O :   -0.353141
   4 H :   -0.042829
   5 H :   -0.035046
   6 H :   -0.037148

  Mayer bond orders larger than 0.100000
B(  0-C ,  1-C ) :   1.1945 B(  0-C ,  4-H ) :   0.8741 B(  0-C ,  5-H ) :   0.8267
B(  0-C ,  6-H ) :   0.8164 B(  1-C ,  2-O ) :   1.4217 B(  1-C ,  3-O ) :   1.4205
B(  1-C ,  4-H ) :   0.2466 B(  1-C ,  5-H ) :   0.1576 B(  1-C ,  6-H ) :   0.1668

Dispersion correction           -0.000017309
FINAL SINGLE POINT ENERGY      -228.267992900518

DIPOLE MOMENT
-------------
                                X             Y             Z
Electronic contribution:      0.75507      -2.45708      -2.50168
Nuclear contribution   :     -1.06347       3.45957       3.47855
                        -----------------------------------------
Total Dipole Moment    :     -0.30840       1.00250       0.97688
                        -----------------------------------------
Magnitude (a.u.)       :      1.43332
Magnitude (Debye)      :      3.64321

Rotational constants in cm-1:     0.393276     0.333956     0.186777
Rotational constants in MHz : 11790.103634 10011.747201  5599.422324

                             ****ORCA TERMINATED NORMALLY****
TOTAL RUN TIME: 0 days 0 hours 0 minutes 7 seconds 560 msec
