                         Program Version 5.0.0 -  RELEASE  -
|  1> !M062X D3Zero RIJCOSX def2-SVPD def2/J TightSCF
|  2> *xyz 1 1
|  3> C          2.23447       -2.98975       -2.39762
|  4> N          2.75680       -2.94555       -3.76503
|  5> C          1.98721       -2.59045       -4.81898
|  6> N          0.74322       -3.01749       -4.91352
|  7> N          2.49964       -1.84860       -5.80324
|  8> H          3.30978       -1.29282       -5.55895
|  9> H          1.80103       -1.30430       -6.28913
| 10> H          3.71612       -2.62880       -3.82953
| 11> H          0.39583       -3.62775       -4.18502
| 12> H          0.03920       -2.45438       -5.37137
| 13> H          1.22098       -3.33251       -2.41386
| 14> H          2.27280       -2.00995       -1.96933
| 15> H          2.82798       -3.65908       -1.81056
| 16> *
| 17>
| 18> %MaxCore 64000
| 19>
| 20> %pal nprocs 4
| 21> end
| 22>
| 23> %scf
| 24>   MaxIter 150
| 25> end
| 26>
| 27>
| 28>                          ****END OF INPUT****

CARTESIAN COORDINATES (ANGSTROEM)
---------------------------------
  C      2.234470   -2.989750   -2.397620
  N      2.756800   -2.945550   -3.765030
  C      1.987210   -2.590450   -4.818980
  N      0.743220   -3.017490   -4.913520
  N      2.499640   -1.848600   -5.803240
  H      3.309780   -1.292820   -5.558950
  H      1.801030   -1.304300   -6.289130
  H      3.716120   -2.628800   -3.829530
  H      0.395830   -3.627750   -4.185020
  H      0.039200   -2.454380   -5.371370
  H      1.220980   -3.332510   -2.413860
  H      2.272800   -2.009950   -1.969330
  H      2.827980   -3.659080   -1.810560

 Total Charge           Charge          ....    1
 Multiplicity           Mult            ....    1
 Number of Electrons    NEL             ....   40
 Basis Dimension        Dim             ....  164

ORBITAL ENERGIES
----------------

  NO   OCC          E(Eh)            E(eV)
   0   2.0000     -14.998349      -408.1258
   1   2.0000     -14.993824      -408.0027
   2   2.0000     -14.993687      -407.9990
   3   2.0000     -10.902963      -296.6847
   4   2.0000     -10.761104      -292.8245
   5   2.0000      -1.329868       -36.1876
   6   2.0000      -1.206688       -32.8356
   7   2.0000      -1.201577       -32.6966
   8   2.0000      -0.991896       -26.9909
   9   2.0000      -0.915459       -24.9109
  10   2.0000      -0.869770       -23.6676
  11   2.0000      -0.831112       -22.6157
  12   2.0000      -0.779798       -21.2194
  13   2.0000      -0.761004       -20.7080
  14   2.0000      -0.722680       -19.6651
  15   2.0000      -0.711966       -19.3736
  16   2.0000      -0.667370       -18.1601
  17   2.0000      -0.649899       -17.6846
  18   2.0000      -0.559377       -15.2214
  19   2.0000      -0.523478       -14.2446
  20   0.0000      -0.162249        -4.4150
  21   0.0000      -0.138929        -3.7804
  22   0.0000      -0.101487        -2.7616
  23   0.0000      -0.091345        -2.4856
  24   0.0000      -0.065531        -1.7832

MULLIKEN ATOMIC CHARGES
-----------------------
   0 C :    1.106386
   1 N :   -0.643414
   2 C :    1.029879
   3 N :    0.009465
   4 N :   -0.085757
   5 H :    0.021910
   6 H :    0.068391
   7 H :   -0.160419
   8 H :   -0.001565
   9 H :   -0.010185
  10 H :   -0.170712
  11 H :   -0.035367
  12 H :   -0.128611
Sum of atomic charges:    1.0000000

LOEWDIN ATOMIC CHARGES
----------------------
   0 C :    0.266505
   1 N :    0.012993
   2 C :   -0.034304
   3 N :    0.276158
   4 N :    0.264331
   5 H :    0.038211
   6 H :    0.037816
   7 H :    0.050882
   8 H :    0.028020
   9 H :    0.050955
  10 H :   -0.014650
  11 H :    0.010530
  12 H :    0.012554

  Mayer bond orders larger than 0.100000
B(  0-C ,  1-N ) :   0.8676 B(  0-C , 10-H ) :   0.8388 B(  0-C , 11-H ) :   0.8310
B(  0-C , 12-H ) :   0.8211 B(  1-N ,  2-C ) :   1.0374 B(  1-N ,  4-N ) :   0.1186
B(  1-N ,  7-H ) :   1.2253 B(  1-N , 10-H ) :   0.1417 B(  1-N , 11-H ) :   0.1215
B(  1-N , 12-H ) :   0.1911 B(  2-C ,  3-N ) :   1.0326 B(  2-C ,  4-N ) :   1.0142
B(  2-C ,  7-H ) :  -0.1585 B(  2-C ,  9-H ) :  -0.1040 B(  3-N ,  4-N ) :   0.1381
B(  3-N ,  8-H ) :   0.9964 B(  3-N ,  9-H ) :   1.2018 B(  4-N ,  5-H ) :   1.0050
B(  4-N ,  6-H ) :   0.9968 B(  8-H ,  9-H ) :  -0.1618

Dispersion correction           -0.000168496
FINAL SINGLE POINT ENERGY      -244.783151466352

DIPOLE MOMENT
-------------
                                X             Y             Z
Electronic contribution:      0.26204      -0.05858      -3.00155
Nuclear contribution   :     -0.61773       0.88991       3.03801
                        -----------------------------------------
Total Dipole Moment    :     -0.35568       0.83133       0.03646
                        -----------------------------------------
Magnitude (a.u.)       :      0.90496
Magnitude (Debye)      :      2.30023

Rotational constants in cm-1:     0.302561     0.133407     0.098295
Rotational constants in MHz :  9070.558660  3999.431512  2946.819102

                             ****ORCA TERMINATED NORMALLY****
TOTAL RUN TIME: 0 days 0 hours 0 minutes 17 seconds 824 msec
