                         Program Version 5.0.0 -  RELEASE  -
|  1> !M062X D3Zero RIJCOSX def2-SVPD def2/J TightSCF xyzfile
|  2>
|  3> *xyzfile 0 1 B.xyz
|  4>
|  5> %MaxCore 64000
|  6>
|  7> %pal nprocs 4
|  8> end
|  9>
| 10> %scf
| 11>   MaxIter 150
| 12> end
| 13>
| 14>
| 15>                          ****END OF INPUT****

CARTESIAN COORDINATES (ANGSTROEM)
---------------------------------
  C      2.234473   -2.989754   -2.397622
  N      2.756799   -2.945553   -3.765029
  C     -1.104325    0.251374   -2.860056
  C     -0.711893    0.842517   -4.218344
  H      0.154626    1.499800   -4.130909
  H     -1.538134    1.459222   -4.582671
  C     -0.397624   -0.205875   -5.288018
  C      1.987208   -2.590451   -4.818975
  N      0.743221   -3.017493   -4.913524
  N      2.499636   -1.848598   -5.803241
  H      3.309780   -1.292818   -5.558947
  H      1.801025   -1.304298   -6.289129
  H      3.716116   -2.628797   -3.829533
  H      0.395828   -3.627747   -4.185024
  H      0.039201   -2.454383   -5.371367
  O      0.617165   -0.005348   -5.998273
  O     -1.133173   -1.221380   -5.341465
  C      2.191199   -1.619503   -1.715492
  H      2.872783   -3.666368   -1.828014
  H      1.246188   -3.447444   -2.407842
  C      1.298729   -0.554314   -2.359773
  H      1.872917   -1.787955   -0.681310
  H      3.216809   -1.238432   -1.654428
  C     -0.196255   -0.863365   -2.325763
  H      1.612531   -0.371346   -3.393065
  H      1.480944    0.388638   -1.834444
  H     -0.404105   -1.761825   -2.909448
  H     -0.490439   -1.087880   -1.294131
  H     -1.143842    1.066711   -2.129680
  H     -2.114401   -0.156834   -2.930323

 Total Charge           Charge          ....    0
 Multiplicity           Mult            ....    1
 Number of Electrons    NEL             ....  102
 Basis Dimension        Dim             ....  402

ORBITAL ENERGIES
----------------

  NO   OCC          E(Eh)            E(eV)
   0   2.0000     -19.556626      -532.1629
   1   2.0000     -19.554554      -532.1065
   2   2.0000     -14.832614      -403.6159
   3   2.0000     -14.803448      -402.8223
   4   2.0000     -14.801532      -402.7702
   5   2.0000     -10.725049      -291.8434
   6   2.0000     -10.628646      -289.2202
   7   2.0000     -10.615549      -288.8638
   8   2.0000     -10.576673      -287.8059
   9   2.0000     -10.556871      -287.2671
  10   2.0000     -10.542987      -286.8893
  11   2.0000     -10.533234      -286.6239
  12   2.0000     -10.518900      -286.2338
  13   2.0000      -1.154252       -31.4088
  14   2.0000      -1.117320       -30.4038
  15   2.0000      -1.040973       -28.3263
  16   2.0000      -1.024127       -27.8679
  17   2.0000      -1.008037       -27.4301
  18   2.0000      -0.912054       -24.8183
  19   2.0000      -0.867253       -23.5992
  20   2.0000      -0.812570       -22.1111
  21   2.0000      -0.765674       -20.8350
  22   2.0000      -0.736886       -20.0517
  23   2.0000      -0.702411       -19.1136
  24   2.0000      -0.692451       -18.8425
  25   2.0000      -0.657983       -17.9046
  26   2.0000      -0.634103       -17.2548
  27   2.0000      -0.610897       -16.6234
  28   2.0000      -0.584809       -15.9135
  29   2.0000      -0.573912       -15.6169
  30   2.0000      -0.554910       -15.0999
  31   2.0000      -0.543550       -14.7907
  32   2.0000      -0.538347       -14.6492
  33   2.0000      -0.522479       -14.2174
  34   2.0000      -0.509151       -13.8547
  35   2.0000      -0.497518       -13.5381
  36   2.0000      -0.483762       -13.1638
  37   2.0000      -0.480925       -13.0866
  38   2.0000      -0.463314       -12.6074
  39   2.0000      -0.450425       -12.2567
  40   2.0000      -0.435708       -11.8562
  41   2.0000      -0.422987       -11.5101
  42   2.0000      -0.410297       -11.1648
  43   2.0000      -0.391687       -10.6583
  44   2.0000      -0.377450       -10.2709
  45   2.0000      -0.371210       -10.1011
  46   2.0000      -0.366774        -9.9804
  47   2.0000      -0.357480        -9.7275
  48   2.0000      -0.296519        -8.0687
  49   2.0000      -0.289328        -7.8730
  50   2.0000      -0.288372        -7.8470
  51   0.0000       0.005313         0.1446
  52   0.0000       0.011701         0.3184
  53   0.0000       0.026513         0.7215
  54   0.0000       0.041490         1.1290
  55   0.0000       0.050586         1.3765

MULLIKEN ATOMIC CHARGES
-----------------------
   0 C :    0.820161
   1 N :   -0.561613
   2 C :    0.565725
   3 C :    0.266120
   4 H :    0.178721
   5 H :   -0.299297
   6 C :    0.472073
   7 C :    1.093635
   8 N :    0.228005
   9 N :    0.000272
  10 H :    0.076874
  11 H :   -0.173905
  12 H :   -0.139954
  13 H :    0.051077
  14 H :   -0.356493
  15 O :   -0.671376
  16 O :   -0.822769
  17 C :    0.410718
  18 H :   -0.365378
  19 H :    0.037776
  20 C :   -0.040724
  21 H :    0.044415
  22 H :   -0.092210
  23 C :    0.018736
  24 H :   -0.144138
  25 H :   -0.199149
  26 H :   -0.171712
  27 H :   -0.176246
  28 H :   -0.123350
  29 H :    0.074007
Sum of atomic charges:    0.0000000

LOEWDIN ATOMIC CHARGES
----------------------
   0 C :    0.068432
   1 N :    0.028964
   2 C :   -0.019951
   3 C :    0.035029
   4 H :    0.016017
   5 H :    0.030537
   6 C :   -0.204882
   7 C :   -0.045255
   8 N :    0.309513
   9 N :    0.271544
  10 H :    0.025080
  11 H :   -0.064624
  12 H :    0.035904
  13 H :    0.018482
  14 H :   -0.074272
  15 O :   -0.275027
  16 O :   -0.267041
  17 C :   -0.014944
  18 H :    0.026040
  19 H :    0.009665
  20 C :   -0.021774
  21 H :    0.028940
  22 H :    0.021514
  23 C :   -0.028385
  24 H :    0.004396
  25 H :    0.031543
  26 H :   -0.012941
  27 H :    0.023643
  28 H :    0.018532
  29 H :    0.025322

  Mayer bond orders larger than 0.100000
B(  0-C ,  1-N ) :   0.8942 B(  0-C , 12-H ) :  -0.1021 B(  0-C , 17-C ) :   1.0878
B(  0-C , 18-H ) :   0.8244 B(  0-C , 19-H ) :   0.7687 B(  0-C , 21-H ) :   0.1389
B(  0-C , 22-H ) :   0.1245 B(  1-N ,  7-C ) :   0.9011 B(  1-N ,  8-N ) :   0.1030
B(  1-N ,  9-N ) :   0.1678 B(  1-N , 12-H ) :   1.2156 B(  1-N , 18-H ) :   0.2209
B(  1-N , 19-H ) :   0.1028 B(  2-C ,  3-C ) :   1.1701 B(  2-C ,  4-H ) :   0.1003
B(  2-C ,  5-H ) :   0.1417 B(  2-C , 23-C ) :   1.2512 B(  2-C , 28-H ) :   0.7934
B(  2-C , 29-H ) :   0.6246 B(  3-C ,  4-H ) :   0.7752 B(  3-C ,  5-H ) :   0.8162
B(  3-C ,  6-C ) :   1.1025 B(  3-C , 23-C ) :   0.1136 B(  3-C , 28-H ) :   0.1480
B(  3-C , 29-H ) :   0.1116 B(  4-H ,  5-H ) :  -0.1320 B(  4-H ,  6-C ) :   0.2777
B(  5-H ,  6-C ) :   0.1677 B(  6-C , 15-O ) :   1.2808 B(  6-C , 16-O ) :   1.2170
B(  7-C ,  8-N ) :   0.9716 B(  7-C ,  9-N ) :   0.8692 B(  7-C , 12-H ) :  -0.1888
B(  7-C , 14-H ) :  -0.1504 B(  8-N ,  9-N ) :   0.1260 B(  8-N , 13-H ) :   0.8907
B(  8-N , 14-H ) :   1.2576 B(  9-N , 10-H ) :   0.9365 B(  9-N , 11-H ) :   1.0216
B( 11-H , 15-O ) :   0.1196 B( 13-H , 14-H ) :  -0.2580 B( 14-H , 16-O ) :   0.2172
B( 17-C , 19-H ) :   0.1218 B( 17-C , 20-C ) :   1.2139 B( 17-C , 21-H ) :   0.8030
B( 17-C , 22-H ) :   0.7245 B( 18-H , 19-H ) :  -0.1814 B( 20-C , 21-H ) :   0.1532
B( 20-C , 22-H ) :   0.2482 B( 20-C , 23-C ) :   1.2993 B( 20-C , 24-H ) :   0.9595
B( 20-C , 25-H ) :   0.8648 B( 20-C , 26-H ) :   0.1548 B( 20-C , 27-H ) :   0.2356
B( 21-H , 22-H ) :  -0.1360 B( 23-C , 24-H ) :   0.1424 B( 23-C , 25-H ) :   0.2001
B( 23-C , 26-H ) :   0.9252 B( 23-C , 27-H ) :   0.7708 B( 23-C , 28-H ) :   0.1675
B( 23-C , 29-H ) :   0.2532 B( 28-H , 29-H ) :  -0.1570

Dispersion correction           -0.001701386
FINAL SINGLE POINT ENERGY      -629.125881077043

DIPOLE MOMENT
-------------
                                X             Y             Z
Electronic contribution:      0.60971      -2.85993     -10.20223
Nuclear contribution   :      1.76912       1.50070      12.36652
                        -----------------------------------------
Total Dipole Moment    :      2.37882      -1.35923       2.16429
                        -----------------------------------------
Magnitude (a.u.)       :      3.49148
Magnitude (Debye)      :      8.87465

Rotational constants in cm-1:     0.033272     0.023886     0.017112
Rotational constants in MHz :   997.469575   716.074432   513.001395

                             ****ORCA TERMINATED NORMALLY****
TOTAL RUN TIME: 0 days 0 hours 2 minutes 42 seconds 533 msec
