                         Program Version 5.0.0 -  RELEASE  -
|  1> !M062X D3Zero RIJCOSX def2-SVPD def2/J TightSCF
|  2> *xyz 0 1
|  3> C         -0.71189        0.84252       -4.21834
|  4> C         -0.39762       -0.20587       -5.28802
|  5> F          0.61717       -0.00535       -5.99827
|  6> O         -1.13317       -1.22138       -5.34147
|  7> H         -0.00939        1.64646       -4.28960
|  8> H         -0.64409        0.39449       -3.24902
|  9> H         -1.70192        1.21961       -4.36851
| 10> *
| 11>
| 12> %MaxCore 64000
| 13>
| 14> %pal nprocs 4
| 15> end
| 16>
| 17> %scf
| 18>   MaxIter 150
| 19> end
| 20>
| 21>
| 22>                          ****END OF INPUT****

CARTESIAN COORDINATES (ANGSTROEM)
---------------------------------
  C     -0.711890    0.842520   -4.218340
  C     -0.397620   -0.205870   -5.288020
  F      0.617170   -0.005350   -5.998270
  O     -1.133170   -1.221380   -5.341470
  H     -0.009390    1.646460   -4.289600
  H     -0.644090    0.394490   -3.249020
  H     -1.701920    1.219610   -4.368510

 Total Charge           Charge          ....    0
 Multiplicity           Mult            ....    1
 Number of Electrons    NEL             ....   32
 Basis Dimension        Dim             ....  110

ORBITAL ENERGIES
----------------

  NO   OCC          E(Eh)            E(eV)
   0   2.0000     -25.332121      -689.3220
   1   2.0000     -19.651450      -534.7432
   2   2.0000     -10.744897      -292.3835
   3   2.0000     -10.579982      -287.8960
   4   2.0000      -1.449624       -39.4463
   5   2.0000      -1.146715       -31.2037
   6   2.0000      -0.865079       -23.5400
   7   2.0000      -0.758074       -20.6282
   8   2.0000      -0.647685       -17.6244
   9   2.0000      -0.644032       -17.5250
  10   2.0000      -0.589488       -16.0408
  11   2.0000      -0.517749       -14.0887
  12   2.0000      -0.504357       -13.7242
  13   2.0000      -0.483544       -13.1579
  14   2.0000      -0.425621       -11.5817
  15   2.0000      -0.376290       -10.2394
  16   0.0000       0.010855         0.2954
  17   0.0000       0.026907         0.7322
  18   0.0000       0.065612         1.7854
  19   0.0000       0.098995         2.6938
  20   0.0000       0.102116         2.7787

MULLIKEN ATOMIC CHARGES
-----------------------
   0 C :    0.318893
   1 C :    0.473484
   2 F :   -0.376679
   3 O :   -0.524726
   4 H :    0.002306
   5 H :    0.055703
   6 H :    0.051018
Sum of atomic charges:    0.0000000

LOEWDIN ATOMIC CHARGES
----------------------
   0 C :    0.218100
   1 C :   -0.013920
   2 F :   -0.053740
   3 O :   -0.149020
   4 H :   -0.012102
   5 H :    0.005936
   6 H :    0.004747

  Mayer bond orders larger than 0.100000
B(  0-C ,  1-C ) :   1.2616 B(  0-C ,  4-H ) :   0.8901 B(  0-C ,  5-H ) :   0.8255
B(  0-C ,  6-H ) :   0.8168 B(  1-C ,  2-F ) :   0.7423 B(  1-C ,  3-O ) :   1.7735
B(  1-C ,  4-H ) :   0.1525 B(  1-C ,  5-H ) :   0.1281 B(  1-C ,  6-H ) :   0.1391

Dispersion correction           -0.000021067
FINAL SINGLE POINT ENERGY      -252.800355755893

DIPOLE MOMENT
-------------
                                X             Y             Z
Electronic contribution:      2.40380      -2.25038      -3.79299
Nuclear contribution   :     -2.12043       3.31297       4.29327
                        -----------------------------------------
Total Dipole Moment    :      0.28337       1.06259       0.50029
                        -----------------------------------------
Magnitude (a.u.)       :      1.20818
Magnitude (Debye)      :      3.07094

Rotational constants in cm-1:     0.368089     0.321934     0.177312
Rotational constants in MHz : 11035.034199  9651.332398  5315.666874

                             ****ORCA TERMINATED NORMALLY****
TOTAL RUN TIME: 0 days 0 hours 0 minutes 8 seconds 85 msec
