                         Program Version 5.0.0 -  RELEASE  -
|  1> !M062X D3Zero RIJCOSX def2-SVPD def2/J TightSCF
|  2> *xyz 0 1
|  3> C          2.23447       -2.98975       -2.39762
|  4> C          2.75680       -2.94555       -3.76503
|  5> C          1.98721       -2.59045       -4.81898
|  6> N          0.74322       -3.01749       -4.91352
|  7> N          2.49964       -1.84860       -5.80324
|  8> H          3.30978       -1.29282       -5.55895
|  9> H          1.80103       -1.30430       -6.28913
| 10> H          3.71612       -2.62880       -3.82953
| 11> H          0.39583       -3.62775       -4.18502
| 12> H          0.03920       -2.45438       -5.37137
| 13> H          1.22098       -3.33251       -2.41386
| 14> H          2.27280       -2.00995       -1.96933
| 15> H          2.82798       -3.65908       -1.81056
| 16> *
| 17>
| 18> %MaxCore 64000
| 19>
| 20> %pal nprocs 4
| 21> end
| 22>
| 23> %scf
| 24>   MaxIter 150
| 25> end
| 26>
| 27>
| 28>                          ****END OF INPUT****

CARTESIAN COORDINATES (ANGSTROEM)
---------------------------------
  C      2.234470   -2.989750   -2.397620
  C      2.756800   -2.945550   -3.765030
  C      1.987210   -2.590450   -4.818980
  N      0.743220   -3.017490   -4.913520
  N      2.499640   -1.848600   -5.803240
  H      3.309780   -1.292820   -5.558950
  H      1.801030   -1.304300   -6.289130
  H      3.716120   -2.628800   -3.829530
  H      0.395830   -3.627750   -4.185020
  H      0.039200   -2.454380   -5.371370
  H      1.220980   -3.332510   -2.413860
  H      2.272800   -2.009950   -1.969330
  H      2.827980   -3.659080   -1.810560

 Total Charge           Charge          ....    0
 Multiplicity           Mult            ....    1
 Number of Electrons    NEL             ....   40
 Basis Dimension        Dim             ....  164

ORBITAL ENERGIES
----------------

  NO   OCC          E(Eh)            E(eV)
   0   2.0000     -14.767474      -401.8434
   1   2.0000     -14.763068      -401.7235
   2   2.0000     -10.599901      -288.4380
   3   2.0000     -10.518186      -286.2144
   4   2.0000     -10.478483      -285.1340
   5   2.0000      -1.071075       -29.1454
   6   2.0000      -0.971628       -26.4393
   7   2.0000      -0.841652       -22.9025
   8   2.0000      -0.737214       -20.0606
   9   2.0000      -0.665739       -18.1157
  10   2.0000      -0.617812       -16.8115
  11   2.0000      -0.579242       -15.7620
  12   2.0000      -0.538927       -14.6650
  13   2.0000      -0.508294       -13.8314
  14   2.0000      -0.471206       -12.8222
  15   2.0000      -0.445187       -12.1142
  16   2.0000      -0.422778       -11.5044
  17   2.0000      -0.401769       -10.9327
  18   2.0000      -0.341273        -9.2865
  19   2.0000      -0.211080        -5.7438
  20   0.0000       0.032128         0.8743
  21   0.0000       0.060924         1.6578
  22   0.0000       0.070175         1.9096
  23   0.0000       0.090567         2.4645
  24   0.0000       0.099412         2.7051

MULLIKEN ATOMIC CHARGES
-----------------------
   0 C :    0.819008
   1 C :   -0.414346
   2 C :    0.350582
   3 N :   -0.050721
   4 N :   -0.093627
   5 H :    0.050606
   6 H :   -0.000571
   7 H :   -0.249155
   8 H :   -0.015425
   9 H :   -0.106316
  10 H :   -0.242964
  11 H :   -0.076072
  12 H :    0.029000
Sum of atomic charges:    0.0000000

LOEWDIN ATOMIC CHARGES
----------------------
   0 C :    0.089089
   1 C :   -0.049955
   2 C :   -0.241220
   3 N :    0.184110
   4 N :    0.176674
   5 H :    0.003948
   6 H :   -0.010028
   7 H :   -0.062153
   8 H :   -0.003050
   9 H :   -0.000335
  10 H :   -0.044552
  11 H :   -0.018967
  12 H :   -0.023561

  Mayer bond orders larger than 0.100000
B(  0-C ,  1-C ) :   1.1297 B(  0-C ,  7-H ) :   0.1817 B(  0-C , 10-H ) :   0.7387
B(  0-C , 11-H ) :   0.8293 B(  0-C , 12-H ) :   0.7121 B(  1-C ,  2-C ) :   1.8482
B(  1-C ,  3-N ) :   0.1620 B(  1-C ,  4-N ) :   0.1955 B(  1-C ,  7-H ) :   0.8011
B(  1-C , 10-H ) :   0.3160 B(  1-C , 12-H ) :   0.2256 B(  2-C ,  3-N ) :   1.0104
B(  2-C ,  4-N ) :   0.9937 B(  2-C ,  7-H ) :   0.2699 B(  3-N ,  4-N ) :   0.1172
B(  3-N ,  8-H ) :   0.9967 B(  3-N ,  9-H ) :   1.2159 B(  4-N ,  5-H ) :   0.9500
B(  4-N ,  6-H ) :   0.9389 B(  8-H ,  9-H ) :  -0.1456 B( 10-H , 12-H ) :   0.1143

Dispersion correction           -0.000167598
FINAL SINGLE POINT ENERGY      -228.324240212806

DIPOLE MOMENT
-------------
                                X             Y             Z
Electronic contribution:     -0.28478       0.04611      -3.41777
Nuclear contribution   :     -0.47056       0.83150       3.15332
                        -----------------------------------------
Total Dipole Moment    :     -0.75534       0.87761      -0.26445
                        -----------------------------------------
Magnitude (a.u.)       :      1.18772
Magnitude (Debye)      :      3.01893

Rotational constants in cm-1:     0.307275     0.134774     0.099280
Rotational constants in MHz :  9211.860934  4040.421317  2976.324646

                             ****ORCA TERMINATED NORMALLY****
TOTAL RUN TIME: 0 days 0 hours 0 minutes 16 seconds 787 msec
