                         Program Version 5.0.0 -  RELEASE  -
|  1> !M062X D3Zero RIJCOSX def2-SVPD def2/J TightSCF
|  2> *xyz 0 1
|  3> C         -0.71189        0.84252       -4.21834
|  4> C         -0.39762       -0.20587       -5.28802
|  5> O          0.61717       -0.00535       -5.99827
|  6> F         -1.13317       -1.22138       -5.34147
|  7> H         -0.00939        1.64646       -4.28960
|  8> H         -0.64409        0.39449       -3.24902
|  9> H         -1.70192        1.21961       -4.36851
| 10> *
| 11>
| 12> %MaxCore 64000
| 13>
| 14> %pal nprocs 4
| 15> end
| 16>
| 17> %scf
| 18>   MaxIter 150
| 19> end
| 20>
| 21>
| 22>                          ****END OF INPUT****

CARTESIAN COORDINATES (ANGSTROEM)
---------------------------------
  C     -0.711890    0.842520   -4.218340
  C     -0.397620   -0.205870   -5.288020
  O      0.617170   -0.005350   -5.998270
  F     -1.133170   -1.221380   -5.341470
  H     -0.009390    1.646460   -4.289600
  H     -0.644090    0.394490   -3.249020
  H     -1.701920    1.219610   -4.368510

 Total Charge           Charge          ....    0
 Multiplicity           Mult            ....    1
 Number of Electrons    NEL             ....   32
 Basis Dimension        Dim             ....  110

ORBITAL ENERGIES
----------------

  NO   OCC          E(Eh)            E(eV)
   0   2.0000     -25.332495      -689.3322
   1   2.0000     -19.651297      -534.7390
   2   2.0000     -10.744426      -292.3707
   3   2.0000     -10.579694      -287.8881
   4   2.0000      -1.449414       -39.4406
   5   2.0000      -1.147132       -31.2151
   6   2.0000      -0.864544       -23.5254
   7   2.0000      -0.758086       -20.6286
   8   2.0000      -0.648344       -17.6423
   9   2.0000      -0.643451       -17.5092
  10   2.0000      -0.589375       -16.0377
  11   2.0000      -0.516770       -14.0620
  12   2.0000      -0.504787       -13.7359
  13   2.0000      -0.483260       -13.1502
  14   2.0000      -0.428290       -11.6544
  15   2.0000      -0.374416       -10.1884
  16   0.0000       0.014593         0.3971
  17   0.0000       0.027113         0.7378
  18   0.0000       0.065454         1.7811
  19   0.0000       0.096279         2.6199
  20   0.0000       0.103748         2.8231

MULLIKEN ATOMIC CHARGES
-----------------------
   0 C :    0.336709
   1 C :    0.484101
   2 O :   -0.506020
   3 F :   -0.398554
   4 H :   -0.021067
   5 H :    0.054106
   6 H :    0.050726
Sum of atomic charges:   -0.0000000

LOEWDIN ATOMIC CHARGES
----------------------
   0 C :    0.217112
   1 C :   -0.015313
   2 O :   -0.149212
   3 F :   -0.051392
   4 H :    0.000290
   5 H :    0.000449
   6 H :   -0.001934

  Mayer bond orders larger than 0.100000
B(  0-C ,  1-C ) :   1.2425 B(  0-C ,  4-H ) :   0.9048 B(  0-C ,  5-H ) :   0.8207
B(  0-C ,  6-H ) :   0.8151 B(  1-C ,  2-O ) :   1.7929 B(  1-C ,  3-F ) :   0.7070
B(  1-C ,  4-H ) :   0.2030 B(  1-C ,  5-H ) :   0.1167 B(  1-C ,  6-H ) :   0.1220

Dispersion correction           -0.000021023
FINAL SINGLE POINT ENERGY      -252.800456360858

DIPOLE MOMENT
-------------
                                X             Y             Z
Electronic contribution:     -0.43379      -4.22302      -2.72799
Nuclear contribution   :     -0.31181       4.56949       3.61460
                        -----------------------------------------
Total Dipole Moment    :     -0.74560       0.34647       0.88661
                        -----------------------------------------
Magnitude (a.u.)       :      1.20915
Magnitude (Debye)      :      3.07342

Rotational constants in cm-1:     0.370228     0.320104     0.177247
Rotational constants in MHz : 11099.151631  9596.483000  5313.726171

                             ****ORCA TERMINATED NORMALLY****
TOTAL RUN TIME: 0 days 0 hours 0 minutes 8 seconds 187 msec
