                         Program Version 5.0.0 -  RELEASE  -
|  1> !M062X D3Zero RIJCOSX def2-SVPD def2/J TightSCF
|  2> *xyz 0 1
|  3> C          2.23447       -2.98975       -2.39762
|  4> N          2.75680       -2.94555       -3.76503
|  5> C          1.98721       -2.59045       -4.81898
|  6> C          0.74322       -3.01749       -4.91352
|  7> N          2.49964       -1.84860       -5.80324
|  8> H          3.30978       -1.29282       -5.55895
|  9> H          1.80103       -1.30430       -6.28913
| 10> H          3.71612       -2.62880       -3.82953
| 11> H          0.39583       -3.62775       -4.18502
| 12> H          0.03920       -2.45438       -5.37137
| 13> H          1.22098       -3.33251       -2.41386
| 14> H          2.27280       -2.00995       -1.96933
| 15> H          2.82798       -3.65908       -1.81056
| 16> *
| 17>
| 18> %MaxCore 64000
| 19>
| 20> %pal nprocs 4
| 21> end
| 22>
| 23> %scf
| 24>   MaxIter 150
| 25> end
| 26>
| 27>
| 28>                          ****END OF INPUT****

CARTESIAN COORDINATES (ANGSTROEM)
---------------------------------
  C      2.234470   -2.989750   -2.397620
  N      2.756800   -2.945550   -3.765030
  C      1.987210   -2.590450   -4.818980
  C      0.743220   -3.017490   -4.913520
  N      2.499640   -1.848600   -5.803240
  H      3.309780   -1.292820   -5.558950
  H      1.801030   -1.304300   -6.289130
  H      3.716120   -2.628800   -3.829530
  H      0.395830   -3.627750   -4.185020
  H      0.039200   -2.454380   -5.371370
  H      1.220980   -3.332510   -2.413860
  H      2.272800   -2.009950   -1.969330
  H      2.827980   -3.659080   -1.810560

 Total Charge           Charge          ....    0
 Multiplicity           Mult            ....    1
 Number of Electrons    NEL             ....   40
 Basis Dimension        Dim             ....  164

ORBITAL ENERGIES
----------------

  NO   OCC          E(Eh)            E(eV)
   0   2.0000     -14.765046      -401.7773
   1   2.0000     -14.762587      -401.7104
   2   2.0000     -10.599205      -288.4190
   3   2.0000     -10.576208      -287.7932
   4   2.0000     -10.470445      -284.9153
   5   2.0000      -1.068364       -29.0717
   6   2.0000      -0.980528       -26.6815
   7   2.0000      -0.812330       -22.1046
   8   2.0000      -0.779783       -21.2190
   9   2.0000      -0.642686       -17.4884
  10   2.0000      -0.619552       -16.8589
  11   2.0000      -0.587132       -15.9767
  12   2.0000      -0.522898       -14.2288
  13   2.0000      -0.507259       -13.8032
  14   2.0000      -0.486880       -13.2487
  15   2.0000      -0.458567       -12.4782
  16   2.0000      -0.441700       -12.0193
  17   2.0000      -0.426498       -11.6056
  18   2.0000      -0.317925        -8.6512
  19   2.0000      -0.230271        -6.2660
  20   0.0000       0.033065         0.8997
  21   0.0000       0.059682         1.6240
  22   0.0000       0.071018         1.9325
  23   0.0000       0.088845         2.4176
  24   0.0000       0.101304         2.7566

MULLIKEN ATOMIC CHARGES
-----------------------
   0 C :    1.142907
   1 N :   -0.549576
   2 C :    0.415081
   3 C :    0.340765
   4 N :   -0.053272
   5 H :   -0.062150
   6 H :    0.057474
   7 H :   -0.284034
   8 H :   -0.151782
   9 H :   -0.384421
  10 H :   -0.201096
  11 H :   -0.094539
  12 H :   -0.175356
Sum of atomic charges:    0.0000000

LOEWDIN ATOMIC CHARGES
----------------------
   0 C :    0.218104
   1 N :   -0.053246
   2 C :   -0.247427
   3 C :    0.162342
   4 N :    0.174549
   5 H :   -0.011724
   6 H :    0.002840
   7 H :    0.010815
   8 H :   -0.104257
   9 H :   -0.092136
  10 H :   -0.028847
  11 H :   -0.015377
  12 H :   -0.015636

  Mayer bond orders larger than 0.100000
B(  0-C ,  1-N ) :   0.8709 B(  0-C , 10-H ) :   0.8453 B(  0-C , 11-H ) :   0.8029
B(  0-C , 12-H ) :   0.7899 B(  1-N ,  2-C ) :   0.9968 B(  1-N ,  3-C ) :   0.2042
B(  1-N ,  7-H ) :   1.1780 B(  1-N , 10-H ) :   0.1352 B(  1-N , 11-H ) :   0.1544
B(  1-N , 12-H ) :   0.1904 B(  2-C ,  3-C ) :   1.8077 B(  2-C ,  4-N ) :   0.9346
B(  2-C ,  8-H ) :   0.2623 B(  2-C ,  9-H ) :   0.1030 B(  3-C ,  4-N ) :   0.2175
B(  3-C ,  8-H ) :   0.5427 B(  3-C ,  9-H ) :   0.9238 B(  4-N ,  5-H ) :   0.9600
B(  4-N ,  6-H ) :   0.9730 B(  8-H ,  9-H ) :   0.1182

Dispersion correction           -0.000165769
FINAL SINGLE POINT ENERGY      -228.316951118638

DIPOLE MOMENT
-------------
                                X             Y             Z
Electronic contribution:      1.52515       0.10786      -2.35600
Nuclear contribution   :     -0.87840       0.81693       2.92070
                        -----------------------------------------
Total Dipole Moment    :      0.64675       0.92479       0.56470
                        -----------------------------------------
Magnitude (a.u.)       :      1.26191
Magnitude (Debye)      :      3.20752

Rotational constants in cm-1:     0.323282     0.134248     0.100848
Rotational constants in MHz :  9691.753357  4024.663509  3023.338831

                             ****ORCA TERMINATED NORMALLY****
TOTAL RUN TIME: 0 days 0 hours 0 minutes 17 seconds 9 msec
