                         Program Version 5.0.0 -  RELEASE  -
|  1> !M062X D3Zero RIJCOSX def2-SVPD def2/J TightSCF
|  2> *xyz 0 1
|  3> C          2.23447       -2.98975       -2.39762
|  4> N          2.75680       -2.94555       -3.76503
|  5> C          1.98721       -2.59045       -4.81898
|  6> N          0.74322       -3.01749       -4.91352
|  7> C          2.49964       -1.84860       -5.80324
|  8> H          3.30978       -1.29282       -5.55895
|  9> H          1.80103       -1.30430       -6.28913
| 10> H          3.71612       -2.62880       -3.82953
| 11> H          0.39583       -3.62775       -4.18502
| 12> H          0.03920       -2.45438       -5.37137
| 13> H          1.22098       -3.33251       -2.41386
| 14> H          2.27280       -2.00995       -1.96933
| 15> H          2.82798       -3.65908       -1.81056
| 16> *
| 17>
| 18> %MaxCore 64000
| 19>
| 20> %pal nprocs 4
| 21> end
| 22>
| 23> %scf
| 24>   MaxIter 150
| 25> end
| 26>
| 27>
| 28>                          ****END OF INPUT****

CARTESIAN COORDINATES (ANGSTROEM)
---------------------------------
  C      2.234470   -2.989750   -2.397620
  N      2.756800   -2.945550   -3.765030
  C      1.987210   -2.590450   -4.818980
  N      0.743220   -3.017490   -4.913520
  C      2.499640   -1.848600   -5.803240
  H      3.309780   -1.292820   -5.558950
  H      1.801030   -1.304300   -6.289130
  H      3.716120   -2.628800   -3.829530
  H      0.395830   -3.627750   -4.185020
  H      0.039200   -2.454380   -5.371370
  H      1.220980   -3.332510   -2.413860
  H      2.272800   -2.009950   -1.969330
  H      2.827980   -3.659080   -1.810560

 Total Charge           Charge          ....    0
 Multiplicity           Mult            ....    1
 Number of Electrons    NEL             ....   40
 Basis Dimension        Dim             ....  164

ORBITAL ENERGIES
----------------

  NO   OCC          E(Eh)            E(eV)
   0   2.0000     -14.765914      -401.8009
   1   2.0000     -14.764427      -401.7605
   2   2.0000     -10.603165      -288.5268
   3   2.0000     -10.585105      -288.0354
   4   2.0000     -10.465216      -284.7730
   5   2.0000      -1.070874       -29.1400
   6   2.0000      -0.980873       -26.6909
   7   2.0000      -0.830643       -22.6029
   8   2.0000      -0.756927       -20.5970
   9   2.0000      -0.680075       -18.5058
  10   2.0000      -0.614475       -16.7207
  11   2.0000      -0.563063       -15.3217
  12   2.0000      -0.553266       -15.0551
  13   2.0000      -0.521344       -14.1865
  14   2.0000      -0.472249       -12.8505
  15   2.0000      -0.455772       -12.4022
  16   2.0000      -0.439632       -11.9630
  17   2.0000      -0.428610       -11.6631
  18   2.0000      -0.320170        -8.7123
  19   2.0000      -0.225318        -6.1312
  20   0.0000       0.029915         0.8140
  21   0.0000       0.064175         1.7463
  22   0.0000       0.069098         1.8802
  23   0.0000       0.087142         2.3712
  24   0.0000       0.100927         2.7464

MULLIKEN ATOMIC CHARGES
-----------------------
   0 C :    1.119946
   1 N :   -0.666555
   2 C :    0.309668
   3 N :    0.107648
   4 C :    0.466566
   5 H :   -0.134656
   6 H :   -0.385972
   7 H :   -0.164807
   8 H :   -0.111708
   9 H :   -0.080363
  10 H :   -0.198886
  11 H :   -0.071252
  12 H :   -0.189629
Sum of atomic charges:    0.0000000

LOEWDIN ATOMIC CHARGES
----------------------
   0 C :    0.211992
   1 N :   -0.050138
   2 C :   -0.241642
   3 N :    0.185250
   4 C :    0.145061
   5 H :   -0.104875
   6 H :   -0.105064
   7 H :    0.024369
   8 H :   -0.016693
   9 H :    0.015611
  10 H :   -0.033218
  11 H :   -0.014834
  12 H :   -0.015818

  Mayer bond orders larger than 0.100000
B(  0-C ,  1-N ) :   0.8732 B(  0-C , 10-H ) :   0.8209 B(  0-C , 11-H ) :   0.8128
B(  0-C , 12-H ) :   0.8055 B(  1-N ,  2-C ) :   0.9913 B(  1-N ,  4-C ) :   0.1591
B(  1-N ,  7-H ) :   1.1921 B(  1-N , 10-H ) :   0.1371 B(  1-N , 11-H ) :   0.1074
B(  1-N , 12-H ) :   0.1984 B(  2-C ,  3-N ) :   1.0348 B(  2-C ,  4-C ) :   1.9721
B(  2-C ,  5-H ) :   0.2227 B(  2-C ,  6-H ) :   0.2417 B(  2-C ,  7-H ) :  -0.1222
B(  3-N ,  4-C ) :   0.1975 B(  3-N ,  8-H ) :   1.0124 B(  3-N ,  9-H ) :   1.1669
B(  4-C ,  5-H ) :   0.7204 B(  4-C ,  6-H ) :   0.7161 B(  5-H ,  6-H ) :   0.2537
B(  8-H ,  9-H ) :  -0.1604

Dispersion correction           -0.000164846
FINAL SINGLE POINT ENERGY      -228.311818941307

DIPOLE MOMENT
-------------
                                X             Y             Z
Electronic contribution:     -0.08133      -1.03519      -1.49599
Nuclear contribution   :     -0.52265       1.05368       2.74049
                        -----------------------------------------
Total Dipole Moment    :     -0.60398       0.01849       1.24450
                        -----------------------------------------
Magnitude (a.u.)       :      1.38344
Magnitude (Debye)      :      3.51642

Rotational constants in cm-1:     0.310125     0.138772     0.101978
Rotational constants in MHz :  9297.312912  4160.277024  3057.230514

                             ****ORCA TERMINATED NORMALLY****
TOTAL RUN TIME: 0 days 0 hours 0 minutes 17 seconds 888 msec
