                         Program Version 5.0.0 -  RELEASE  -
|  1> !M062X D3Zero RIJCOSX def2-SVPD def2/J TightSCF xyzfile
|  2>
|  3> *xyzfile 0 1 D3.xyz
|  4>
|  5> %MaxCore 64000
|  6>
|  7> %pal nprocs 4
|  8> end
|  9>
| 10> %scf
| 11>   MaxIter 150
| 12> end
| 13>
| 14>
| 15>                          ****END OF INPUT****

CARTESIAN COORDINATES (ANGSTROEM)
---------------------------------
  C      2.234473   -2.989754   -2.397622
  N      2.756799   -2.945553   -3.765029
  C     -1.104325    0.251374   -2.860056
  C     -0.711893    0.842517   -4.218344
  H      0.154626    1.499800   -4.130909
  H     -1.538134    1.459222   -4.582671
  C     -0.397624   -0.205875   -5.288018
  C      1.987208   -2.590451   -4.818975
  N      0.743221   -3.017493   -4.913524
  C      2.499636   -1.848598   -5.803241
  H      3.309780   -1.292818   -5.558947
  H      1.801025   -1.304298   -6.289129
  H      3.716116   -2.628797   -3.829533
  H      0.395828   -3.627747   -4.185024
  H      0.039201   -2.454383   -5.371367
  F      0.617165   -0.005348   -5.998273
  O     -1.133173   -1.221380   -5.341465
  C      2.191199   -1.619503   -1.715492
  H      2.872783   -3.666368   -1.828014
  H      1.246188   -3.447444   -2.407842
  C      1.298729   -0.554314   -2.359773
  H      1.872917   -1.787955   -0.681310
  H      3.216809   -1.238432   -1.654428
  C     -0.196255   -0.863365   -2.325763
  H      1.612531   -0.371346   -3.393065
  H      1.480944    0.388638   -1.834444
  H     -0.404105   -1.761825   -2.909448
  H     -0.490439   -1.087880   -1.294131
  H     -1.143842    1.066711   -2.129680
  H     -2.114401   -0.156834   -2.930323

 Total Charge           Charge          ....    0
 Multiplicity           Mult            ....    1
 Number of Electrons    NEL             ....  102
 Basis Dimension        Dim             ....  402

ORBITAL ENERGIES
----------------

  NO   OCC          E(Eh)            E(eV)
   0   2.0000     -25.341663      -689.5817
   1   2.0000     -19.670262      -535.2550
   2   2.0000     -14.755266      -401.5112
   3   2.0000     -14.738730      -401.0612
   4   2.0000     -10.758803      -292.7619
   5   2.0000     -10.592048      -288.2243
   6   2.0000     -10.591159      -288.2001
   7   2.0000     -10.587528      -288.1013
   8   2.0000     -10.572049      -287.6801
   9   2.0000     -10.556504      -287.2571
  10   2.0000     -10.556191      -287.2486
  11   2.0000     -10.555870      -287.2398
  12   2.0000     -10.451658      -284.4041
  13   2.0000      -1.460922       -39.7537
  14   2.0000      -1.171372       -31.8746
  15   2.0000      -1.059132       -28.8204
  16   2.0000      -0.970347       -26.4045
  17   2.0000      -0.923778       -25.1373
  18   2.0000      -0.882307       -24.0088
  19   2.0000      -0.835191       -22.7267
  20   2.0000      -0.798207       -21.7203
  21   2.0000      -0.779509       -21.2115
  22   2.0000      -0.742021       -20.1914
  23   2.0000      -0.700179       -19.0529
  24   2.0000      -0.679549       -18.4915
  25   2.0000      -0.662157       -18.0182
  26   2.0000      -0.653068       -17.7709
  27   2.0000      -0.634799       -17.2738
  28   2.0000      -0.611847       -16.6492
  29   2.0000      -0.600858       -16.3502
  30   2.0000      -0.568245       -15.4627
  31   2.0000      -0.554879       -15.0990
  32   2.0000      -0.546192       -14.8627
  33   2.0000      -0.536480       -14.5984
  34   2.0000      -0.522354       -14.2140
  35   2.0000      -0.505243       -13.7484
  36   2.0000      -0.489333       -13.3154
  37   2.0000      -0.478200       -13.0125
  38   2.0000      -0.458997       -12.4899
  39   2.0000      -0.451383       -12.2828
  40   2.0000      -0.445091       -12.1115
  41   2.0000      -0.434431       -11.8215
  42   2.0000      -0.428573       -11.6621
  43   2.0000      -0.425695       -11.5837
  44   2.0000      -0.412532       -11.2256
  45   2.0000      -0.398907       -10.8548
  46   2.0000      -0.396710       -10.7950
  47   2.0000      -0.386349       -10.5131
  48   2.0000      -0.380714       -10.3598
  49   2.0000      -0.304514        -8.2863
  50   2.0000      -0.213417        -5.8074
  51   0.0000      -0.009566        -0.2603
  52   0.0000       0.025845         0.7033
  53   0.0000       0.038547         1.0489
  54   0.0000       0.043042         1.1712
  55   0.0000       0.050826         1.3830

MULLIKEN ATOMIC CHARGES
-----------------------
   0 C :    0.836904
   1 N :   -0.543370
   2 C :    0.575538
   3 C :    0.126163
   4 H :    0.213349
   5 H :   -0.241221
   6 C :    0.793976
   7 C :    0.308021
   8 N :    0.321706
   9 C :    0.816507
  10 H :   -0.058672
  11 H :   -0.698322
  12 H :   -0.133954
  13 H :   -0.032015
  14 H :   -0.380754
  15 F :   -0.456132
  16 O :   -0.647099
  17 C :    0.368457
  18 H :   -0.385030
  19 H :    0.021946
  20 C :   -0.028018
  21 H :    0.024075
  22 H :   -0.117126
  23 C :    0.001274
  24 H :   -0.073501
  25 H :   -0.259643
  26 H :   -0.161804
  27 H :   -0.177598
  28 H :   -0.089968
  29 H :    0.076314
Sum of atomic charges:   -0.0000000

LOEWDIN ATOMIC CHARGES
----------------------
   0 C :    0.055208
   1 N :   -0.006026
   2 C :   -0.009412
   3 C :    0.060632
   4 H :    0.029184
   5 H :    0.042942
   6 C :    0.055387
   7 C :   -0.231051
   8 N :    0.225773
   9 C :    0.157924
  10 H :   -0.096819
  11 H :   -0.145351
  12 H :    0.025816
  13 H :   -0.007302
  14 H :   -0.086064
  15 F :   -0.046922
  16 O :   -0.131491
  17 C :   -0.017015
  18 H :    0.017693
  19 H :    0.001528
  20 C :   -0.022687
  21 H :    0.021796
  22 H :    0.022258
  23 C :   -0.024458
  24 H :    0.003892
  25 H :    0.026113
  26 H :   -0.008902
  27 H :    0.029024
  28 H :    0.028630
  29 H :    0.029698

  Mayer bond orders larger than 0.100000
B(  0-C ,  1-N ) :   0.9355 B(  0-C , 12-H ) :  -0.1182 B(  0-C , 17-C ) :   1.0750
B(  0-C , 18-H ) :   0.8330 B(  0-C , 19-H ) :   0.7478 B(  0-C , 21-H ) :   0.1356
B(  0-C , 22-H ) :   0.1453 B(  1-N ,  7-C ) :   0.9764 B(  1-N ,  9-C ) :   0.2085
B(  1-N , 12-H ) :   1.1516 B(  1-N , 18-H ) :   0.2246 B(  1-N , 19-H ) :   0.1190
B(  2-C ,  3-C ) :   1.1846 B(  2-C ,  5-H ) :   0.1536 B(  2-C , 23-C ) :   1.2599
B(  2-C , 28-H ) :   0.7930 B(  2-C , 29-H ) :   0.6344 B(  3-C ,  4-H ) :   0.8023
B(  3-C ,  5-H ) :   0.8132 B(  3-C ,  6-C ) :   1.1735 B(  3-C , 23-C ) :   0.1015
B(  3-C , 28-H ) :   0.1431 B(  4-H ,  5-H ) :  -0.1054 B(  4-H ,  6-C ) :   0.1760
B(  5-H ,  6-C ) :   0.1951 B(  6-C , 15-F ) :   0.5829 B(  6-C , 16-O ) :   1.5577
B(  7-C ,  8-N ) :   0.9575 B(  7-C ,  9-C ) :   2.0224 B(  7-C , 10-H ) :   0.3326
B(  7-C , 11-H ) :   0.3740 B(  7-C , 12-H ) :  -0.1366 B(  8-N ,  9-C ) :   0.2123
B(  8-N , 13-H ) :   0.9405 B(  8-N , 14-H ) :   1.0767 B(  9-C , 10-H ) :   0.4391
B(  9-C , 11-H ) :   0.1075 B( 10-H , 11-H ) :   0.2791 B( 11-H , 15-F ) :   0.1732
B( 13-H , 14-H ) :  -0.2523 B( 14-H , 16-O ) :   0.1439 B( 17-C , 19-H ) :   0.1337
B( 17-C , 20-C ) :   1.2445 B( 17-C , 21-H ) :   0.8281 B( 17-C , 22-H ) :   0.7065
B( 18-H , 19-H ) :  -0.1875 B( 20-C , 21-H ) :   0.1424 B( 20-C , 22-H ) :   0.2520
B( 20-C , 23-C ) :   1.2825 B( 20-C , 24-H ) :   0.9340 B( 20-C , 25-H ) :   0.8665
B( 20-C , 26-H ) :   0.1572 B( 20-C , 27-H ) :   0.2120 B( 21-H , 22-H ) :  -0.1445
B( 23-C , 24-H ) :   0.1396 B( 23-C , 25-H ) :   0.1864 B( 23-C , 26-H ) :   0.9591
B( 23-C , 27-H ) :   0.7745 B( 23-C , 28-H ) :   0.1668 B( 23-C , 29-H ) :   0.2541
B( 28-H , 29-H ) :  -0.1534

Dispersion correction           -0.001673557
FINAL SINGLE POINT ENERGY      -636.986777949552

DIPOLE MOMENT
-------------
                                X             Y             Z
Electronic contribution:     -2.86549       1.35644     -12.71146
Nuclear contribution   :      2.27881      -0.10762      14.43322
                        -----------------------------------------
Total Dipole Moment    :     -0.58668       1.24883       1.72176
                        -----------------------------------------
Magnitude (a.u.)       :      2.20640
Magnitude (Debye)      :      5.60823

Rotational constants in cm-1:     0.033336     0.023673     0.017062
Rotational constants in MHz :   999.388459   709.685364   511.514310

                             ****ORCA TERMINATED NORMALLY****
TOTAL RUN TIME: 0 days 0 hours 2 minutes 54 seconds 341 msec
