                         Program Version 5.0.0 -  RELEASE  -
|  1> !M062X D3Zero RIJCOSX def2-SVPD def2/J TightSCF xyzfile
|  2>
|  3> *xyzfile 0 1 D4.xyz
|  4>
|  5> %MaxCore 64000
|  6>
|  7> %pal nprocs 4
|  8> end
|  9>
| 10> %scf
| 11>   MaxIter 150
| 12> end
| 13>
| 14>
| 15>                          ****END OF INPUT****

CARTESIAN COORDINATES (ANGSTROEM)
---------------------------------
  C      2.234473   -2.989754   -2.397622
  C      2.756799   -2.945553   -3.765029
  C     -1.104325    0.251374   -2.860056
  C     -0.711893    0.842517   -4.218344
  H      0.154626    1.499800   -4.130909
  H     -1.538134    1.459222   -4.582671
  C     -0.397624   -0.205875   -5.288018
  C      1.987208   -2.590451   -4.818975
  N      0.743221   -3.017493   -4.913524
  N      2.499636   -1.848598   -5.803241
  H      3.309780   -1.292818   -5.558947
  H      1.801025   -1.304298   -6.289129
  H      3.716116   -2.628797   -3.829533
  H      0.395828   -3.627747   -4.185024
  H      0.039201   -2.454383   -5.371367
  O      0.617165   -0.005348   -5.998273
  F     -1.133173   -1.221380   -5.341465
  C      2.191199   -1.619503   -1.715492
  H      2.872783   -3.666368   -1.828014
  H      1.246188   -3.447444   -2.407842
  C      1.298729   -0.554314   -2.359773
  H      1.872917   -1.787955   -0.681310
  H      3.216809   -1.238432   -1.654428
  C     -0.196255   -0.863365   -2.325763
  H      1.612531   -0.371346   -3.393065
  H      1.480944    0.388638   -1.834444
  H     -0.404105   -1.761825   -2.909448
  H     -0.490439   -1.087880   -1.294131
  H     -1.143842    1.066711   -2.129680
  H     -2.114401   -0.156834   -2.930323

 Total Charge           Charge          ....    0
 Multiplicity           Mult            ....    1
 Number of Electrons    NEL             ....  102
 Basis Dimension        Dim             ....  402

ORBITAL ENERGIES
----------------

  NO   OCC          E(Eh)            E(eV)
   0   2.0000     -25.365478      -690.2298
   1   2.0000     -19.681353      -535.5568
   2   2.0000     -14.754008      -401.4770
   3   2.0000     -14.735714      -400.9792
   4   2.0000     -10.768196      -293.0175
   5   2.0000     -10.596250      -288.3386
   6   2.0000     -10.589846      -288.1644
   7   2.0000     -10.575472      -287.7732
   8   2.0000     -10.556697      -287.2623
   9   2.0000     -10.545627      -286.9611
  10   2.0000     -10.534020      -286.6453
  11   2.0000     -10.524355      -286.3823
  12   2.0000     -10.465072      -284.7691
  13   2.0000      -1.484571       -40.3972
  14   2.0000      -1.179874       -32.1060
  15   2.0000      -1.057050       -28.7638
  16   2.0000      -0.955978       -26.0135
  17   2.0000      -0.928911       -25.2770
  18   2.0000      -0.883070       -24.0296
  19   2.0000      -0.844290       -22.9743
  20   2.0000      -0.799474       -21.7548
  21   2.0000      -0.778746       -21.1908
  22   2.0000      -0.742168       -20.1954
  23   2.0000      -0.699108       -19.0237
  24   2.0000      -0.691459       -18.8155
  25   2.0000      -0.672948       -18.3118
  26   2.0000      -0.656880       -17.8746
  27   2.0000      -0.639953       -17.4140
  28   2.0000      -0.606705       -16.5093
  29   2.0000      -0.595906       -16.2154
  30   2.0000      -0.564014       -15.3476
  31   2.0000      -0.557210       -15.1625
  32   2.0000      -0.549173       -14.9437
  33   2.0000      -0.522497       -14.2179
  34   2.0000      -0.517060       -14.0699
  35   2.0000      -0.509745       -13.8709
  36   2.0000      -0.501536       -13.6475
  37   2.0000      -0.474699       -12.9172
  38   2.0000      -0.468765       -12.7557
  39   2.0000      -0.462796       -12.5933
  40   2.0000      -0.450366       -12.2551
  41   2.0000      -0.431942       -11.7537
  42   2.0000      -0.427298       -11.6274
  43   2.0000      -0.410735       -11.1767
  44   2.0000      -0.403231       -10.9725
  45   2.0000      -0.392352       -10.6764
  46   2.0000      -0.381221       -10.3735
  47   2.0000      -0.370199       -10.0736
  48   2.0000      -0.366613        -9.9760
  49   2.0000      -0.322916        -8.7870
  50   2.0000      -0.200874        -5.4661
  51   0.0000      -0.015782        -0.4295
  52   0.0000       0.017653         0.4804
  53   0.0000       0.041976         1.1422
  54   0.0000       0.047439         1.2909
  55   0.0000       0.052521         1.4292

MULLIKEN ATOMIC CHARGES
-----------------------
   0 C :    0.281696
   1 C :   -0.071952
   2 C :    0.541357
   3 C :    0.177865
   4 H :    0.226282
   5 H :   -0.254014
   6 C :    0.711427
   7 C :    0.397406
   8 N :    0.212154
   9 N :    0.019490
  10 H :    0.133604
  11 H :   -0.169012
  12 H :   -0.189925
  13 H :    0.062033
  14 H :   -0.483599
  15 O :   -0.500538
  16 F :   -0.491801
  17 C :    0.505733
  18 H :   -0.179224
  19 H :   -0.158910
  20 C :   -0.012269
  21 H :   -0.025379
  22 H :   -0.104713
  23 C :    0.056289
  24 H :   -0.118902
  25 H :   -0.163265
  26 H :   -0.209654
  27 H :   -0.136961
  28 H :   -0.095525
  29 H :    0.040309
Sum of atomic charges:    0.0000000

LOEWDIN ATOMIC CHARGES
----------------------
   0 C :   -0.064913
   1 C :   -0.012908
   2 C :   -0.019838
   3 C :    0.066113
   4 H :    0.039022
   5 H :    0.041307
   6 C :    0.045584
   7 C :   -0.222590
   8 N :    0.226018
   9 N :    0.207868
  10 H :    0.011261
  11 H :   -0.087749
  12 H :   -0.058994
  13 H :    0.003916
  14 H :   -0.066800
  15 O :   -0.131574
  16 F :   -0.046083
  17 C :   -0.023586
  18 H :    0.011194
  19 H :   -0.009814
  20 C :   -0.023802
  21 H :    0.017464
  22 H :    0.023880
  23 C :   -0.026823
  24 H :    0.003193
  25 H :    0.025386
  26 H :   -0.010549
  27 H :    0.030435
  28 H :    0.029240
  29 H :    0.024144

  Mayer bond orders larger than 0.100000
B(  0-C ,  1-C ) :   1.1876 B(  0-C ,  7-C ) :   0.1347 B(  0-C , 12-H ) :   0.3562
B(  0-C , 17-C ) :   1.1130 B(  0-C , 18-H ) :   0.7508 B(  0-C , 19-H ) :   0.7743
B(  0-C , 21-H ) :   0.2055 B(  0-C , 22-H ) :   0.1892 B(  1-C ,  7-C ) :   1.6183
B(  1-C ,  8-N ) :   0.1471 B(  1-C ,  9-N ) :   0.3191 B(  1-C , 12-H ) :   0.4702
B(  1-C , 18-H ) :   0.2073 B(  1-C , 19-H ) :   0.2025 B(  2-C ,  3-C ) :   1.1524
B(  2-C ,  5-H ) :   0.1546 B(  2-C , 23-C ) :   1.2412 B(  2-C , 28-H ) :   0.8059
B(  2-C , 29-H ) :   0.6443 B(  3-C ,  4-H ) :   0.7984 B(  3-C ,  5-H ) :   0.8223
B(  3-C ,  6-C ) :   1.1709 B(  3-C , 28-H ) :   0.1318 B(  4-H ,  5-H ) :  -0.1287
B(  4-H ,  6-C ) :   0.1939 B(  5-H ,  6-C ) :   0.2011 B(  5-H , 24-H ) :  -0.1006
B(  6-C , 15-O ) :   1.6265 B(  6-C , 16-F ) :   0.4900 B(  7-C ,  8-N ) :   0.9650
B(  7-C ,  9-N ) :   0.8572 B(  7-C , 11-H ) :   0.1239 B(  7-C , 12-H ) :   0.4029
B(  8-N ,  9-N ) :   0.1057 B(  8-N , 13-H ) :   0.9136 B(  8-N , 14-H ) :   1.2142
B(  9-N , 10-H ) :   0.8534 B(  9-N , 11-H ) :   0.8214 B( 11-H , 15-O ) :   0.1038
B( 13-H , 14-H ) :  -0.2562 B( 17-C , 19-H ) :   0.1098 B( 17-C , 20-C ) :   1.2484
B( 17-C , 21-H ) :   0.7591 B( 17-C , 22-H ) :   0.6829 B( 20-C , 21-H ) :   0.1434
B( 20-C , 22-H ) :   0.2803 B( 20-C , 23-C ) :   1.2848 B( 20-C , 24-H ) :   0.9419
B( 20-C , 25-H ) :   0.7965 B( 20-C , 26-H ) :   0.1537 B( 20-C , 27-H ) :   0.2161
B( 21-H , 22-H ) :  -0.1754 B( 23-C , 24-H ) :   0.1400 B( 23-C , 25-H ) :   0.2119
B( 23-C , 26-H ) :   0.9065 B( 23-C , 27-H ) :   0.7926 B( 23-C , 28-H ) :   0.1648
B( 23-C , 29-H ) :   0.2494 B( 28-H , 29-H ) :  -0.1564

Dispersion correction           -0.001680681
FINAL SINGLE POINT ENERGY      -637.001783682172

DIPOLE MOMENT
-------------
                                X             Y             Z
Electronic contribution:     -6.01521       0.23559     -13.38807
Nuclear contribution   :      4.38568       1.15960      13.97148
                        -----------------------------------------
Total Dipole Moment    :     -1.62953       1.39519       0.58341
                        -----------------------------------------
Magnitude (a.u.)       :      2.22313
Magnitude (Debye)      :      5.65074

Rotational constants in cm-1:     0.032892     0.023844     0.017123
Rotational constants in MHz :   986.091711   714.821905   513.334630

                             ****ORCA TERMINATED NORMALLY****
TOTAL RUN TIME: 0 days 0 hours 2 minutes 35 seconds 536 msec
