                         Program Version 5.0.0 -  RELEASE  -
|  1> !LC-BLYP RIJCOSX def2-SVPD def2/J TightSCF
|  2> *xyz -1 1
|  3> C          2.09343        1.86104       -4.65684
|  4> S          1.87964        0.07859       -4.46297
|  5> O          3.20757       -0.46611       -4.42026
|  6> O          1.07506       -0.05616       -3.26876
|  7> O          1.13166       -0.31996       -5.67903
|  8> H          2.68437        2.05681       -5.52711
|  9> H          2.58708        2.25699       -3.79404
| 10> H          1.13553        2.32556       -4.76426
| 11> *
| 12>
| 13> %MaxCore 64000
| 14>
| 15> %pal nprocs 8
| 16> end
| 17>
| 18> %scf
| 19>   MaxIter 150
| 20> end
| 21>
| 22>
| 23>                          ****END OF INPUT****

CARTESIAN COORDINATES (ANGSTROEM)
---------------------------------
  C      2.093430    1.861040   -4.656840
  S      1.879640    0.078590   -4.462970
  O      3.207570   -0.466110   -4.420260
  O      1.075060   -0.056160   -3.268760
  O      1.131660   -0.319960   -5.679030
  H      2.684370    2.056810   -5.527110
  H      2.587080    2.256990   -3.794040
  H      1.135530    2.325560   -4.764260

 Total Charge           Charge          ....   -1
 Multiplicity           Mult            ....    1
 Number of Electrons    NEL             ....   50
 Basis Dimension        Dim             ....  140

ORBITAL ENERGIES
----------------

  NO   OCC          E(Eh)            E(eV)
   0   2.0000     -88.311337     -2403.0736
   1   2.0000     -18.742203      -510.0013
   2   2.0000     -18.737987      -509.8865
   3   2.0000     -18.726716      -509.5799
   4   2.0000      -9.936599      -270.3886
   5   2.0000      -7.860027      -213.8822
   6   2.0000      -5.894278      -160.3914
   7   2.0000      -5.894181      -160.3888
   8   2.0000      -5.894011      -160.3842
   9   2.0000      -1.033836       -28.1321
  10   2.0000      -0.890070       -24.2200
  11   2.0000      -0.864684       -23.5292
  12   2.0000      -0.687736       -18.7143
  13   2.0000      -0.491664       -13.3789
  14   2.0000      -0.413078       -11.2404
  15   2.0000      -0.395166       -10.7530
  16   2.0000      -0.394005       -10.7214
  17   2.0000      -0.353041        -9.6067
  18   2.0000      -0.351299        -9.5593
  19   2.0000      -0.258455        -7.0329
  20   2.0000      -0.256972        -6.9926
  21   2.0000      -0.219604        -5.9757
  22   2.0000      -0.210618        -5.7312
  23   2.0000      -0.202377        -5.5070
  24   2.0000      -0.165461        -4.5024
  25   0.0000       0.197221         5.3667
  26   0.0000       0.222199         6.0463
  27   0.0000       0.222463         6.0535
  28   0.0000       0.226154         6.1540
  29   0.0000       0.258566         7.0359

MULLIKEN ATOMIC CHARGES
-----------------------
   0 C :    0.729803
   1 S :    0.876158
   2 O :   -0.677092
   3 O :   -0.692282
   4 O :   -0.734948
   5 H :   -0.169416
   6 H :   -0.170846
   7 H :   -0.161378
Sum of atomic charges:   -1.0000000

LOEWDIN ATOMIC CHARGES
----------------------
   0 C :    0.043146
   1 S :    0.777488
   2 O :   -0.561117
   3 O :   -0.568337
   4 O :   -0.587412
   5 H :   -0.034495
   6 H :   -0.035849
   7 H :   -0.033423

  Mayer bond orders larger than 0.100000
B(  0-C ,  1-S ) :   0.9376 B(  0-C ,  5-H ) :   0.8757 B(  0-C ,  6-H ) :   0.8738
B(  0-C ,  7-H ) :   0.8762 B(  1-S ,  2-O ) :   1.4093 B(  1-S ,  3-O ) :   1.3978
B(  1-S ,  4-O ) :   1.3622 B(  1-S ,  5-H ) :   0.1338 B(  1-S ,  6-H ) :   0.1252
B(  1-S ,  7-H ) :   0.1353

FINAL SINGLE POINT ENERGY      -662.776787015654

DIPOLE MOMENT
-------------
                                X             Y             Z
Electronic contribution:     -0.41455      -4.22931       0.56211
Nuclear contribution   :      0.72475       5.67579      -0.57287
                        -----------------------------------------
Total Dipole Moment    :      0.31020       1.44649      -0.01076
                        -----------------------------------------
Magnitude (a.u.)       :      1.47941
Magnitude (Debye)      :      3.76037

Rotational constants in cm-1:     0.171646     0.157781     0.155534
Rotational constants in MHz :  5145.813281  4730.160232  4662.792719

                             ****ORCA TERMINATED NORMALLY****
TOTAL RUN TIME: 0 days 0 hours 0 minutes 7 seconds 151 msec
