                         Program Version 5.0.0 -  RELEASE  -
|  1> !LC-BLYP RIJCOSX def2-SVPD def2/J TightSCF
|  2> *xyz 1 1
|  3> C         -0.46129        2.23469       -4.98962
|  4> C         -0.42384        2.39877       -6.47432
|  5> N         -0.95947        3.49265       -7.00740
|  6> N          0.14558        1.48689       -7.20399
|  7> H          0.56537        0.69681       -6.72386
|  8> H          0.22068        1.58177       -8.20752
|  9> H         -1.40624        4.18151       -6.40326
| 10> H         -0.93421        3.68160       -7.99947
| 11> H          0.00645        1.31059       -4.72100
| 12> H         -1.47822        2.22967       -4.65687
| 13> H          0.06109        3.04632       -4.52779
| 14> *
| 15>
| 16> %MaxCore 64000
| 17>
| 18> %pal nprocs 8
| 19> end
| 20>
| 21> %scf
| 22>   MaxIter 150
| 23> end
| 24>
| 25>
| 26>                          ****END OF INPUT****

CARTESIAN COORDINATES (ANGSTROEM)
---------------------------------
  C     -0.461290    2.234690   -4.989620
  C     -0.423840    2.398770   -6.474320
  N     -0.959470    3.492650   -7.007400
  N      0.145580    1.486890   -7.203990
  H      0.565370    0.696810   -6.723860
  H      0.220680    1.581770   -8.207520
  H     -1.406240    4.181510   -6.403260
  H     -0.934210    3.681600   -7.999470
  H      0.006450    1.310590   -4.721000
  H     -1.478220    2.229670   -4.656870
  H      0.061090    3.046320   -4.527790

 Total Charge           Charge          ....    1
 Multiplicity           Mult            ....    1
 Number of Electrons    NEL             ....   32
 Basis Dimension        Dim             ....  136

ORBITAL ENERGIES
----------------

  NO   OCC          E(Eh)            E(eV)
   0   2.0000     -14.444451      -393.0535
   1   2.0000     -14.437100      -392.8535
   2   2.0000     -10.421188      -283.5749
   3   2.0000     -10.284765      -279.8627
   4   2.0000      -1.305854       -35.5341
   5   2.0000      -1.208529       -32.8857
   6   2.0000      -1.060769       -28.8650
   7   2.0000      -0.947647       -25.7868
   8   2.0000      -0.891300       -24.2535
   9   2.0000      -0.875259       -23.8170
  10   2.0000      -0.808397       -21.9976
  11   2.0000      -0.775475       -21.1018
  12   2.0000      -0.721116       -19.6226
  13   2.0000      -0.704944       -19.1825
  14   2.0000      -0.680165       -18.5082
  15   2.0000      -0.599544       -16.3144
  16   0.0000      -0.134980        -3.6730
  17   0.0000      -0.105103        -2.8600
  18   0.0000      -0.059549        -1.6204
  19   0.0000      -0.057167        -1.5556
  20   0.0000      -0.033406        -0.9090

MULLIKEN ATOMIC CHARGES
-----------------------
   0 C :    0.817794
   1 C :    0.123541
   2 N :    0.303032
   3 N :    0.242352
   4 H :    0.063798
   5 H :   -0.171982
   6 H :    0.001131
   7 H :   -0.201575
   8 H :   -0.047941
   9 H :   -0.059262
  10 H :   -0.070887
Sum of atomic charges:    1.0000000

LOEWDIN ATOMIC CHARGES
----------------------
   0 C :    0.221002
   1 C :   -0.087991
   2 N :    0.285472
   3 N :    0.293293
   4 H :    0.057774
   5 H :    0.056733
   6 H :    0.060649
   7 H :    0.045532
   8 H :    0.010858
   9 H :    0.028082
  10 H :    0.028596

  Mayer bond orders larger than 0.100000
B(  0-C ,  1-C ) :   1.2941 B(  0-C ,  8-H ) :   0.7244 B(  0-C ,  9-H ) :   0.6938
B(  0-C , 10-H ) :   0.7163 B(  1-C ,  2-N ) :   1.2453 B(  1-C ,  3-N ) :   1.2022
B(  1-C ,  5-H ) :  -0.2384 B(  1-C ,  7-H ) :  -0.1814 B(  1-C ,  8-H ) :   0.2984
B(  1-C ,  9-H ) :   0.2156 B(  1-C , 10-H ) :   0.1998 B(  2-N ,  3-N ) :   0.1485
B(  2-N ,  6-H ) :   1.1146 B(  2-N ,  7-H ) :   1.2632 B(  3-N ,  4-H ) :   1.0478
B(  3-N ,  5-H ) :   1.3521 B(  4-H ,  5-H ) :  -0.1869 B(  6-H ,  7-H ) :  -0.1741
B(  8-H ,  9-H ) :   0.1087 B(  9-H , 10-H ) :   0.1048

FINAL SINGLE POINT ENERGY      -189.098167464895

DIPOLE MOMENT
-------------
                                X             Y             Z
Electronic contribution:      0.06356       0.17576      -2.17776
Nuclear contribution   :     -0.00094      -0.11553       1.69525
                        -----------------------------------------
Total Dipole Moment    :      0.06262       0.06022      -0.48250
                        -----------------------------------------
Magnitude (a.u.)       :      0.49026
Magnitude (Debye)      :      1.24614

Rotational constants in cm-1:     0.329971     0.303414     0.162776
Rotational constants in MHz :  9892.292308  9096.128349  4879.901854

                             ****ORCA TERMINATED NORMALLY****
TOTAL RUN TIME: 0 days 0 hours 0 minutes 7 seconds 276 msec
