                         Program Version 5.0.0 -  RELEASE  -
|  1> !LC-BLYP RIJCOSX def2-SVPD def2/J TightSCF
|  2> *xyz 0 1
|  3> C          2.09343        1.86104       -4.65684
|  4> S          1.87964        0.07859       -4.46297
|  5> F          3.20757       -0.46611       -4.42026
|  6> O          1.07506       -0.05616       -3.26876
|  7> O          1.13166       -0.31996       -5.67903
|  8> H          2.68437        2.05681       -5.52711
|  9> H          2.58708        2.25699       -3.79404
| 10> H          1.13553        2.32556       -4.76426
| 11> *
| 12>
| 13> %MaxCore 64000
| 14>
| 15> %pal nprocs 8
| 16> end
| 17>
| 18> %scf
| 19>   MaxIter 150
| 20> end
| 21>
| 22>
| 23>                          ****END OF INPUT****

CARTESIAN COORDINATES (ANGSTROEM)
---------------------------------
  C      2.093430    1.861040   -4.656840
  S      1.879640    0.078590   -4.462970
  F      3.207570   -0.466110   -4.420260
  O      1.075060   -0.056160   -3.268760
  O      1.131660   -0.319960   -5.679030
  H      2.684370    2.056810   -5.527110
  H      2.587080    2.256990   -3.794040
  H      1.135530    2.325560   -4.764260

 Total Charge           Charge          ....    0
 Multiplicity           Mult            ....    1
 Number of Electrons    NEL             ....   50
 Basis Dimension        Dim             ....  140

ORBITAL ENERGIES
----------------

  NO   OCC          E(Eh)            E(eV)
   0   2.0000     -88.575589     -2410.2643
   1   2.0000     -24.604304      -669.5171
   2   2.0000     -18.976296      -516.3713
   3   2.0000     -18.964677      -516.0551
   4   2.0000     -10.146170      -276.0913
   5   2.0000      -8.124979      -221.0919
   6   2.0000      -6.163855      -167.7270
   7   2.0000      -6.156768      -167.5342
   8   2.0000      -6.155754      -167.5066
   9   2.0000      -1.472646       -40.0727
  10   2.0000      -1.210713       -32.9452
  11   2.0000      -1.103330       -30.0231
  12   2.0000      -0.910567       -24.7778
  13   2.0000      -0.831181       -22.6176
  14   2.0000      -0.720336       -19.6013
  15   2.0000      -0.704071       -19.1587
  16   2.0000      -0.664095       -18.0709
  17   2.0000      -0.586627       -15.9629
  18   2.0000      -0.584378       -15.9017
  19   2.0000      -0.572248       -15.5717
  20   2.0000      -0.543387       -14.7863
  21   2.0000      -0.496915       -13.5217
  22   2.0000      -0.442056       -12.0290
  23   2.0000      -0.431271       -11.7355
  24   2.0000      -0.412215       -11.2169
  25   0.0000       0.040031         1.0893
  26   0.0000       0.075618         2.0577
  27   0.0000       0.082750         2.2518
  28   0.0000       0.084033         2.2866
  29   0.0000       0.103101         2.8055

MULLIKEN ATOMIC CHARGES
-----------------------
   0 C :    0.700109
   1 S :    1.050301
   2 F :   -0.311303
   3 O :   -0.542410
   4 O :   -0.582165
   5 H :   -0.107146
   6 H :   -0.104722
   7 H :   -0.102665
Sum of atomic charges:   -0.0000000

LOEWDIN ATOMIC CHARGES
----------------------
   0 C :    0.111465
   1 S :    1.050678
   2 F :   -0.234801
   3 O :   -0.448847
   4 O :   -0.466303
   5 H :   -0.008649
   6 H :   -0.009173
   7 H :    0.005629

  Mayer bond orders larger than 0.100000
B(  0-C ,  1-S ) :   0.9934 B(  0-C ,  5-H ) :   0.8789 B(  0-C ,  6-H ) :   0.8782
B(  0-C ,  7-H ) :   0.8760 B(  1-S ,  2-F ) :   0.7966 B(  1-S ,  3-O ) :   1.6007
B(  1-S ,  4-O ) :   1.5651 B(  1-S ,  5-H ) :   0.1062 B(  1-S ,  7-H ) :   0.1331

FINAL SINGLE POINT ENERGY      -687.241433248961

DIPOLE MOMENT
-------------
                                X             Y             Z
Electronic contribution:      1.82273      -5.13485       0.65585
Nuclear contribution   :     -0.60459       6.33153      -0.64388
                        -----------------------------------------
Total Dipole Moment    :      1.21815       1.19668       0.01198
                        -----------------------------------------
Magnitude (a.u.)       :      1.70765
Magnitude (Debye)      :      4.34050

Rotational constants in cm-1:     0.163601     0.155191     0.147098
Rotational constants in MHz :  4904.622287  4652.507792  4409.891356

                             ****ORCA TERMINATED NORMALLY****
TOTAL RUN TIME: 0 days 0 hours 0 minutes 7 seconds 699 msec
