                         Program Version 5.0.0 -  RELEASE  -
|  1> !LC-BLYP RIJCOSX def2-SVPD def2/J TightSCF
|  2> *xyz 0 1
|  3> C         -0.46129        2.23469       -4.98962
|  4> C         -0.42384        2.39877       -6.47432
|  5> C         -0.95947        3.49265       -7.00740
|  6> N          0.14558        1.48689       -7.20399
|  7> H          0.56537        0.69681       -6.72386
|  8> H          0.22068        1.58177       -8.20752
|  9> H         -1.40624        4.18151       -6.40326
| 10> H         -0.93421        3.68160       -7.99947
| 11> H          0.00645        1.31059       -4.72100
| 12> H         -1.47822        2.22967       -4.65687
| 13> H          0.06109        3.04632       -4.52779
| 14> *
| 15>
| 16> %MaxCore 64000
| 17>
| 18> %pal nprocs 8
| 19> end
| 20>
| 21> %scf
| 22>   MaxIter 150
| 23> end
| 24>
| 25>
| 26>                          ****END OF INPUT****

CARTESIAN COORDINATES (ANGSTROEM)
---------------------------------
  C     -0.461290    2.234690   -4.989620
  C     -0.423840    2.398770   -6.474320
  C     -0.959470    3.492650   -7.007400
  N      0.145580    1.486890   -7.203990
  H      0.565370    0.696810   -6.723860
  H      0.220680    1.581770   -8.207520
  H     -1.406240    4.181510   -6.403260
  H     -0.934210    3.681600   -7.999470
  H      0.006450    1.310590   -4.721000
  H     -1.478220    2.229670   -4.656870
  H      0.061090    3.046320   -4.527790

 Total Charge           Charge          ....    0
 Multiplicity           Mult            ....    1
 Number of Electrons    NEL             ....   32
 Basis Dimension        Dim             ....  136

ORBITAL ENERGIES
----------------

  NO   OCC          E(Eh)            E(eV)
   0   2.0000     -14.192592      -386.2000
   1   2.0000     -10.109486      -275.0931
   2   2.0000     -10.076350      -274.1914
   3   2.0000     -10.013779      -272.4888
   4   2.0000      -1.030765       -28.0485
   5   2.0000      -0.858628       -23.3645
   6   2.0000      -0.789522       -21.4840
   7   2.0000      -0.678993       -18.4763
   8   2.0000      -0.635450       -17.2915
   9   2.0000      -0.577932       -15.7263
  10   2.0000      -0.539660       -14.6849
  11   2.0000      -0.498648       -13.5689
  12   2.0000      -0.489561       -13.3216
  13   2.0000      -0.452957       -12.3256
  14   2.0000      -0.444730       -12.1017
  15   2.0000      -0.280726        -7.6390
  16   0.0000       0.072292         1.9672
  17   0.0000       0.106758         2.9050
  18   0.0000       0.113096         3.0775
  19   0.0000       0.119025         3.2388
  20   0.0000       0.144436         3.9303

MULLIKEN ATOMIC CHARGES
-----------------------
   0 C :    1.040797
   1 C :   -0.482235
   2 C :    0.558775
   3 N :    0.414061
   4 H :   -0.099986
   5 H :   -0.217209
   6 H :   -0.304999
   7 H :   -0.572580
   8 H :   -0.207117
   9 H :   -0.054169
  10 H :   -0.075336
Sum of atomic charges:   -0.0000000

LOEWDIN ATOMIC CHARGES
----------------------
   0 C :    0.154204
   1 C :   -0.305691
   2 C :    0.154718
   3 N :    0.176373
   4 H :    0.000175
   5 H :    0.013622
   6 H :   -0.076916
   7 H :   -0.091618
   8 H :   -0.023817
   9 H :   -0.000633
  10 H :   -0.000415

  Mayer bond orders larger than 0.100000
B(  0-C ,  1-C ) :   1.0706 B(  0-C ,  2-C ) :   0.1433 B(  0-C ,  3-N ) :   0.1253
B(  0-C ,  8-H ) :   0.6203 B(  0-C ,  9-H ) :   0.6576 B(  0-C , 10-H ) :   0.6821
B(  1-C ,  2-C ) :   1.7465 B(  1-C ,  3-N ) :   1.2050 B(  1-C ,  5-H ) :  -0.1375
B(  1-C ,  7-H ) :   0.1852 B(  1-C ,  8-H ) :   0.3499 B(  1-C ,  9-H ) :   0.2290
B(  1-C , 10-H ) :   0.2139 B(  2-C ,  3-N ) :   0.2486 B(  2-C ,  6-H ) :   0.7882
B(  2-C ,  7-H ) :   0.6895 B(  3-N ,  4-H ) :   1.0621 B(  3-N ,  5-H ) :   1.2907
B(  4-H ,  5-H ) :  -0.1650

FINAL SINGLE POINT ENERGY      -172.645277144728

DIPOLE MOMENT
-------------
                                X             Y             Z
Electronic contribution:      0.54055      -0.81736      -1.52761
Nuclear contribution   :     -0.12116       0.12783       1.56719
                        -----------------------------------------
Total Dipole Moment    :      0.41938      -0.68952       0.03958
                        -----------------------------------------
Magnitude (a.u.)       :      0.80802
Magnitude (Debye)      :      2.05381

Rotational constants in cm-1:     0.350065     0.307664     0.168807
Rotational constants in MHz : 10494.676477  9223.531181  5060.697310

                             ****ORCA TERMINATED NORMALLY****
TOTAL RUN TIME: 0 days 0 hours 0 minutes 7 seconds 731 msec
