                         Program Version 5.0.0 -  RELEASE  -
|  1> !LC-BLYP RIJCOSX def2-SVPD def2/J TightSCF
|  2> *xyz 0 1
|  3> C          2.09343        1.86104       -4.65684
|  4> S          1.87964        0.07859       -4.46297
|  5> O          3.20757       -0.46611       -4.42026
|  6> F          1.07506       -0.05616       -3.26876
|  7> O          1.13166       -0.31996       -5.67903
|  8> H          2.68437        2.05681       -5.52711
|  9> H          2.58708        2.25699       -3.79404
| 10> H          1.13553        2.32556       -4.76426
| 11> *
| 12>
| 13> %MaxCore 64000
| 14>
| 15> %pal nprocs 8
| 16> end
| 17>
| 18> %scf
| 19>   MaxIter 150
| 20> end
| 21>
| 22>
| 23>                          ****END OF INPUT****

CARTESIAN COORDINATES (ANGSTROEM)
---------------------------------
  C      2.093430    1.861040   -4.656840
  S      1.879640    0.078590   -4.462970
  O      3.207570   -0.466110   -4.420260
  F      1.075060   -0.056160   -3.268760
  O      1.131660   -0.319960   -5.679030
  H      2.684370    2.056810   -5.527110
  H      2.587080    2.256990   -3.794040
  H      1.135530    2.325560   -4.764260

 Total Charge           Charge          ....    0
 Multiplicity           Mult            ....    1
 Number of Electrons    NEL             ....   50
 Basis Dimension        Dim             ....  140

ORBITAL ENERGIES
----------------

  NO   OCC          E(Eh)            E(eV)
   0   2.0000     -88.575072     -2410.2502
   1   2.0000     -24.598548      -669.3605
   2   2.0000     -18.980429      -516.4837
   3   2.0000     -18.964468      -516.0494
   4   2.0000     -10.146001      -276.0867
   5   2.0000      -8.124440      -221.0773
   6   2.0000      -6.163261      -167.7109
   7   2.0000      -6.156311      -167.5217
   8   2.0000      -6.155254      -167.4930
   9   2.0000      -1.463459       -39.8227
  10   2.0000      -1.215004       -33.0620
  11   2.0000      -1.106771       -30.1168
  12   2.0000      -0.910500       -24.7760
  13   2.0000      -0.826467       -22.4893
  14   2.0000      -0.715578       -19.4719
  15   2.0000      -0.697626       -18.9834
  16   2.0000      -0.663586       -18.0571
  17   2.0000      -0.588072       -16.0022
  18   2.0000      -0.584609       -15.9080
  19   2.0000      -0.571315       -15.5463
  20   2.0000      -0.545464       -14.8428
  21   2.0000      -0.499468       -13.5912
  22   2.0000      -0.446546       -12.1511
  23   2.0000      -0.431669       -11.7463
  24   2.0000      -0.414937       -11.2910
  25   0.0000       0.040787         1.1099
  26   0.0000       0.076026         2.0688
  27   0.0000       0.083058         2.2601
  28   0.0000       0.084092         2.2883
  29   0.0000       0.103812         2.8249

MULLIKEN ATOMIC CHARGES
-----------------------
   0 C :    0.699703
   1 S :    1.050056
   2 O :   -0.530893
   3 F :   -0.318022
   4 O :   -0.585277
   5 H :   -0.110095
   6 H :   -0.106999
   7 H :   -0.098473
Sum of atomic charges:    0.0000000

LOEWDIN ATOMIC CHARGES
----------------------
   0 C :    0.111639
   1 S :    1.049814
   2 O :   -0.442252
   3 F :   -0.240622
   4 O :   -0.466459
   5 H :    0.004872
   6 H :   -0.009664
   7 H :   -0.007327

  Mayer bond orders larger than 0.100000
B(  0-C ,  1-S ) :   0.9926 B(  0-C ,  5-H ) :   0.8757 B(  0-C ,  6-H ) :   0.8772
B(  0-C ,  7-H ) :   0.8807 B(  1-S ,  2-O ) :   1.6116 B(  1-S ,  3-F ) :   0.7841
B(  1-S ,  4-O ) :   1.5651 B(  1-S ,  5-H ) :   0.1324 B(  1-S ,  7-H ) :   0.1085

FINAL SINGLE POINT ENERGY      -687.246589928947

DIPOLE MOMENT
-------------
                                X             Y             Z
Electronic contribution:     -1.73607      -4.45250       2.58225
Nuclear contribution   :      1.52593       5.92196      -1.79430
                        -----------------------------------------
Total Dipole Moment    :     -0.21014       1.46946       0.78795
                        -----------------------------------------
Magnitude (a.u.)       :      1.68058
Magnitude (Debye)      :      4.27169

Rotational constants in cm-1:     0.162837     0.155564     0.147443
Rotational constants in MHz :  4881.731197  4663.686927  4420.233103

                             ****ORCA TERMINATED NORMALLY****
TOTAL RUN TIME: 0 days 0 hours 0 minutes 7 seconds 602 msec
