                         Program Version 5.0.0 -  RELEASE  -
|  1> !LC-BLYP RIJCOSX def2-SVPD def2/J TightSCF
|  2> *xyz 0 1
|  3> C         -0.46129        2.23469       -4.98962
|  4> C         -0.42384        2.39877       -6.47432
|  5> N         -0.95947        3.49265       -7.00740
|  6> C          0.14558        1.48689       -7.20399
|  7> H          0.56537        0.69681       -6.72386
|  8> H          0.22068        1.58177       -8.20752
|  9> H         -1.40624        4.18151       -6.40326
| 10> H         -0.93421        3.68160       -7.99947
| 11> H          0.00645        1.31059       -4.72100
| 12> H         -1.47822        2.22967       -4.65687
| 13> H          0.06109        3.04632       -4.52779
| 14> *
| 15>
| 16> %MaxCore 64000
| 17>
| 18> %pal nprocs 8
| 19> end
| 20>
| 21> %scf
| 22>   MaxIter 150
| 23> end
| 24>
| 25>
| 26>                          ****END OF INPUT****

CARTESIAN COORDINATES (ANGSTROEM)
---------------------------------
  C     -0.461290    2.234690   -4.989620
  C     -0.423840    2.398770   -6.474320
  N     -0.959470    3.492650   -7.007400
  C      0.145580    1.486890   -7.203990
  H      0.565370    0.696810   -6.723860
  H      0.220680    1.581770   -8.207520
  H     -1.406240    4.181510   -6.403260
  H     -0.934210    3.681600   -7.999470
  H      0.006450    1.310590   -4.721000
  H     -1.478220    2.229670   -4.656870
  H      0.061090    3.046320   -4.527790

 Total Charge           Charge          ....    0
 Multiplicity           Mult            ....    1
 Number of Electrons    NEL             ....   32
 Basis Dimension        Dim             ....  136

ORBITAL ENERGIES
----------------

  NO   OCC          E(Eh)            E(eV)
   0   2.0000     -14.187836      -386.0707
   1   2.0000     -10.107859      -275.0488
   2   2.0000     -10.074774      -274.1485
   3   2.0000     -10.018536      -272.6182
   4   2.0000      -1.018405       -27.7122
   5   2.0000      -0.862204       -23.4618
   6   2.0000      -0.793272       -21.5860
   7   2.0000      -0.675062       -18.3694
   8   2.0000      -0.625957       -17.0332
   9   2.0000      -0.580479       -15.7956
  10   2.0000      -0.539585       -14.6829
  11   2.0000      -0.496600       -13.5132
  12   2.0000      -0.495416       -13.4809
  13   2.0000      -0.453371       -12.3368
  14   2.0000      -0.437027       -11.8921
  15   2.0000      -0.290759        -7.9119
  16   0.0000       0.073019         1.9869
  17   0.0000       0.107952         2.9375
  18   0.0000       0.113687         3.0936
  19   0.0000       0.124446         3.3864
  20   0.0000       0.148966         4.0536

MULLIKEN ATOMIC CHARGES
-----------------------
   0 C :    1.098318
   1 C :   -0.551249
   2 N :    0.441572
   3 C :    0.528068
   4 H :   -0.194856
   5 H :   -0.564875
   6 H :   -0.185997
   7 H :   -0.249309
   8 H :   -0.039702
   9 H :   -0.135416
  10 H :   -0.146555
Sum of atomic charges:    0.0000000

LOEWDIN ATOMIC CHARGES
----------------------
   0 C :    0.151106
   1 C :   -0.309094
   2 N :    0.174646
   3 C :    0.160051
   4 H :   -0.077355
   5 H :   -0.077496
   6 H :    0.001596
   7 H :    0.001490
   8 H :   -0.010623
   9 H :   -0.007574
  10 H :   -0.006747

  Mayer bond orders larger than 0.100000
B(  0-C ,  1-C ) :   1.2698 B(  0-C ,  3-C ) :   0.1103 B(  0-C ,  8-H ) :   0.7452
B(  0-C ,  9-H ) :   0.5724 B(  0-C , 10-H ) :   0.5682 B(  1-C ,  2-N ) :   1.2428
B(  1-C ,  3-C ) :   1.6884 B(  1-C ,  5-H ) :   0.1825 B(  1-C ,  8-H ) :   0.2638
B(  1-C ,  9-H ) :   0.3296 B(  1-C , 10-H ) :   0.3353 B(  2-N ,  3-C ) :   0.2785
B(  2-N ,  6-H ) :   1.1466 B(  2-N ,  7-H ) :   1.2173 B(  3-C ,  4-H ) :   0.9087
B(  3-C ,  5-H ) :   0.6335 B(  6-H ,  7-H ) :  -0.1508 B(  8-H ,  9-H ) :   0.1005

FINAL SINGLE POINT ENERGY      -172.649349058499

DIPOLE MOMENT
-------------
                                X             Y             Z
Electronic contribution:     -0.44094       0.94763      -1.39023
Nuclear contribution   :      0.12666      -0.32199       1.52310
                        -----------------------------------------
Total Dipole Moment    :     -0.31427       0.62564       0.13288
                        -----------------------------------------
Magnitude (a.u.)       :      0.71263
Magnitude (Debye)      :      1.81137

Rotational constants in cm-1:     0.352483     0.305471     0.168700
Rotational constants in MHz : 10567.165953  9157.779739  5057.501411

                             ****ORCA TERMINATED NORMALLY****
TOTAL RUN TIME: 0 days 0 hours 0 minutes 7 seconds 454 msec
