                         Program Version 5.0.0 -  RELEASE  -
|  1> !LC-BLYP RIJCOSX def2-SVPD def2/J TightSCF
|  2> *xyz 0 1
|  3> C          2.09343        1.86104       -4.65684
|  4> S          1.87964        0.07859       -4.46297
|  5> O          3.20757       -0.46611       -4.42026
|  6> O          1.07506       -0.05616       -3.26876
|  7> F          1.13166       -0.31996       -5.67903
|  8> H          2.68437        2.05681       -5.52711
|  9> H          2.58708        2.25699       -3.79404
| 10> H          1.13553        2.32556       -4.76426
| 11> *
| 12>
| 13> %MaxCore 64000
| 14>
| 15> %pal nprocs 8
| 16> end
| 17>
| 18> %scf
| 19>   MaxIter 150
| 20> end
| 21>
| 22>
| 23>                          ****END OF INPUT****

CARTESIAN COORDINATES (ANGSTROEM)
---------------------------------
  C      2.093430    1.861040   -4.656840
  S      1.879640    0.078590   -4.462970
  O      3.207570   -0.466110   -4.420260
  O      1.075060   -0.056160   -3.268760
  F      1.131660   -0.319960   -5.679030
  H      2.684370    2.056810   -5.527110
  H      2.587080    2.256990   -3.794040
  H      1.135530    2.325560   -4.764260

 Total Charge           Charge          ....    0
 Multiplicity           Mult            ....    1
 Number of Electrons    NEL             ....   50
 Basis Dimension        Dim             ....  140

ORBITAL ENERGIES
----------------

  NO   OCC          E(Eh)            E(eV)
   0   2.0000     -88.573261     -2410.2010
   1   2.0000     -24.581214      -668.8888
   2   2.0000     -18.980084      -516.4743
   3   2.0000     -18.975700      -516.3550
   4   2.0000     -10.145122      -276.0628
   5   2.0000      -8.122551      -221.0259
   6   2.0000      -6.161172      -167.6540
   7   2.0000      -6.154595      -167.4751
   8   2.0000      -6.153579      -167.4474
   9   2.0000      -1.434180       -39.0260
  10   2.0000      -1.222052       -33.2537
  11   2.0000      -1.124911       -30.6104
  12   2.0000      -0.908302       -24.7161
  13   2.0000      -0.812191       -22.1008
  14   2.0000      -0.702535       -19.1170
  15   2.0000      -0.677164       -18.4266
  16   2.0000      -0.660628       -17.9766
  17   2.0000      -0.589341       -16.0368
  18   2.0000      -0.584494       -15.9049
  19   2.0000      -0.569821       -15.5056
  20   2.0000      -0.550516       -14.9803
  21   2.0000      -0.503911       -13.7121
  22   2.0000      -0.450402       -12.2561
  23   2.0000      -0.442225       -12.0336
  24   2.0000      -0.427867       -11.6428
  25   0.0000       0.042869         1.1665
  26   0.0000       0.077357         2.1050
  27   0.0000       0.083899         2.2830
  28   0.0000       0.084096         2.2884
  29   0.0000       0.103252         2.8096

MULLIKEN ATOMIC CHARGES
-----------------------
   0 C :    0.699413
   1 S :    1.054591
   2 O :   -0.541398
   3 O :   -0.555460
   4 F :   -0.339182
   5 H :   -0.106526
   6 H :   -0.110726
   7 H :   -0.100711
Sum of atomic charges:    0.0000000

LOEWDIN ATOMIC CHARGES
----------------------
   0 C :    0.111901
   1 S :    1.047790
   2 O :   -0.442498
   3 O :   -0.449467
   4 F :   -0.255412
   5 H :   -0.008361
   6 H :    0.003841
   7 H :   -0.007795

  Mayer bond orders larger than 0.100000
B(  0-C ,  1-S ) :   0.9924 B(  0-C ,  5-H ) :   0.8813 B(  0-C ,  6-H ) :   0.8724
B(  0-C ,  7-H ) :   0.8799 B(  1-S ,  2-O ) :   1.6087 B(  1-S ,  3-O ) :   1.5983
B(  1-S ,  4-F ) :   0.7395 B(  1-S ,  5-H ) :   0.1077 B(  1-S ,  6-H ) :   0.1257
B(  1-S ,  7-H ) :   0.1090

FINAL SINGLE POINT ENERGY      -687.261478154816

DIPOLE MOMENT
-------------
                                X             Y             Z
Electronic contribution:     -1.65317      -4.89782      -1.46950
Nuclear contribution   :      1.46938       6.18552       0.61372
                        -----------------------------------------
Total Dipole Moment    :     -0.18378       1.28770      -0.85578
                        -----------------------------------------
Magnitude (a.u.)       :      1.55702
Magnitude (Debye)      :      3.95762

Rotational constants in cm-1:     0.163578     0.153284     0.148718
Rotational constants in MHz :  4903.939615  4595.352658  4458.447794

                             ****ORCA TERMINATED NORMALLY****
TOTAL RUN TIME: 0 days 0 hours 0 minutes 7 seconds 880 msec
