                         Program Version 5.0.0 -  RELEASE  -
|  1> !LC-BLYP RIJCOSX def2-SVPD def2/J TightSCF xyzfile
|  2>
|  3> *xyzfile 0 1 D6.xyz
|  4>
|  5> %MaxCore 64000
|  6>
|  7> %pal nprocs 4
|  8> end
|  9>
| 10> %scf
| 11>   MaxIter 150
| 12> end
| 13>
| 14>
| 15>                          ****END OF INPUT****

CARTESIAN COORDINATES (ANGSTROEM)
---------------------------------
  C     -0.461293    2.234686   -4.989619
  C      0.848883    2.667967   -4.302351
  C      2.093434    1.861037   -4.656845
  H      2.444814    2.041567   -5.674990
  H      2.901748    2.137864   -3.980338
  S      1.879644    0.078594   -4.462965
  C     -0.423841    2.398772   -6.474317
  N     -0.959467    3.492647   -7.007401
  C      0.145585    1.486891   -7.203987
  H      0.565371    0.696807   -6.723858
  H      0.220682    1.581768   -8.207520
  H     -1.406243    4.181507   -6.403261
  H     -0.934215    3.681601   -7.999468
  O      3.207574   -0.466111   -4.420259
  O      1.075064   -0.056160   -3.268758
  F      1.131661   -0.319960   -5.679031
  H      0.668432    2.559427   -3.232850
  H      1.034074    3.729426   -4.497081
  H     -1.288884    2.826737   -4.594997
  H     -0.651696    1.186343   -4.756552

 Total Charge           Charge          ....    0
 Multiplicity           Mult            ....    1
 Number of Electrons    NEL             ....   88
 Basis Dimension        Dim             ....  296

ORBITAL ENERGIES
----------------

  NO   OCC          E(Eh)            E(eV)
   0   2.0000     -88.566029     -2410.0042
   1   2.0000     -24.577210      -668.7799
   2   2.0000     -18.975208      -516.3417
   3   2.0000     -18.972271      -516.2617
   4   2.0000     -14.199790      -386.3959
   5   2.0000     -10.141661      -275.9686
   6   2.0000     -10.117649      -275.3152
   7   2.0000     -10.115038      -275.2442
   8   2.0000     -10.101857      -274.8855
   9   2.0000     -10.021711      -272.7046
  10   2.0000      -8.114977      -220.8197
  11   2.0000      -6.153840      -167.4545
  12   2.0000      -6.147138      -167.2721
  13   2.0000      -6.145561      -167.2292
  14   2.0000      -1.434643       -39.0386
  15   2.0000      -1.218401       -33.1544
  16   2.0000      -1.120851       -30.4999
  17   2.0000      -1.031617       -28.0717
  18   2.0000      -0.941632       -25.6231
  19   2.0000      -0.877892       -23.8887
  20   2.0000      -0.830392       -22.5961
  21   2.0000      -0.821056       -22.3421
  22   2.0000      -0.749943       -20.4070
  23   2.0000      -0.709513       -19.3068
  24   2.0000      -0.677748       -18.4425
  25   2.0000      -0.664220       -18.0743
  26   2.0000      -0.657593       -17.8940
  27   2.0000      -0.639149       -17.3921
  28   2.0000      -0.608819       -16.5668
  29   2.0000      -0.596444       -16.2301
  30   2.0000      -0.578729       -15.7480
  31   2.0000      -0.564721       -15.3668
  32   2.0000      -0.555456       -15.1147
  33   2.0000      -0.518730       -14.1154
  34   2.0000      -0.509359       -13.8604
  35   2.0000      -0.500703       -13.6248
  36   2.0000      -0.483131       -13.1467
  37   2.0000      -0.475420       -12.9368
  38   2.0000      -0.451039       -12.2734
  39   2.0000      -0.442173       -12.0321
  40   2.0000      -0.440127       -11.9765
  41   2.0000      -0.427264       -11.6264
  42   2.0000      -0.423500       -11.5240
  43   2.0000      -0.300720        -8.1830
  44   0.0000       0.055103         1.4994
  45   0.0000       0.069408         1.8887
  46   0.0000       0.075641         2.0583
  47   0.0000       0.077459         2.1078
  48   0.0000       0.103172         2.8074

MULLIKEN ATOMIC CHARGES
-----------------------
   0 C :    0.582357
   1 C :    0.367687
   2 C :    0.306610
   3 H :    0.124763
   4 H :   -0.282877
   5 S :    1.220657
   6 C :   -0.015853
   7 N :    0.279021
   8 C :    1.270781
   9 H :   -0.575113
  10 H :   -0.765683
  11 H :   -0.127902
  12 H :   -0.225687
  13 O :   -0.566800
  14 O :   -0.630328
  15 F :   -0.492909
  16 H :    0.075574
  17 H :   -0.289355
  18 H :   -0.249741
  19 H :   -0.005202
Sum of atomic charges:    0.0000000

LOEWDIN ATOMIC CHARGES
----------------------
   0 C :    0.016613
   1 C :   -0.025531
   2 C :   -0.043866
   3 H :    0.027918
   4 H :    0.035658
   5 S :    1.080870
   6 C :   -0.245128
   7 N :    0.183918
   8 C :    0.192829
   9 H :   -0.153673
  10 H :   -0.064066
  11 H :    0.000408
  12 H :    0.005497
  13 O :   -0.431051
  14 O :   -0.436282
  15 F :   -0.265303
  16 H :    0.031998
  17 H :    0.039523
  18 H :    0.030010
  19 H :    0.019656

  Mayer bond orders larger than 0.100000
B(  0-C ,  1-C ) :   1.1250 B(  0-C ,  6-C ) :   1.1294 B(  0-C ,  7-N ) :   0.1409
B(  0-C ,  8-C ) :   0.1929 B(  0-C , 16-H ) :   0.1461 B(  0-C , 18-H ) :   0.6618
B(  0-C , 19-H ) :   0.7858 B(  1-C ,  2-C ) :   1.3095 B(  1-C ,  3-H ) :   0.1454
B(  1-C ,  4-H ) :   0.2051 B(  1-C , 16-H ) :   0.7291 B(  1-C , 17-H ) :   0.8098
B(  1-C , 18-H ) :   0.1818 B(  1-C , 19-H ) :   0.1746 B(  2-C ,  3-H ) :   0.8581
B(  2-C ,  4-H ) :   0.7682 B(  2-C ,  5-S ) :   0.9635 B(  2-C ,  9-H ) :   0.1137
B(  2-C , 15-F ) :   0.1201 B(  2-C , 16-H ) :   0.1513 B(  2-C , 17-H ) :   0.1112
B(  4-H ,  5-S ) :   0.1132 B(  4-H ,  9-H ) :  -0.1466 B(  5-S , 13-O ) :   1.6356
B(  5-S , 14-O ) :   1.5774 B(  5-S , 15-F ) :   0.7329 B(  6-C ,  7-N ) :   1.1148
B(  6-C ,  8-C ) :   1.8535 B(  6-C ,  9-H ) :   0.3408 B(  6-C , 10-H ) :   0.3166
B(  6-C , 12-H ) :  -0.1228 B(  6-C , 18-H ) :   0.2073 B(  6-C , 19-H ) :   0.1032
B(  7-N ,  8-C ) :   0.3260 B(  7-N , 11-H ) :   1.1371 B(  7-N , 12-H ) :   1.3166
B(  8-C ,  9-H ) :   0.1954 B(  8-C , 10-H ) :   0.4563 B(  9-H , 10-H ) :  -0.3066
B(  9-H , 15-F ) :   0.2424 B( 11-H , 12-H ) :  -0.1708 B( 13-O , 14-O ) :   0.1070

FINAL SINGLE POINT ENERGY      -897.894892206933

DIPOLE MOMENT
-------------
                                X             Y             Z
Electronic contribution:      5.53598     -11.90803       3.15673
Nuclear contribution   :     -6.15577      13.80449      -3.81895
                        -----------------------------------------
Total Dipole Moment    :     -0.61979       1.89646      -0.66222
                        -----------------------------------------
Magnitude (a.u.)       :      2.10220
Magnitude (Debye)      :      5.34337

Rotational constants in cm-1:     0.081431     0.024887     0.022470
Rotational constants in MHz :  2441.231544   746.086417   673.646914

                             ****ORCA TERMINATED NORMALLY****
TOTAL RUN TIME: 0 days 0 hours 1 minutes 21 seconds 196 msec
