                         Program Version 5.0.0 -  RELEASE  -
|  1> !wB97X-D3 RIJCOSX def2-SVPD def2/J TightSCF CPCM(Water)
|  2> *xyz -1 1
|  3> C          1.44442        5.26658       -0.97546
|  4> O          1.56525        4.23349       -1.86489
|  5> H          1.76623        6.17572       -1.43893
|  6> H          2.05096        5.07018       -0.11614
|  7> H          0.42160        5.36155       -0.67592
|  8> *
|  9> %MaxCore 64000
| 10>
| 11> %pal nprocs 8
| 12> end
| 13>
| 14> %scf
| 15>   MaxIter 150
| 16> end
| 17>
| 18>
| 19>                          ****END OF INPUT****

CARTESIAN COORDINATES (ANGSTROEM)
---------------------------------
  C      1.444420    5.266580   -0.975460
  O      1.565250    4.233490   -1.864890
  H      1.766230    6.175720   -1.438930
  H      2.050960    5.070180   -0.116140
  H      0.421600    5.361550   -0.675920

 Total Charge           Charge          ....   -1
 Multiplicity           Mult            ....    1
 Number of Electrons    NEL             ....   18
 Basis Dimension        Dim             ....   67

ORBITAL ENERGIES
----------------

  NO   OCC          E(Eh)            E(eV)
   0   2.0000     -19.112761      -520.0847
   1   2.0000     -10.269852      -279.4569
   2   2.0000      -0.982811       -26.7436
   3   2.0000      -0.700498       -19.0615
   4   2.0000      -0.495669       -13.4878
   5   2.0000      -0.495642       -13.4871
   6   2.0000      -0.418450       -11.3866
   7   2.0000      -0.266652        -7.2560
   8   2.0000      -0.266606        -7.2547
   9   0.0000       0.109301         2.9742
  10   0.0000       0.154016         4.1910
  11   0.0000       0.165272         4.4973
  12   0.0000       0.165407         4.5009
  13   0.0000       0.207920         5.6578

MULLIKEN ATOMIC CHARGES
-----------------------
   0 C :    0.712140
   1 O :   -1.086449
   2 H :   -0.208465
   3 H :   -0.208345
   4 H :   -0.208882
Sum of atomic charges:   -1.0000000

LOEWDIN ATOMIC CHARGES
----------------------
   0 C :   -0.100718
   1 O :   -0.739364
   2 H :   -0.053248
   3 H :   -0.053325
   4 H :   -0.053345

  Mayer bond orders larger than 0.100000
B(  0-C ,  1-O ) :   1.2805 B(  0-C ,  2-H ) :   0.9170 B(  0-C ,  3-H ) :   0.9164
B(  0-C ,  4-H ) :   0.9164

Dispersion correction           -0.000090124
FINAL SINGLE POINT ENERGY      -115.102843425407

DIPOLE MOMENT
-------------
                                X             Y             Z
Electronic contribution:      0.11433      -0.97054      -0.83482
Nuclear contribution   :     -0.25440       2.17514       1.87266
                        -----------------------------------------
Total Dipole Moment    :     -0.14008       1.20460       1.03785
                        -----------------------------------------
Magnitude (a.u.)       :      1.59619
Magnitude (Debye)      :      4.05718

Rotational constants in cm-1:     5.477715     0.940444     0.940443
Rotational constants in MHz : 164217.753846 28193.799011 28193.774483

                             ****ORCA TERMINATED NORMALLY****
TOTAL RUN TIME: 0 days 0 hours 0 minutes 4 seconds 888 msec
