                         Program Version 5.0.0 -  RELEASE  -
|  1> !wB97X-D3 RIJCOSX def2-SVPD def2/J TightSCF CPCM(Water)
|  2> *xyz 1 1
|  3> C         -0.70169        4.07250       -4.00392
|  4> N          0.68053        4.61482       -4.04800
|  5> H          0.69993        5.58489       -4.38827
|  6> H          1.27804        4.05598       -4.66824
|  7> H          1.08573        4.53358       -3.10652
|  8> H         -1.14500        4.14653       -4.97495
|  9> H         -1.28296        4.63405       -3.30271
| 10> H         -0.67274        3.04629       -3.70235
| 11> *
| 12> %MaxCore 64000
| 13>
| 14> %pal nprocs 8
| 15> end
| 16>
| 17> %scf
| 18>   MaxIter 150
| 19> end
| 20>
| 21>
| 22>                          ****END OF INPUT****

CARTESIAN COORDINATES (ANGSTROEM)
---------------------------------
  C     -0.701690    4.072500   -4.003920
  N      0.680530    4.614820   -4.048000
  H      0.699930    5.584890   -4.388270
  H      1.278040    4.055980   -4.668240
  H      1.085730    4.533580   -3.106520
  H     -1.145000    4.146530   -4.974950
  H     -1.282960    4.634050   -3.302710
  H     -0.672740    3.046290   -3.702350

 Total Charge           Charge          ....    1
 Multiplicity           Mult            ....    1
 Number of Electrons    NEL             ....   18
 Basis Dimension        Dim             ....   88

ORBITAL ENERGIES
----------------

  NO   OCC          E(Eh)            E(eV)
   0   2.0000     -14.559420      -396.1820
   1   2.0000     -10.341915      -281.4178
   2   2.0000      -1.108269       -30.1575
   3   2.0000      -0.834381       -22.7047
   4   2.0000      -0.690380       -18.7862
   5   2.0000      -0.680588       -18.5198
   6   2.0000      -0.598825       -16.2948
   7   2.0000      -0.518138       -14.0993
   8   2.0000      -0.516327       -14.0500
   9   0.0000       0.084555         2.3009
  10   0.0000       0.122461         3.3323
  11   0.0000       0.158591         4.3155
  12   0.0000       0.158794         4.3210
  13   0.0000       0.195308         5.3146

MULLIKEN ATOMIC CHARGES
-----------------------
   0 C :    0.730172
   1 N :   -0.935904
   2 H :    0.424957
   3 H :    0.417360
   4 H :    0.437964
   5 H :   -0.032324
   6 H :   -0.023043
   7 H :   -0.019183
Sum of atomic charges:    1.0000000

LOEWDIN ATOMIC CHARGES
----------------------
   0 C :    0.265394
   1 N :    0.329046
   2 H :    0.119790
   3 H :    0.115737
   4 H :    0.116745
   5 H :    0.016809
   6 H :    0.017833
   7 H :    0.018646

  Mayer bond orders larger than 0.100000
B(  0-C ,  1-N ) :   0.7850 B(  0-C ,  5-H ) :   0.9330 B(  0-C ,  6-H ) :   0.9224
B(  0-C ,  7-H ) :   0.9199 B(  1-N ,  2-H ) :   0.7190 B(  1-N ,  3-H ) :   0.7337
B(  1-N ,  4-H ) :   0.7039

Dispersion correction           -0.000499704
FINAL SINGLE POINT ENERGY       -96.241099018485

DIPOLE MOMENT
-------------
                                X             Y             Z
Electronic contribution:      1.23648       0.50426      -0.04550
Nuclear contribution   :     -0.21844      -0.13976       0.01729
                        -----------------------------------------
Total Dipole Moment    :      1.01804       0.36450      -0.02821
                        -----------------------------------------
Magnitude (a.u.)       :      1.08169
Magnitude (Debye)      :      2.74944

Rotational constants in cm-1:     2.865765     0.688517     0.685249
Rotational constants in MHz : 85913.460223 20641.211162 20543.252263

                             ****ORCA TERMINATED NORMALLY****
TOTAL RUN TIME: 0 days 0 hours 0 minutes 5 seconds 664 msec
