                         Program Version 5.0.0 -  RELEASE  -
|  1> !wB97X-D3 RIJCOSX def2-SVPD def2/J TightSCF CPCM(Water)
|  2> *xyz 0 1
|  3> C          1.44442        5.26658       -0.97546
|  4> F          1.56525        4.23349       -1.86489
|  5> H          1.76623        6.17572       -1.43893
|  6> H          2.05096        5.07018       -0.11614
|  7> H          0.42160        5.36155       -0.67592
|  8> *
|  9> %MaxCore 64000
| 10>
| 11> %pal nprocs 8
| 12> end
| 13>
| 14> %scf
| 15>   MaxIter 150
| 16> end
| 17>
| 18>
| 19>                          ****END OF INPUT****

CARTESIAN COORDINATES (ANGSTROEM)
---------------------------------
  C      1.444420    5.266580   -0.975460
  F      1.565250    4.233490   -1.864890
  H      1.766230    6.175720   -1.438930
  H      2.050960    5.070180   -0.116140
  H      0.421600    5.361550   -0.675920

 Total Charge           Charge          ....    0
 Multiplicity           Mult            ....    1
 Number of Electrons    NEL             ....   18
 Basis Dimension        Dim             ....   67

ORBITAL ENERGIES
----------------

  NO   OCC          E(Eh)            E(eV)
   0   2.0000     -24.791504      -674.6111
   1   2.0000     -10.349971      -281.6370
   2   2.0000      -1.303331       -35.4654
   3   2.0000      -0.807977       -21.9862
   4   2.0000      -0.601906       -16.3787
   5   2.0000      -0.593396       -16.1471
   6   2.0000      -0.593386       -16.1469
   7   2.0000      -0.448546       -12.2056
   8   2.0000      -0.448526       -12.2050
   9   0.0000       0.102580         2.7913
  10   0.0000       0.149200         4.0599
  11   0.0000       0.183765         5.0005
  12   0.0000       0.183779         5.0009
  13   0.0000       0.211809         5.7636

MULLIKEN ATOMIC CHARGES
-----------------------
   0 C :    0.736223
   1 F :   -0.520184
   2 H :   -0.072125
   3 H :   -0.072124
   4 H :   -0.071790
Sum of atomic charges:   -0.0000000

LOEWDIN ATOMIC CHARGES
----------------------
   0 C :    0.275279
   1 F :   -0.281050
   2 H :    0.001940
   3 H :    0.001927
   4 H :    0.001904

  Mayer bond orders larger than 0.100000
B(  0-C ,  1-F ) :   0.8126 B(  0-C ,  2-H ) :   0.9606 B(  0-C ,  3-H ) :   0.9605
B(  0-C ,  4-H ) :   0.9599

Dispersion correction           -0.000129361
FINAL SINGLE POINT ENERGY      -139.611051856443

DIPOLE MOMENT
-------------
                                X             Y             Z
Electronic contribution:      0.24516      -2.09351      -1.80235
Nuclear contribution   :     -0.32265       2.75860       2.37499
                        -----------------------------------------
Total Dipole Moment    :     -0.07749       0.66509       0.57264
                        -----------------------------------------
Magnitude (a.u.)       :      0.88106
Magnitude (Debye)      :      2.23947

Rotational constants in cm-1:     5.477715     0.875416     0.875415
Rotational constants in MHz : 164217.753846 26244.308980 26244.287726

                             ****ORCA TERMINATED NORMALLY****
TOTAL RUN TIME: 0 days 0 hours 0 minutes 4 seconds 574 msec
