                         Program Version 5.0.0 -  RELEASE  -
|  1> !wB97X-D3 RIJCOSX def2-SVPD def2/J TightSCF CPCM(Water)
|  2> *xyz 0 1
|  3> C         -0.70169        4.07250       -4.00392
|  4> C          0.68053        4.61482       -4.04800
|  5> H          0.69993        5.58489       -4.38827
|  6> H          1.27804        4.05598       -4.66824
|  7> H          1.08573        4.53358       -3.10652
|  8> H         -1.14500        4.14653       -4.97495
|  9> H         -1.28296        4.63405       -3.30271
| 10> H         -0.67274        3.04629       -3.70235
| 11> *
| 12> %MaxCore 64000
| 13>
| 14> %pal nprocs 8
| 15> end
| 16>
| 17> %scf
| 18>   MaxIter 150
| 19> end
| 20>
| 21>
| 22>                          ****END OF INPUT****

CARTESIAN COORDINATES (ANGSTROEM)
---------------------------------
  C     -0.701690    4.072500   -4.003920
  C      0.680530    4.614820   -4.048000
  H      0.699930    5.584890   -4.388270
  H      1.278040    4.055980   -4.668240
  H      1.085730    4.533580   -3.106520
  H     -1.145000    4.146530   -4.974950
  H     -1.282960    4.634050   -3.302710
  H     -0.672740    3.046290   -3.702350

 Total Charge           Charge          ....    0
 Multiplicity           Mult            ....    1
 Number of Electrons    NEL             ....   18
 Basis Dimension        Dim             ....   88

ORBITAL ENERGIES
----------------

  NO   OCC          E(Eh)            E(eV)
   0   2.0000     -10.261746      -279.2363
   1   2.0000     -10.247892      -278.8593
   2   2.0000      -0.875962       -23.8361
   3   2.0000      -0.722632       -19.6638
   4   2.0000      -0.549144       -14.9430
   5   2.0000      -0.543146       -14.7798
   6   2.0000      -0.460634       -12.5345
   7   2.0000      -0.438972       -11.9450
   8   2.0000      -0.433309       -11.7909
   9   0.0000       0.102893         2.7999
  10   0.0000       0.131055         3.5662
  11   0.0000       0.185937         5.0596
  12   0.0000       0.187106         5.0914
  13   0.0000       0.206503         5.6192

MULLIKEN ATOMIC CHARGES
-----------------------
   0 C :    0.123969
   1 C :    0.437442
   2 H :   -0.149145
   3 H :   -0.153221
   4 H :   -0.132934
   5 H :   -0.047172
   6 H :   -0.043867
   7 H :   -0.035073
Sum of atomic charges:    0.0000000

LOEWDIN ATOMIC CHARGES
----------------------
   0 C :    0.067492
   1 C :    0.073047
   2 H :   -0.029814
   3 H :   -0.033840
   4 H :   -0.031589
   5 H :   -0.016283
   6 H :   -0.015001
   7 H :   -0.014013

  Mayer bond orders larger than 0.100000
B(  0-C ,  1-C ) :   1.4423 B(  0-C ,  2-H ) :   0.1493 B(  0-C ,  3-H ) :   0.1500
B(  0-C ,  4-H ) :   0.1662 B(  0-C ,  5-H ) :   0.8962 B(  0-C ,  6-H ) :   0.8811
B(  0-C ,  7-H ) :   0.8797 B(  1-C ,  2-H ) :   0.8284 B(  1-C ,  3-H ) :   0.8121
B(  1-C ,  4-H ) :   0.8124 B(  1-C ,  5-H ) :   0.1296 B(  1-C ,  6-H ) :   0.1365
B(  1-C ,  7-H ) :   0.1374

Dispersion correction           -0.000488889
FINAL SINGLE POINT ENERGY       -79.736959040403

DIPOLE MOMENT
-------------
                                X             Y             Z
Electronic contribution:      0.01510       0.04476      -0.01072
Nuclear contribution   :      0.01985      -0.04545       0.00953
                        -----------------------------------------
Total Dipole Moment    :      0.03495      -0.00069      -0.00119
                        -----------------------------------------
Magnitude (a.u.)       :      0.03497
Magnitude (Debye)      :      0.08890

Rotational constants in cm-1:     2.865782     0.718825     0.715264
Rotational constants in MHz : 85913.996449 21549.842906 21443.078705

                             ****ORCA TERMINATED NORMALLY****
TOTAL RUN TIME: 0 days 0 hours 0 minutes 5 seconds 597 msec
