                         Program Version 5.0.0 -  RELEASE  -
|  1> !wB97X-D3 RIJCOSX def2-SVPD def2/J TightSCF CPCM(Water) xyzfile
|  2>
|  3> *xyzfile 0 1 D.xyz
|  4>
|  5> %MaxCore 64000
|  6>
|  7> %pal nprocs 18
|  8> end
|  9>
| 10> %scf
| 11>   MaxIter 150
| 12> end
| 13>
| 14>
| 15>                          ****END OF INPUT****

CARTESIAN COORDINATES (ANGSTROEM)
---------------------------------
  C     -0.701686    4.072499   -4.003920
  C      0.680528    4.614820   -4.048005
  C      1.444422    5.266576   -0.975463
  F      1.565248    4.233493   -1.864885
  H      0.699926    5.584890   -4.388272
  H      1.278044    4.055977   -4.668235
  H      1.085729    4.533581   -3.106524
  C     -1.703475    5.093197   -3.477396
  H     -0.995895    3.740394   -5.000654
  H     -0.643580    3.201910   -3.351533
  C     -1.313997    5.785995   -2.169271
  H     -1.877057    5.850103   -4.251154
  H     -2.653264    4.564475   -3.354796
  H     -2.097137    6.509395   -1.929558
  H     -0.416875    6.387594   -2.339097
  C     -1.073895    4.844728   -0.979904
  H     -1.968893    4.809608   -0.352568
  C      0.148120    5.210874   -0.138092
  H     -0.909754    3.827531   -1.338975
  H      1.474250    6.264638   -1.476917
  H      2.289622    5.303267   -0.264450
  H      0.261827    4.450942    0.640711
  H     -0.002516    6.171031    0.371483

 Total Charge           Charge          ....    0
 Multiplicity           Mult            ....    1
 Number of Electrons    NEL             ....   66
 Basis Dimension        Dim             ....  283

ORBITAL ENERGIES
----------------

  NO   OCC          E(Eh)            E(eV)
   0   2.0000     -24.807416      -675.0441
   1   2.0000     -10.366880      -282.0971
   2   2.0000     -10.288047      -279.9520
   3   2.0000     -10.277834      -279.6741
   4   2.0000     -10.273729      -279.5624
   5   2.0000     -10.271746      -279.5084
   6   2.0000     -10.262604      -279.2597
   7   2.0000     -10.209606      -277.8175
   8   2.0000      -1.331190       -36.2235
   9   2.0000      -0.920819       -25.0568
  10   2.0000      -0.892068       -24.2744
  11   2.0000      -0.829244       -22.5649
  12   2.0000      -0.795763       -21.6538
  13   2.0000      -0.734944       -19.9988
  14   2.0000      -0.697915       -18.9912
  15   2.0000      -0.645370       -17.5614
  16   2.0000      -0.639109       -17.3910
  17   2.0000      -0.620402       -16.8820
  18   2.0000      -0.592264       -16.1163
  19   2.0000      -0.559452       -15.2235
  20   2.0000      -0.552624       -15.0377
  21   2.0000      -0.523914       -14.2564
  22   2.0000      -0.511429       -13.9167
  23   2.0000      -0.486551       -13.2397
  24   2.0000      -0.472770       -12.8647
  25   2.0000      -0.461859       -12.5678
  26   2.0000      -0.451509       -12.2862
  27   2.0000      -0.429837       -11.6964
  28   2.0000      -0.418378       -11.3846
  29   2.0000      -0.403489       -10.9795
  30   2.0000      -0.394783       -10.7426
  31   2.0000      -0.390574       -10.6281
  32   2.0000      -0.372483       -10.1358
  33   0.0000       0.098185         2.6718
  34   0.0000       0.110827         3.0158
  35   0.0000       0.114992         3.1291
  36   0.0000       0.120174         3.2701
  37   0.0000       0.140854         3.8328

MULLIKEN ATOMIC CHARGES
-----------------------
   0 C :   -0.259027
   1 C :    2.596013
   2 C :    0.661371
   3 F :   -0.602629
   4 H :   -0.175360
   5 H :    0.056092
   6 H :   -2.006670
   7 C :    0.238931
   8 H :   -0.334474
   9 H :    0.079952
  10 C :   -0.040747
  11 H :    0.115184
  12 H :   -0.111193
  13 H :   -0.168724
  14 H :    0.013021
  15 C :    0.129668
  16 H :   -0.202458
  17 C :    0.009398
  18 H :    0.041196
  19 H :    0.270861
  20 H :   -0.263291
  21 H :    0.014827
  22 H :   -0.061942
Sum of atomic charges:   -0.0000000

LOEWDIN ATOMIC CHARGES
----------------------
   0 C :   -0.062243
   1 C :    0.134423
   2 C :    0.161759
   3 F :   -0.196556
   4 H :   -0.023421
   5 H :   -0.026725
   6 H :   -0.175635
   7 C :   -0.038394
   8 H :    0.017292
   9 H :    0.011584
  10 C :   -0.017064
  11 H :    0.025444
  12 H :    0.018533
  13 H :    0.020652
  14 H :   -0.001671
  15 C :   -0.018101
  16 H :    0.023978
  17 C :   -0.009494
  18 H :    0.005686
  19 H :    0.044665
  20 H :    0.040730
  21 H :    0.025522
  22 H :    0.039037

  Mayer bond orders larger than 0.100000
B(  0-C ,  1-C ) :   0.7590 B(  0-C ,  4-H ) :   0.3313 B(  0-C ,  5-H ) :   0.1581
B(  0-C ,  6-H ) :   0.6784 B(  0-C ,  7-C ) :   1.1636 B(  0-C ,  8-H ) :   1.0431
B(  0-C ,  9-H ) :   0.7590 B(  0-C , 11-H ) :   0.1306 B(  0-C , 12-H ) :   0.1586
B(  1-C ,  3-F ) :  -0.2889 B(  1-C ,  5-H ) :   0.6467 B(  1-C ,  6-H ) :  -2.8937
B(  1-C ,  9-H ) :   0.2110 B(  2-C ,  3-F ) :   0.5881 B(  2-C ,  6-H ) :   0.1622
B(  2-C , 17-C ) :   1.2499 B(  2-C , 19-H ) :   0.7524 B(  2-C , 20-H ) :   1.0327
B(  3-F ,  6-H ) :   0.5426 B(  4-H ,  5-H ) :  -0.2204 B(  4-H ,  6-H ) :   0.7773
B(  4-H ,  8-H ) :   0.1959 B(  5-H ,  6-H ) :   0.1925 B(  5-H ,  8-H ) :  -0.1162
B(  7-C ,  9-H ) :   0.1610 B(  7-C , 10-C ) :   1.2571 B(  7-C , 11-H ) :   0.7087
B(  7-C , 12-H ) :   0.8762 B(  7-C , 13-H ) :   0.1290 B(  7-C , 14-H ) :   0.1191
B(  8-H ,  9-H ) :  -0.1859 B( 10-C , 11-H ) :   0.1906 B( 10-C , 12-H ) :   0.1408
B( 10-C , 13-H ) :   0.8319 B( 10-C , 14-H ) :   0.8848 B( 10-C , 15-C ) :   1.1844
B( 10-C , 16-H ) :   0.2040 B( 13-H , 15-C ) :   0.1480 B( 15-C , 16-H ) :   0.8871
B( 15-C , 17-C ) :   1.2280 B( 15-C , 18-H ) :   0.8382 B( 15-C , 21-H ) :   0.1834
B( 17-C , 20-H ) :   0.1593 B( 17-C , 21-H ) :   0.7733 B( 17-C , 22-H ) :   0.9363

Dispersion correction           -0.008769184
FINAL SINGLE POINT ENERGY      -375.220626006248

DIPOLE MOMENT
-------------
                                X             Y             Z
Electronic contribution:      5.13670      -2.09174       3.01173
Nuclear contribution   :     -5.08831       2.68947      -1.99048
                        -----------------------------------------
Total Dipole Moment    :      0.04839       0.59773       1.02125
                        -----------------------------------------
Magnitude (a.u.)       :      1.18431
Magnitude (Debye)      :      3.01027

Rotational constants in cm-1:     0.084646     0.055672     0.038419
Rotational constants in MHz :  2537.625105  1668.992890  1151.781380

                             ****ORCA TERMINATED NORMALLY****
TOTAL RUN TIME: 0 days 0 hours 0 minutes 26 seconds 509 msec
