                         Program Version 5.0.0 -  RELEASE  -
|  1> !LC-BLYP RIJCOSX def2-SVP def2/J TightSCF
|  2> *xyz -1 1
|  3> C          0.84888        2.66797       -4.30235
|  4> C          2.09343        1.86104       -4.65684
|  5> H          2.44481        2.04157       -5.67499
|  6> H          2.90175        2.13786       -3.98034
|  7> S          1.87964        0.07859       -4.46297
|  8> O          3.20757       -0.46611       -4.42026
|  9> O          1.07506       -0.05616       -3.26876
| 10> O          1.13166       -0.31996       -5.67903
| 11> H          0.05064        2.40112       -4.96303
| 12> H          1.06043        3.71210       -4.40203
| 13> H          0.56237        2.45684       -3.29327
| 14> *
| 15>
| 16> %MaxCore 64000
| 17>
| 18> %pal nprocs 4
| 19> end
| 20>
| 21> %scf
| 22>   MaxIter 150
| 23> end
| 24>
| 25>
| 26>                          ****END OF INPUT****

CARTESIAN COORDINATES (ANGSTROEM)
---------------------------------
  C      0.848880    2.667970   -4.302350
  C      2.093430    1.861040   -4.656840
  H      2.444810    2.041570   -5.674990
  H      2.901750    2.137860   -3.980340
  S      1.879640    0.078590   -4.462970
  O      3.207570   -0.466110   -4.420260
  O      1.075060   -0.056160   -3.268760
  O      1.131660   -0.319960   -5.679030
  H      0.050640    2.401120   -4.963030
  H      1.060430    3.712100   -4.402030
  H      0.562370    2.456840   -3.293270

 Total Charge           Charge          ....   -1
 Multiplicity           Mult            ....    1
 Number of Electrons    NEL             ....   58
 Basis Dimension        Dim             ....  113

ORBITAL ENERGIES
----------------

  NO   OCC          E(Eh)            E(eV)
   0   2.0000     -88.262215     -2401.7370
   1   2.0000     -18.697836      -508.7940
   2   2.0000     -18.695529      -508.7312
   3   2.0000     -18.679222      -508.2875
   4   2.0000      -9.930161      -270.2134
   5   2.0000      -9.924626      -270.0628
   6   2.0000      -7.818367      -212.7486
   7   2.0000      -5.852252      -159.2479
   8   2.0000      -5.852032      -159.2419
   9   2.0000      -5.851898      -159.2382
  10   2.0000      -0.997394       -27.1405
  11   2.0000      -0.852843       -23.2070
  12   2.0000      -0.824966       -22.4485
  13   2.0000      -0.721572       -19.6350
  14   2.0000      -0.593054       -16.1378
  15   2.0000      -0.461100       -12.5472
  16   2.0000      -0.409249       -11.1362
  17   2.0000      -0.397346       -10.8123
  18   2.0000      -0.359097        -9.7715
  19   2.0000      -0.338052        -9.1989
  20   2.0000      -0.332498        -9.0477
  21   2.0000      -0.311635        -8.4800
  22   2.0000      -0.295105        -8.0302
  23   2.0000      -0.218663        -5.9501
  24   2.0000      -0.217452        -5.9172
  25   2.0000      -0.183816        -5.0019
  26   2.0000      -0.174489        -4.7481
  27   2.0000      -0.162349        -4.4177
  28   2.0000      -0.126978        -3.4552
  29   0.0000       0.277628         7.5546
  30   0.0000       0.329865         8.9761
  31   0.0000       0.337974         9.1967
  32   0.0000       0.345380         9.3983
  33   0.0000       0.374868        10.2007

MULLIKEN ATOMIC CHARGES
-----------------------
   0 C :    0.037006
   1 C :   -0.090885
   2 H :   -0.007616
   3 H :   -0.017944
   4 S :    0.743624
   5 O :   -0.519055
   6 O :   -0.529822
   7 O :   -0.575456
   8 H :   -0.000886
   9 H :   -0.043244
  10 H :    0.004277
Sum of atomic charges:   -1.0000000

LOEWDIN ATOMIC CHARGES
----------------------
   0 C :   -0.087526
   1 C :   -0.200228
   2 H :    0.009527
   3 H :    0.004807
   4 S :    1.066602
   5 O :   -0.590831
   6 O :   -0.598266
   7 O :   -0.645007
   8 H :    0.018897
   9 H :    0.002943
  10 H :    0.019082

  Mayer bond orders larger than 0.100000
B(  0-C ,  1-C ) :   1.0705 B(  0-C ,  8-H ) :   0.9650 B(  0-C ,  9-H ) :   0.9583
B(  0-C , 10-H ) :   0.9609 B(  1-C ,  2-H ) :   0.9442 B(  1-C ,  3-H ) :   0.9396
B(  1-C ,  4-S ) :   0.8979 B(  4-S ,  5-O ) :   1.6856 B(  4-S ,  6-O ) :   1.6568
B(  4-S ,  7-O ) :   1.6238

FINAL SINGLE POINT ENERGY      -701.870606940158

DIPOLE MOMENT
-------------
                                X             Y             Z
Electronic contribution:      1.63163      -7.87342       0.06586
Nuclear contribution   :     -1.55288       9.51857       0.00420
                        -----------------------------------------
Total Dipole Moment    :      0.07875       1.64515       0.07006
                        -----------------------------------------
Magnitude (a.u.)       :      1.64852
Magnitude (Debye)      :      4.19021

Rotational constants in cm-1:     0.163401     0.083833     0.082462
Rotational constants in MHz :  4898.624208  2513.264548  2472.149188

                             ****ORCA TERMINATED NORMALLY****
TOTAL RUN TIME: 0 days 0 hours 0 minutes 14 seconds 488 msec
