                         Program Version 5.0.0 -  RELEASE  -
|  1> !LC-BLYP RIJCOSX def2-SVP def2/J TightSCF
|  2> *xyz 1 1
|  3> C         -0.46129        2.23469       -4.98962
|  4> C          0.84888        2.66797       -4.30235
|  5> C         -0.42384        2.39877       -6.47432
|  6> N         -0.95947        3.49265       -7.00740
|  7> N          0.14558        1.48689       -7.20399
|  8> H          0.56537        0.69681       -6.72386
|  9> H          0.22068        1.58177       -8.20752
| 10> H         -1.40624        4.18151       -6.40326
| 11> H         -0.93421        3.68160       -7.99947
| 12> H         -1.28888        2.82674       -4.59500
| 13> H         -0.65170        1.18634       -4.75655
| 14> H          1.66208        2.08894       -4.68750
| 15> H          0.76716        2.51042       -3.24717
| 16> H          1.02677        3.70527       -4.49537
| 17> *
| 18>
| 19> %MaxCore 64000
| 20>
| 21> %pal nprocs 4
| 22> end
| 23>
| 24> %scf
| 25>   MaxIter 150
| 26> end
| 27>
| 28>
| 29>                          ****END OF INPUT****

CARTESIAN COORDINATES (ANGSTROEM)
---------------------------------
  C     -0.461290    2.234690   -4.989620
  C      0.848880    2.667970   -4.302350
  C     -0.423840    2.398770   -6.474320
  N     -0.959470    3.492650   -7.007400
  N      0.145580    1.486890   -7.203990
  H      0.565370    0.696810   -6.723860
  H      0.220680    1.581770   -8.207520
  H     -1.406240    4.181510   -6.403260
  H     -0.934210    3.681600   -7.999470
  H     -1.288880    2.826740   -4.595000
  H     -0.651700    1.186340   -4.756550
  H      1.662080    2.088940   -4.687500
  H      0.767160    2.510420   -3.247170
  H      1.026770    3.705270   -4.495370

 Total Charge           Charge          ....    1
 Multiplicity           Mult            ....    1
 Number of Electrons    NEL             ....   40
 Basis Dimension        Dim             ....  115

ORBITAL ENERGIES
----------------

  NO   OCC          E(Eh)            E(eV)
   0   2.0000     -14.434864      -392.7926
   1   2.0000     -14.430177      -392.6651
   2   2.0000     -10.407712      -283.2082
   3   2.0000     -10.281590      -279.7763
   4   2.0000     -10.239966      -278.6436
   5   2.0000      -1.296321       -35.2747
   6   2.0000      -1.199161       -32.6308
   7   2.0000      -1.070818       -29.1384
   8   2.0000      -0.960424       -26.1345
   9   2.0000      -0.918712       -24.9994
  10   2.0000      -0.880996       -23.9731
  11   2.0000      -0.851569       -23.1724
  12   2.0000      -0.800100       -21.7718
  13   2.0000      -0.757252       -20.6059
  14   2.0000      -0.725483       -19.7414
  15   2.0000      -0.717444       -19.5226
  16   2.0000      -0.642625       -17.4867
  17   2.0000      -0.632285       -17.2054
  18   2.0000      -0.624444       -16.9920
  19   2.0000      -0.588526       -16.0146
  20   0.0000      -0.117536        -3.1983
  21   0.0000      -0.073343        -1.9958
  22   0.0000      -0.026778        -0.7287
  23   0.0000      -0.025357        -0.6900
  24   0.0000       0.004430         0.1205

MULLIKEN ATOMIC CHARGES
-----------------------
   0 C :   -0.017062
   1 C :    0.022534
   2 C :   -0.157895
   3 N :    0.042665
   4 N :    0.091951
   5 H :    0.184554
   6 H :    0.175779
   7 H :    0.186301
   8 H :    0.171268
   9 H :    0.061216
  10 H :    0.075846
  11 H :    0.036630
  12 H :    0.081850
  13 H :    0.044363
Sum of atomic charges:    1.0000000

LOEWDIN ATOMIC CHARGES
----------------------
   0 C :   -0.044085
   1 C :   -0.034815
   2 C :    0.141573
   3 N :    0.089177
   4 N :    0.111159
   5 H :    0.126489
   6 H :    0.117733
   7 H :    0.125715
   8 H :    0.112990
   9 H :    0.058448
  10 H :    0.062593
  11 H :    0.035489
  12 H :    0.057352
  13 H :    0.040181

  Mayer bond orders larger than 0.100000
B(  0-C ,  1-C ) :   1.0795 B(  0-C ,  2-C ) :   1.0393 B(  0-C ,  9-H ) :   0.9208
B(  0-C , 10-H ) :   0.9217 B(  1-C , 11-H ) :   0.9702 B(  1-C , 12-H ) :   0.9622
B(  1-C , 13-H ) :   0.9680 B(  2-C ,  3-N ) :   1.5163 B(  2-C ,  4-N ) :   1.5504
B(  3-N ,  7-H ) :   0.9186 B(  3-N ,  8-H ) :   0.9289 B(  4-N ,  5-H ) :   0.9146
B(  4-N ,  6-H ) :   0.9244

FINAL SINGLE POINT ENERGY      -228.247139630964

DIPOLE MOMENT
-------------
                                X             Y             Z
Electronic contribution:     -1.56747      -0.26379      -3.95165
Nuclear contribution   :      1.33202       0.27544       2.83701
                        -----------------------------------------
Total Dipole Moment    :     -0.23545       0.01166      -1.11464
                        -----------------------------------------
Magnitude (a.u.)       :      1.13930
Magnitude (Debye)      :      2.89586

Rotational constants in cm-1:     0.258570     0.126296     0.098869
Rotational constants in MHz :  7751.748523  3786.267300  2964.011691

                             ****ORCA TERMINATED NORMALLY****
TOTAL RUN TIME: 0 days 0 hours 0 minutes 14 seconds 937 msec
