                         Program Version 5.0.0 -  RELEASE  -
|  1> !LC-BLYP RIJCOSX def2-TZVP def2/J TightSCF xyzfile
|  2>
|  3> *xyzfile 0 1 B.xyz
|  4>
|  5> %MaxCore 64000
|  6>
|  7> %pal nprocs 18
|  8> end
|  9>
| 10> %scf
| 11>   MaxIter 150
| 12> end
| 13>
| 14>
| 15>                          ****END OF INPUT****

CARTESIAN COORDINATES (ANGSTROEM)
---------------------------------
  C     -0.461293    2.234686   -4.989619
  C      0.848883    2.667967   -4.302351
  C      2.093434    1.861037   -4.656845
  H      2.444814    2.041567   -5.674990
  H      2.901748    2.137864   -3.980338
  S      1.879644    0.078594   -4.462965
  C     -0.423841    2.398772   -6.474317
  N     -0.959467    3.492647   -7.007401
  N      0.145585    1.486891   -7.203987
  H      0.565371    0.696807   -6.723858
  H      0.220682    1.581768   -8.207520
  H     -1.406243    4.181507   -6.403261
  H     -0.934215    3.681601   -7.999468
  O      3.207574   -0.466111   -4.420259
  O      1.075064   -0.056160   -3.268758
  O      1.131661   -0.319960   -5.679031
  H      0.668432    2.559427   -3.232850
  H      1.034074    3.729426   -4.497081
  H     -1.288884    2.826737   -4.594997
  H     -0.651696    1.186343   -4.756552

 Total Charge           Charge          ....    0
 Multiplicity           Mult            ....    1
 Number of Electrons    NEL             ....   88
 Basis Dimension        Dim             ....  376

ORBITAL ENERGIES
----------------

  NO   OCC          E(Eh)            E(eV)
   0   2.0000     -88.407407     -2405.6878
   1   2.0000     -18.874078      -513.5898
   2   2.0000     -18.859873      -513.2032
   3   2.0000     -18.857598      -513.1413
   4   2.0000     -14.278709      -388.5434
   5   2.0000     -14.246573      -387.6689
   6   2.0000     -10.245776      -278.8017
   7   2.0000     -10.119172      -275.3567
   8   2.0000     -10.098409      -274.7917
   9   2.0000     -10.074622      -274.1444
  10   2.0000      -7.949469      -216.3161
  11   2.0000      -5.978000      -162.6697
  12   2.0000      -5.976877      -162.6391
  13   2.0000      -5.975378      -162.5983
  14   2.0000      -1.174010       -31.9464
  15   2.0000      -1.159221       -31.5440
  16   2.0000      -1.065022       -28.9807
  17   2.0000      -1.030792       -28.0493
  18   2.0000      -1.029420       -28.0119
  19   2.0000      -0.944527       -25.7019
  20   2.0000      -0.865136       -23.5416
  21   2.0000      -0.800130       -21.7726
  22   2.0000      -0.758217       -20.6321
  23   2.0000      -0.737230       -20.0610
  24   2.0000      -0.710306       -19.3284
  25   2.0000      -0.665760       -18.1162
  26   2.0000      -0.625621       -17.0240
  27   2.0000      -0.623952       -16.9786
  28   2.0000      -0.589452       -16.0398
  29   2.0000      -0.577337       -15.7101
  30   2.0000      -0.550253       -14.9732
  31   2.0000      -0.538803       -14.6616
  32   2.0000      -0.514975       -14.0132
  33   2.0000      -0.505773       -13.7628
  34   2.0000      -0.490862       -13.3570
  35   2.0000      -0.474318       -12.9068
  36   2.0000      -0.457073       -12.4376
  37   2.0000      -0.444962       -12.1080
  38   2.0000      -0.406713       -11.0672
  39   2.0000      -0.401617       -10.9285
  40   2.0000      -0.368347       -10.0232
  41   2.0000      -0.358467        -9.7544
  42   2.0000      -0.349575        -9.5124
  43   2.0000      -0.316407        -8.6099
  44   0.0000       0.019095         0.5196
  45   0.0000       0.026038         0.7085
  46   0.0000       0.065224         1.7748
  47   0.0000       0.092343         2.5128
  48   0.0000       0.114762         3.1228

MULLIKEN ATOMIC CHARGES
-----------------------
   0 C :   -0.401747
   1 C :   -0.228965
   2 C :   -0.384460
   3 H :    0.143481
   4 H :    0.162944
   5 S :    0.742776
   6 C :    0.269612
   7 N :   -0.354804
   8 N :   -0.268084
   9 H :    0.303611
  10 H :    0.237149
  11 H :    0.274902
  12 H :    0.254835
  13 O :   -0.439825
  14 O :   -0.460280
  15 O :   -0.545173
  16 H :    0.176095
  17 H :    0.127639
  18 H :    0.146597
  19 H :    0.243695
Sum of atomic charges:    0.0000000

LOEWDIN ATOMIC CHARGES
----------------------
   0 C :   -0.220500
   1 C :   -0.284249
   2 C :   -0.402030
   3 H :    0.127877
   4 H :    0.144918
   5 S :    0.412303
   6 C :   -0.308247
   7 N :    0.060783
   8 N :    0.130606
   9 H :    0.150298
  10 H :    0.183349
  11 H :    0.198112
  12 H :    0.183326
  13 O :   -0.309224
  14 O :   -0.327961
  15 O :   -0.368406
  16 H :    0.160563
  17 H :    0.138679
  18 H :    0.152820
  19 H :    0.176984

  Mayer bond orders larger than 0.100000
B(  0-C ,  1-C ) :   0.8771 B(  0-C ,  6-C ) :   0.9322 B(  0-C , 18-H ) :   0.9776
B(  0-C , 19-H ) :   0.9390 B(  1-C ,  2-C ) :   0.9152 B(  1-C , 16-H ) :   0.9625
B(  1-C , 17-H ) :   0.9619 B(  2-C ,  3-H ) :   0.9549 B(  2-C ,  4-H ) :   0.9638
B(  2-C ,  5-S ) :   0.9125 B(  5-S , 13-O ) :   1.9807 B(  5-S , 14-O ) :   1.8188
B(  5-S , 15-O ) :   1.5014 B(  6-C ,  7-N ) :   1.3409 B(  6-C ,  8-N ) :   1.5816
B(  7-N , 11-H ) :   0.9020 B(  7-N , 12-H ) :   0.9099 B(  8-N ,  9-H ) :   0.7400
B(  8-N , 10-H ) :   0.9126 B(  9-H , 15-O ) :   0.2351

FINAL SINGLE POINT ENERGY      -890.754955551848

DIPOLE MOMENT
-------------
                                X             Y             Z
Electronic contribution:      3.10166      -7.63411       1.06759
Nuclear contribution   :     -5.91573      12.15027      -4.18945
                        -----------------------------------------
Total Dipole Moment    :     -2.81407       4.51617      -3.12187
                        -----------------------------------------
Magnitude (a.u.)       :      6.16934
Magnitude (Debye)      :     15.68122

Rotational constants in cm-1:     0.082044     0.024757     0.022371
Rotational constants in MHz :  2459.631375   742.181961   670.660570

                             ****ORCA TERMINATED NORMALLY****
TOTAL RUN TIME: 0 days 0 hours 0 minutes 37 seconds 595 msec
