                         Program Version 5.0.0 -  RELEASE  -
|  1> !LC-BLYP RIJCOSX def2-SVP def2/J TightSCF
|  2> *xyz 0 1
|  3> C          0.84888        2.66797       -4.30235
|  4> C          2.09343        1.86104       -4.65684
|  5> H          2.44481        2.04157       -5.67499
|  6> H          2.90175        2.13786       -3.98034
|  7> S          1.87964        0.07859       -4.46297
|  8> F          3.20757       -0.46611       -4.42026
|  9> O          1.07506       -0.05616       -3.26876
| 10> O          1.13166       -0.31996       -5.67903
| 11> H          0.05064        2.40112       -4.96303
| 12> H          1.06043        3.71210       -4.40203
| 13> H          0.56237        2.45684       -3.29327
| 14> *
| 15>
| 16> %MaxCore 64000
| 17>
| 18> %pal nprocs 4
| 19> end
| 20>
| 21> %scf
| 22>   MaxIter 150
| 23> end
| 24>
| 25>
| 26>                          ****END OF INPUT****

CARTESIAN COORDINATES (ANGSTROEM)
---------------------------------
  C      0.848880    2.667970   -4.302350
  C      2.093430    1.861040   -4.656840
  H      2.444810    2.041570   -5.674990
  H      2.901750    2.137860   -3.980340
  S      1.879640    0.078590   -4.462970
  F      3.207570   -0.466110   -4.420260
  O      1.075060   -0.056160   -3.268760
  O      1.131660   -0.319960   -5.679030
  H      0.050640    2.401120   -4.963030
  H      1.060430    3.712100   -4.402030
  H      0.562370    2.456840   -3.293270

 Total Charge           Charge          ....    0
 Multiplicity           Mult            ....    1
 Number of Electrons    NEL             ....   58
 Basis Dimension        Dim             ....  113

ORBITAL ENERGIES
----------------

  NO   OCC          E(Eh)            E(eV)
   0   2.0000     -88.536557     -2409.2022
   1   2.0000     -24.577172      -668.7788
   2   2.0000     -18.947536      -515.5887
   3   2.0000     -18.932937      -515.1914
   4   2.0000     -10.137682      -275.8604
   5   2.0000     -10.098967      -274.8069
   6   2.0000      -8.095161      -220.2805
   7   2.0000      -6.133421      -166.8989
   8   2.0000      -6.126433      -166.7087
   9   2.0000      -6.125246      -166.6764
  10   2.0000      -1.452049       -39.5123
  11   2.0000      -1.188078       -32.3292
  12   2.0000      -1.078912       -29.3587
  13   2.0000      -0.920358       -25.0442
  14   2.0000      -0.830681       -22.6040
  15   2.0000      -0.773157       -21.0387
  16   2.0000      -0.686915       -18.6919
  17   2.0000      -0.683474       -18.5983
  18   2.0000      -0.645686       -17.5700
  19   2.0000      -0.593996       -16.1635
  20   2.0000      -0.575881       -15.6705
  21   2.0000      -0.527805       -14.3623
  22   2.0000      -0.523772       -14.2526
  23   2.0000      -0.502792       -13.6817
  24   2.0000      -0.480145       -13.0654
  25   2.0000      -0.472563       -12.8591
  26   2.0000      -0.417366       -11.3571
  27   2.0000      -0.401988       -10.9387
  28   2.0000      -0.386710       -10.5229
  29   0.0000       0.116725         3.1763
  30   0.0000       0.130375         3.5477
  31   0.0000       0.162444         4.4203
  32   0.0000       0.166724         4.5368
  33   0.0000       0.175097         4.7646

MULLIKEN ATOMIC CHARGES
-----------------------
   0 C :    0.017736
   1 C :   -0.132984
   2 H :    0.067702
   3 H :    0.048894
   4 S :    0.828578
   5 F :   -0.125602
   6 O :   -0.395311
   7 O :   -0.435847
   8 H :    0.046569
   9 H :    0.033365
  10 H :    0.046902
Sum of atomic charges:    0.0000000

LOEWDIN ATOMIC CHARGES
----------------------
   0 C :   -0.063284
   1 C :   -0.164373
   2 H :    0.040501
   3 H :    0.031582
   4 S :    1.120570
   5 F :   -0.096321
   6 O :   -0.470553
   7 O :   -0.513153
   8 H :    0.038934
   9 H :    0.038776
  10 H :    0.037322

  Mayer bond orders larger than 0.100000
B(  0-C ,  1-C ) :   1.0820 B(  0-C ,  8-H ) :   0.9706 B(  0-C ,  9-H ) :   0.9612
B(  0-C , 10-H ) :   0.9644 B(  1-C ,  2-H ) :   0.9351 B(  1-C ,  3-H ) :   0.9319
B(  1-C ,  4-S ) :   0.9260 B(  4-S ,  5-F ) :   1.0729 B(  4-S ,  6-O ) :   1.8067
B(  4-S ,  7-O ) :   1.7743

FINAL SINGLE POINT ENERGY      -726.359641137077

DIPOLE MOMENT
-------------
                                X             Y             Z
Electronic contribution:      4.20435      -9.42401       0.11078
Nuclear contribution   :     -3.08754      10.54185      -0.04092
                        -----------------------------------------
Total Dipole Moment    :      1.11681       1.11784       0.06986
                        -----------------------------------------
Magnitude (a.u.)       :      1.58168
Magnitude (Debye)      :      4.02031

Rotational constants in cm-1:     0.158925     0.081210     0.079022
Rotational constants in MHz :  4764.450166  2434.603461  2369.014434

                             ****ORCA TERMINATED NORMALLY****
TOTAL RUN TIME: 0 days 0 hours 0 minutes 14 seconds 497 msec
