                         Program Version 5.0.0 -  RELEASE  -
|  1> !LC-BLYP RIJCOSX def2-SVP def2/J TightSCF
|  2> *xyz 0 1
|  3> C         -0.46129        2.23469       -4.98962
|  4> C          0.84888        2.66797       -4.30235
|  5> C         -0.42384        2.39877       -6.47432
|  6> C         -0.95947        3.49265       -7.00740
|  7> N          0.14558        1.48689       -7.20399
|  8> H          0.56537        0.69681       -6.72386
|  9> H          0.22068        1.58177       -8.20752
| 10> H         -1.40624        4.18151       -6.40326
| 11> H         -0.93421        3.68160       -7.99947
| 12> H         -1.28888        2.82674       -4.59500
| 13> H         -0.65170        1.18634       -4.75655
| 14> H          1.66208        2.08894       -4.68750
| 15> H          0.76716        2.51042       -3.24717
| 16> H          1.02677        3.70527       -4.49537
| 17> *
| 18>
| 19> %MaxCore 64000
| 20>
| 21> %pal nprocs 4
| 22> end
| 23>
| 24> %scf
| 25>   MaxIter 150
| 26> end
| 27>
| 28>
| 29>                          ****END OF INPUT****

CARTESIAN COORDINATES (ANGSTROEM)
---------------------------------
  C     -0.461290    2.234690   -4.989620
  C      0.848880    2.667970   -4.302350
  C     -0.423840    2.398770   -6.474320
  C     -0.959470    3.492650   -7.007400
  N      0.145580    1.486890   -7.203990
  H      0.565370    0.696810   -6.723860
  H      0.220680    1.581770   -8.207520
  H     -1.406240    4.181510   -6.403260
  H     -0.934210    3.681600   -7.999470
  H     -1.288880    2.826740   -4.595000
  H     -0.651700    1.186340   -4.756550
  H      1.662080    2.088940   -4.687500
  H      0.767160    2.510420   -3.247170
  H      1.026770    3.705270   -4.495370

 Total Charge           Charge          ....    0
 Multiplicity           Mult            ....    1
 Number of Electrons    NEL             ....   40
 Basis Dimension        Dim             ....  115

ORBITAL ENERGIES
----------------

  NO   OCC          E(Eh)            E(eV)
   0   2.0000     -14.182262      -385.9190
   1   2.0000     -10.099055      -274.8093
   2   2.0000     -10.080488      -274.3040
   3   2.0000     -10.069862      -274.0149
   4   2.0000     -10.010926      -272.4112
   5   2.0000      -1.020723       -27.7753
   6   2.0000      -0.876134       -23.8408
   7   2.0000      -0.807528       -21.9740
   8   2.0000      -0.734087       -19.9755
   9   2.0000      -0.665977       -18.1221
  10   2.0000      -0.626225       -17.0404
  11   2.0000      -0.579389       -15.7660
  12   2.0000      -0.537836       -14.6353
  13   2.0000      -0.518819       -14.1178
  14   2.0000      -0.488269       -13.2865
  15   2.0000      -0.476407       -12.9637
  16   2.0000      -0.446660       -12.1542
  17   2.0000      -0.428637       -11.6638
  18   2.0000      -0.426276       -11.5996
  19   2.0000      -0.272798        -7.4232
  20   0.0000       0.117432         3.1955
  21   0.0000       0.146536         3.9874
  22   0.0000       0.168767         4.5924
  23   0.0000       0.176549         4.8041
  24   0.0000       0.191086         5.1997

MULLIKEN ATOMIC CHARGES
-----------------------
   0 C :    0.036436
   1 C :    0.041649
   2 C :   -0.159905
   3 C :   -0.042385
   4 N :    0.008130
   5 H :    0.102429
   6 H :    0.111689
   7 H :   -0.050344
   8 H :   -0.068963
   9 H :    0.010669
  10 H :   -0.009730
  11 H :   -0.004724
  12 H :    0.012371
  13 H :    0.012678
Sum of atomic charges:   -0.0000000

LOEWDIN ATOMIC CHARGES
----------------------
   0 C :   -0.036797
   1 C :   -0.057527
   2 C :    0.000950
   3 C :   -0.191653
   4 N :    0.006022
   5 H :    0.073121
   6 H :    0.080894
   7 H :    0.000919
   8 H :   -0.008439
   9 H :    0.038104
  10 H :    0.021172
  11 H :    0.019274
  12 H :    0.025523
  13 H :    0.028436

  Mayer bond orders larger than 0.100000
B(  0-C ,  1-C ) :   1.0997 B(  0-C ,  2-C ) :   1.0359 B(  0-C ,  9-H ) :   0.9316
B(  0-C , 10-H ) :   0.9276 B(  1-C , 11-H ) :   0.9677 B(  1-C , 12-H ) :   0.9677
B(  1-C , 13-H ) :   0.9676 B(  2-C ,  3-C ) :   1.8756 B(  2-C ,  4-N ) :   1.2978
B(  3-C ,  7-H ) :   0.9318 B(  3-C ,  8-H ) :   0.9437 B(  4-N ,  5-H ) :   0.9465
B(  4-N ,  6-H ) :   0.9460

FINAL SINGLE POINT ENERGY      -211.790469409777

DIPOLE MOMENT
-------------
                                X             Y             Z
Electronic contribution:     -0.68250      -1.24038      -2.60659
Nuclear contribution   :      1.14741       0.51394       2.60761
                        -----------------------------------------
Total Dipole Moment    :      0.46492      -0.72644       0.00102
                        -----------------------------------------
Magnitude (a.u.)       :      0.86248
Magnitude (Debye)      :      2.19224

Rotational constants in cm-1:     0.269157     0.129188     0.102123
Rotational constants in MHz :  8069.118715  3872.945231  3061.580645

                             ****ORCA TERMINATED NORMALLY****
TOTAL RUN TIME: 0 days 0 hours 0 minutes 15 seconds 644 msec
