                         Program Version 5.0.0 -  RELEASE  -
|  1> !LC-BLYP RIJCOSX def2-SVP def2/J TightSCF
|  2> *xyz 0 1
|  3> C          0.84888        2.66797       -4.30235
|  4> C          2.09343        1.86104       -4.65684
|  5> H          2.44481        2.04157       -5.67499
|  6> H          2.90175        2.13786       -3.98034
|  7> S          1.87964        0.07859       -4.46297
|  8> O          3.20757       -0.46611       -4.42026
|  9> F          1.07506       -0.05616       -3.26876
| 10> O          1.13166       -0.31996       -5.67903
| 11> H          0.05064        2.40112       -4.96303
| 12> H          1.06043        3.71210       -4.40203
| 13> H          0.56237        2.45684       -3.29327
| 14> *
| 15>
| 16> %MaxCore 64000
| 17>
| 18> %pal nprocs 4
| 19> end
| 20>
| 21> %scf
| 22>   MaxIter 150
| 23> end
| 24>
| 25>
| 26>                          ****END OF INPUT****

CARTESIAN COORDINATES (ANGSTROEM)
---------------------------------
  C      0.848880    2.667970   -4.302350
  C      2.093430    1.861040   -4.656840
  H      2.444810    2.041570   -5.674990
  H      2.901750    2.137860   -3.980340
  S      1.879640    0.078590   -4.462970
  O      3.207570   -0.466110   -4.420260
  F      1.075060   -0.056160   -3.268760
  O      1.131660   -0.319960   -5.679030
  H      0.050640    2.401120   -4.963030
  H      1.060430    3.712100   -4.402030
  H      0.562370    2.456840   -3.293270

 Total Charge           Charge          ....    0
 Multiplicity           Mult            ....    1
 Number of Electrons    NEL             ....   58
 Basis Dimension        Dim             ....  113

ORBITAL ENERGIES
----------------

  NO   OCC          E(Eh)            E(eV)
   0   2.0000     -88.535767     -2409.1807
   1   2.0000     -24.572041      -668.6392
   2   2.0000     -18.950735      -515.6757
   3   2.0000     -18.933059      -515.1947
   4   2.0000     -10.137340      -275.8510
   5   2.0000     -10.106685      -275.0169
   6   2.0000      -8.094337      -220.2581
   7   2.0000      -6.132709      -166.8795
   8   2.0000      -6.125584      -166.6856
   9   2.0000      -6.124425      -166.6541
  10   2.0000      -1.443290       -39.2739
  11   2.0000      -1.191677       -32.4272
  12   2.0000      -1.082071       -29.4447
  13   2.0000      -0.926143       -25.2016
  14   2.0000      -0.823599       -22.4113
  15   2.0000      -0.776904       -21.1406
  16   2.0000      -0.696456       -18.9515
  17   2.0000      -0.676534       -18.4094
  18   2.0000      -0.634467       -17.2647
  19   2.0000      -0.595331       -16.1998
  20   2.0000      -0.570325       -15.5193
  21   2.0000      -0.546184       -14.8624
  22   2.0000      -0.525638       -14.3033
  23   2.0000      -0.508494       -13.8368
  24   2.0000      -0.489753       -13.3268
  25   2.0000      -0.473038       -12.8720
  26   2.0000      -0.418689       -11.3931
  27   2.0000      -0.402757       -10.9596
  28   2.0000      -0.389779       -10.6064
  29   0.0000       0.104343         2.8393
  30   0.0000       0.143453         3.9035
  31   0.0000       0.161429         4.3927
  32   0.0000       0.167808         4.5663
  33   0.0000       0.175867         4.7856

MULLIKEN ATOMIC CHARGES
-----------------------
   0 C :   -0.003162
   1 C :   -0.133757
   2 H :    0.091338
   3 H :    0.060502
   4 S :    0.828359
   5 O :   -0.378832
   6 F :   -0.138456
   7 O :   -0.436519
   8 H :    0.045459
   9 H :    0.039680
  10 H :    0.025386
Sum of atomic charges:    0.0000000

LOEWDIN ATOMIC CHARGES
----------------------
   0 C :   -0.078331
   1 C :   -0.160549
   2 H :    0.055402
   3 H :    0.036708
   4 S :    1.122891
   5 O :   -0.459999
   6 F :   -0.105854
   7 O :   -0.514354
   8 H :    0.035852
   9 H :    0.041024
  10 H :    0.027209

  Mayer bond orders larger than 0.100000
B(  0-C ,  1-C ) :   1.0593 B(  0-C ,  8-H ) :   0.9697 B(  0-C ,  9-H ) :   0.9608
B(  0-C , 10-H ) :   0.9714 B(  1-C ,  2-H ) :   0.9387 B(  1-C ,  3-H ) :   0.9367
B(  1-C ,  4-S ) :   0.9312 B(  4-S ,  5-O ) :   1.8311 B(  4-S ,  6-F ) :   1.0519
B(  4-S ,  7-O ) :   1.7744

FINAL SINGLE POINT ENERGY      -726.364319686441

DIPOLE MOMENT
-------------
                                X             Y             Z
Electronic contribution:      0.57432      -8.69793       2.04919
Nuclear contribution   :     -0.86540      10.11467      -1.24082
                        -----------------------------------------
Total Dipole Moment    :     -0.29108       1.41675       0.80837
                        -----------------------------------------
Magnitude (a.u.)       :      1.65691
Magnitude (Debye)      :      4.21154

Rotational constants in cm-1:     0.154065     0.083345     0.080357
Rotational constants in MHz :  4618.752213  2498.631937  2409.037217

                             ****ORCA TERMINATED NORMALLY****
TOTAL RUN TIME: 0 days 0 hours 0 minutes 16 seconds 63 msec
