                         Program Version 5.0.0 -  RELEASE  -
|  1> !LC-BLYP RIJCOSX def2-SVP def2/J TightSCF
|  2> *xyz 0 1
|  3> C         -0.46129        2.23469       -4.98962
|  4> C          0.84888        2.66797       -4.30235
|  5> C         -0.42384        2.39877       -6.47432
|  6> N         -0.95947        3.49265       -7.00740
|  7> C          0.14558        1.48689       -7.20399
|  8> H          0.56537        0.69681       -6.72386
|  9> H          0.22068        1.58177       -8.20752
| 10> H         -1.40624        4.18151       -6.40326
| 11> H         -0.93421        3.68160       -7.99947
| 12> H         -1.28888        2.82674       -4.59500
| 13> H         -0.65170        1.18634       -4.75655
| 14> H          1.66208        2.08894       -4.68750
| 15> H          0.76716        2.51042       -3.24717
| 16> H          1.02677        3.70527       -4.49537
| 17> *
| 18>
| 19> %MaxCore 64000
| 20>
| 21> %pal nprocs 4
| 22> end
| 23>
| 24> %scf
| 25>   MaxIter 150
| 26> end
| 27>
| 28>
| 29>                          ****END OF INPUT****

CARTESIAN COORDINATES (ANGSTROEM)
---------------------------------
  C     -0.461290    2.234690   -4.989620
  C      0.848880    2.667970   -4.302350
  C     -0.423840    2.398770   -6.474320
  N     -0.959470    3.492650   -7.007400
  C      0.145580    1.486890   -7.203990
  H      0.565370    0.696810   -6.723860
  H      0.220680    1.581770   -8.207520
  H     -1.406240    4.181510   -6.403260
  H     -0.934210    3.681600   -7.999470
  H     -1.288880    2.826740   -4.595000
  H     -0.651700    1.186340   -4.756550
  H      1.662080    2.088940   -4.687500
  H      0.767160    2.510420   -3.247170
  H      1.026770    3.705270   -4.495370

 Total Charge           Charge          ....    0
 Multiplicity           Mult            ....    1
 Number of Electrons    NEL             ....   40
 Basis Dimension        Dim             ....  115

ORBITAL ENERGIES
----------------

  NO   OCC          E(Eh)            E(eV)
   0   2.0000     -14.177969      -385.8021
   1   2.0000     -10.096859      -274.7495
   2   2.0000     -10.080215      -274.2966
   3   2.0000     -10.068228      -273.9704
   4   2.0000     -10.010389      -272.3965
   5   2.0000      -1.008420       -27.4405
   6   2.0000      -0.877086       -23.8667
   7   2.0000      -0.811030       -22.0692
   8   2.0000      -0.735163       -20.0048
   9   2.0000      -0.660124       -17.9629
  10   2.0000      -0.616395       -16.7730
  11   2.0000      -0.581337       -15.8190
  12   2.0000      -0.539614       -14.6836
  13   2.0000      -0.513106       -13.9623
  14   2.0000      -0.488384       -13.2896
  15   2.0000      -0.478312       -13.0155
  16   2.0000      -0.443884       -12.0787
  17   2.0000      -0.430442       -11.7129
  18   2.0000      -0.423369       -11.5205
  19   2.0000      -0.277126        -7.5410
  20   0.0000       0.120122         3.2687
  21   0.0000       0.146906         3.9975
  22   0.0000       0.170200         4.6314
  23   0.0000       0.174192         4.7400
  24   0.0000       0.194129         5.2825

MULLIKEN ATOMIC CHARGES
-----------------------
   0 C :    0.038184
   1 C :    0.040373
   2 C :   -0.127400
   3 N :   -0.040335
   4 C :   -0.023627
   5 H :   -0.052243
   6 H :   -0.067679
   7 H :    0.102451
   8 H :    0.106620
   9 H :   -0.018255
  10 H :    0.016809
  11 H :    0.012451
  12 H :    0.010141
  13 H :    0.002512
Sum of atomic charges:   -0.0000000

LOEWDIN ATOMIC CHARGES
----------------------
   0 C :   -0.036998
   1 C :   -0.055129
   2 C :    0.006584
   3 N :   -0.014283
   4 C :   -0.177336
   5 H :    0.002353
   6 H :   -0.004774
   7 H :    0.071512
   8 H :    0.075814
   9 H :    0.019976
  10 H :    0.037797
  11 H :    0.027194
  12 H :    0.024233
  13 H :    0.023057

  Mayer bond orders larger than 0.100000
B(  0-C ,  1-C ) :   1.1049 B(  0-C ,  2-C ) :   1.0228 B(  0-C ,  9-H ) :   0.9279
B(  0-C , 10-H ) :   0.9342 B(  1-C , 11-H ) :   0.9703 B(  1-C , 12-H ) :   0.9676
B(  1-C , 13-H ) :   0.9666 B(  2-C ,  3-N ) :   1.2642 B(  2-C ,  4-C ) :   1.9135
B(  3-N ,  7-H ) :   0.9501 B(  3-N ,  8-H ) :   0.9513 B(  4-C ,  5-H ) :   0.9232
B(  4-C ,  6-H ) :   0.9416

FINAL SINGLE POINT ENERGY      -211.790399734869

DIPOLE MOMENT
-------------
                                X             Y             Z
Electronic contribution:     -1.74428       0.65211      -2.41665
Nuclear contribution   :      1.40335       0.04939       2.56207
                        -----------------------------------------
Total Dipole Moment    :     -0.34093       0.70150       0.14543
                        -----------------------------------------
Magnitude (a.u.)       :      0.79340
Magnitude (Debye)      :      2.01666

Rotational constants in cm-1:     0.271383     0.128194     0.101873
Rotational constants in MHz :  8135.853259  3843.152748  3054.074278

                             ****ORCA TERMINATED NORMALLY****
TOTAL RUN TIME: 0 days 0 hours 0 minutes 10 seconds 159 msec
