                         Program Version 5.0.0 -  RELEASE  -
|  1> !LC-BLYP RIJCOSX def2-SVP def2/J TightSCF
|  2> *xyz 0 1
|  3> C          0.84888        2.66797       -4.30235
|  4> C          2.09343        1.86104       -4.65684
|  5> H          2.44481        2.04157       -5.67499
|  6> H          2.90175        2.13786       -3.98034
|  7> S          1.87964        0.07859       -4.46297
|  8> O          3.20757       -0.46611       -4.42026
|  9> O          1.07506       -0.05616       -3.26876
| 10> F          1.13166       -0.31996       -5.67903
| 11> H          0.05064        2.40112       -4.96303
| 12> H          1.06043        3.71210       -4.40203
| 13> H          0.56237        2.45684       -3.29327
| 14> *
| 15>
| 16> %MaxCore 64000
| 17>
| 18> %pal nprocs 4
| 19> end
| 20>
| 21> %scf
| 22>   MaxIter 150
| 23> end
| 24>
| 25>
| 26>                          ****END OF INPUT****

CARTESIAN COORDINATES (ANGSTROEM)
---------------------------------
  C      0.848880    2.667970   -4.302350
  C      2.093430    1.861040   -4.656840
  H      2.444810    2.041570   -5.674990
  H      2.901750    2.137860   -3.980340
  S      1.879640    0.078590   -4.462970
  O      3.207570   -0.466110   -4.420260
  O      1.075060   -0.056160   -3.268760
  F      1.131660   -0.319960   -5.679030
  H      0.050640    2.401120   -4.963030
  H      1.060430    3.712100   -4.402030
  H      0.562370    2.456840   -3.293270

 Total Charge           Charge          ....    0
 Multiplicity           Mult            ....    1
 Number of Electrons    NEL             ....   58
 Basis Dimension        Dim             ....  113

ORBITAL ENERGIES
----------------

  NO   OCC          E(Eh)            E(eV)
   0   2.0000     -88.535246     -2409.1665
   1   2.0000     -24.552548      -668.1088
   2   2.0000     -18.951063      -515.6846
   3   2.0000     -18.948453      -515.6136
   4   2.0000     -10.136657      -275.8325
   5   2.0000     -10.100690      -274.8538
   6   2.0000      -8.093638      -220.2391
   7   2.0000      -6.131723      -166.8527
   8   2.0000      -6.125179      -166.6746
   9   2.0000      -6.123954      -166.6413
  10   2.0000      -1.412377       -38.4327
  11   2.0000      -1.200259       -32.6607
  12   2.0000      -1.102671       -30.0052
  13   2.0000      -0.922121       -25.0922
  14   2.0000      -0.814428       -22.1617
  15   2.0000      -0.766779       -20.8651
  16   2.0000      -0.677815       -18.4443
  17   2.0000      -0.654377       -17.8065
  18   2.0000      -0.636952       -17.3323
  19   2.0000      -0.592843       -16.1321
  20   2.0000      -0.574068       -15.6212
  21   2.0000      -0.545924       -14.8553
  22   2.0000      -0.524522       -14.2730
  23   2.0000      -0.499577       -13.5942
  24   2.0000      -0.495210       -13.4753
  25   2.0000      -0.473083       -12.8732
  26   2.0000      -0.425818       -11.5871
  27   2.0000      -0.415924       -11.3179
  28   2.0000      -0.404905       -11.0180
  29   0.0000       0.109841         2.9889
  30   0.0000       0.139863         3.8059
  31   0.0000       0.163373         4.4456
  32   0.0000       0.170044         4.6271
  33   0.0000       0.173017         4.7080

MULLIKEN ATOMIC CHARGES
-----------------------
   0 C :    0.008760
   1 C :   -0.143693
   2 H :    0.061419
   3 H :    0.083265
   4 S :    0.837728
   5 O :   -0.384114
   6 O :   -0.399174
   7 F :   -0.175243
   8 H :    0.026330
   9 H :    0.032626
  10 H :    0.052098
Sum of atomic charges:    0.0000000

LOEWDIN ATOMIC CHARGES
----------------------
   0 C :   -0.074406
   1 C :   -0.165620
   2 H :    0.036735
   3 H :    0.052016
   4 S :    1.127922
   5 O :   -0.463839
   6 O :   -0.473199
   7 F :   -0.145453
   8 H :    0.030018
   9 H :    0.038060
  10 H :    0.037766

  Mayer bond orders larger than 0.100000
B(  0-C ,  1-C ) :   1.0631 B(  0-C ,  8-H ) :   0.9731 B(  0-C ,  9-H ) :   0.9595
B(  0-C , 10-H ) :   0.9651 B(  1-C ,  2-H ) :   0.9377 B(  1-C ,  3-H ) :   0.9382
B(  1-C ,  4-S ) :   0.9227 B(  4-S ,  5-O ) :   1.8362 B(  4-S ,  6-O ) :   1.8122
B(  4-S ,  7-F ) :   1.0168

FINAL SINGLE POINT ENERGY      -726.381544439246

DIPOLE MOMENT
-------------
                                X             Y             Z
Electronic contribution:      0.66574      -9.17788      -2.05115
Nuclear contribution   :     -0.92438      10.38956       1.27076
                        -----------------------------------------
Total Dipole Moment    :     -0.25864       1.21168      -0.78039
                        -----------------------------------------
Magnitude (a.u.)       :      1.46427
Magnitude (Debye)      :      3.72187

Rotational constants in cm-1:     0.154243     0.082247     0.080562
Rotational constants in MHz :  4624.087322  2465.703680  2415.175852

                             ****ORCA TERMINATED NORMALLY****
TOTAL RUN TIME: 0 days 0 hours 0 minutes 13 seconds 859 msec
