                         Program Version 5.0.0 -  RELEASE  -
|  1> !LC-BLYP RIJCOSX def2-TZVP def2/J TightSCF xyzfile
|  2>
|  3> *xyzfile 0 1 D2.xyz
|  4>
|  5> %MaxCore 64000
|  6>
|  7> %pal nprocs 18
|  8> end
|  9>
| 10> %scf
| 11>   MaxIter 150
| 12> end
| 13>
| 14>
| 15>                          ****END OF INPUT****

CARTESIAN COORDINATES (ANGSTROEM)
---------------------------------
  C     -0.461293    2.234686   -4.989619
  C      0.848883    2.667967   -4.302351
  C      2.093434    1.861037   -4.656845
  H      2.444814    2.041567   -5.674990
  H      2.901748    2.137864   -3.980338
  S      1.879644    0.078594   -4.462965
  C     -0.423841    2.398772   -6.474317
  N     -0.959467    3.492647   -7.007401
  C      0.145585    1.486891   -7.203987
  H      0.565371    0.696807   -6.723858
  H      0.220682    1.581768   -8.207520
  H     -1.406243    4.181507   -6.403261
  H     -0.934215    3.681601   -7.999468
  F      3.207574   -0.466111   -4.420259
  O      1.075064   -0.056160   -3.268758
  O      1.131661   -0.319960   -5.679031
  H      0.668432    2.559427   -3.232850
  H      1.034074    3.729426   -4.497081
  H     -1.288884    2.826737   -4.594997
  H     -0.651696    1.186343   -4.756552

 Total Charge           Charge          ....    0
 Multiplicity           Mult            ....    1
 Number of Electrons    NEL             ....   88
 Basis Dimension        Dim             ....  376

ORBITAL ENERGIES
----------------

  NO   OCC          E(Eh)            E(eV)
   0   2.0000     -88.520421     -2408.7631
   1   2.0000     -24.580337      -668.8650
   2   2.0000     -18.952705      -515.7293
   3   2.0000     -18.941210      -515.4165
   4   2.0000     -14.160156      -385.3174
   5   2.0000     -10.123761      -275.4815
   6   2.0000     -10.093563      -274.6598
   7   2.0000     -10.077538      -274.2237
   8   2.0000     -10.068749      -273.9846
   9   2.0000      -9.973463      -271.3917
  10   2.0000      -8.063201      -219.4109
  11   2.0000      -6.094793      -165.8478
  12   2.0000      -6.088101      -165.6656
  13   2.0000      -6.087761      -165.6564
  14   2.0000      -1.472413       -40.0664
  15   2.0000      -1.204640       -32.7799
  16   2.0000      -1.105621       -30.0855
  17   2.0000      -1.019425       -27.7400
  18   2.0000      -0.937825       -25.5195
  19   2.0000      -0.874804       -23.8046
  20   2.0000      -0.829369       -22.5683
  21   2.0000      -0.807805       -21.9815
  22   2.0000      -0.746560       -20.3149
  23   2.0000      -0.700125       -19.0514
  24   2.0000      -0.693529       -18.8719
  25   2.0000      -0.666451       -18.1350
  26   2.0000      -0.665533       -18.1101
  27   2.0000      -0.616893       -16.7865
  28   2.0000      -0.602230       -16.3875
  29   2.0000      -0.591680       -16.1004
  30   2.0000      -0.576662       -15.6918
  31   2.0000      -0.557679       -15.1752
  32   2.0000      -0.542545       -14.7634
  33   2.0000      -0.509210       -13.8563
  34   2.0000      -0.500159       -13.6100
  35   2.0000      -0.490572       -13.3491
  36   2.0000      -0.472590       -12.8598
  37   2.0000      -0.458597       -12.4791
  38   2.0000      -0.438520       -11.9327
  39   2.0000      -0.435233       -11.8433
  40   2.0000      -0.420336       -11.4379
  41   2.0000      -0.414478       -11.2785
  42   2.0000      -0.390266       -10.6197
  43   2.0000      -0.277032        -7.5384
  44   0.0000       0.085678         2.3314
  45   0.0000       0.099426         2.7055
  46   0.0000       0.111876         3.0443
  47   0.0000       0.118238         3.2174
  48   0.0000       0.138108         3.7581

MULLIKEN ATOMIC CHARGES
-----------------------
   0 C :   -0.423896
   1 C :   -0.219732
   2 C :   -0.375323
   3 H :    0.204533
   4 H :    0.169735
   5 S :    0.759998
   6 C :    0.284402
   7 N :   -0.443870
   8 C :   -0.487589
   9 H :    0.145418
  10 H :    0.096977
  11 H :    0.217263
  12 H :    0.225826
  13 F :   -0.064373
  14 O :   -0.361407
  15 O :   -0.377313
  16 H :    0.161187
  17 H :    0.146433
  18 H :    0.126911
  19 H :    0.214819
Sum of atomic charges:   -0.0000000

LOEWDIN ATOMIC CHARGES
----------------------
   0 C :   -0.225541
   1 C :   -0.276743
   2 C :   -0.377317
   3 H :    0.150310
   4 H :    0.141598
   5 S :    0.512068
   6 C :   -0.379979
   7 N :   -0.018888
   8 C :   -0.270190
   9 H :    0.092405
  10 H :    0.099122
  11 H :    0.166384
  12 H :    0.168671
  13 F :    0.120783
  14 O :   -0.249959
  15 O :   -0.256919
  16 H :    0.150598
  17 H :    0.150231
  18 H :    0.143423
  19 H :    0.159942

  Mayer bond orders larger than 0.100000
B(  0-C ,  1-C ) :   0.8874 B(  0-C ,  6-C ) :   0.8503 B(  0-C , 18-H ) :   0.9966
B(  0-C , 19-H ) :   1.0048 B(  1-C ,  2-C ) :   0.9240 B(  1-C , 16-H ) :   0.9776
B(  1-C , 17-H ) :   0.9553 B(  2-C ,  3-H ) :   0.9294 B(  2-C ,  4-H ) :   0.9464
B(  2-C ,  5-S ) :   0.9414 B(  5-S , 13-F ) :   1.1990 B(  5-S , 14-O ) :   1.9439
B(  5-S , 15-O ) :   1.8304 B(  6-C ,  7-N ) :   1.1059 B(  6-C ,  8-C ) :   1.7083
B(  7-N , 11-H ) :   0.9338 B(  7-N , 12-H ) :   0.9319 B(  8-C ,  9-H ) :   0.9924
B(  8-C , 10-H ) :   0.9980

FINAL SINGLE POINT ENERGY      -898.620386835023

DIPOLE MOMENT
-------------
                                X             Y             Z
Electronic contribution:      9.27893     -12.43934       5.41489
Nuclear contribution   :     -8.42493      13.96425      -5.19491
                        -----------------------------------------
Total Dipole Moment    :      0.85400       1.52491       0.21998
                        -----------------------------------------
Magnitude (a.u.)       :      1.76155
Magnitude (Debye)      :      4.47750

Rotational constants in cm-1:     0.082815     0.024151     0.022015
Rotational constants in MHz :  2482.732265   724.035221   660.002136

                             ****ORCA TERMINATED NORMALLY****
TOTAL RUN TIME: 0 days 0 hours 0 minutes 31 seconds 908 msec
