                         Program Version 5.0.0 -  RELEASE  -
|  1> !LC-BLYP RIJCOSX def2-TZVP def2/J TightSCF xyzfile
|  2>
|  3> *xyzfile 0 1 D3.xyz
|  4>
|  5> %MaxCore 64000
|  6>
|  7> %pal nprocs 18
|  8> end
|  9>
| 10> %scf
| 11>   MaxIter 150
| 12> end
| 13>
| 14>
| 15>                          ****END OF INPUT****

CARTESIAN COORDINATES (ANGSTROEM)
---------------------------------
  C     -0.461293    2.234686   -4.989619
  C      0.848883    2.667967   -4.302351
  C      2.093434    1.861037   -4.656845
  H      2.444814    2.041567   -5.674990
  H      2.901748    2.137864   -3.980338
  S      1.879644    0.078594   -4.462965
  C     -0.423841    2.398772   -6.474317
  C     -0.959467    3.492647   -7.007401
  N      0.145585    1.486891   -7.203987
  H      0.565371    0.696807   -6.723858
  H      0.220682    1.581768   -8.207520
  H     -1.406243    4.181507   -6.403261
  H     -0.934215    3.681601   -7.999468
  O      3.207574   -0.466111   -4.420259
  F      1.075064   -0.056160   -3.268758
  O      1.131661   -0.319960   -5.679031
  H      0.668432    2.559427   -3.232850
  H      1.034074    3.729426   -4.497081
  H     -1.288884    2.826737   -4.594997
  H     -0.651696    1.186343   -4.756552

 Total Charge           Charge          ....    0
 Multiplicity           Mult            ....    1
 Number of Electrons    NEL             ....   88
 Basis Dimension        Dim             ....  376

ORBITAL ENERGIES
----------------

  NO   OCC          E(Eh)            E(eV)
   0   2.0000     -88.537597     -2409.2305
   1   2.0000     -24.590050      -669.1293
   2   2.0000     -18.971145      -516.2311
   3   2.0000     -18.963465      -516.0221
   4   2.0000     -14.144127      -384.8813
   5   2.0000     -10.134612      -275.7768
   6   2.0000     -10.102377      -274.8996
   7   2.0000     -10.088014      -274.5088
   8   2.0000     -10.079994      -274.2906
   9   2.0000      -9.995233      -271.9841
  10   2.0000      -8.080282      -219.8757
  11   2.0000      -6.112054      -166.3174
  12   2.0000      -6.105370      -166.1356
  13   2.0000      -6.104529      -166.1127
  14   2.0000      -1.479162       -40.2500
  15   2.0000      -1.224752       -33.3272
  16   2.0000      -1.128821       -30.7168
  17   2.0000      -1.025435       -27.9035
  18   2.0000      -0.951414       -25.8893
  19   2.0000      -0.877284       -23.8721
  20   2.0000      -0.843205       -22.9448
  21   2.0000      -0.805918       -21.9301
  22   2.0000      -0.757055       -20.6005
  23   2.0000      -0.715316       -19.4647
  24   2.0000      -0.710187       -19.3252
  25   2.0000      -0.679140       -18.4803
  26   2.0000      -0.668045       -18.1784
  27   2.0000      -0.625717       -17.0266
  28   2.0000      -0.608421       -16.5560
  29   2.0000      -0.599240       -16.3061
  30   2.0000      -0.578870       -15.7519
  31   2.0000      -0.563057       -15.3216
  32   2.0000      -0.555883       -15.1263
  33   2.0000      -0.526302       -14.3214
  34   2.0000      -0.508622       -13.8403
  35   2.0000      -0.502085       -13.6624
  36   2.0000      -0.483653       -13.1609
  37   2.0000      -0.478884       -13.0311
  38   2.0000      -0.448413       -12.2019
  39   2.0000      -0.445600       -12.1254
  40   2.0000      -0.438934       -11.9440
  41   2.0000      -0.430013       -11.7012
  42   2.0000      -0.419862       -11.4250
  43   2.0000      -0.275398        -7.4940
  44   0.0000       0.072565         1.9746
  45   0.0000       0.102349         2.7851
  46   0.0000       0.111422         3.0320
  47   0.0000       0.118751         3.2314
  48   0.0000       0.123165         3.3515

MULLIKEN ATOMIC CHARGES
-----------------------
   0 C :   -0.419452
   1 C :   -0.250512
   2 C :   -0.368502
   3 H :    0.209130
   4 H :    0.184677
   5 S :    0.786275
   6 C :    0.236895
   7 C :   -0.468304
   8 N :   -0.397901
   9 H :    0.257558
  10 H :    0.215992
  11 H :    0.093287
  12 H :    0.105452
  13 O :   -0.344376
  14 F :   -0.063687
  15 O :   -0.419665
  16 H :    0.154536
  17 H :    0.159008
  18 H :    0.154677
  19 H :    0.174911
Sum of atomic charges:    0.0000000

LOEWDIN ATOMIC CHARGES
----------------------
   0 C :   -0.229872
   1 C :   -0.287535
   2 C :   -0.369745
   3 H :    0.157716
   4 H :    0.148378
   5 S :    0.525809
   6 C :   -0.380233
   7 C :   -0.299085
   8 N :    0.014044
   9 H :    0.136464
  10 H :    0.171096
  11 H :    0.105790
  12 H :    0.098118
  13 O :   -0.233147
  14 F :    0.120132
  15 O :   -0.275624
  16 H :    0.143362
  17 H :    0.155042
  18 H :    0.158139
  19 H :    0.141153

  Mayer bond orders larger than 0.100000
B(  0-C ,  1-C ) :   0.8656 B(  0-C ,  6-C ) :   0.8513 B(  0-C , 18-H ) :   0.9894
B(  0-C , 19-H ) :   1.0159 B(  1-C ,  2-C ) :   0.9076 B(  1-C , 16-H ) :   0.9838
B(  1-C , 17-H ) :   0.9541 B(  2-C ,  3-H ) :   0.9262 B(  2-C ,  4-H ) :   0.9509
B(  2-C ,  5-S ) :   0.9381 B(  5-S , 13-O ) :   2.0418 B(  5-S , 14-F ) :   1.1741
B(  5-S , 15-O ) :   1.7589 B(  6-C ,  7-C ) :   1.6975 B(  6-C ,  8-N ) :   1.2204
B(  7-C , 11-H ) :   0.9992 B(  7-C , 12-H ) :   1.0007 B(  8-N ,  9-H ) :   0.8563
B(  8-N , 10-H ) :   0.9320 B(  9-H , 15-O ) :   0.1160

FINAL SINGLE POINT ENERGY      -898.644134732112

DIPOLE MOMENT
-------------
                                X             Y             Z
Electronic contribution:      6.48935     -13.16875       7.39810
Nuclear contribution   :     -6.19944      13.70770      -6.43483
                        -----------------------------------------
Total Dipole Moment    :      0.28991       0.53894       0.96327
                        -----------------------------------------
Magnitude (a.u.)       :      1.14122
Magnitude (Debye)      :      2.90075

Rotational constants in cm-1:     0.079903     0.025241     0.022805
Rotational constants in MHz :  2395.439281   756.708181   683.680583

                             ****ORCA TERMINATED NORMALLY****
TOTAL RUN TIME: 0 days 0 hours 0 minutes 28 seconds 191 msec
