                         Program Version 5.0.0 -  RELEASE  -
|  1> !LC-BLYP RIJCOSX def2-TZVP def2/J TightSCF xyzfile
|  2>
|  3> *xyzfile 0 1 D4.xyz
|  4>
|  5> %MaxCore 64000
|  6>
|  7> %pal nprocs 18
|  8> end
|  9>
| 10> %scf
| 11>   MaxIter 150
| 12> end
| 13>
| 14>
| 15>                          ****END OF INPUT****

CARTESIAN COORDINATES (ANGSTROEM)
---------------------------------
  C     -0.461293    2.234686   -4.989619
  C      0.848883    2.667967   -4.302351
  C      2.093434    1.861037   -4.656845
  H      2.444814    2.041567   -5.674990
  H      2.901748    2.137864   -3.980338
  S      1.879644    0.078594   -4.462965
  C     -0.423841    2.398772   -6.474317
  N     -0.959467    3.492647   -7.007401
  C      0.145585    1.486891   -7.203987
  H      0.565371    0.696807   -6.723858
  H      0.220682    1.581768   -8.207520
  H     -1.406243    4.181507   -6.403261
  H     -0.934215    3.681601   -7.999468
  O      3.207574   -0.466111   -4.420259
  F      1.075064   -0.056160   -3.268758
  O      1.131661   -0.319960   -5.679031
  H      0.668432    2.559427   -3.232850
  H      1.034074    3.729426   -4.497081
  H     -1.288884    2.826737   -4.594997
  H     -0.651696    1.186343   -4.756552

 Total Charge           Charge          ....    0
 Multiplicity           Mult            ....    1
 Number of Electrons    NEL             ....   88
 Basis Dimension        Dim             ....  376

ORBITAL ENERGIES
----------------

  NO   OCC          E(Eh)            E(eV)
   0   2.0000     -88.519231     -2408.7307
   1   2.0000     -24.575531      -668.7342
   2   2.0000     -18.954690      -515.7833
   3   2.0000     -18.940011      -515.3839
   4   2.0000     -14.164133      -385.4257
   5   2.0000     -10.123384      -275.4713
   6   2.0000     -10.099703      -274.8269
   7   2.0000     -10.082554      -274.3602
   8   2.0000     -10.079660      -274.2815
   9   2.0000      -9.977374      -271.4981
  10   2.0000      -8.062002      -219.3782
  11   2.0000      -6.093930      -165.8243
  12   2.0000      -6.086762      -165.6292
  13   2.0000      -6.086404      -165.6195
  14   2.0000      -1.464762       -39.8582
  15   2.0000      -1.206553       -32.8320
  16   2.0000      -1.108123       -30.1536
  17   2.0000      -1.024056       -27.8660
  18   2.0000      -0.944765       -25.7083
  19   2.0000      -0.874712       -23.8021
  20   2.0000      -0.828295       -22.5391
  21   2.0000      -0.812130       -22.0992
  22   2.0000      -0.748659       -20.3720
  23   2.0000      -0.705945       -19.2097
  24   2.0000      -0.694419       -18.8961
  25   2.0000      -0.671994       -18.2859
  26   2.0000      -0.657188       -17.8830
  27   2.0000      -0.620089       -16.8735
  28   2.0000      -0.603191       -16.4137
  29   2.0000      -0.585528       -15.9330
  30   2.0000      -0.581388       -15.8204
  31   2.0000      -0.563287       -15.3278
  32   2.0000      -0.545368       -14.8402
  33   2.0000      -0.515959       -14.0400
  34   2.0000      -0.504679       -13.7330
  35   2.0000      -0.496801       -13.5186
  36   2.0000      -0.478855       -13.0303
  37   2.0000      -0.472736       -12.8638
  38   2.0000      -0.441797       -12.0219
  39   2.0000      -0.434002       -11.8098
  40   2.0000      -0.424744       -11.5579
  41   2.0000      -0.420880       -11.4527
  42   2.0000      -0.387623       -10.5477
  43   2.0000      -0.281097        -7.6490
  44   0.0000       0.077406         2.1063
  45   0.0000       0.099023         2.6946
  46   0.0000       0.111830         3.0430
  47   0.0000       0.117065         3.1855
  48   0.0000       0.131674         3.5830

MULLIKEN ATOMIC CHARGES
-----------------------
   0 C :   -0.418884
   1 C :   -0.249066
   2 C :   -0.367022
   3 H :    0.215841
   4 H :    0.179915
   5 S :    0.760479
   6 C :    0.290706
   7 N :   -0.445892
   8 C :   -0.488548
   9 H :    0.154250
  10 H :    0.100460
  11 H :    0.216601
  12 H :    0.227983
  13 O :   -0.353696
  14 F :   -0.070519
  15 O :   -0.379891
  16 H :    0.155596
  17 H :    0.148893
  18 H :    0.130619
  19 H :    0.192174
Sum of atomic charges:   -0.0000000

LOEWDIN ATOMIC CHARGES
----------------------
   0 C :   -0.231145
   1 C :   -0.288854
   2 C :   -0.368760
   3 H :    0.159334
   4 H :    0.146092
   5 S :    0.514429
   6 C :   -0.381208
   7 N :   -0.018915
   8 C :   -0.262998
   9 H :    0.092916
  10 H :    0.100398
  11 H :    0.166297
  12 H :    0.169783
  13 O :   -0.242127
  14 F :    0.113032
  15 O :   -0.257460
  16 H :    0.143088
  17 H :    0.150650
  18 H :    0.143796
  19 H :    0.151653

  Mayer bond orders larger than 0.100000
B(  0-C ,  1-C ) :   0.8623 B(  0-C ,  6-C ) :   0.8416 B(  0-C , 18-H ) :   0.9961
B(  0-C , 19-H ) :   1.0166 B(  1-C ,  2-C ) :   0.9079 B(  1-C , 16-H ) :   0.9896
B(  1-C , 17-H ) :   0.9550 B(  2-C ,  3-H ) :   0.9304 B(  2-C ,  4-H ) :   0.9547
B(  2-C ,  5-S ) :   0.9363 B(  5-S , 13-O ) :   2.0332 B(  5-S , 14-F ) :   1.1589
B(  5-S , 15-O ) :   1.8154 B(  6-C ,  7-N ) :   1.1073 B(  6-C ,  8-C ) :   1.7149
B(  7-N , 11-H ) :   0.9336 B(  7-N , 12-H ) :   0.9314 B(  8-C ,  9-H ) :   0.9953
B(  8-C , 10-H ) :   0.9985

FINAL SINGLE POINT ENERGY      -898.623559157465

DIPOLE MOMENT
-------------
                                X             Y             Z
Electronic contribution:      5.55621     -11.67295       7.34558
Nuclear contribution   :     -6.09390      13.51614      -6.45360
                        -----------------------------------------
Total Dipole Moment    :     -0.53769       1.84319       0.89197
                        -----------------------------------------
Magnitude (a.u.)       :      2.11709
Magnitude (Debye)      :      5.38122

Rotational constants in cm-1:     0.081469     0.024519     0.022336
Rotational constants in MHz :  2442.393231   735.066768   669.628729

                             ****ORCA TERMINATED NORMALLY****
TOTAL RUN TIME: 0 days 0 hours 0 minutes 35 seconds 768 msec
