                         Program Version 5.0.0 -  RELEASE  -
|  1> !LC-BLYP RIJCOSX def2-TZVP def2/J TightSCF xyzfile
|  2>
|  3> *xyzfile 0 1 D5.xyz
|  4>
|  5> %MaxCore 64000
|  6>
|  7> %pal nprocs 18
|  8> end
|  9>
| 10> %scf
| 11>   MaxIter 150
| 12> end
| 13>
| 14>
| 15>                          ****END OF INPUT****

CARTESIAN COORDINATES (ANGSTROEM)
---------------------------------
  C     -0.461293    2.234686   -4.989619
  C      0.848883    2.667967   -4.302351
  C      2.093434    1.861037   -4.656845
  H      2.444814    2.041567   -5.674990
  H      2.901748    2.137864   -3.980338
  S      1.879644    0.078594   -4.462965
  C     -0.423841    2.398772   -6.474317
  C     -0.959467    3.492647   -7.007401
  N      0.145585    1.486891   -7.203987
  H      0.565371    0.696807   -6.723858
  H      0.220682    1.581768   -8.207520
  H     -1.406243    4.181507   -6.403261
  H     -0.934215    3.681601   -7.999468
  O      3.207574   -0.466111   -4.420259
  O      1.075064   -0.056160   -3.268758
  F      1.131661   -0.319960   -5.679031
  H      0.668432    2.559427   -3.232850
  H      1.034074    3.729426   -4.497081
  H     -1.288884    2.826737   -4.594997
  H     -0.651696    1.186343   -4.756552

 Total Charge           Charge          ....    0
 Multiplicity           Mult            ....    1
 Number of Electrons    NEL             ....   88
 Basis Dimension        Dim             ....  376

ORBITAL ENERGIES
----------------

  NO   OCC          E(Eh)            E(eV)
   0   2.0000     -88.528218     -2408.9753
   1   2.0000     -24.581430      -668.8947
   2   2.0000     -18.965980      -516.0905
   3   2.0000     -18.962295      -515.9903
   4   2.0000     -14.172695      -385.6586
   5   2.0000     -10.131565      -275.6939
   6   2.0000     -10.099888      -274.8319
   7   2.0000     -10.097104      -274.7562
   8   2.0000     -10.083202      -274.3779
   9   2.0000     -10.007900      -272.3288
  10   2.0000      -8.071328      -219.6320
  11   2.0000      -6.103556      -166.0862
  12   2.0000      -6.095986      -165.8802
  13   2.0000      -6.095456      -165.8658
  14   2.0000      -1.463081       -39.8125
  15   2.0000      -1.225408       -33.3451
  16   2.0000      -1.131095       -30.7787
  17   2.0000      -1.048138       -28.5213
  18   2.0000      -0.947539       -25.7838
  19   2.0000      -0.880470       -23.9588
  20   2.0000      -0.853971       -23.2377
  21   2.0000      -0.807283       -21.9673
  22   2.0000      -0.767668       -20.8893
  23   2.0000      -0.712251       -19.3813
  24   2.0000      -0.696660       -18.9571
  25   2.0000      -0.679482       -18.4897
  26   2.0000      -0.661620       -18.0036
  27   2.0000      -0.641391       -17.4531
  28   2.0000      -0.608937       -16.5700
  29   2.0000      -0.595946       -16.2165
  30   2.0000      -0.578677       -15.7466
  31   2.0000      -0.571590       -15.5538
  32   2.0000      -0.552016       -15.0211
  33   2.0000      -0.529142       -14.3987
  34   2.0000      -0.509388       -13.8611
  35   2.0000      -0.499727       -13.5983
  36   2.0000      -0.489871       -13.3301
  37   2.0000      -0.477885       -13.0039
  38   2.0000      -0.455241       -12.3877
  39   2.0000      -0.451372       -12.2825
  40   2.0000      -0.441300       -12.0084
  41   2.0000      -0.434783       -11.8310
  42   2.0000      -0.429450       -11.6859
  43   2.0000      -0.291542        -7.9333
  44   0.0000       0.077602         2.1117
  45   0.0000       0.102460         2.7881
  46   0.0000       0.105157         2.8615
  47   0.0000       0.111815         3.0426
  48   0.0000       0.123131         3.3506

MULLIKEN ATOMIC CHARGES
-----------------------
   0 C :   -0.448292
   1 C :   -0.195014
   2 C :   -0.398711
   3 H :    0.195986
   4 H :    0.193815
   5 S :    0.762722
   6 C :    0.239330
   7 C :   -0.455709
   8 N :   -0.399238
   9 H :    0.228190
  10 H :    0.227749
  11 H :    0.101044
  12 H :    0.108746
  13 O :   -0.354503
  14 O :   -0.358952
  15 F :   -0.111292
  16 H :    0.164286
  17 H :    0.153185
  18 H :    0.158257
  19 H :    0.188403
Sum of atomic charges:   -0.0000000

LOEWDIN ATOMIC CHARGES
----------------------
   0 C :   -0.227909
   1 C :   -0.281369
   2 C :   -0.375157
   3 H :    0.145123
   4 H :    0.156777
   5 S :    0.515354
   6 C :   -0.381333
   7 C :   -0.283767
   8 N :    0.006346
   9 H :    0.140031
  10 H :    0.175828
  11 H :    0.109001
  12 H :    0.099094
  13 O :   -0.239980
  14 O :   -0.244728
  15 F :    0.078447
  16 H :    0.151833
  17 H :    0.152757
  18 H :    0.160515
  19 H :    0.143138

  Mayer bond orders larger than 0.100000
B(  0-C ,  1-C ) :   0.8760 B(  0-C ,  6-C ) :   0.8533 B(  0-C , 18-H ) :   0.9896
B(  0-C , 19-H ) :   1.0091 B(  1-C ,  2-C ) :   0.9053 B(  1-C , 16-H ) :   0.9731
B(  1-C , 17-H ) :   0.9512 B(  2-C ,  3-H ) :   0.9327 B(  2-C ,  4-H ) :   0.9465
B(  2-C ,  5-S ) :   0.9293 B(  5-S , 13-O ) :   2.0336 B(  5-S , 14-O ) :   1.9437
B(  5-S , 15-F ) :   1.0469 B(  6-C ,  7-C ) :   1.7123 B(  6-C ,  8-N ) :   1.1769
B(  7-C , 11-H ) :   1.0000 B(  7-C , 12-H ) :   0.9980 B(  8-N ,  9-H ) :   0.9041
B(  8-N , 10-H ) :   0.9270

FINAL SINGLE POINT ENERGY      -898.647670999682

DIPOLE MOMENT
-------------
                                X             Y             Z
Electronic contribution:      6.43870     -13.43624       3.15404
Nuclear contribution   :     -6.26130      13.99605      -3.80018
                        -----------------------------------------
Total Dipole Moment    :      0.17740       0.55982      -0.64613
                        -----------------------------------------
Magnitude (a.u.)       :      0.87313
Magnitude (Debye)      :      2.21931

Rotational constants in cm-1:     0.079895     0.025630     0.022948
Rotational constants in MHz :  2395.188639   768.373696   687.955250

                             ****ORCA TERMINATED NORMALLY****
TOTAL RUN TIME: 0 days 0 hours 0 minutes 29 seconds 74 msec
