                         Program Version 5.0.0 -  RELEASE  -
|  1> !M062X D3Zero RIJCOSX def2-SVPD def2/J TightSCF
|  2> *xyz -1 1
|  3> C         -0.46129        2.23469       -4.98962
|  4> C          0.84888        2.66797       -4.30235
|  5> C          2.09343        1.86104       -4.65684
|  6> H          2.44481        2.04157       -5.67499
|  7> H          2.90175        2.13786       -3.98034
|  8> S          1.87964        0.07859       -4.46297
|  9> O          3.20757       -0.46611       -4.42026
| 10> O          1.07506       -0.05616       -3.26876
| 11> O          1.13166       -0.31996       -5.67903
| 12> H          0.66843        2.55943       -3.23285
| 13> H          1.03407        3.72943       -4.49708
| 14> H         -0.35183        2.31783       -6.05075
| 15> H         -1.26108        2.86600       -4.66300
| 16> H         -0.68032        1.21949       -4.73211
| 17> *
| 18>
| 19> %MaxCore 64000
| 20>
| 21> %pal nprocs 8
| 22> end
| 23>
| 24> %scf
| 25>   MaxIter 150
| 26> end
| 27>
| 28>
| 29>                          ****END OF INPUT****

CARTESIAN COORDINATES (ANGSTROEM)
---------------------------------
  C     -0.461290    2.234690   -4.989620
  C      0.848880    2.667970   -4.302350
  C      2.093430    1.861040   -4.656840
  H      2.444810    2.041570   -5.674990
  H      2.901750    2.137860   -3.980340
  S      1.879640    0.078590   -4.462970
  O      3.207570   -0.466110   -4.420260
  O      1.075060   -0.056160   -3.268760
  O      1.131660   -0.319960   -5.679030
  H      0.668430    2.559430   -3.232850
  H      1.034070    3.729430   -4.497080
  H     -0.351830    2.317830   -6.050750
  H     -1.261080    2.866000   -4.663000
  H     -0.680320    1.219490   -4.732110

 Total Charge           Charge          ....   -1
 Multiplicity           Mult            ....    1
 Number of Electrons    NEL             ....   66
 Basis Dimension        Dim             ....  212

ORBITAL ENERGIES
----------------

  NO   OCC          E(Eh)            E(eV)
   0   2.0000     -89.939500     -2447.3782
   1   2.0000     -19.423139      -528.5305
   2   2.0000     -19.421144      -528.4762
   3   2.0000     -19.407577      -528.1070
   4   2.0000     -10.418087      -283.4906
   5   2.0000     -10.410415      -283.2818
   6   2.0000     -10.397013      -282.9171
   7   2.0000      -8.262723      -224.8401
   8   2.0000      -6.188122      -168.3874
   9   2.0000      -6.187882      -168.3808
  10   2.0000      -6.187588      -168.3728
  11   2.0000      -1.054896       -28.7052
  12   2.0000      -0.913025       -24.8447
  13   2.0000      -0.885852       -24.1053
  14   2.0000      -0.742662       -20.2089
  15   2.0000      -0.647521       -17.6199
  16   2.0000      -0.546114       -14.8605
  17   2.0000      -0.461763       -12.5652
  18   2.0000      -0.409015       -11.1299
  19   2.0000      -0.387405       -10.5418
  20   2.0000      -0.370047       -10.0695
  21   2.0000      -0.356641        -9.7047
  22   2.0000      -0.342381        -9.3167
  23   2.0000      -0.322474        -8.7750
  24   2.0000      -0.287042        -7.8108
  25   2.0000      -0.275114        -7.4862
  26   2.0000      -0.257228        -6.9995
  27   2.0000      -0.230516        -6.2727
  28   2.0000      -0.227790        -6.1985
  29   2.0000      -0.193608        -5.2684
  30   2.0000      -0.180224        -4.9042
  31   2.0000      -0.164793        -4.4842
  32   2.0000      -0.141935        -3.8622
  33   0.0000       0.153904         4.1879
  34   0.0000       0.172154         4.6846
  35   0.0000       0.176844         4.8122
  36   0.0000       0.183311         4.9881
  37   0.0000       0.202233         5.5030

MULLIKEN ATOMIC CHARGES
-----------------------
   0 C :    0.757083
   1 C :   -0.252883
   2 C :    0.129325
   3 H :   -0.048484
   4 H :   -0.047108
   5 S :    1.400088
   6 O :   -0.861206
   7 O :   -0.834394
   8 O :   -0.838579
   9 H :    0.051496
  10 H :   -0.234490
  11 H :   -0.056009
  12 H :   -0.117742
  13 H :   -0.047096
Sum of atomic charges:   -1.0000000

LOEWDIN ATOMIC CHARGES
----------------------
   0 C :    0.121165
   1 C :   -0.096007
   2 C :   -0.090703
   3 H :    0.007758
   4 H :   -0.000548
   5 S :    0.896278
   6 O :   -0.582260
   7 O :   -0.579755
   8 O :   -0.602323
   9 H :    0.010596
  10 H :    0.004315
  11 H :   -0.019502
  12 H :   -0.034572
  13 H :   -0.034442

  Mayer bond orders larger than 0.100000
B(  0-C ,  1-C ) :   1.2839 B(  0-C , 11-H ) :   0.7577 B(  0-C , 12-H ) :   0.7723
B(  0-C , 13-H ) :   0.8186 B(  1-C ,  2-C ) :   1.2459 B(  1-C ,  3-H ) :   0.1228
B(  1-C ,  4-H ) :   0.1293 B(  1-C ,  9-H ) :   0.8578 B(  1-C , 10-H ) :   0.9489
B(  1-C , 11-H ) :   0.2170 B(  1-C , 12-H ) :   0.2061 B(  1-C , 13-H ) :   0.2169
B(  2-C ,  3-H ) :   0.9385 B(  2-C ,  4-H ) :   0.9254 B(  2-C ,  5-S ) :   0.8924
B(  2-C ,  9-H ) :   0.1246 B(  2-C , 10-H ) :   0.1081 B(  5-S ,  6-O ) :   1.3260
B(  5-S ,  7-O ) :   1.2580 B(  5-S ,  8-O ) :   1.2378

Dispersion correction           -0.000281254
FINAL SINGLE POINT ENERGY      -741.891948955598

DIPOLE MOMENT
-------------
                                X             Y             Z
Electronic contribution:      4.87055      -9.02971       1.03999
Nuclear contribution   :     -5.21326      11.14780      -1.06438
                        -----------------------------------------
Total Dipole Moment    :     -0.34271       2.11809      -0.02439
                        -----------------------------------------
Magnitude (a.u.)       :      2.14578
Magnitude (Debye)      :      5.45414

Rotational constants in cm-1:     0.135673     0.057896     0.054396
Rotational constants in MHz :  4067.361083  1735.682437  1630.763840

                             ****ORCA TERMINATED NORMALLY****
TOTAL RUN TIME: 0 days 0 hours 0 minutes 16 seconds 198 msec
