                         Program Version 5.0.0 -  RELEASE  -
|  1> !M062X D3Zero RIJCOSX def2-SVPD def2/J TightSCF
|  2> *xyz 1 1
|  3> C         -0.46129        2.23469       -4.98962
|  4> C          0.84888        2.66797       -4.30235
|  5> C          2.09343        1.86104       -4.65684
|  6> C         -0.42384        2.39877       -6.47432
|  7> N         -0.95947        3.49265       -7.00740
|  8> N          0.14558        1.48689       -7.20399
|  9> H          0.56537        0.69681       -6.72386
| 10> H          0.22068        1.58177       -8.20752
| 11> H         -1.40624        4.18151       -6.40326
| 12> H         -0.93421        3.68160       -7.99947
| 13> H          0.66843        2.55943       -3.23285
| 14> H          1.03407        3.72943       -4.49708
| 15> H         -1.28888        2.82674       -4.59500
| 16> H         -0.65170        1.18634       -4.75655
| 17> H          2.29129        1.95234       -5.70442
| 18> H          1.93270        0.83176       -4.41261
| 19> H          2.92953        2.23285       -4.10223
| 20> *
| 21>
| 22> %MaxCore 64000
| 23>
| 24> %pal nprocs 8
| 25> end
| 26>
| 27> %scf
| 28>   MaxIter 150
| 29> end
| 30>
| 31>
| 32>                          ****END OF INPUT****

CARTESIAN COORDINATES (ANGSTROEM)
---------------------------------
  C     -0.461290    2.234690   -4.989620
  C      0.848880    2.667970   -4.302350
  C      2.093430    1.861040   -4.656840
  C     -0.423840    2.398770   -6.474320
  N     -0.959470    3.492650   -7.007400
  N      0.145580    1.486890   -7.203990
  H      0.565370    0.696810   -6.723860
  H      0.220680    1.581770   -8.207520
  H     -1.406240    4.181510   -6.403260
  H     -0.934210    3.681600   -7.999470
  H      0.668430    2.559430   -3.232850
  H      1.034070    3.729430   -4.497080
  H     -1.288880    2.826740   -4.595000
  H     -0.651700    1.186340   -4.756550
  H      2.291290    1.952340   -5.704420
  H      1.932700    0.831760   -4.412610
  H      2.929530    2.232850   -4.102230

 Total Charge           Charge          ....    1
 Multiplicity           Mult            ....    1
 Number of Electrons    NEL             ....   48
 Basis Dimension        Dim             ....  208

ORBITAL ENERGIES
----------------

  NO   OCC          E(Eh)            E(eV)
   0   2.0000     -15.008060      -408.3901
   1   2.0000     -15.003917      -408.2773
   2   2.0000     -10.873780      -295.8906
   3   2.0000     -10.744855      -292.3824
   4   2.0000     -10.712191      -291.4935
   5   2.0000     -10.680077      -290.6197
   6   2.0000      -1.302848       -35.4523
   7   2.0000      -1.199811       -32.6485
   8   2.0000      -1.063617       -28.9425
   9   2.0000      -0.975756       -26.5517
  10   2.0000      -0.911774       -24.8106
  11   2.0000      -0.865017       -23.5383
  12   2.0000      -0.847858       -23.0714
  13   2.0000      -0.806886       -21.9565
  14   2.0000      -0.768710       -20.9177
  15   2.0000      -0.725522       -19.7425
  16   2.0000      -0.692091       -18.8327
  17   2.0000      -0.674168       -18.3451
  18   2.0000      -0.640964       -17.4415
  19   2.0000      -0.626128       -17.0378
  20   2.0000      -0.569976       -15.5098
  21   2.0000      -0.559771       -15.2321
  22   2.0000      -0.557940       -15.1823
  23   2.0000      -0.545629       -14.8473
  24   0.0000      -0.167108        -4.5472
  25   0.0000      -0.132546        -3.6068
  26   0.0000      -0.093263        -2.5378
  27   0.0000      -0.089047        -2.4231
  28   0.0000      -0.065242        -1.7753

MULLIKEN ATOMIC CHARGES
-----------------------
   0 C :    0.039019
   1 C :   -0.341590
   2 C :    0.728426
   3 C :    0.911697
   4 N :   -0.126462
   5 N :   -0.031323
   6 H :    0.122883
   7 H :   -0.128275
   8 H :    0.079622
   9 H :   -0.110164
  10 H :   -0.009955
  11 H :   -0.050922
  12 H :   -0.017323
  13 H :    0.062740
  14 H :   -0.075650
  15 H :    0.019452
  16 H :   -0.072175
Sum of atomic charges:    1.0000000

LOEWDIN ATOMIC CHARGES
----------------------
   0 C :    0.046569
   1 C :   -0.039341
   2 C :    0.136839
   3 C :   -0.038428
   4 N :    0.274585
   5 N :    0.283871
   6 H :    0.051141
   7 H :    0.056502
   8 H :    0.055420
   9 H :    0.044903
  10 H :    0.038922
  11 H :    0.033934
  12 H :    0.040068
  13 H :    0.047666
  14 H :   -0.030042
  15 H :   -0.005528
  16 H :    0.002918

  Mayer bond orders larger than 0.100000
B(  0-C ,  1-C ) :   1.1804 B(  0-C ,  3-C ) :   1.0641 B(  0-C ,  4-N ) :   0.1161
B(  0-C ,  5-N ) :   0.1082 B(  0-C , 10-H ) :   0.1073 B(  0-C , 12-H ) :   0.9137
B(  0-C , 13-H ) :   0.8406 B(  1-C ,  2-C ) :   1.3220 B(  1-C , 10-H ) :   0.9238
B(  1-C , 11-H ) :   1.0014 B(  1-C , 13-H ) :   0.1263 B(  1-C , 14-H ) :   0.2093
B(  1-C , 15-H ) :   0.2127 B(  1-C , 16-H ) :   0.2106 B(  2-C , 14-H ) :   0.8060
B(  2-C , 15-H ) :   0.7794 B(  2-C , 16-H ) :   0.8137 B(  3-C ,  4-N ) :   0.9544
B(  3-C ,  5-N ) :   1.0922 B(  3-C ,  7-H ) :  -0.2152 B(  3-C ,  9-H ) :  -0.1922
B(  4-N ,  5-N ) :   0.1623 B(  4-N ,  8-H ) :   1.0762 B(  4-N ,  9-H ) :   1.3114
B(  5-N ,  6-H ) :   1.0033 B(  5-N ,  7-H ) :   1.3609 B(  6-H ,  7-H ) :  -0.2035
B(  8-H ,  9-H ) :  -0.1891

Dispersion correction           -0.000349311
FINAL SINGLE POINT ENERGY      -268.025802227189

DIPOLE MOMENT
-------------
                                X             Y             Z
Electronic contribution:     -3.53880       0.62661      -4.28649
Nuclear contribution   :      2.80679      -0.44323       2.95915
                        -----------------------------------------
Total Dipole Moment    :     -0.73201       0.18338      -1.32734
                        -----------------------------------------
Magnitude (a.u.)       :      1.52686
Magnitude (Debye)      :      3.88096

Rotational constants in cm-1:     0.187834     0.079484     0.065778
Rotational constants in MHz :  5631.136036  2382.861517  1971.985559

                             ****ORCA TERMINATED NORMALLY****
TOTAL RUN TIME: 0 days 0 hours 0 minutes 15 seconds 583 msec
