                         Program Version 5.0.0 -  RELEASE  -
|  1> !M062X D3Zero RIJCOSX def2-SVPD def2/J TightSCF
|  2> *xyz 0 1
|  3> C         -0.46129        2.23469       -4.98962
|  4> C          0.84888        2.66797       -4.30235
|  5> C          2.09343        1.86104       -4.65684
|  6> H          2.44481        2.04157       -5.67499
|  7> H          2.90175        2.13786       -3.98034
|  8> S          1.87964        0.07859       -4.46297
|  9> F          3.20757       -0.46611       -4.42026
| 10> O          1.07506       -0.05616       -3.26876
| 11> O          1.13166       -0.31996       -5.67903
| 12> H          0.66843        2.55943       -3.23285
| 13> H          1.03407        3.72943       -4.49708
| 14> H         -0.35183        2.31783       -6.05075
| 15> H         -1.26108        2.86600       -4.66300
| 16> H         -0.68032        1.21949       -4.73211
| 17> *
| 18>
| 19> %MaxCore 64000
| 20>
| 21> %pal nprocs 8
| 22> end
| 23>
| 24> %scf
| 25>   MaxIter 150
| 26> end
| 27>
| 28>
| 29>                          ****END OF INPUT****

CARTESIAN COORDINATES (ANGSTROEM)
---------------------------------
  C     -0.461290    2.234690   -4.989620
  C      0.848880    2.667970   -4.302350
  C      2.093430    1.861040   -4.656840
  H      2.444810    2.041570   -5.674990
  H      2.901750    2.137860   -3.980340
  S      1.879640    0.078590   -4.462970
  F      3.207570   -0.466110   -4.420260
  O      1.075060   -0.056160   -3.268760
  O      1.131660   -0.319960   -5.679030
  H      0.668430    2.559430   -3.232850
  H      1.034070    3.729430   -4.497080
  H     -0.351830    2.317830   -6.050750
  H     -1.261080    2.866000   -4.663000
  H     -0.680320    1.219490   -4.732110

 Total Charge           Charge          ....    0
 Multiplicity           Mult            ....    1
 Number of Electrons    NEL             ....   66
 Basis Dimension        Dim             ....  212

ORBITAL ENERGIES
----------------

  NO   OCC          E(Eh)            E(eV)
   0   2.0000     -90.198949     -2454.4382
   1   2.0000     -25.384819      -690.7561
   2   2.0000     -19.654478      -534.8255
   3   2.0000     -19.641205      -534.4644
   4   2.0000     -10.611729      -288.7598
   5   2.0000     -10.577367      -287.8248
   6   2.0000     -10.539252      -286.7876
   7   2.0000      -8.523319      -231.9313
   8   2.0000      -6.451627      -175.5577
   9   2.0000      -6.446456      -175.4170
  10   2.0000      -6.445428      -175.3890
  11   2.0000      -1.525296       -41.5054
  12   2.0000      -1.228084       -33.4179
  13   2.0000      -1.118861       -30.4458
  14   2.0000      -0.920804       -25.0563
  15   2.0000      -0.851870       -23.1806
  16   2.0000      -0.801290       -21.8042
  17   2.0000      -0.723785       -19.6952
  18   2.0000      -0.695950       -18.9378
  19   2.0000      -0.673696       -18.3322
  20   2.0000      -0.638974       -17.3874
  21   2.0000      -0.571873       -15.5615
  22   2.0000      -0.558328       -15.1929
  23   2.0000      -0.529089       -14.3972
  24   2.0000      -0.525069       -14.2878
  25   2.0000      -0.492028       -13.3888
  26   2.0000      -0.463911       -12.6236
  27   2.0000      -0.435742       -11.8571
  28   2.0000      -0.434172       -11.8144
  29   2.0000      -0.412974       -11.2376
  30   2.0000      -0.407688       -11.0938
  31   2.0000      -0.384826       -10.4717
  32   2.0000      -0.381584       -10.3834
  33   0.0000       0.009987         0.2718
  34   0.0000       0.034767         0.9461
  35   0.0000       0.040866         1.1120
  36   0.0000       0.046010         1.2520
  37   0.0000       0.069130         1.8811

MULLIKEN ATOMIC CHARGES
-----------------------
   0 C :    0.749722
   1 C :   -0.271879
   2 C :    0.046106
   3 H :    0.025776
   4 H :    0.030735
   5 S :    1.580044
   6 F :   -0.468622
   7 O :   -0.702008
   8 O :   -0.708017
   9 H :    0.081284
  10 H :   -0.184012
  11 H :   -0.032515
  12 H :   -0.085367
  13 H :   -0.061248
Sum of atomic charges:   -0.0000000

LOEWDIN ATOMIC CHARGES
----------------------
   0 C :    0.143553
   1 C :   -0.064826
   2 C :   -0.054100
   3 H :    0.027009
   4 H :    0.016232
   5 S :    1.158185
   6 F :   -0.263362
   7 O :   -0.474476
   8 O :   -0.494221
   9 H :    0.024486
  10 H :    0.031750
  11 H :   -0.007887
  12 H :   -0.012898
  13 H :   -0.029444

  Mayer bond orders larger than 0.100000
B(  0-C ,  1-C ) :   1.3010 B(  0-C , 11-H ) :   0.7652 B(  0-C , 12-H ) :   0.7848
B(  0-C , 13-H ) :   0.8251 B(  1-C ,  2-C ) :   1.3002 B(  1-C ,  3-H ) :   0.1150
B(  1-C ,  4-H ) :   0.1353 B(  1-C ,  9-H ) :   0.8558 B(  1-C , 10-H ) :   0.9577
B(  1-C , 11-H ) :   0.2083 B(  1-C , 12-H ) :   0.1972 B(  1-C , 13-H ) :   0.2014
B(  2-C ,  3-H ) :   0.9455 B(  2-C ,  4-H ) :   0.8906 B(  2-C ,  5-S ) :   0.9404
B(  2-C ,  9-H ) :   0.1217 B(  2-C , 10-H ) :   0.1068 B(  5-S ,  6-F ) :   0.6364
B(  5-S ,  7-O ) :   1.4719 B(  5-S ,  8-O ) :   1.4454

Dispersion correction           -0.000272541
FINAL SINGLE POINT ENERGY      -766.368723409415

DIPOLE MOMENT
-------------
                                X             Y             Z
Electronic contribution:      8.09313     -11.17518       1.23284
Nuclear contribution   :     -7.07796      12.41139      -1.18012
                        -----------------------------------------
Total Dipole Moment    :      1.01517       1.23621       0.05272
                        -----------------------------------------
Magnitude (a.u.)       :      1.60049
Magnitude (Debye)      :      4.06812

Rotational constants in cm-1:     0.134396     0.055628     0.052255
Rotational constants in MHz :  4029.100214  1667.685325  1566.551712

                             ****ORCA TERMINATED NORMALLY****
TOTAL RUN TIME: 0 days 0 hours 0 minutes 15 seconds 948 msec
