                         Program Version 5.0.0 -  RELEASE  -
|  1> !M062X D3Zero RIJCOSX def2-SVPD def2/J TightSCF
|  2> *xyz 0 1
|  3> C         -0.46129        2.23469       -4.98962
|  4> C          0.84888        2.66797       -4.30235
|  5> C          2.09343        1.86104       -4.65684
|  6> C         -0.42384        2.39877       -6.47432
|  7> C         -0.95947        3.49265       -7.00740
|  8> N          0.14558        1.48689       -7.20399
|  9> H          0.56537        0.69681       -6.72386
| 10> H          0.22068        1.58177       -8.20752
| 11> H         -1.40624        4.18151       -6.40326
| 12> H         -0.93421        3.68160       -7.99947
| 13> H          0.66843        2.55943       -3.23285
| 14> H          1.03407        3.72943       -4.49708
| 15> H         -1.28888        2.82674       -4.59500
| 16> H         -0.65170        1.18634       -4.75655
| 17> H          2.29129        1.95234       -5.70442
| 18> H          1.93270        0.83176       -4.41261
| 19> H          2.92953        2.23285       -4.10223
| 20> *
| 21>
| 22> %MaxCore 64000
| 23>
| 24> %pal nprocs 8
| 25> end
| 26>
| 27> %scf
| 28>   MaxIter 150
| 29> end
| 30>
| 31>
| 32>                          ****END OF INPUT****

CARTESIAN COORDINATES (ANGSTROEM)
---------------------------------
  C     -0.461290    2.234690   -4.989620
  C      0.848880    2.667970   -4.302350
  C      2.093430    1.861040   -4.656840
  C     -0.423840    2.398770   -6.474320
  C     -0.959470    3.492650   -7.007400
  N      0.145580    1.486890   -7.203990
  H      0.565370    0.696810   -6.723860
  H      0.220680    1.581770   -8.207520
  H     -1.406240    4.181510   -6.403260
  H     -0.934210    3.681600   -7.999470
  H      0.668430    2.559430   -3.232850
  H      1.034070    3.729430   -4.497080
  H     -1.288880    2.826740   -4.595000
  H     -0.651700    1.186340   -4.756550
  H      2.291290    1.952340   -5.704420
  H      1.932700    0.831760   -4.412610
  H      2.929530    2.232850   -4.102230

 Total Charge           Charge          ....    0
 Multiplicity           Mult            ....    1
 Number of Electrons    NEL             ....   48
 Basis Dimension        Dim             ....  208

ORBITAL ENERGIES
----------------

  NO   OCC          E(Eh)            E(eV)
   0   2.0000     -14.764259      -401.7559
   1   2.0000     -10.570282      -287.6320
   2   2.0000     -10.548452      -287.0380
   3   2.0000     -10.546795      -286.9929
   4   2.0000     -10.535016      -286.6724
   5   2.0000     -10.482181      -285.2346
   6   2.0000      -1.034194       -28.1418
   7   2.0000      -0.883633       -24.0449
   8   2.0000      -0.822617       -22.3845
   9   2.0000      -0.764277       -20.7970
  10   2.0000      -0.684887       -18.6367
  11   2.0000      -0.640332       -17.4243
  12   2.0000      -0.600546       -16.3417
  13   2.0000      -0.557922       -15.1818
  14   2.0000      -0.520347       -14.1593
  15   2.0000      -0.501845       -13.6559
  16   2.0000      -0.475617       -12.9422
  17   2.0000      -0.455802       -12.4030
  18   2.0000      -0.440163       -11.9775
  19   2.0000      -0.425893       -11.5891
  20   2.0000      -0.398950       -10.8560
  21   2.0000      -0.387642       -10.5483
  22   2.0000      -0.383571       -10.4375
  23   2.0000      -0.239183        -6.5085
  24   0.0000       0.035729         0.9722
  25   0.0000       0.061898         1.6843
  26   0.0000       0.063658         1.7322
  27   0.0000       0.070225         1.9109
  28   0.0000       0.090272         2.4564

MULLIKEN ATOMIC CHARGES
-----------------------
   0 C :    0.296951
   1 C :   -0.345709
   2 C :    0.732965
   3 C :   -0.010806
   4 C :    0.415366
   5 N :    0.113025
   6 H :   -0.020523
   7 H :   -0.184869
   8 H :   -0.138945
   9 H :   -0.514826
  10 H :   -0.057603
  11 H :   -0.110694
  12 H :    0.054895
  13 H :   -0.054372
  14 H :   -0.070364
  15 H :    0.001855
  16 H :   -0.106344
Sum of atomic charges:    0.0000000

LOEWDIN ATOMIC CHARGES
----------------------
   0 C :    0.005436
   1 C :   -0.062471
   2 C :    0.115445
   3 C :   -0.267138
   4 C :    0.180357
   5 N :    0.165265
   6 H :    0.003048
   7 H :    0.017885
   8 H :   -0.082896
   9 H :   -0.090947
  10 H :    0.015106
  11 H :    0.024531
  12 H :    0.023855
  13 H :    0.021540
  14 H :   -0.032205
  15 H :   -0.018413
  16 H :   -0.018397

  Mayer bond orders larger than 0.100000
B(  0-C ,  1-C ) :   1.1559 B(  0-C ,  3-C ) :   1.1189 B(  0-C ,  4-C ) :   0.1430
B(  0-C ,  5-N ) :   0.1190 B(  0-C , 11-H ) :   0.1136 B(  0-C , 12-H ) :   0.8402
B(  0-C , 13-H ) :   0.7396 B(  1-C ,  2-C ) :   1.2972 B(  1-C , 10-H ) :   0.9202
B(  1-C , 11-H ) :   1.0170 B(  1-C , 12-H ) :   0.1068 B(  1-C , 13-H ) :   0.1512
B(  1-C , 14-H ) :   0.2190 B(  1-C , 15-H ) :   0.2259 B(  1-C , 16-H ) :   0.2185
B(  2-C , 14-H ) :   0.8212 B(  2-C , 15-H ) :   0.7669 B(  2-C , 16-H ) :   0.7898
B(  3-C ,  4-C ) :   1.6774 B(  3-C ,  5-N ) :   1.1190 B(  3-C ,  7-H ) :  -0.1436
B(  3-C ,  9-H ) :   0.1468 B(  3-C , 12-H ) :   0.1512 B(  3-C , 13-H ) :   0.1918
B(  4-C ,  5-N ) :   0.2794 B(  4-C ,  8-H ) :   0.9413 B(  4-C ,  9-H ) :   0.7145
B(  5-N ,  6-H ) :   1.0196 B(  5-N ,  7-H ) :   1.3062 B(  6-H ,  7-H ) :  -0.1851
B(  8-H ,  9-H ) :  -0.1396

Dispersion correction           -0.000345691
FINAL SINGLE POINT ENERGY      -251.570006059143

DIPOLE MOMENT
-------------
                                X             Y             Z
Electronic contribution:     -2.08212      -0.43811      -2.62969
Nuclear contribution   :      2.52905      -0.17478       2.67366
                        -----------------------------------------
Total Dipole Moment    :      0.44693      -0.61289       0.04397
                        -----------------------------------------
Magnitude (a.u.)       :      0.75982
Magnitude (Debye)      :      1.93130

Rotational constants in cm-1:     0.190920     0.082419     0.067855
Rotational constants in MHz :  5723.626725  2470.870287  2034.242308

                             ****ORCA TERMINATED NORMALLY****
TOTAL RUN TIME: 0 days 0 hours 0 minutes 15 seconds 441 msec
