                         Program Version 5.0.0 -  RELEASE  -
|  1> !M062X D3Zero RIJCOSX def2-SVPD def2/J TightSCF
|  2> *xyz 0 1
|  3> C         -0.46129        2.23469       -4.98962
|  4> C          0.84888        2.66797       -4.30235
|  5> C          2.09343        1.86104       -4.65684
|  6> H          2.44481        2.04157       -5.67499
|  7> H          2.90175        2.13786       -3.98034
|  8> S          1.87964        0.07859       -4.46297
|  9> O          3.20757       -0.46611       -4.42026
| 10> F          1.07506       -0.05616       -3.26876
| 11> O          1.13166       -0.31996       -5.67903
| 12> H          0.66843        2.55943       -3.23285
| 13> H          1.03407        3.72943       -4.49708
| 14> H         -0.35183        2.31783       -6.05075
| 15> H         -1.26108        2.86600       -4.66300
| 16> H         -0.68032        1.21949       -4.73211
| 17> *
| 18>
| 19> %MaxCore 64000
| 20>
| 21> %pal nprocs 8
| 22> end
| 23>
| 24> %scf
| 25>   MaxIter 150
| 26> end
| 27>
| 28>
| 29>                          ****END OF INPUT****

CARTESIAN COORDINATES (ANGSTROEM)
---------------------------------
  C     -0.461290    2.234690   -4.989620
  C      0.848880    2.667970   -4.302350
  C      2.093430    1.861040   -4.656840
  H      2.444810    2.041570   -5.674990
  H      2.901750    2.137860   -3.980340
  S      1.879640    0.078590   -4.462970
  O      3.207570   -0.466110   -4.420260
  F      1.075060   -0.056160   -3.268760
  O      1.131660   -0.319960   -5.679030
  H      0.668430    2.559430   -3.232850
  H      1.034070    3.729430   -4.497080
  H     -0.351830    2.317830   -6.050750
  H     -1.261080    2.866000   -4.663000
  H     -0.680320    1.219490   -4.732110

 Total Charge           Charge          ....    0
 Multiplicity           Mult            ....    1
 Number of Electrons    NEL             ....   66
 Basis Dimension        Dim             ....  212

ORBITAL ENERGIES
----------------

  NO   OCC          E(Eh)            E(eV)
   0   2.0000     -90.198016     -2454.4128
   1   2.0000     -25.379851      -690.6208
   2   2.0000     -19.656743      -534.8872
   3   2.0000     -19.639863      -534.4279
   4   2.0000     -10.611398      -288.7508
   5   2.0000     -10.584164      -288.0098
   6   2.0000     -10.551071      -287.1092
   7   2.0000      -8.522292      -231.9034
   8   2.0000      -6.450837      -175.5362
   9   2.0000      -6.445323      -175.3861
  10   2.0000      -6.444322      -175.3589
  11   2.0000      -1.516486       -41.2657
  12   2.0000      -1.231199       -33.5026
  13   2.0000      -1.121275       -30.5115
  14   2.0000      -0.927861       -25.2484
  15   2.0000      -0.847115       -23.0512
  16   2.0000      -0.805384       -21.9156
  17   2.0000      -0.723311       -19.6823
  18   2.0000      -0.690755       -18.7964
  19   2.0000      -0.686657       -18.6849
  20   2.0000      -0.630108       -17.1461
  21   2.0000      -0.567597       -15.4451
  22   2.0000      -0.560073       -15.2404
  23   2.0000      -0.538990       -14.6667
  24   2.0000      -0.524148       -14.2628
  25   2.0000      -0.502700       -13.6792
  26   2.0000      -0.467946       -12.7335
  27   2.0000      -0.453015       -12.3272
  28   2.0000      -0.440741       -11.9932
  29   2.0000      -0.423490       -11.5238
  30   2.0000      -0.404955       -11.0194
  31   2.0000      -0.388165       -10.5625
  32   2.0000      -0.379500       -10.3267
  33   0.0000       0.009372         0.2550
  34   0.0000       0.035975         0.9789
  35   0.0000       0.042173         1.1476
  36   0.0000       0.043037         1.1711
  37   0.0000       0.068715         1.8698

MULLIKEN ATOMIC CHARGES
-----------------------
   0 C :    0.772646
   1 C :   -0.260532
   2 C :    0.083706
   3 H :    0.022029
   4 H :    0.013796
   5 S :    1.522988
   6 O :   -0.716077
   7 F :   -0.421681
   8 O :   -0.705427
   9 H :    0.057192
  10 H :   -0.186044
  11 H :   -0.027341
  12 H :   -0.079923
  13 H :   -0.075332
Sum of atomic charges:    0.0000000

LOEWDIN ATOMIC CHARGES
----------------------
   0 C :    0.139438
   1 C :   -0.079154
   2 C :   -0.041024
   3 H :    0.039414
   4 H :    0.020439
   5 S :    1.150163
   6 O :   -0.470059
   7 F :   -0.264786
   8 O :   -0.493023
   9 H :    0.019535
  10 H :    0.030191
  11 H :   -0.004236
  12 H :   -0.012591
  13 H :   -0.034306

  Mayer bond orders larger than 0.100000
B(  0-C ,  1-C ) :   1.2994 B(  0-C , 11-H ) :   0.7680 B(  0-C , 12-H ) :   0.7861
B(  0-C , 13-H ) :   0.8179 B(  1-C ,  2-C ) :   1.2407 B(  1-C ,  3-H ) :   0.1168
B(  1-C ,  4-H ) :   0.1189 B(  1-C ,  9-H ) :   0.8650 B(  1-C , 10-H ) :   0.9646
B(  1-C , 11-H ) :   0.2138 B(  1-C , 12-H ) :   0.1971 B(  1-C , 13-H ) :   0.2054
B(  2-C ,  3-H ) :   0.9373 B(  2-C ,  4-H ) :   0.9426 B(  2-C ,  5-S ) :   0.9698
B(  2-C ,  9-H ) :   0.1119 B(  2-C , 10-H ) :   0.1022 B(  5-S ,  6-O ) :   1.5540
B(  5-S ,  7-F ) :   0.6221 B(  5-S ,  8-O ) :   1.4764

Dispersion correction           -0.000286253
FINAL SINGLE POINT ENERGY      -766.372217085090

DIPOLE MOMENT
-------------
                                X             Y             Z
Electronic contribution:      4.39057     -10.40622       3.17920
Nuclear contribution   :     -4.78457      11.97051      -2.41849
                        -----------------------------------------
Total Dipole Moment    :     -0.39400       1.56429       0.76071
                        -----------------------------------------
Magnitude (a.u.)       :      1.78351
Magnitude (Debye)      :      4.53333

Rotational constants in cm-1:     0.129206     0.056639     0.054229
Rotational constants in MHz :  3873.509495  1697.990779  1625.734877

                             ****ORCA TERMINATED NORMALLY****
TOTAL RUN TIME: 0 days 0 hours 0 minutes 16 seconds 428 msec
