                         Program Version 5.0.0 -  RELEASE  -
|  1> !M062X D3Zero RIJCOSX def2-SVPD def2/J TightSCF
|  2> *xyz 0 1
|  3> C         -0.46129        2.23469       -4.98962
|  4> C          0.84888        2.66797       -4.30235
|  5> C          2.09343        1.86104       -4.65684
|  6> C         -0.42384        2.39877       -6.47432
|  7> N         -0.95947        3.49265       -7.00740
|  8> C          0.14558        1.48689       -7.20399
|  9> H          0.56537        0.69681       -6.72386
| 10> H          0.22068        1.58177       -8.20752
| 11> H         -1.40624        4.18151       -6.40326
| 12> H         -0.93421        3.68160       -7.99947
| 13> H          0.66843        2.55943       -3.23285
| 14> H          1.03407        3.72943       -4.49708
| 15> H         -1.28888        2.82674       -4.59500
| 16> H         -0.65170        1.18634       -4.75655
| 17> H          2.29129        1.95234       -5.70442
| 18> H          1.93270        0.83176       -4.41261
| 19> H          2.92953        2.23285       -4.10223
| 20> *
| 21>
| 22> %MaxCore 64000
| 23>
| 24> %pal nprocs 8
| 25> end
| 26>
| 27> %scf
| 28>   MaxIter 150
| 29> end
| 30>
| 31>
| 32>                          ****END OF INPUT****

CARTESIAN COORDINATES (ANGSTROEM)
---------------------------------
  C     -0.461290    2.234690   -4.989620
  C      0.848880    2.667970   -4.302350
  C      2.093430    1.861040   -4.656840
  C     -0.423840    2.398770   -6.474320
  N     -0.959470    3.492650   -7.007400
  C      0.145580    1.486890   -7.203990
  H      0.565370    0.696810   -6.723860
  H      0.220680    1.581770   -8.207520
  H     -1.406240    4.181510   -6.403260
  H     -0.934210    3.681600   -7.999470
  H      0.668430    2.559430   -3.232850
  H      1.034070    3.729430   -4.497080
  H     -1.288880    2.826740   -4.595000
  H     -0.651700    1.186340   -4.756550
  H      2.291290    1.952340   -5.704420
  H      1.932700    0.831760   -4.412610
  H      2.929530    2.232850   -4.102230

 Total Charge           Charge          ....    0
 Multiplicity           Mult            ....    1
 Number of Electrons    NEL             ....   48
 Basis Dimension        Dim             ....  208

ORBITAL ENERGIES
----------------

  NO   OCC          E(Eh)            E(eV)
   0   2.0000     -14.761136      -401.6709
   1   2.0000     -10.567886      -287.5668
   2   2.0000     -10.548041      -287.0268
   3   2.0000     -10.545570      -286.9596
   4   2.0000     -10.525136      -286.4035
   5   2.0000     -10.481499      -285.2161
   6   2.0000      -1.021073       -27.7848
   7   2.0000      -0.883924       -24.0528
   8   2.0000      -0.819677       -22.3045
   9   2.0000      -0.770096       -20.9554
  10   2.0000      -0.675318       -18.3763
  11   2.0000      -0.638715       -17.3803
  12   2.0000      -0.593155       -16.1406
  13   2.0000      -0.551393       -15.0042
  14   2.0000      -0.521601       -14.1935
  15   2.0000      -0.503290       -13.6952
  16   2.0000      -0.460356       -12.5269
  17   2.0000      -0.458411       -12.4740
  18   2.0000      -0.438777       -11.9397
  19   2.0000      -0.426836       -11.6148
  20   2.0000      -0.394343       -10.7306
  21   2.0000      -0.385920       -10.5014
  22   2.0000      -0.377703       -10.2778
  23   2.0000      -0.245044        -6.6680
  24   0.0000       0.036605         0.9961
  25   0.0000       0.061695         1.6788
  26   0.0000       0.063608         1.7309
  27   0.0000       0.072397         1.9700
  28   0.0000       0.089344         2.4312

MULLIKEN ATOMIC CHARGES
-----------------------
   0 C :    0.280953
   1 C :   -0.329740
   2 C :    0.691585
   3 C :    0.104078
   4 N :   -0.040472
   5 C :    0.417443
   6 H :    0.044232
   7 H :   -0.602841
   8 H :   -0.056768
   9 H :   -0.156477
  10 H :   -0.054446
  11 H :   -0.101229
  12 H :   -0.117167
  13 H :    0.081849
  14 H :   -0.026194
  15 H :    0.005650
  16 H :   -0.140457
Sum of atomic charges:   -0.0000000

LOEWDIN ATOMIC CHARGES
----------------------
   0 C :    0.005629
   1 C :   -0.064449
   2 C :    0.118886
   3 C :   -0.256476
   4 N :    0.159788
   5 C :    0.172235
   6 H :   -0.075535
   7 H :   -0.078914
   8 H :    0.001666
   9 H :    0.005154
  10 H :    0.014707
  11 H :    0.021052
  12 H :    0.014119
  13 H :    0.028185
  14 H :   -0.031632
  15 H :   -0.014405
  16 H :   -0.020010

  Mayer bond orders larger than 0.100000
B(  0-C ,  1-C ) :   1.1713 B(  0-C ,  3-C ) :   1.0027 B(  0-C ,  4-N ) :   0.1322
B(  0-C ,  5-C ) :   0.1832 B(  0-C , 10-H ) :   0.1224 B(  0-C , 11-H ) :   0.1047
B(  0-C , 12-H ) :   0.8453 B(  0-C , 13-H ) :   0.7900 B(  1-C ,  2-C ) :   1.3164
B(  1-C , 10-H ) :   0.8793 B(  1-C , 11-H ) :   0.9910 B(  1-C , 12-H ) :   0.1261
B(  1-C , 13-H ) :   0.1424 B(  1-C , 14-H ) :   0.2131 B(  1-C , 15-H ) :   0.2206
B(  1-C , 16-H ) :   0.2294 B(  2-C , 14-H ) :   0.8208 B(  2-C , 15-H ) :   0.7755
B(  2-C , 16-H ) :   0.8053 B(  3-C ,  4-N ) :   1.0285 B(  3-C ,  5-C ) :   1.8504
B(  3-C ,  6-H ) :   0.2420 B(  3-C ,  7-H ) :   0.1933 B(  3-C ,  9-H ) :  -0.1234
B(  3-C , 12-H ) :   0.1395 B(  4-N ,  5-C ) :   0.2456 B(  4-N ,  8-H ) :   1.1257
B(  4-N ,  9-H ) :   1.2783 B(  5-C ,  6-H ) :   0.6965 B(  5-C ,  7-H ) :   0.7838
B(  6-H ,  7-H ) :  -0.2091 B(  8-H ,  9-H ) :  -0.1742

Dispersion correction           -0.000344549
FINAL SINGLE POINT ENERGY      -251.569775165614

DIPOLE MOMENT
-------------
                                X             Y             Z
Electronic contribution:     -3.06196       1.27373      -2.49242
Nuclear contribution   :      2.79043      -0.64920       2.62716
                        -----------------------------------------
Total Dipole Moment    :     -0.27152       0.62452       0.13474
                        -----------------------------------------
Magnitude (a.u.)       :      0.69420
Magnitude (Debye)      :      1.76451

Rotational constants in cm-1:     0.196182     0.080190     0.067215
Rotational constants in MHz :  5881.393438  2404.041106  2015.067205

                             ****ORCA TERMINATED NORMALLY****
TOTAL RUN TIME: 0 days 0 hours 0 minutes 15 seconds 592 msec
