                         Program Version 5.0.0 -  RELEASE  -
|  1> !M062X D3Zero RIJCOSX def2-SVPD def2/J TightSCF
|  2> *xyz 0 1
|  3> C         -0.46129        2.23469       -4.98962
|  4> C          0.84888        2.66797       -4.30235
|  5> C          2.09343        1.86104       -4.65684
|  6> H          2.44481        2.04157       -5.67499
|  7> H          2.90175        2.13786       -3.98034
|  8> S          1.87964        0.07859       -4.46297
|  9> O          3.20757       -0.46611       -4.42026
| 10> O          1.07506       -0.05616       -3.26876
| 11> F          1.13166       -0.31996       -5.67903
| 12> H          0.66843        2.55943       -3.23285
| 13> H          1.03407        3.72943       -4.49708
| 14> H         -0.35183        2.31783       -6.05075
| 15> H         -1.26108        2.86600       -4.66300
| 16> H         -0.68032        1.21949       -4.73211
| 17> *
| 18>
| 19> %MaxCore 64000
| 20>
| 21> %pal nprocs 8
| 22> end
| 23>
| 24> %scf
| 25>   MaxIter 150
| 26> end
| 27>
| 28>
| 29>                          ****END OF INPUT****

CARTESIAN COORDINATES (ANGSTROEM)
---------------------------------
  C     -0.461290    2.234690   -4.989620
  C      0.848880    2.667970   -4.302350
  C      2.093430    1.861040   -4.656840
  H      2.444810    2.041570   -5.674990
  H      2.901750    2.137860   -3.980340
  S      1.879640    0.078590   -4.462970
  O      3.207570   -0.466110   -4.420260
  O      1.075060   -0.056160   -3.268760
  F      1.131660   -0.319960   -5.679030
  H      0.668430    2.559430   -3.232850
  H      1.034070    3.729430   -4.497080
  H     -0.351830    2.317830   -6.050750
  H     -1.261080    2.866000   -4.663000
  H     -0.680320    1.219490   -4.732110

 Total Charge           Charge          ....    0
 Multiplicity           Mult            ....    1
 Number of Electrons    NEL             ....   66
 Basis Dimension        Dim             ....  212

ORBITAL ENERGIES
----------------

  NO   OCC          E(Eh)            E(eV)
   0   2.0000     -90.196883     -2454.3820
   1   2.0000     -25.360030      -690.0815
   2   2.0000     -19.656589      -534.8830
   3   2.0000     -19.653210      -534.7910
   4   2.0000     -10.610794      -288.7344
   5   2.0000     -10.579093      -287.8718
   6   2.0000     -10.553561      -287.1770
   7   2.0000      -8.520958      -231.8670
   8   2.0000      -6.449239      -175.4927
   9   2.0000      -6.444290      -175.3581
  10   2.0000      -6.443201      -175.3284
  11   2.0000      -1.484339       -40.3909
  12   2.0000      -1.240247       -33.7488
  13   2.0000      -1.141615       -31.0649
  14   2.0000      -0.924465       -25.1560
  15   2.0000      -0.840696       -22.8765
  16   2.0000      -0.794926       -21.6310
  17   2.0000      -0.720534       -19.6067
  18   2.0000      -0.667927       -18.1752
  19   2.0000      -0.661796       -18.0084
  20   2.0000      -0.636216       -17.3123
  21   2.0000      -0.578902       -15.7527
  22   2.0000      -0.551851       -15.0166
  23   2.0000      -0.539776       -14.6880
  24   2.0000      -0.528787       -14.3890
  25   2.0000      -0.505320       -13.7505
  26   2.0000      -0.473498       -12.8845
  27   2.0000      -0.451489       -12.2856
  28   2.0000      -0.439250       -11.9526
  29   2.0000      -0.420632       -11.4460
  30   2.0000      -0.414262       -11.2726
  31   2.0000      -0.397882       -10.8269
  32   2.0000      -0.393475       -10.7070
  33   0.0000       0.014925         0.4061
  34   0.0000       0.035686         0.9711
  35   0.0000       0.042324         1.1517
  36   0.0000       0.043816         1.1923
  37   0.0000       0.071074         1.9340

MULLIKEN ATOMIC CHARGES
-----------------------
   0 C :    0.739464
   1 C :   -0.223303
   2 C :    0.051478
   3 H :    0.029574
   4 H :    0.023502
   5 S :    1.534456
   6 O :   -0.722423
   7 O :   -0.710072
   8 F :   -0.419449
   9 H :    0.085153
  10 H :   -0.182349
  11 H :   -0.039662
  12 H :   -0.076052
  13 H :   -0.090317
Sum of atomic charges:   -0.0000000

LOEWDIN ATOMIC CHARGES
----------------------
   0 C :    0.138690
   1 C :   -0.073813
   2 C :   -0.043525
   3 H :    0.025744
   4 H :    0.030938
   5 S :    1.147478
   6 O :   -0.470465
   7 O :   -0.472625
   8 F :   -0.283162
   9 H :    0.025322
  10 H :    0.029822
  11 H :   -0.011265
  12 H :   -0.010416
  13 H :   -0.032722

  Mayer bond orders larger than 0.100000
B(  0-C ,  1-C ) :   1.2951 B(  0-C , 11-H ) :   0.7656 B(  0-C , 12-H ) :   0.7953
B(  0-C , 13-H ) :   0.8275 B(  1-C ,  2-C ) :   1.2865 B(  1-C ,  3-H ) :   0.1166
B(  1-C ,  4-H ) :   0.1137 B(  1-C ,  9-H ) :   0.8626 B(  1-C , 10-H ) :   0.9519
B(  1-C , 11-H ) :   0.2064 B(  1-C , 12-H ) :   0.1947 B(  1-C , 13-H ) :   0.1984
B(  2-C ,  3-H ) :   0.9437 B(  2-C ,  4-H ) :   0.9208 B(  2-C ,  5-S ) :   0.9701
B(  2-C ,  9-H ) :   0.1251 B(  2-C , 10-H ) :   0.1013 B(  5-S ,  6-O ) :   1.5500
B(  5-S ,  7-O ) :   1.5027 B(  5-S ,  8-F ) :   0.5773

Dispersion correction           -0.000284892
FINAL SINGLE POINT ENERGY      -766.389510863295

DIPOLE MOMENT
-------------
                                X             Y             Z
Electronic contribution:      4.47447     -10.87177      -0.94507
Nuclear contribution   :     -4.84544      12.25421       0.17361
                        -----------------------------------------
Total Dipole Moment    :     -0.37097       1.38244      -0.77146
                        -----------------------------------------
Magnitude (a.u.)       :      1.62601
Magnitude (Debye)      :      4.13299

Rotational constants in cm-1:     0.128954     0.057447     0.053381
Rotational constants in MHz :  3865.954571  1722.226669  1600.330369

                             ****ORCA TERMINATED NORMALLY****
TOTAL RUN TIME: 0 days 0 hours 0 minutes 16 seconds 677 msec
