                         Program Version 5.0.0 -  RELEASE  -
|  1> !PBE D3BJ RIJCOSX def2-SVPD def2/J TightSCF
|  2> *xyz -1 1
|  3> C         -1.91658       -2.48508       -3.64367
|  4> C         -1.36353       -1.98134       -2.29361
|  5> O         -0.35039       -2.74969       -1.79601
|  6> H         -2.22622       -1.90839       -1.60204
|  7> H         -1.05135       -0.91567       -2.44333
|  8> H         -1.11522       -2.57167       -4.34739
|  9> H         -2.64227       -1.79099       -4.01314
| 10> H         -2.37564       -3.44180       -3.50640
| 11> *
| 12>
| 13> %MaxCore 64000
| 14> %pal nprocs 4
| 15> end
| 16>
| 17> %scf
| 18>   MaxIter 150
| 19> end
| 20>
| 21>
| 22>                          ****END OF INPUT****

CARTESIAN COORDINATES (ANGSTROEM)
---------------------------------
  C     -1.916580   -2.485080   -3.643670
  C     -1.363530   -1.981340   -2.293610
  O     -0.350390   -2.749690   -1.796010
  H     -2.226220   -1.908390   -1.602040
  H     -1.051350   -0.915670   -2.443330
  H     -1.115220   -2.571670   -4.347390
  H     -2.642270   -1.790990   -4.013140
  H     -2.375640   -3.441800   -3.506400

 Total Charge           Charge          ....   -1
 Multiplicity           Mult            ....    1
 Number of Electrons    NEL             ....   26
 Basis Dimension        Dim             ....  103

ORBITAL ENERGIES
----------------

  NO   OCC          E(Eh)            E(eV)
   0   2.0000     -18.444610      -501.9033
   1   2.0000      -9.712025      -264.2776
   2   2.0000      -9.688877      -263.6477
   3   2.0000      -0.595594       -16.2069
   4   2.0000      -0.451901       -12.2969
   5   2.0000      -0.308996        -8.4082
   6   2.0000      -0.202232        -5.5030
   7   2.0000      -0.181761        -4.9460
   8   2.0000      -0.132413        -3.6032
   9   2.0000      -0.113726        -3.0947
  10   2.0000      -0.074460        -2.0262
  11   2.0000       0.064654         1.7593
  12   2.0000       0.069141         1.8814
  13   0.0000       0.163256         4.4424
  14   0.0000       0.192981         5.2513
  15   0.0000       0.223947         6.0939
  16   0.0000       0.236810         6.4439
  17   0.0000       0.255078         6.9410

MULLIKEN ATOMIC CHARGES
-----------------------
   0 C :    0.211081
   1 C :    0.088024
   2 O :   -0.847006
   3 H :   -0.158919
   4 H :   -0.126865
   5 H :   -0.072911
   6 H :   -0.027515
   7 H :   -0.065888
Sum of atomic charges:   -1.0000000

LOEWDIN ATOMIC CHARGES
----------------------
   0 C :    0.057772
   1 C :   -0.275341
   2 O :   -0.543817
   3 H :   -0.040958
   4 H :   -0.036720
   5 H :   -0.046243
   6 H :   -0.066847
   7 H :   -0.047845

  Mayer bond orders larger than 0.100000
B(  0-C ,  1-C ) :   1.2101 B(  0-C ,  2-O ) :   0.3006 B(  0-C ,  3-H ) :   0.1567
B(  0-C ,  4-H ) :   0.1515 B(  0-C ,  5-H ) :   0.9212 B(  0-C ,  6-H ) :   0.9286
B(  0-C ,  7-H ) :   0.9171 B(  1-C ,  2-O ) :   1.1073 B(  1-C ,  3-H ) :   0.9844
B(  1-C ,  4-H ) :   0.9781 B(  1-C ,  5-H ) :   0.1899 B(  1-C ,  6-H ) :   0.1348
B(  1-C ,  7-H ) :   0.1770 B(  3-H ,  4-H ) :   0.1083

Dispersion correction           -0.003757227
FINAL SINGLE POINT ENERGY      -154.134789245168

DIPOLE MOMENT
-------------
                                X             Y             Z
Electronic contribution:      2.14494      -0.91203       1.93055
Nuclear contribution   :     -3.14382       1.30299      -2.83231
                        -----------------------------------------
Total Dipole Moment    :     -0.99888       0.39096      -0.90175
                        -----------------------------------------
Magnitude (a.u.)       :      1.40135
Magnitude (Debye)      :      3.56195

Rotational constants in cm-1:     1.288206     0.322942     0.285188
Rotational constants in MHz : 38619.437223  9681.562038  8549.712012

                             ****ORCA TERMINATED NORMALLY****
TOTAL RUN TIME: 0 days 0 hours 0 minutes 7 seconds 968 msec
