                         Program Version 5.0.0 -  RELEASE  -
|  1> !PBE D3BJ RIJCOSX def2-SVPD def2/J TightSCF
|  2> *xyz 1 1
|  3> C          1.64703       -2.34528       -5.02041
|  4> C          2.20996       -2.81239       -3.66571
|  5> C          2.48901       -1.66851       -2.73754
|  6> N          3.59631       -0.94761       -2.95225
|  7> N          1.66394       -1.41369       -1.77781
|  8> H          0.81164       -1.96318       -1.70275
|  9> H          1.84550       -0.63508       -1.15875
| 10> H          4.20535       -1.17600       -3.73383
| 11> H          3.81723       -0.12585       -2.40604
| 12> H          3.14311       -3.36280       -3.81152
| 13> H          1.48768       -3.45893       -3.16521
| 14> H          1.46566       -3.19589       -5.64368
| 15> H          2.35406       -1.69850       -5.49654
| 16> H          0.73014       -1.81680       -4.86253
| 17> *
| 18>
| 19> %MaxCore 64000
| 20> %pal nprocs 4
| 21> end
| 22>
| 23> %scf
| 24>   MaxIter 150
| 25> end
| 26>
| 27>
| 28>                          ****END OF INPUT****

CARTESIAN COORDINATES (ANGSTROEM)
---------------------------------
  C      1.647030   -2.345280   -5.020410
  C      2.209960   -2.812390   -3.665710
  C      2.489010   -1.668510   -2.737540
  N      3.596310   -0.947610   -2.952250
  N      1.663940   -1.413690   -1.777810
  H      0.811640   -1.963180   -1.702750
  H      1.845500   -0.635080   -1.158750
  H      4.205350   -1.176000   -3.733830
  H      3.817230   -0.125850   -2.406040
  H      3.143110   -3.362800   -3.811520
  H      1.487680   -3.458930   -3.165210
  H      1.465660   -3.195890   -5.643680
  H      2.354060   -1.698500   -5.496540
  H      0.730140   -1.816800   -4.862530

 Total Charge           Charge          ....    1
 Multiplicity           Mult            ....    1
 Number of Electrons    NEL             ....   40
 Basis Dimension        Dim             ....  172

ORBITAL ENERGIES
----------------

  NO   OCC          E(Eh)            E(eV)
   0   2.0000     -14.251254      -387.7963
   1   2.0000     -14.243065      -387.5735
   2   2.0000     -10.209073      -277.8030
   3   2.0000     -10.095471      -274.7117
   4   2.0000     -10.052747      -273.5492
   5   2.0000      -1.115884       -30.3647
   6   2.0000      -1.026078       -27.9210
   7   2.0000      -0.892588       -24.2886
   8   2.0000      -0.795856       -21.6563
   9   2.0000      -0.758337       -20.6354
  10   2.0000      -0.725206       -19.7339
  11   2.0000      -0.696114       -18.9422
  12   2.0000      -0.658223       -17.9112
  13   2.0000      -0.602230       -16.3875
  14   2.0000      -0.575709       -15.6658
  15   2.0000      -0.568697       -15.4750
  16   2.0000      -0.504562       -13.7298
  17   2.0000      -0.493164       -13.4197
  18   2.0000      -0.487402       -13.2629
  19   2.0000      -0.456058       -12.4100
  20   0.0000      -0.244957        -6.6656
  21   0.0000      -0.184337        -5.0161
  22   0.0000      -0.139851        -3.8055
  23   0.0000      -0.139619        -3.7992
  24   0.0000      -0.109892        -2.9903

MULLIKEN ATOMIC CHARGES
-----------------------
   0 C :    0.673933
   1 C :   -0.315449
   2 C :    0.721590
   3 N :    0.075357
   4 N :    0.118034
   5 H :    0.036235
   6 H :   -0.120040
   7 H :    0.023453
   8 H :   -0.159302
   9 H :    0.010240
  10 H :   -0.001439
  11 H :    0.011892
  12 H :   -0.029099
  13 H :   -0.045406
Sum of atomic charges:    1.0000000

LOEWDIN ATOMIC CHARGES
----------------------
   0 C :    0.173982
   1 C :    0.008787
   2 C :   -0.066270
   3 N :    0.295522
   4 N :    0.297533
   5 H :    0.060897
   6 H :    0.052966
   7 H :    0.050654
   8 H :    0.041142
   9 H :    0.049252
  10 H :    0.036917
  11 H :    0.008653
  12 H :   -0.008838
  13 H :   -0.001196

  Mayer bond orders larger than 0.100000
B(  0-C ,  1-C ) :   1.3081 B(  0-C , 11-H ) :   0.8294 B(  0-C , 12-H ) :   0.7860
B(  0-C , 13-H ) :   0.8388 B(  1-C ,  2-C ) :   1.1363 B(  1-C ,  3-N ) :   0.1123
B(  1-C ,  4-N ) :   0.1042 B(  1-C ,  9-H ) :   0.8874 B(  1-C , 10-H ) :   0.8844
B(  1-C , 11-H ) :   0.1565 B(  1-C , 12-H ) :   0.1986 B(  1-C , 13-H ) :   0.1699
B(  2-C ,  3-N ) :   1.0808 B(  2-C ,  4-N ) :   1.1193 B(  2-C ,  6-H ) :  -0.1721
B(  2-C ,  8-H ) :  -0.1798 B(  2-C , 10-H ) :   0.1402 B(  3-N ,  4-N ) :   0.1893
B(  3-N ,  7-H ) :   1.0926 B(  3-N ,  8-H ) :   1.2898 B(  4-N ,  5-H ) :   1.0848
B(  4-N ,  6-H ) :   1.2903 B(  5-H ,  6-H ) :  -0.1653 B(  7-H ,  8-H ) :  -0.1749

Dispersion correction           -0.010135027
FINAL SINGLE POINT ENERGY      -228.592941595669

DIPOLE MOMENT
-------------
                                X             Y             Z
Electronic contribution:      1.20189       1.66580       3.62409
Nuclear contribution   :     -0.98617      -1.03178      -2.77619
                        -----------------------------------------
Total Dipole Moment    :      0.21573       0.63403       0.84790
                        -----------------------------------------
Magnitude (a.u.)       :      1.08050
Magnitude (Debye)      :      2.74640

Rotational constants in cm-1:     0.257311     0.127495     0.099037
Rotational constants in MHz :  7713.982239  3822.189706  2969.039713

                             ****ORCA TERMINATED NORMALLY****
TOTAL RUN TIME: 0 days 0 hours 0 minutes 10 seconds 486 msec
