                         Program Version 5.0.0 -  RELEASE  -
|  1> !PBE D3BJ RIJCOSX def2-SVPD def2/J TightSCF
|  2> *xyz 0 1
|  3> C         -1.91658       -2.48508       -3.64367
|  4> C         -1.36353       -1.98134       -2.29361
|  5> F         -0.35039       -2.74969       -1.79601
|  6> H         -2.22622       -1.90839       -1.60204
|  7> H         -1.05135       -0.91567       -2.44333
|  8> H         -1.11522       -2.57167       -4.34739
|  9> H         -2.64227       -1.79099       -4.01314
| 10> H         -2.37564       -3.44180       -3.50640
| 11> *
| 12>
| 13> %MaxCore 64000
| 14> %pal nprocs 4
| 15> end
| 16>
| 17> %scf
| 18>   MaxIter 150
| 19> end
| 20>
| 21>
| 22>                          ****END OF INPUT****

CARTESIAN COORDINATES (ANGSTROEM)
---------------------------------
  C     -1.916580   -2.485080   -3.643670
  C     -1.363530   -1.981340   -2.293610
  F     -0.350390   -2.749690   -1.796010
  H     -2.226220   -1.908390   -1.602040
  H     -1.051350   -0.915670   -2.443330
  H     -1.115220   -2.571670   -4.347390
  H     -2.642270   -1.790990   -4.013140
  H     -2.375640   -3.441800   -3.506400

 Total Charge           Charge          ....    0
 Multiplicity           Mult            ....    1
 Number of Electrons    NEL             ....   26
 Basis Dimension        Dim             ....  103

ORBITAL ENERGIES
----------------

  NO   OCC          E(Eh)            E(eV)
   0   2.0000     -24.266500      -660.3250
   1   2.0000      -9.975175      -271.4383
   2   2.0000      -9.893610      -269.2188
   3   2.0000      -1.088709       -29.6253
   4   2.0000      -0.687834       -18.7169
   5   2.0000      -0.565280       -15.3820
   6   2.0000      -0.460074       -12.5192
   7   2.0000      -0.440935       -11.9984
   8   2.0000      -0.406861       -11.0713
   9   2.0000      -0.357373        -9.7246
  10   2.0000      -0.356213        -9.6931
  11   2.0000      -0.290471        -7.9041
  12   2.0000      -0.283325        -7.7097
  13   0.0000       0.004989         0.1358
  14   0.0000       0.037175         1.0116
  15   0.0000       0.050588         1.3766
  16   0.0000       0.060952         1.6586
  17   0.0000       0.084546         2.3006

MULLIKEN ATOMIC CHARGES
-----------------------
   0 C :    0.346514
   1 C :    0.376472
   2 F :   -0.413635
   3 H :   -0.080569
   4 H :   -0.048404
   5 H :   -0.073875
   6 H :   -0.041859
   7 H :   -0.064645
Sum of atomic charges:   -0.0000000

LOEWDIN ATOMIC CHARGES
----------------------
   0 C :    0.135926
   1 C :    0.044604
   2 F :   -0.194379
   3 H :    0.026866
   4 H :    0.033181
   5 H :   -0.015706
   6 H :   -0.013827
   7 H :   -0.016665

  Mayer bond orders larger than 0.100000
B(  0-C ,  1-C ) :   1.3699 B(  0-C ,  5-H ) :   0.8876 B(  0-C ,  6-H ) :   0.8535
B(  0-C ,  7-H ) :   0.8858 B(  1-C ,  2-F ) :   0.7835 B(  1-C ,  3-H ) :   0.9371
B(  1-C ,  4-H ) :   0.9311 B(  1-C ,  5-H ) :   0.1509 B(  1-C ,  6-H ) :   0.1261
B(  1-C ,  7-H ) :   0.1416

Dispersion correction           -0.003476669
FINAL SINGLE POINT ENERGY      -178.726758844941

DIPOLE MOMENT
-------------
                                X             Y             Z
Electronic contribution:      3.63389      -1.37013       3.43242
Nuclear contribution   :     -4.15401       1.70894      -3.75000
                        -----------------------------------------
Total Dipole Moment    :     -0.52012       0.33881      -0.31757
                        -----------------------------------------
Magnitude (a.u.)       :      0.69726
Magnitude (Debye)      :      1.77230

Rotational constants in cm-1:     1.266842     0.300492     0.266603
Rotational constants in MHz : 37978.968232  9008.526876  7992.551454

                             ****ORCA TERMINATED NORMALLY****
TOTAL RUN TIME: 0 days 0 hours 0 minutes 6 seconds 747 msec
