                         Program Version 5.0.0 -  RELEASE  -
|  1> !PBE D3BJ RIJCOSX def2-SVPD def2/J TightSCF
|  2> *xyz 0 1
|  3> C          1.64703       -2.34528       -5.02041
|  4> C          2.20996       -2.81239       -3.66571
|  5> C          2.48901       -1.66851       -2.73754
|  6> C          3.59631       -0.94761       -2.95225
|  7> N          1.66394       -1.41369       -1.77781
|  8> H          0.81164       -1.96318       -1.70275
|  9> H          1.84550       -0.63508       -1.15875
| 10> H          4.20535       -1.17600       -3.73383
| 11> H          3.81723       -0.12585       -2.40604
| 12> H          3.14311       -3.36280       -3.81152
| 13> H          1.48768       -3.45893       -3.16521
| 14> H          1.46566       -3.19589       -5.64368
| 15> H          2.35406       -1.69850       -5.49654
| 16> H          0.73014       -1.81680       -4.86253
| 17> *
| 18>
| 19> %MaxCore 64000
| 20> %pal nprocs 4
| 21> end
| 22>
| 23> %scf
| 24>   MaxIter 150
| 25> end
| 26>
| 27>
| 28>                          ****END OF INPUT****

CARTESIAN COORDINATES (ANGSTROEM)
---------------------------------
  C      1.647030   -2.345280   -5.020410
  C      2.209960   -2.812390   -3.665710
  C      2.489010   -1.668510   -2.737540
  C      3.596310   -0.947610   -2.952250
  N      1.663940   -1.413690   -1.777810
  H      0.811640   -1.963180   -1.702750
  H      1.845500   -0.635080   -1.158750
  H      4.205350   -1.176000   -3.733830
  H      3.817230   -0.125850   -2.406040
  H      3.143110   -3.362800   -3.811520
  H      1.487680   -3.458930   -3.165210
  H      1.465660   -3.195890   -5.643680
  H      2.354060   -1.698500   -5.496540
  H      0.730140   -1.816800   -4.862530

 Total Charge           Charge          ....    0
 Multiplicity           Mult            ....    1
 Number of Electrons    NEL             ....   40
 Basis Dimension        Dim             ....  172

ORBITAL ENERGIES
----------------

  NO   OCC          E(Eh)            E(eV)
   0   2.0000     -14.007520      -381.1640
   1   2.0000      -9.911412      -269.7032
   2   2.0000      -9.896258      -269.2909
   3   2.0000      -9.880838      -268.8713
   4   2.0000      -9.826387      -267.3896
   5   2.0000      -0.852591       -23.2002
   6   2.0000      -0.701322       -19.0839
   7   2.0000      -0.634008       -17.2522
   8   2.0000      -0.571954       -15.5637
   9   2.0000      -0.512168       -13.9368
  10   2.0000      -0.481390       -13.0993
  11   2.0000      -0.428948       -11.6723
  12   2.0000      -0.394341       -10.7306
  13   2.0000      -0.365161        -9.9365
  14   2.0000      -0.349273        -9.5042
  15   2.0000      -0.335882        -9.1398
  16   2.0000      -0.308348        -8.3906
  17   2.0000      -0.293847        -7.9960
  18   2.0000      -0.292425        -7.9573
  19   2.0000      -0.154618        -4.2074
  20   0.0000      -0.005021        -0.1366
  21   0.0000       0.013931         0.3791
  22   0.0000       0.032224         0.8769
  23   0.0000       0.038279         1.0416
  24   0.0000       0.050286         1.3683

MULLIKEN ATOMIC CHARGES
-----------------------
   0 C :    0.634397
   1 C :   -0.126504
   2 C :   -0.068362
   3 C :    0.494922
   4 N :    0.233139
   5 H :   -0.113855
   6 H :   -0.159357
   7 H :   -0.164586
   8 H :   -0.522189
   9 H :    0.044576
  10 H :   -0.099304
  11 H :   -0.011436
  12 H :   -0.064772
  13 H :   -0.076669
Sum of atomic charges:   -0.0000000

LOEWDIN ATOMIC CHARGES
----------------------
   0 C :    0.135846
   1 C :   -0.033670
   2 C :   -0.277941
   3 C :    0.176242
   4 N :    0.181462
   5 H :    0.005402
   6 H :    0.013112
   7 H :   -0.083004
   8 H :   -0.094892
   9 H :    0.027659
  10 H :    0.009432
  11 H :   -0.021705
  12 H :   -0.020358
  13 H :   -0.017584

  Mayer bond orders larger than 0.100000
B(  0-C ,  1-C ) :   1.3153 B(  0-C , 10-H ) :   0.1057 B(  0-C , 11-H ) :   0.8074
B(  0-C , 12-H ) :   0.8373 B(  0-C , 13-H ) :   0.8370 B(  1-C ,  2-C ) :   1.1085
B(  1-C ,  3-C ) :   0.1917 B(  1-C ,  4-N ) :   0.1272 B(  1-C ,  9-H ) :   0.8352
B(  1-C , 10-H ) :   0.8206 B(  1-C , 11-H ) :   0.1613 B(  1-C , 12-H ) :   0.2007
B(  1-C , 13-H ) :   0.1992 B(  2-C ,  3-C ) :   1.6464 B(  2-C ,  4-N ) :   1.2392
B(  2-C ,  7-H ) :   0.1022 B(  2-C ,  8-H ) :   0.1819 B(  2-C ,  9-H ) :   0.1165
B(  2-C , 10-H ) :   0.1801 B(  3-C ,  4-N ) :   0.2762 B(  3-C ,  7-H ) :   0.8081
B(  3-C ,  8-H ) :   0.7703 B(  4-N ,  5-H ) :   1.0955 B(  4-N ,  6-H ) :   1.2497
B(  5-H ,  6-H ) :  -0.1455

Dispersion correction           -0.010518775
FINAL SINGLE POINT ENERGY      -212.137308933307

DIPOLE MOMENT
-------------
                                X             Y             Z
Electronic contribution:     -0.03907       0.67382       3.04624
Nuclear contribution   :     -0.69146      -0.83112      -2.71336
                        -----------------------------------------
Total Dipole Moment    :     -0.73053      -0.15729       0.33287
                        -----------------------------------------
Magnitude (a.u.)       :      0.81806
Magnitude (Debye)      :      2.07935

Rotational constants in cm-1:     0.270661     0.129240     0.102040
Rotational constants in MHz :  8114.202941  3874.518141  3059.074383

                             ****ORCA TERMINATED NORMALLY****
TOTAL RUN TIME: 0 days 0 hours 0 minutes 11 seconds 998 msec
