                         Program Version 5.0.0 -  RELEASE  -
|  1> !PBE D3BJ RIJCOSX def2-SVPD def2/J TightSCF
|  2> *xyz 0 1
|  3> C          1.64703       -2.34528       -5.02041
|  4> C          2.20996       -2.81239       -3.66571
|  5> C          2.48901       -1.66851       -2.73754
|  6> N          3.59631       -0.94761       -2.95225
|  7> C          1.66394       -1.41369       -1.77781
|  8> H          0.81164       -1.96318       -1.70275
|  9> H          1.84550       -0.63508       -1.15875
| 10> H          4.20535       -1.17600       -3.73383
| 11> H          3.81723       -0.12585       -2.40604
| 12> H          3.14311       -3.36280       -3.81152
| 13> H          1.48768       -3.45893       -3.16521
| 14> H          1.46566       -3.19589       -5.64368
| 15> H          2.35406       -1.69850       -5.49654
| 16> H          0.73014       -1.81680       -4.86253
| 17> *
| 18>
| 19> %MaxCore 64000
| 20> %pal nprocs 4
| 21> end
| 22>
| 23> %scf
| 24>   MaxIter 150
| 25> end
| 26>
| 27>
| 28>                          ****END OF INPUT****

CARTESIAN COORDINATES (ANGSTROEM)
---------------------------------
  C      1.647030   -2.345280   -5.020410
  C      2.209960   -2.812390   -3.665710
  C      2.489010   -1.668510   -2.737540
  N      3.596310   -0.947610   -2.952250
  C      1.663940   -1.413690   -1.777810
  H      0.811640   -1.963180   -1.702750
  H      1.845500   -0.635080   -1.158750
  H      4.205350   -1.176000   -3.733830
  H      3.817230   -0.125850   -2.406040
  H      3.143110   -3.362800   -3.811520
  H      1.487680   -3.458930   -3.165210
  H      1.465660   -3.195890   -5.643680
  H      2.354060   -1.698500   -5.496540
  H      0.730140   -1.816800   -4.862530

 Total Charge           Charge          ....    0
 Multiplicity           Mult            ....    1
 Number of Electrons    NEL             ....   40
 Basis Dimension        Dim             ....  172

ORBITAL ENERGIES
----------------

  NO   OCC          E(Eh)            E(eV)
   0   2.0000     -14.001450      -380.9988
   1   2.0000      -9.909084      -269.6399
   2   2.0000      -9.894659      -269.2474
   3   2.0000      -9.882096      -268.9055
   4   2.0000      -9.829007      -267.4609
   5   2.0000      -0.834994       -22.7213
   6   2.0000      -0.701599       -19.0915
   7   2.0000      -0.647013       -17.6061
   8   2.0000      -0.567117       -15.4321
   9   2.0000      -0.509192       -13.8558
  10   2.0000      -0.470460       -12.8019
  11   2.0000      -0.428973       -11.6730
  12   2.0000      -0.387931       -10.5561
  13   2.0000      -0.375664       -10.2223
  14   2.0000      -0.351252        -9.5580
  15   2.0000      -0.339718        -9.2442
  16   2.0000      -0.308564        -8.3965
  17   2.0000      -0.291727        -7.9383
  18   2.0000      -0.285144        -7.7592
  19   2.0000      -0.164674        -4.4810
  20   0.0000      -0.003940        -0.1072
  21   0.0000       0.016906         0.4600
  22   0.0000       0.034544         0.9400
  23   0.0000       0.041075         1.1177
  24   0.0000       0.049091         1.3358

MULLIKEN ATOMIC CHARGES
-----------------------
   0 C :    0.670137
   1 C :   -0.179799
   2 C :   -0.020877
   3 N :    0.182736
   4 C :    0.382471
   5 H :   -0.100547
   6 H :   -0.408638
   7 H :   -0.140291
   8 H :   -0.213422
   9 H :   -0.078080
  10 H :    0.056802
  11 H :   -0.025579
  12 H :   -0.055603
  13 H :   -0.069309
Sum of atomic charges:   -0.0000000

LOEWDIN ATOMIC CHARGES
----------------------
   0 C :    0.134254
   1 C :   -0.034486
   2 C :   -0.277019
   3 N :    0.186042
   4 C :    0.169697
   5 H :   -0.072238
   6 H :   -0.078713
   7 H :   -0.004804
   8 H :   -0.000928
   9 H :    0.020188
  10 H :    0.020187
  11 H :   -0.021302
  12 H :   -0.026378
  13 H :   -0.014500

  Mayer bond orders larger than 0.100000
B(  0-C ,  1-C ) :   1.2744 B(  0-C , 11-H ) :   0.8152 B(  0-C , 12-H ) :   0.7901
B(  0-C , 13-H ) :   0.8516 B(  1-C ,  2-C ) :   1.1958 B(  1-C ,  3-N ) :   0.1231
B(  1-C ,  4-C ) :   0.1745 B(  1-C ,  9-H ) :   0.8608 B(  1-C , 10-H ) :   0.8496
B(  1-C , 11-H ) :   0.1739 B(  1-C , 12-H ) :   0.2245 B(  1-C , 13-H ) :   0.1786
B(  2-C ,  3-N ) :   1.1896 B(  2-C ,  4-C ) :   1.6095 B(  2-C ,  5-H ) :   0.1014
B(  2-C ,  6-H ) :   0.2668 B(  2-C ,  9-H ) :   0.1585 B(  2-C , 10-H ) :   0.1551
B(  3-N ,  4-C ) :   0.2840 B(  3-N ,  7-H ) :   1.1457 B(  3-N ,  8-H ) :   1.2540
B(  4-C ,  5-H ) :   0.9206 B(  4-C ,  6-H ) :   0.6421 B(  7-H ,  8-H ) :  -0.1509

Dispersion correction           -0.010507685
FINAL SINGLE POINT ENERGY      -212.140408479830

DIPOLE MOMENT
-------------
                                X             Y             Z
Electronic contribution:      1.65914       1.08864       2.01289
Nuclear contribution   :     -1.13902      -0.93906      -2.44135
                        -----------------------------------------
Total Dipole Moment    :      0.52012       0.14957      -0.42846
                        -----------------------------------------
Magnitude (a.u.)       :      0.69027
Magnitude (Debye)      :      1.75454

Rotational constants in cm-1:     0.267243     0.130607     0.102304
Rotational constants in MHz :  8011.748167  3915.504600  3066.999841

                             ****ORCA TERMINATED NORMALLY****
TOTAL RUN TIME: 0 days 0 hours 0 minutes 11 seconds 215 msec
