                         Program Version 5.0.0 -  RELEASE  -
|  1> !wB97X-D3 RIJCOSX def2-SVP def2/J TightSCF
|  2> *xyz -1 1
|  3> C          0.70466        1.44313       -4.50363
|  4> C          1.72854        1.42432       -5.63944
|  5> H          2.64672        1.95379       -5.38105
|  6> H          1.29992        1.93061       -6.50361
|  7> S          2.25263       -0.18811       -6.27184
|  8> O          3.56261       -0.44446       -5.63155
|  9> O          2.34494       -0.03374       -7.69650
| 10> O          1.26606       -1.15918       -5.80536
| 11> H         -0.17385        0.91270       -4.80656
| 12> H          0.44778        2.45562       -4.27173
| 13> H          1.12367        0.97423       -3.63791
| 14> *
| 15>
| 16> %MaxCore 64000
| 17>
| 18> %pal nprocs 4
| 19> end
| 20>
| 21> %scf
| 22>   MaxIter 150
| 23> end
| 24>
| 25>
| 26>                          ****END OF INPUT****

CARTESIAN COORDINATES (ANGSTROEM)
---------------------------------
  C      0.704660    1.443130   -4.503630
  C      1.728540    1.424320   -5.639440
  H      2.646720    1.953790   -5.381050
  H      1.299920    1.930610   -6.503610
  S      2.252630   -0.188110   -6.271840
  O      3.562610   -0.444460   -5.631550
  O      2.344940   -0.033740   -7.696500
  O      1.266060   -1.159180   -5.805360
  H     -0.173850    0.912700   -4.806560
  H      0.447780    2.455620   -4.271730
  H      1.123670    0.974230   -3.637910

 Total Charge           Charge          ....   -1
 Multiplicity           Mult            ....    1
 Number of Electrons    NEL             ....   58
 Basis Dimension        Dim             ....  113

ORBITAL ENERGIES
----------------

  NO   OCC          E(Eh)            E(eV)
   0   2.0000     -88.937066     -2420.1006
   1   2.0000     -18.991791      -516.7929
   2   2.0000     -18.985089      -516.6105
   3   2.0000     -18.972992      -516.2814
   4   2.0000     -10.143779      -276.0262
   5   2.0000     -10.136240      -275.8211
   6   2.0000      -8.017783      -218.1750
   7   2.0000      -5.976829      -162.6378
   8   2.0000      -5.976611      -162.6319
   9   2.0000      -5.976458      -162.6277
  10   2.0000      -1.018476       -27.7141
  11   2.0000      -0.874925       -23.8079
  12   2.0000      -0.849587       -23.1184
  13   2.0000      -0.735363       -20.0102
  14   2.0000      -0.606542       -16.5048
  15   2.0000      -0.468362       -12.7448
  16   2.0000      -0.412561       -11.2264
  17   2.0000      -0.400049       -10.8859
  18   2.0000      -0.363080        -9.8799
  19   2.0000      -0.341195        -9.2844
  20   2.0000      -0.336673        -9.1613
  21   2.0000      -0.312058        -8.4915
  22   2.0000      -0.304266        -8.2795
  23   2.0000      -0.217997        -5.9320
  24   2.0000      -0.217070        -5.9068
  25   2.0000      -0.182400        -4.9634
  26   2.0000      -0.175671        -4.7803
  27   2.0000      -0.163809        -4.4575
  28   2.0000      -0.127747        -3.4762
  29   0.0000       0.284461         7.7406
  30   0.0000       0.341813         9.3012
  31   0.0000       0.344061         9.3624
  32   0.0000       0.351982         9.5779
  33   0.0000       0.371912        10.1202

MULLIKEN ATOMIC CHARGES
-----------------------
   0 C :   -0.002342
   1 C :   -0.145605
   2 H :    0.023592
   3 H :    0.014562
   4 S :    0.890943
   5 O :   -0.631096
   6 O :   -0.579134
   7 O :   -0.598476
   8 H :    0.024129
   9 H :   -0.018550
  10 H :    0.021975
Sum of atomic charges:   -1.0000000

LOEWDIN ATOMIC CHARGES
----------------------
   0 C :   -0.072492
   1 C :   -0.193684
   2 H :    0.012436
   3 H :    0.007975
   4 S :    1.103907
   5 O :   -0.661134
   6 O :   -0.607663
   7 O :   -0.631227
   8 H :    0.019162
   9 H :    0.003631
  10 H :    0.019087

  Mayer bond orders larger than 0.100000
B(  0-C ,  1-C ) :   1.0655 B(  0-C ,  8-H ) :   0.9697 B(  0-C ,  9-H ) :   0.9658
B(  0-C , 10-H ) :   0.9731 B(  1-C ,  2-H ) :   0.9504 B(  1-C ,  3-H ) :   0.9510
B(  1-C ,  4-S ) :   0.8839 B(  4-S ,  5-O ) :   1.5965 B(  4-S ,  6-O ) :   1.6492
B(  4-S ,  7-O ) :   1.6298

Dispersion correction           -0.002812042
FINAL SINGLE POINT ENERGY      -702.632595636822

DIPOLE MOMENT
-------------
                                X             Y             Z
Electronic contribution:      3.67181      -5.68075      -4.33304
Nuclear contribution   :     -4.50297       7.24642       5.01775
                        -----------------------------------------
Total Dipole Moment    :     -0.83117       1.56567       0.68471
                        -----------------------------------------
Magnitude (a.u.)       :      1.90026
Magnitude (Debye)      :      4.83008

Rotational constants in cm-1:     0.162459     0.081286     0.079601
Rotational constants in MHz :  4870.394399  2436.893583  2386.374948

                             ****ORCA TERMINATED NORMALLY****
TOTAL RUN TIME: 0 days 0 hours 0 minutes 17 seconds 717 msec
