                         Program Version 5.0.0 -  RELEASE  -
|  1> !wB97X-D3 RIJCOSX def2-SVP def2/J TightSCF
|  2> *xyz 1 1
|  3> C          2.91632       -1.24259       -1.54313
|  4> C          3.46659       -1.59097       -2.88908
|  5> N          4.65227       -1.14316       -3.25969
|  6> N          2.75226       -2.29204       -3.72803
|  7> H          1.77836       -2.48960       -3.51274
|  8> H          2.94861       -2.20854       -4.71681
|  9> H          5.14672       -0.51251       -2.63385
| 10> H          4.78303       -1.00720       -4.25350
| 11> C          2.80408        0.29070       -1.35924
| 12> H          1.94047       -1.71653       -1.44116
| 13> H          3.55857       -1.66343       -0.76637
| 14> H          2.17393        0.69633       -2.12297
| 15> H          3.77707        0.73043       -1.42880
| 16> H          2.38369        0.50492       -0.39889
| 17> *
| 18>
| 19> %MaxCore 64000
| 20>
| 21> %pal nprocs 4
| 22> end
| 23>
| 24> %scf
| 25>   MaxIter 150
| 26> end
| 27>
| 28>
| 29>                          ****END OF INPUT****

CARTESIAN COORDINATES (ANGSTROEM)
---------------------------------
  C      2.916320   -1.242590   -1.543130
  C      3.466590   -1.590970   -2.889080
  N      4.652270   -1.143160   -3.259690
  N      2.752260   -2.292040   -3.728030
  H      1.778360   -2.489600   -3.512740
  H      2.948610   -2.208540   -4.716810
  H      5.146720   -0.512510   -2.633850
  H      4.783030   -1.007200   -4.253500
  C      2.804080    0.290700   -1.359240
  H      1.940470   -1.716530   -1.441160
  H      3.558570   -1.663430   -0.766370
  H      2.173930    0.696330   -2.122970
  H      3.777070    0.730430   -1.428800
  H      2.383690    0.504920   -0.398890

 Total Charge           Charge          ....    1
 Multiplicity           Mult            ....    1
 Number of Electrons    NEL             ....   40
 Basis Dimension        Dim             ....  115

ORBITAL ENERGIES
----------------

  NO   OCC          E(Eh)            E(eV)
   0   2.0000     -14.686531      -399.6408
   1   2.0000     -14.681324      -399.4991
   2   2.0000     -10.616658      -288.8939
   3   2.0000     -10.491103      -285.4774
   4   2.0000     -10.452695      -284.4323
   5   2.0000      -1.323293       -36.0086
   6   2.0000      -1.220085       -33.2002
   7   2.0000      -1.083303       -29.4782
   8   2.0000      -0.971241       -26.4288
   9   2.0000      -0.924308       -25.1517
  10   2.0000      -0.874738       -23.8028
  11   2.0000      -0.856783       -23.3142
  12   2.0000      -0.800193       -21.7744
  13   2.0000      -0.769420       -20.9370
  14   2.0000      -0.726613       -19.7721
  15   2.0000      -0.701060       -19.0768
  16   2.0000      -0.649457       -17.6726
  17   2.0000      -0.639370       -17.3981
  18   2.0000      -0.626090       -17.0368
  19   2.0000      -0.592679       -16.1276
  20   0.0000      -0.134072        -3.6483
  21   0.0000      -0.057236        -1.5575
  22   0.0000      -0.014057        -0.3825
  23   0.0000      -0.011023        -0.3000
  24   0.0000       0.022275         0.6061

MULLIKEN ATOMIC CHARGES
-----------------------
   0 C :   -0.038843
   1 C :   -0.048057
   2 N :   -0.022909
   3 N :   -0.008446
   4 H :    0.196170
   5 H :    0.180993
   6 H :    0.192116
   7 H :    0.184695
   8 C :   -0.043873
   9 H :    0.071631
  10 H :    0.119968
  11 H :    0.065742
  12 H :    0.051250
  13 H :    0.099564
Sum of atomic charges:    1.0000000

LOEWDIN ATOMIC CHARGES
----------------------
   0 C :   -0.037784
   1 C :    0.160119
   2 N :    0.084581
   3 N :    0.098704
   4 H :    0.124065
   5 H :    0.113775
   6 H :    0.119636
   7 H :    0.113206
   8 C :   -0.024633
   9 H :    0.052859
  10 H :    0.071525
  11 H :    0.038490
  12 H :    0.028931
  13 H :    0.056527

  Mayer bond orders larger than 0.100000
B(  0-C ,  1-C ) :   1.0161 B(  0-C ,  8-C ) :   1.0528 B(  0-C ,  9-H ) :   0.9310
B(  0-C , 10-H ) :   0.9221 B(  1-C ,  2-N ) :   1.4854 B(  1-C ,  3-N ) :   1.5230
B(  2-N ,  6-H ) :   0.9245 B(  2-N ,  7-H ) :   0.9299 B(  3-N ,  4-H ) :   0.9188
B(  3-N ,  5-H ) :   0.9309 B(  8-C , 11-H ) :   0.9733 B(  8-C , 12-H ) :   0.9747
B(  8-C , 13-H ) :   0.9645

Dispersion correction           -0.003004665
FINAL SINGLE POINT ENERGY      -228.799380683836

DIPOLE MOMENT
-------------
                                X             Y             Z
Electronic contribution:      1.31472      -2.84575      -2.82304
Nuclear contribution   :     -1.30215       2.77761       1.84194
                        -----------------------------------------
Total Dipole Moment    :      0.01257      -0.06814      -0.98110
                        -----------------------------------------
Magnitude (a.u.)       :      0.98354
Magnitude (Debye)      :      2.49997

Rotational constants in cm-1:     0.267442     0.127541     0.099068
Rotational constants in MHz :  8017.703171  3823.592522  2969.992494

                             ****ORCA TERMINATED NORMALLY****
TOTAL RUN TIME: 0 days 0 hours 0 minutes 17 seconds 615 msec
