                         Program Version 5.0.0 -  RELEASE  -
|  1> !wB97X-D3 RIJCOSX def2-SVP def2/J TightSCF
|  2> *xyz 0 1
|  3> C          0.70466        1.44313       -4.50363
|  4> C          1.72854        1.42432       -5.63944
|  5> H          2.64672        1.95379       -5.38105
|  6> H          1.29992        1.93061       -6.50361
|  7> S          2.25263       -0.18811       -6.27184
|  8> F          3.56261       -0.44446       -5.63155
|  9> O          2.34494       -0.03374       -7.69650
| 10> O          1.26606       -1.15918       -5.80536
| 11> H         -0.17385        0.91270       -4.80656
| 12> H          0.44778        2.45562       -4.27173
| 13> H          1.12367        0.97423       -3.63791
| 14> *
| 15>
| 16> %MaxCore 64000
| 17>
| 18> %pal nprocs 4
| 19> end
| 20>
| 21> %scf
| 22>   MaxIter 150
| 23> end
| 24>
| 25>
| 26>                          ****END OF INPUT****

CARTESIAN COORDINATES (ANGSTROEM)
---------------------------------
  C      0.704660    1.443130   -4.503630
  C      1.728540    1.424320   -5.639440
  H      2.646720    1.953790   -5.381050
  H      1.299920    1.930610   -6.503610
  S      2.252630   -0.188110   -6.271840
  F      3.562610   -0.444460   -5.631550
  O      2.344940   -0.033740   -7.696500
  O      1.266060   -1.159180   -5.805360
  H     -0.173850    0.912700   -4.806560
  H      0.447780    2.455620   -4.271730
  H      1.123670    0.974230   -3.637910

 Total Charge           Charge          ....    0
 Multiplicity           Mult            ....    1
 Number of Electrons    NEL             ....   58
 Basis Dimension        Dim             ....  113

ORBITAL ENERGIES
----------------

  NO   OCC          E(Eh)            E(eV)
   0   2.0000     -89.211482     -2427.5678
   1   2.0000     -24.887096      -677.2123
   2   2.0000     -19.245143      -523.6870
   3   2.0000     -19.237927      -523.4906
   4   2.0000     -10.348185      -281.5884
   5   2.0000     -10.309882      -280.5462
   6   2.0000      -8.294391      -225.7019
   7   2.0000      -6.257344      -170.2710
   8   2.0000      -6.251002      -170.0984
   9   2.0000      -6.250023      -170.0718
  10   2.0000      -1.454570       -39.5809
  11   2.0000      -1.222946       -33.2781
  12   2.0000      -1.122786       -30.5525
  13   2.0000      -0.933171       -25.3929
  14   2.0000      -0.829988       -22.5851
  15   2.0000      -0.775480       -21.1019
  16   2.0000      -0.680570       -18.5193
  17   2.0000      -0.663918       -18.0661
  18   2.0000      -0.647939       -17.6313
  19   2.0000      -0.592524       -16.1234
  20   2.0000      -0.578957       -15.7542
  21   2.0000      -0.548913       -14.9367
  22   2.0000      -0.526395       -14.3239
  23   2.0000      -0.499817       -13.6007
  24   2.0000      -0.493775       -13.4363
  25   2.0000      -0.475830       -12.9480
  26   2.0000      -0.423828       -11.5329
  27   2.0000      -0.417110       -11.3501
  28   2.0000      -0.403255       -10.9731
  29   0.0000       0.120282         3.2730
  30   0.0000       0.128776         3.5042
  31   0.0000       0.162634         4.4255
  32   0.0000       0.169983         4.6255
  33   0.0000       0.188050         5.1171

MULLIKEN ATOMIC CHARGES
-----------------------
   0 C :   -0.014424
   1 C :   -0.197007
   2 H :    0.082209
   3 H :    0.104944
   4 S :    0.978513
   5 F :   -0.214903
   6 O :   -0.442928
   7 O :   -0.466297
   8 H :    0.068038
   9 H :    0.051723
  10 H :    0.050132
Sum of atomic charges:   -0.0000000

LOEWDIN ATOMIC CHARGES
----------------------
   0 C :   -0.053980
   1 C :   -0.159039
   2 H :    0.035394
   3 H :    0.050006
   4 S :    1.168754
   5 F :   -0.159243
   6 O :   -0.481193
   7 O :   -0.506651
   8 H :    0.037574
   9 H :    0.037003
  10 H :    0.031373

  Mayer bond orders larger than 0.100000
B(  0-C ,  1-C ) :   1.0575 B(  0-C ,  8-H ) :   0.9705 B(  0-C ,  9-H ) :   0.9646
B(  0-C , 10-H ) :   0.9755 B(  1-C ,  2-H ) :   0.9390 B(  1-C ,  3-H ) :   0.9424
B(  1-C ,  4-S ) :   0.9062 B(  4-S ,  5-F ) :   0.9819 B(  4-S ,  6-O ) :   1.8019
B(  4-S ,  7-O ) :   1.7818

Dispersion correction           -0.002792976
FINAL SINGLE POINT ENERGY      -727.150650363750

DIPOLE MOMENT
-------------
                                X             Y             Z
Electronic contribution:      6.32587      -6.49048      -3.71431
Nuclear contribution   :     -6.09914       7.80989       4.64238
                        -----------------------------------------
Total Dipole Moment    :      0.22673       1.31941       0.92807
                        -----------------------------------------
Magnitude (a.u.)       :      1.62898
Magnitude (Debye)      :      4.14054

Rotational constants in cm-1:     0.154372     0.078826     0.078033
Rotational constants in MHz :  4627.943144  2363.154585  2339.382767

                             ****ORCA TERMINATED NORMALLY****
TOTAL RUN TIME: 0 days 0 hours 0 minutes 18 seconds 339 msec
