                         Program Version 5.0.0 -  RELEASE  -
|  1> !wB97X-D3 RIJCOSX def2-SVP def2/J TightSCF
|  2> *xyz 0 1
|  3> C          2.91632       -1.24259       -1.54313
|  4> C          3.46659       -1.59097       -2.88908
|  5> C          4.65227       -1.14316       -3.25969
|  6> N          2.75226       -2.29204       -3.72803
|  7> H          1.77836       -2.48960       -3.51274
|  8> H          2.94861       -2.20854       -4.71681
|  9> H          5.14672       -0.51251       -2.63385
| 10> H          4.78303       -1.00720       -4.25350
| 11> C          2.80408        0.29070       -1.35924
| 12> H          1.94047       -1.71653       -1.44116
| 13> H          3.55857       -1.66343       -0.76637
| 14> H          2.17393        0.69633       -2.12297
| 15> H          3.77707        0.73043       -1.42880
| 16> H          2.38369        0.50492       -0.39889
| 17> *
| 18>
| 19> %MaxCore 64000
| 20>
| 21> %pal nprocs 4
| 22> end
| 23>
| 24> %scf
| 25>   MaxIter 150
| 26> end
| 27>
| 28>
| 29>                          ****END OF INPUT****

CARTESIAN COORDINATES (ANGSTROEM)
---------------------------------
  C      2.916320   -1.242590   -1.543130
  C      3.466590   -1.590970   -2.889080
  C      4.652270   -1.143160   -3.259690
  N      2.752260   -2.292040   -3.728030
  H      1.778360   -2.489600   -3.512740
  H      2.948610   -2.208540   -4.716810
  H      5.146720   -0.512510   -2.633850
  H      4.783030   -1.007200   -4.253500
  C      2.804080    0.290700   -1.359240
  H      1.940470   -1.716530   -1.441160
  H      3.558570   -1.663430   -0.766370
  H      2.173930    0.696330   -2.122970
  H      3.777070    0.730430   -1.428800
  H      2.383690    0.504920   -0.398890

 Total Charge           Charge          ....    0
 Multiplicity           Mult            ....    1
 Number of Electrons    NEL             ....   40
 Basis Dimension        Dim             ....  115

ORBITAL ENERGIES
----------------

  NO   OCC          E(Eh)            E(eV)
   0   2.0000     -14.432871      -392.7384
   1   2.0000     -10.305364      -280.4232
   2   2.0000     -10.289633      -279.9951
   3   2.0000     -10.275909      -279.6217
   4   2.0000     -10.211893      -277.8797
   5   2.0000      -1.040524       -28.3141
   6   2.0000      -0.888887       -24.1878
   7   2.0000      -0.815502       -22.1909
   8   2.0000      -0.748021       -20.3547
   9   2.0000      -0.663747       -18.0615
  10   2.0000      -0.620037       -16.8721
  11   2.0000      -0.577523       -15.7152
  12   2.0000      -0.548255       -14.9188
  13   2.0000      -0.505446       -13.7539
  14   2.0000      -0.484388       -13.1809
  15   2.0000      -0.470609       -12.8059
  16   2.0000      -0.449272       -12.2253
  17   2.0000      -0.435465       -11.8496
  18   2.0000      -0.418180       -11.3793
  19   2.0000      -0.270933        -7.3725
  20   0.0000       0.128848         3.5061
  21   0.0000       0.138065         3.7569
  22   0.0000       0.180957         4.9241
  23   0.0000       0.186810         5.0834
  24   0.0000       0.209075         5.6892

MULLIKEN ATOMIC CHARGES
-----------------------
   0 C :    0.013090
   1 C :   -0.151317
   2 C :   -0.075115
   3 N :   -0.091259
   4 H :    0.114479
   5 H :    0.122963
   6 H :   -0.024347
   7 H :   -0.029849
   8 C :   -0.018958
   9 H :    0.000847
  10 H :    0.050808
  11 H :    0.026826
  12 H :    0.035919
  13 H :    0.025914
Sum of atomic charges:   -0.0000000

LOEWDIN ATOMIC CHARGES
----------------------
   0 C :   -0.034071
   1 C :    0.007593
   2 C :   -0.190558
   3 N :   -0.004672
   4 H :    0.069546
   5 H :    0.077965
   6 H :   -0.003124
   7 H :   -0.005287
   8 C :   -0.042270
   9 H :    0.016894
  10 H :    0.039701
  11 H :    0.022716
  12 H :    0.024653
  13 H :    0.020914

  Mayer bond orders larger than 0.100000
B(  0-C ,  1-C ) :   0.9951 B(  0-C ,  8-C ) :   1.0847 B(  0-C ,  9-H ) :   0.9451
B(  0-C , 10-H ) :   0.9421 B(  1-C ,  2-C ) :   1.8476 B(  1-C ,  3-N ) :   1.2647
B(  2-C ,  6-H ) :   0.9630 B(  2-C ,  7-H ) :   0.9654 B(  3-N ,  4-H ) :   0.9518
B(  3-N ,  5-H ) :   0.9518 B(  8-C , 11-H ) :   0.9754 B(  8-C , 12-H ) :   0.9771
B(  8-C , 13-H ) :   0.9720

Dispersion correction           -0.002988923
FINAL SINGLE POINT ENERGY      -212.336938897128

DIPOLE MOMENT
-------------
                                X             Y             Z
Electronic contribution:      0.04525      -2.75704      -1.83383
Nuclear contribution   :     -0.99366       2.78648       1.68526
                        -----------------------------------------
Total Dipole Moment    :     -0.94840       0.02944      -0.14857
                        -----------------------------------------
Magnitude (a.u.)       :      0.96042
Magnitude (Debye)      :      2.44119

Rotational constants in cm-1:     0.282898     0.128664     0.101801
Rotational constants in MHz :  8481.061354  3857.240210  3051.924245

                             ****ORCA TERMINATED NORMALLY****
TOTAL RUN TIME: 0 days 0 hours 0 minutes 18 seconds 331 msec
