                         Program Version 5.0.0 -  RELEASE  -
|  1> !wB97X-D3 RIJCOSX def2-SVP def2/J TightSCF
|  2> *xyz 0 1
|  3> C          0.70466        1.44313       -4.50363
|  4> C          1.72854        1.42432       -5.63944
|  5> H          2.64672        1.95379       -5.38105
|  6> H          1.29992        1.93061       -6.50361
|  7> S          2.25263       -0.18811       -6.27184
|  8> O          3.56261       -0.44446       -5.63155
|  9> F          2.34494       -0.03374       -7.69650
| 10> O          1.26606       -1.15918       -5.80536
| 11> H         -0.17385        0.91270       -4.80656
| 12> H          0.44778        2.45562       -4.27173
| 13> H          1.12367        0.97423       -3.63791
| 14> *
| 15>
| 16> %MaxCore 64000
| 17>
| 18> %pal nprocs 4
| 19> end
| 20>
| 21> %scf
| 22>   MaxIter 150
| 23> end
| 24>
| 25>
| 26>                          ****END OF INPUT****

CARTESIAN COORDINATES (ANGSTROEM)
---------------------------------
  C      0.704660    1.443130   -4.503630
  C      1.728540    1.424320   -5.639440
  H      2.646720    1.953790   -5.381050
  H      1.299920    1.930610   -6.503610
  S      2.252630   -0.188110   -6.271840
  O      3.562610   -0.444460   -5.631550
  F      2.344940   -0.033740   -7.696500
  O      1.266060   -1.159180   -5.805360
  H     -0.173850    0.912700   -4.806560
  H      0.447780    2.455620   -4.271730
  H      1.123670    0.974230   -3.637910

 Total Charge           Charge          ....    0
 Multiplicity           Mult            ....    1
 Number of Electrons    NEL             ....   58
 Basis Dimension        Dim             ....  113

ORBITAL ENERGIES
----------------

  NO   OCC          E(Eh)            E(eV)
   0   2.0000     -89.212599     -2427.5982
   1   2.0000     -24.911098      -677.8654
   2   2.0000     -19.237446      -523.4775
   3   2.0000     -19.227284      -523.2010
   4   2.0000     -10.349168      -281.6152
   5   2.0000     -10.310304      -280.5576
   6   2.0000      -8.295750      -225.7388
   7   2.0000      -6.258891      -170.3131
   8   2.0000      -6.252137      -170.1293
   9   2.0000      -6.251110      -170.1013
  10   2.0000      -1.493977       -40.6532
  11   2.0000      -1.207994       -32.8712
  12   2.0000      -1.100909       -29.9573
  13   2.0000      -0.933806       -25.4102
  14   2.0000      -0.844458       -22.9789
  15   2.0000      -0.784694       -21.3526
  16   2.0000      -0.694918       -18.9097
  17   2.0000      -0.692230       -18.8365
  18   2.0000      -0.653160       -17.7734
  19   2.0000      -0.594556       -16.1787
  20   2.0000      -0.578258       -15.7352
  21   2.0000      -0.536758       -14.6059
  22   2.0000      -0.522834       -14.2270
  23   2.0000      -0.502748       -13.6805
  24   2.0000      -0.485295       -13.2055
  25   2.0000      -0.471717       -12.8361
  26   2.0000      -0.415497       -11.3063
  27   2.0000      -0.404596       -11.0096
  28   2.0000      -0.386018       -10.5041
  29   0.0000       0.120618         3.2822
  30   0.0000       0.125098         3.4041
  31   0.0000       0.160882         4.3778
  32   0.0000       0.169900         4.6232
  33   0.0000       0.184691         5.0257

MULLIKEN ATOMIC CHARGES
-----------------------
   0 C :   -0.010734
   1 C :   -0.189723
   2 H :    0.100035
   3 H :    0.071008
   4 S :    0.968323
   5 O :   -0.487625
   6 F :   -0.169722
   7 O :   -0.460277
   8 H :    0.059702
   9 H :    0.052848
  10 H :    0.066164
Sum of atomic charges:   -0.0000000

LOEWDIN ATOMIC CHARGES
----------------------
   0 C :   -0.047712
   1 C :   -0.157452
   2 H :    0.045377
   3 H :    0.030255
   4 S :    1.162152
   5 O :   -0.528641
   6 F :   -0.112204
   7 O :   -0.502559
   8 H :    0.035248
   9 H :    0.037648
  10 H :    0.037889

  Mayer bond orders larger than 0.100000
B(  0-C ,  1-C ) :   1.0672 B(  0-C ,  8-H ) :   0.9696 B(  0-C ,  9-H ) :   0.9652
B(  0-C , 10-H ) :   0.9746 B(  1-C ,  2-H ) :   0.9379 B(  1-C ,  3-H ) :   0.9394
B(  1-C ,  4-S ) :   0.9073 B(  4-S ,  5-O ) :   1.7460 B(  4-S ,  6-F ) :   1.0335
B(  4-S ,  7-O ) :   1.7767

Dispersion correction           -0.002819710
FINAL SINGLE POINT ENERGY      -727.128975758176

DIPOLE MOMENT
-------------
                                X             Y             Z
Electronic contribution:      4.21171      -5.78925      -7.25372
Nuclear contribution   :     -4.83029       7.38191       6.79413
                        -----------------------------------------
Total Dipole Moment    :     -0.61858       1.59266      -0.45960
                        -----------------------------------------
Magnitude (a.u.)       :      1.76930
Magnitude (Debye)      :      4.49720

Rotational constants in cm-1:     0.156575     0.079070     0.076729
Rotational constants in MHz :  4694.010604  2370.444114  2300.280155

                             ****ORCA TERMINATED NORMALLY****
TOTAL RUN TIME: 0 days 0 hours 0 minutes 17 seconds 533 msec
