                         Program Version 5.0.0 -  RELEASE  -
|  1> !wB97X-D3 RIJCOSX def2-SVP def2/J TightSCF
|  2> *xyz 0 1
|  3> C          2.91632       -1.24259       -1.54313
|  4> C          3.46659       -1.59097       -2.88908
|  5> N          4.65227       -1.14316       -3.25969
|  6> C          2.75226       -2.29204       -3.72803
|  7> H          1.77836       -2.48960       -3.51274
|  8> H          2.94861       -2.20854       -4.71681
|  9> H          5.14672       -0.51251       -2.63385
| 10> H          4.78303       -1.00720       -4.25350
| 11> C          2.80408        0.29070       -1.35924
| 12> H          1.94047       -1.71653       -1.44116
| 13> H          3.55857       -1.66343       -0.76637
| 14> H          2.17393        0.69633       -2.12297
| 15> H          3.77707        0.73043       -1.42880
| 16> H          2.38369        0.50492       -0.39889
| 17> *
| 18>
| 19> %MaxCore 64000
| 20>
| 21> %pal nprocs 4
| 22> end
| 23>
| 24> %scf
| 25>   MaxIter 150
| 26> end
| 27>
| 28>
| 29>                          ****END OF INPUT****

CARTESIAN COORDINATES (ANGSTROEM)
---------------------------------
  C      2.916320   -1.242590   -1.543130
  C      3.466590   -1.590970   -2.889080
  N      4.652270   -1.143160   -3.259690
  C      2.752260   -2.292040   -3.728030
  H      1.778360   -2.489600   -3.512740
  H      2.948610   -2.208540   -4.716810
  H      5.146720   -0.512510   -2.633850
  H      4.783030   -1.007200   -4.253500
  C      2.804080    0.290700   -1.359240
  H      1.940470   -1.716530   -1.441160
  H      3.558570   -1.663430   -0.766370
  H      2.173930    0.696330   -2.122970
  H      3.777070    0.730430   -1.428800
  H      2.383690    0.504920   -0.398890

 Total Charge           Charge          ....    0
 Multiplicity           Mult            ....    1
 Number of Electrons    NEL             ....   40
 Basis Dimension        Dim             ....  115

ORBITAL ENERGIES
----------------

  NO   OCC          E(Eh)            E(eV)
   0   2.0000     -14.429592      -392.6492
   1   2.0000     -10.303869      -280.3825
   2   2.0000     -10.288132      -279.9543
   3   2.0000     -10.281582      -279.7761
   4   2.0000     -10.216454      -278.0039
   5   2.0000      -1.035923       -28.1889
   6   2.0000      -0.886554       -24.1244
   7   2.0000      -0.827607       -22.5203
   8   2.0000      -0.740418       -20.1478
   9   2.0000      -0.663817       -18.0634
  10   2.0000      -0.624600       -16.9962
  11   2.0000      -0.574818       -15.6416
  12   2.0000      -0.535047       -14.5594
  13   2.0000      -0.531478       -14.4623
  14   2.0000      -0.480880       -13.0854
  15   2.0000      -0.476297       -12.9607
  16   2.0000      -0.450533       -12.2596
  17   2.0000      -0.434441       -11.8218
  18   2.0000      -0.413052       -11.2397
  19   2.0000      -0.278351        -7.5743
  20   0.0000       0.129855         3.5335
  21   0.0000       0.135642         3.6910
  22   0.0000       0.183319         4.9884
  23   0.0000       0.192584         5.2405
  24   0.0000       0.204547         5.5660

MULLIKEN ATOMIC CHARGES
-----------------------
   0 C :    0.017983
   1 C :   -0.139515
   2 N :   -0.103085
   3 C :   -0.067940
   4 H :   -0.022378
   5 H :   -0.034255
   6 H :    0.113968
   7 H :    0.128834
   8 C :   -0.030265
   9 H :    0.024398
  10 H :    0.032749
  11 H :    0.033372
  12 H :    0.011313
  13 H :    0.034822
Sum of atomic charges:    0.0000000

LOEWDIN ATOMIC CHARGES
----------------------
   0 C :   -0.032160
   1 C :    0.005963
   2 N :   -0.017557
   3 C :   -0.175324
   4 H :    0.000476
   5 H :   -0.005244
   6 H :    0.068299
   7 H :    0.078850
   8 C :   -0.050126
   9 H :    0.034469
  10 H :    0.026838
  11 H :    0.026123
  12 H :    0.013491
  13 H :    0.025902

  Mayer bond orders larger than 0.100000
B(  0-C ,  1-C ) :   1.0218 B(  0-C ,  8-C ) :   1.0716 B(  0-C ,  9-H ) :   0.9401
B(  0-C , 10-H ) :   0.9407 B(  1-C ,  2-N ) :   1.2380 B(  1-C ,  3-C ) :   1.8822
B(  2-N ,  6-H ) :   0.9581 B(  2-N ,  7-H ) :   0.9511 B(  3-C ,  4-H ) :   0.9509
B(  3-C ,  5-H ) :   0.9641 B(  8-C , 11-H ) :   0.9739 B(  8-C , 12-H ) :   0.9755
B(  8-C , 13-H ) :   0.9737

Dispersion correction           -0.003012779
FINAL SINGLE POINT ENERGY      -212.340875730955

DIPOLE MOMENT
-------------
                                X             Y             Z
Electronic contribution:      1.78347      -1.69625      -1.40773
Nuclear contribution   :     -1.43372       2.52039       1.57679
                        -----------------------------------------
Total Dipole Moment    :      0.34975       0.82414       0.16906
                        -----------------------------------------
Magnitude (a.u.)       :      0.91110
Magnitude (Debye)      :      2.31584

Rotational constants in cm-1:     0.274962     0.131786     0.102554
Rotational constants in MHz :  8243.150005  3950.846092  3074.493018

                             ****ORCA TERMINATED NORMALLY****
TOTAL RUN TIME: 0 days 0 hours 0 minutes 19 seconds 493 msec
