                         Program Version 5.0.0 -  RELEASE  -
|  1> !wB97X-D3 RIJCOSX def2-SVP def2/J TightSCF
|  2> *xyz 0 1
|  3> C          0.70466        1.44313       -4.50363
|  4> C          1.72854        1.42432       -5.63944
|  5> H          2.64672        1.95379       -5.38105
|  6> H          1.29992        1.93061       -6.50361
|  7> S          2.25263       -0.18811       -6.27184
|  8> O          3.56261       -0.44446       -5.63155
|  9> O          2.34494       -0.03374       -7.69650
| 10> F          1.26606       -1.15918       -5.80536
| 11> H         -0.17385        0.91270       -4.80656
| 12> H          0.44778        2.45562       -4.27173
| 13> H          1.12367        0.97423       -3.63791
| 14> *
| 15>
| 16> %MaxCore 64000
| 17>
| 18> %pal nprocs 4
| 19> end
| 20>
| 21> %scf
| 22>   MaxIter 150
| 23> end
| 24>
| 25>
| 26>                          ****END OF INPUT****

CARTESIAN COORDINATES (ANGSTROEM)
---------------------------------
  C      0.704660    1.443130   -4.503630
  C      1.728540    1.424320   -5.639440
  H      2.646720    1.953790   -5.381050
  H      1.299920    1.930610   -6.503610
  S      2.252630   -0.188110   -6.271840
  O      3.562610   -0.444460   -5.631550
  O      2.344940   -0.033740   -7.696500
  F      1.266060   -1.159180   -5.805360
  H     -0.173850    0.912700   -4.806560
  H      0.447780    2.455620   -4.271730
  H      1.123670    0.974230   -3.637910

 Total Charge           Charge          ....    0
 Multiplicity           Mult            ....    1
 Number of Electrons    NEL             ....   58
 Basis Dimension        Dim             ....  113

ORBITAL ENERGIES
----------------

  NO   OCC          E(Eh)            E(eV)
   0   2.0000     -89.211140     -2427.5585
   1   2.0000     -24.898963      -677.5352
   2   2.0000     -19.244664      -523.6739
   3   2.0000     -19.226686      -523.1847
   4   2.0000     -10.347937      -281.5817
   5   2.0000     -10.317918      -280.7648
   6   2.0000      -8.294221      -225.6972
   7   2.0000      -6.257381      -170.2720
   8   2.0000      -6.250689      -170.0899
   9   2.0000      -6.249647      -170.0615
  10   2.0000      -1.472185       -40.0602
  11   2.0000      -1.218077       -33.1456
  12   2.0000      -1.109249       -30.1842
  13   2.0000      -0.937341       -25.5064
  14   2.0000      -0.833174       -22.6718
  15   2.0000      -0.785843       -21.3839
  16   2.0000      -0.695923       -18.9370
  17   2.0000      -0.677346       -18.4315
  18   2.0000      -0.640183       -17.4203
  19   2.0000      -0.598456       -16.2848
  20   2.0000      -0.572753       -15.5854
  21   2.0000      -0.548543       -14.9266
  22   2.0000      -0.533651       -14.5214
  23   2.0000      -0.509822       -13.8730
  24   2.0000      -0.491573       -13.3764
  25   2.0000      -0.475641       -12.9429
  26   2.0000      -0.421205       -11.4616
  27   2.0000      -0.405783       -11.0419
  28   2.0000      -0.392437       -10.6787
  29   0.0000       0.105070         2.8591
  30   0.0000       0.144674         3.9368
  31   0.0000       0.166186         4.5221
  32   0.0000       0.169593         4.6149
  33   0.0000       0.186183         5.0663

MULLIKEN ATOMIC CHARGES
-----------------------
   0 C :   -0.043450
   1 C :   -0.180626
   2 H :    0.112396
   3 H :    0.092620
   4 S :    0.971785
   5 O :   -0.491514
   6 O :   -0.439188
   7 F :   -0.192853
   8 H :    0.049842
   9 H :    0.060530
  10 H :    0.060459
Sum of atomic charges:   -0.0000000

LOEWDIN ATOMIC CHARGES
----------------------
   0 C :   -0.062359
   1 C :   -0.152215
   2 H :    0.053531
   3 H :    0.041361
   4 S :    1.165907
   5 O :   -0.532581
   6 O :   -0.478737
   7 F :   -0.136517
   8 H :    0.028516
   9 H :    0.040348
  10 H :    0.032745

  Mayer bond orders larger than 0.100000
B(  0-C ,  1-C ) :   1.0511 B(  0-C ,  8-H ) :   0.9755 B(  0-C ,  9-H ) :   0.9661
B(  0-C , 10-H ) :   0.9747 B(  1-C ,  2-H ) :   0.9391 B(  1-C ,  3-H ) :   0.9427
B(  1-C ,  4-S ) :   0.9188 B(  4-S ,  5-O ) :   1.7488 B(  4-S ,  6-O ) :   1.7990
B(  4-S ,  7-F ) :   1.0068

Dispersion correction           -0.002791679
FINAL SINGLE POINT ENERGY      -727.139391810222

DIPOLE MOMENT
-------------
                                X             Y             Z
Electronic contribution:      2.36369      -7.68249      -4.00104
Nuclear contribution   :     -3.70606       8.55465       4.82350
                        -----------------------------------------
Total Dipole Moment    :     -1.34237       0.87216       0.82246
                        -----------------------------------------
Magnitude (a.u.)       :      1.79973
Magnitude (Debye)      :      4.57456

Rotational constants in cm-1:     0.153201     0.080978     0.077494
Rotational constants in MHz :  4592.852844  2427.650814  2323.207507

                             ****ORCA TERMINATED NORMALLY****
TOTAL RUN TIME: 0 days 0 hours 0 minutes 18 seconds 330 msec
