                         Program Version 5.0.0 -  RELEASE  -
|  1> !wB97X-D3 RIJCOSX def2-SVP def2/J TightSCF xyzfile
|  2>
|  3> *xyzfile 0 1 D5.xyz
|  4>
|  5> %MaxCore 64000
|  6>
|  7> %pal nprocs 18
|  8> end
|  9>
| 10> %scf
| 11>   MaxIter 150
| 12> end
| 13>
| 14>
| 15>                          ****END OF INPUT****

CARTESIAN COORDINATES (ANGSTROEM)
---------------------------------
  C      2.916324   -1.242589   -1.543125
  C      0.704661    1.443129   -4.503630
  C      1.728539    1.424320   -5.639443
  H      2.646718    1.953794   -5.381054
  H      1.299916    1.930613   -6.503614
  S      2.252625   -0.188115   -6.271840
  C      3.466585   -1.590971   -2.889082
  C      4.652275   -1.143164   -3.259692
  N      2.752264   -2.292043   -3.728029
  H      1.778364   -2.489604   -3.512738
  H      2.948612   -2.208544   -4.716813
  H      5.146723   -0.512508   -2.633852
  H      4.783030   -1.007203   -4.253498
  O      3.562607   -0.444464   -5.631552
  O      2.344944   -0.033742   -7.696501
  C      2.804084    0.290698   -1.359243
  C      1.052550    0.695659   -3.214915
  H     -0.232483    1.032925   -4.884449
  H      0.511700    2.495794   -4.267966
  C      2.388380    1.093669   -2.597108
  H      3.763425    0.674718   -0.999889
  H      2.094788    0.461222   -0.545756
  F      1.266058   -1.159177   -5.805365
  H      3.167316    1.013242   -3.359430
  H      2.357690    2.149375   -2.310997
  H      1.039284   -0.368429   -3.449329
  H      0.250787    0.865605   -2.488283
  H      1.940472   -1.716529   -1.441161
  H      3.558569   -1.663433   -0.766371

 Total Charge           Charge          ....    0
 Multiplicity           Mult            ....    1
 Number of Electrons    NEL             ....  112
 Basis Dimension        Dim             ....  266

ORBITAL ENERGIES
----------------

  NO   OCC          E(Eh)            E(eV)
   0   2.0000     -89.225056     -2427.9372
   1   2.0000     -24.915477      -677.9846
   2   2.0000     -19.257177      -524.0144
   3   2.0000     -19.244687      -523.6746
   4   2.0000     -14.419886      -392.3850
   5   2.0000     -10.353401      -281.7304
   6   2.0000     -10.326553      -280.9998
   7   2.0000     -10.303061      -280.3605
   8   2.0000     -10.290702      -280.0242
   9   2.0000     -10.288447      -279.9629
  10   2.0000     -10.287655      -279.9413
  11   2.0000     -10.284236      -279.8483
  12   2.0000     -10.193043      -277.3668
  13   2.0000      -8.308019      -226.0727
  14   2.0000      -6.271249      -170.6494
  15   2.0000      -6.264590      -170.4682
  16   2.0000      -6.263156      -170.4292
  17   2.0000      -1.489149       -40.5218
  18   2.0000      -1.232821       -33.5468
  19   2.0000      -1.127890       -30.6915
  20   2.0000      -1.029798       -28.0222
  21   2.0000      -0.959090       -26.0982
  22   2.0000      -0.911919       -24.8146
  23   2.0000      -0.872819       -23.7506
  24   2.0000      -0.834311       -22.7027
  25   2.0000      -0.811591       -22.0845
  26   2.0000      -0.785681       -21.3795
  27   2.0000      -0.747314       -20.3355
  28   2.0000      -0.709624       -19.3099
  29   2.0000      -0.698776       -19.0146
  30   2.0000      -0.682073       -18.5601
  31   2.0000      -0.657594       -17.8940
  32   2.0000      -0.643930       -17.5222
  33   2.0000      -0.610319       -16.6076
  34   2.0000      -0.601991       -16.3810
  35   2.0000      -0.597637       -16.2625
  36   2.0000      -0.578377       -15.7384
  37   2.0000      -0.569153       -15.4874
  38   2.0000      -0.553123       -15.0512
  39   2.0000      -0.548497       -14.9254
  40   2.0000      -0.531030       -14.4501
  41   2.0000      -0.515458       -14.0263
  42   2.0000      -0.497986       -13.5509
  43   2.0000      -0.484580       -13.1861
  44   2.0000      -0.483035       -13.1441
  45   2.0000      -0.471350       -12.8261
  46   2.0000      -0.462799       -12.5934
  47   2.0000      -0.447018       -12.1640
  48   2.0000      -0.441972       -12.0267
  49   2.0000      -0.430083       -11.7031
  50   2.0000      -0.424044       -11.5388
  51   2.0000      -0.416873       -11.3437
  52   2.0000      -0.413337       -11.2475
  53   2.0000      -0.400865       -10.9081
  54   2.0000      -0.393969       -10.7204
  55   2.0000      -0.256308        -6.9745
  56   0.0000       0.095481         2.5982
  57   0.0000       0.124942         3.3999
  58   0.0000       0.136791         3.7223
  59   0.0000       0.138465         3.7678
  60   0.0000       0.147735         4.0201

MULLIKEN ATOMIC CHARGES
-----------------------
   0 C :    0.082048
   1 C :   -0.053033
   2 C :   -0.133690
   3 H :    0.117464
   4 H :    0.096393
   5 S :    0.974457
   6 C :   -0.223287
   7 C :   -0.024383
   8 N :   -0.082723
   9 H :    0.109357
  10 H :    0.110299
  11 H :   -0.041619
  12 H :    0.001176
  13 O :   -0.465272
  14 O :   -0.422767
  15 C :   -0.033701
  16 C :   -0.034294
  17 H :    0.043146
  18 H :    0.051323
  19 C :   -0.019310
  20 H :    0.034331
  21 H :    0.015694
  22 F :   -0.190640
  23 H :    0.021676
  24 H :    0.016395
  25 H :   -0.021221
  26 H :    0.031742
  27 H :   -0.008127
  28 H :    0.048565
Sum of atomic charges:    0.0000000

LOEWDIN ATOMIC CHARGES
----------------------
   0 C :   -0.033090
   1 C :   -0.051304
   2 C :   -0.142864
   3 H :    0.053964
   4 H :    0.045786
   5 S :    1.175111
   6 C :   -0.006324
   7 C :   -0.177082
   8 N :   -0.004567
   9 H :    0.055893
  10 H :    0.047469
  11 H :   -0.008872
  12 H :   -0.008809
  13 O :   -0.479615
  14 O :   -0.469485
  15 C :   -0.028506
  16 C :   -0.047681
  17 H :    0.028271
  18 H :    0.039548
  19 C :   -0.045553
  20 H :    0.028556
  21 H :    0.020502
  22 F :   -0.125784
  23 H :    0.023113
  24 H :    0.022281
  25 H :    0.002955
  26 H :    0.029452
  27 H :    0.013681
  28 H :    0.042953

  Mayer bond orders larger than 0.100000
B(  0-C ,  6-C ) :   1.0057 B(  0-C , 15-C ) :   1.0710 B(  0-C , 27-H ) :   0.9333
B(  0-C , 28-H ) :   0.9331 B(  1-C ,  2-C ) :   1.0418 B(  1-C , 16-C ) :   1.0739
B(  1-C , 17-H ) :   0.9545 B(  1-C , 18-H ) :   0.9388 B(  2-C ,  3-H ) :   0.9297
B(  2-C ,  4-H ) :   0.9396 B(  2-C ,  5-S ) :   0.9142 B(  5-S , 13-O ) :   1.6777
B(  5-S , 14-O ) :   1.8162 B(  5-S , 22-F ) :   0.9897 B(  6-C ,  7-C ) :   1.8609
B(  6-C ,  8-N ) :   1.2520 B(  7-C , 11-H ) :   0.9514 B(  7-C , 12-H ) :   0.9465
B(  8-N ,  9-H ) :   0.9506 B(  8-N , 10-H ) :   0.9395 B( 15-C , 19-C ) :   1.0973
B( 15-C , 20-H ) :   0.9458 B( 15-C , 21-H ) :   0.9505 B( 16-C , 19-C ) :   1.0564
B( 16-C , 25-H ) :   0.9327 B( 16-C , 26-H ) :   0.9427 B( 19-C , 23-H ) :   0.9193
B( 19-C , 24-H ) :   0.9456

Dispersion correction           -0.016347162
FINAL SINGLE POINT ENERGY     -1016.832754269052

DIPOLE MOMENT
-------------
                                X             Y             Z
Electronic contribution:     -1.75883      -6.11120     -19.10755
Nuclear contribution   :     -0.26930       7.11259      19.56706
                        -----------------------------------------
Total Dipole Moment    :     -2.02813       1.00139       0.45951
                        -----------------------------------------
Magnitude (a.u.)       :      2.30809
Magnitude (Debye)      :      5.86669

Rotational constants in cm-1:     0.036519     0.018683     0.015073
Rotational constants in MHz :  1094.801738   560.111127   451.890222

                             ****ORCA TERMINATED NORMALLY****
TOTAL RUN TIME: 0 days 0 hours 0 minutes 28 seconds 546 msec
