                         Program Version 5.0.0 -  RELEASE  -
|  1> !LC-BLYP RIJCOSX def2-SVPD def2/J TightSCF
|  2> *xyz -1 1
|  3> C         -0.87096        0.24804       -2.66280
|  4> C         -0.47749        0.60819       -4.10105
|  5> H          0.20677        1.45830       -4.11875
|  6> H         -1.36844        0.92942       -4.64785
|  7> C          0.18467       -0.50664       -4.91676
|  8> O         -0.15869       -1.70109       -4.65798
|  9> O          1.05594       -0.17441       -5.74037
| 10> H         -1.54056       -0.58646       -2.67455
| 11> H         -1.35339        1.08600       -2.20455
| 12> H          0.00660       -0.00662       -2.10609
| 13> *
| 14>
| 15> %MaxCore 64000
| 16>
| 17> %pal nprocs 4
| 18> end
| 19>
| 20> %scf
| 21>   MaxIter 150
| 22> end
| 23>
| 24>
| 25>                          ****END OF INPUT****

CARTESIAN COORDINATES (ANGSTROEM)
---------------------------------
  C     -0.870960    0.248040   -2.662800
  C     -0.477490    0.608190   -4.101050
  H      0.206770    1.458300   -4.118750
  H     -1.368440    0.929420   -4.647850
  C      0.184670   -0.506640   -4.916760
  O     -0.158690   -1.701090   -4.657980
  O      1.055940   -0.174410   -5.740370
  H     -1.540560   -0.586460   -2.674550
  H     -1.353390    1.086000   -2.204550
  H      0.006600   -0.006620   -2.106090

 Total Charge           Charge          ....   -1
 Multiplicity           Mult            ....    1
 Number of Electrons    NEL             ....   40
 Basis Dimension        Dim             ....  146

ORBITAL ENERGIES
----------------

  NO   OCC          E(Eh)            E(eV)
   0   2.0000     -18.699013      -508.8260
   1   2.0000     -18.695148      -508.7209
   2   2.0000      -9.976209      -271.4665
   3   2.0000      -9.923046      -270.0198
   4   2.0000      -9.914781      -269.7949
   5   2.0000      -0.908634       -24.7252
   6   2.0000      -0.812216       -22.1015
   7   2.0000      -0.709718       -19.3124
   8   2.0000      -0.580482       -15.7957
   9   2.0000      -0.424062       -11.5393
  10   2.0000      -0.402404       -10.9500
  11   2.0000      -0.362604        -9.8670
  12   2.0000      -0.336230        -9.1493
  13   2.0000      -0.321311        -8.7433
  14   2.0000      -0.311101        -8.4655
  15   2.0000      -0.282045        -7.6748
  16   2.0000      -0.265250        -7.2178
  17   2.0000      -0.151416        -4.1202
  18   2.0000      -0.145198        -3.9510
  19   2.0000      -0.130787        -3.5589
  20   0.0000       0.204046         5.5524
  21   0.0000       0.239848         6.5266
  22   0.0000       0.249758         6.7963
  23   0.0000       0.269868         7.3435
  24   0.0000       0.296053         8.0560

MULLIKEN ATOMIC CHARGES
-----------------------
   0 C :    0.867211
   1 C :   -0.182151
   2 H :   -0.123236
   3 H :   -0.105542
   4 C :    0.141503
   5 O :   -0.612915
   6 O :   -0.543691
   7 H :   -0.118598
   8 H :   -0.175881
   9 H :   -0.146700
Sum of atomic charges:   -1.0000000

LOEWDIN ATOMIC CHARGES
----------------------
   0 C :    0.085907
   1 C :   -0.050585
   2 H :    0.004529
   3 H :    0.014953
   4 C :   -0.344610
   5 O :   -0.314514
   6 O :   -0.306659
   7 H :   -0.027411
   8 H :   -0.040819
   9 H :   -0.020792

  Mayer bond orders larger than 0.100000
B(  0-C ,  1-C ) :   1.2719 B(  0-C ,  7-H ) :   0.7694 B(  0-C ,  8-H ) :   0.7317
B(  0-C ,  9-H ) :   0.7745 B(  1-C ,  2-H ) :   0.9153 B(  1-C ,  3-H ) :   0.8632
B(  1-C ,  4-C ) :   1.0393 B(  1-C ,  7-H ) :   0.2340 B(  1-C ,  8-H ) :   0.2559
B(  1-C ,  9-H ) :   0.2054 B(  2-H ,  4-C ) :   0.2000 B(  4-C ,  5-O ) :   1.6195
B(  4-C ,  6-O ) :   1.6350

FINAL SINGLE POINT ENERGY      -267.062648199637

DIPOLE MOMENT
-------------
                                X             Y             Z
Electronic contribution:      2.58897      -2.84849      -4.50558
Nuclear contribution   :     -3.54611       4.15440       5.90446
                        -----------------------------------------
Total Dipole Moment    :     -0.95715       1.30591       1.39888
                        -----------------------------------------
Magnitude (a.u.)       :      2.13972
Magnitude (Debye)      :      5.43874

Rotational constants in cm-1:     0.332789     0.132085     0.101080
Rotational constants in MHz :  9976.755824  3959.803182  3030.288811

                             ****ORCA TERMINATED NORMALLY****
TOTAL RUN TIME: 0 days 0 hours 0 minutes 17 seconds 90 msec
