                         Program Version 5.0.0 -  RELEASE  -
|  1> !LC-BLYP RIJCOSX def2-SVPD def2/J TightSCF
|  2> *xyz 1 1
|  3> C          2.48645       -2.67712       -2.56345
|  4> C          3.03764       -2.36672       -3.92351
|  5> N          2.28036       -2.45441       -4.96769
|  6> N          4.32174       -2.01793       -4.01664
|  7> H          4.87994       -1.91167       -3.17382
|  8> H          4.71015       -1.67088       -4.88356
|  9> H          1.27042       -2.41265       -4.86614
| 10> H          2.58183       -2.05528       -5.84688
| 11> C          2.49799       -1.46946       -1.61030
| 12> H          1.47259       -3.05153       -2.69437
| 13> H          3.08320       -3.49064       -2.14147
| 14> H          1.91240       -0.67831       -2.02991
| 15> H          3.50450       -1.13364       -1.47227
| 16> H          2.08509       -1.75655       -0.66585
| 17> *
| 18>
| 19> %MaxCore 64000
| 20>
| 21> %pal nprocs 4
| 22> end
| 23>
| 24> %scf
| 25>   MaxIter 150
| 26> end
| 27>
| 28>
| 29>                          ****END OF INPUT****

CARTESIAN COORDINATES (ANGSTROEM)
---------------------------------
  C      2.486450   -2.677120   -2.563450
  C      3.037640   -2.366720   -3.923510
  N      2.280360   -2.454410   -4.967690
  N      4.321740   -2.017930   -4.016640
  H      4.879940   -1.911670   -3.173820
  H      4.710150   -1.670880   -4.883560
  H      1.270420   -2.412650   -4.866140
  H      2.581830   -2.055280   -5.846880
  C      2.497990   -1.469460   -1.610300
  H      1.472590   -3.051530   -2.694370
  H      3.083200   -3.490640   -2.141470
  H      1.912400   -0.678310   -2.029910
  H      3.504500   -1.133640   -1.472270
  H      2.085090   -1.756550   -0.665850

 Total Charge           Charge          ....    1
 Multiplicity           Mult            ....    1
 Number of Electrons    NEL             ....   40
 Basis Dimension        Dim             ....  172

ORBITAL ENERGIES
----------------

  NO   OCC          E(Eh)            E(eV)
   0   2.0000     -14.439515      -392.9192
   1   2.0000     -14.433739      -392.7620
   2   2.0000     -10.414003      -283.3794
   3   2.0000     -10.284717      -279.8614
   4   2.0000     -10.243496      -278.7397
   5   2.0000      -1.303513       -35.4704
   6   2.0000      -1.205289       -32.7976
   7   2.0000      -1.074408       -29.2361
   8   2.0000      -0.969304       -26.3761
   9   2.0000      -0.922101       -25.0916
  10   2.0000      -0.882598       -24.0167
  11   2.0000      -0.854583       -23.2544
  12   2.0000      -0.804567       -21.8934
  13   2.0000      -0.763384       -20.7727
  14   2.0000      -0.727860       -19.8061
  15   2.0000      -0.715381       -19.4665
  16   2.0000      -0.650189       -17.6926
  17   2.0000      -0.638388       -17.3714
  18   2.0000      -0.627096       -17.0642
  19   2.0000      -0.596891       -16.2422
  20   0.0000      -0.136917        -3.7257
  21   0.0000      -0.101029        -2.7491
  22   0.0000      -0.058409        -1.5894
  23   0.0000      -0.056850        -1.5470
  24   0.0000      -0.027324        -0.7435

MULLIKEN ATOMIC CHARGES
-----------------------
   0 C :   -0.092012
   1 C :    0.254573
   2 N :    0.332110
   3 N :    0.314910
   4 H :   -0.014420
   5 H :   -0.175570
   6 H :   -0.007873
   7 H :   -0.114212
   8 C :    0.965619
   9 H :   -0.050054
  10 H :   -0.031474
  11 H :   -0.164448
  12 H :   -0.154973
  13 H :   -0.062177
Sum of atomic charges:    1.0000000

LOEWDIN ATOMIC CHARGES
----------------------
   0 C :    0.001464
   1 C :   -0.067620
   2 N :    0.292895
   3 N :    0.297728
   4 H :    0.049384
   5 H :    0.046746
   6 H :    0.061422
   7 H :    0.053146
   8 C :    0.160734
   9 H :    0.040425
  10 H :    0.058881
  11 H :    0.003512
  12 H :   -0.011774
  13 H :    0.013059

  Mayer bond orders larger than 0.100000
B(  0-C ,  1-C ) :   1.2205 B(  0-C ,  8-C ) :   1.2505 B(  0-C ,  9-H ) :   0.8233
B(  0-C , 10-H ) :   0.8221 B(  0-C , 11-H ) :   0.1879 B(  0-C , 12-H ) :   0.2167
B(  0-C , 13-H ) :   0.1906 B(  1-C ,  2-N ) :   1.2103 B(  1-C ,  3-N ) :   1.2308
B(  1-C ,  5-H ) :  -0.1447 B(  1-C ,  7-H ) :  -0.1053 B(  1-C ,  9-H ) :   0.2325
B(  1-C , 10-H ) :   0.1314 B(  2-N ,  3-N ) :   0.1383 B(  2-N ,  6-H ) :   1.0600
B(  2-N ,  7-H ) :   1.1687 B(  3-N ,  4-H ) :   1.1067 B(  3-N ,  5-H ) :   1.2637
B(  4-H ,  5-H ) :  -0.1847 B(  6-H ,  7-H ) :  -0.1353 B(  8-C ,  9-H ) :   0.1052
B(  8-C , 11-H ) :   0.7581 B(  8-C , 12-H ) :   0.7175 B(  8-C , 13-H ) :   0.7945

FINAL SINGLE POINT ENERGY      -228.262291516741

DIPOLE MOMENT
-------------
                                X             Y             Z
Electronic contribution:      1.05912      -1.07493      -3.93066
Nuclear contribution   :     -0.84604       1.34287       2.92710
                        -----------------------------------------
Total Dipole Moment    :      0.21308       0.26794      -1.00356
                        -----------------------------------------
Magnitude (a.u.)       :      1.06035
Magnitude (Debye)      :      2.69518

Rotational constants in cm-1:     0.265816     0.126189     0.097583
Rotational constants in MHz :  7968.948902  3783.040103  2925.457702

                             ****ORCA TERMINATED NORMALLY****
TOTAL RUN TIME: 0 days 0 hours 0 minutes 27 seconds 36 msec
