                         Program Version 5.0.0 -  RELEASE  -
|  1> !LC-BLYP RIJCOSX def2-SVPD def2/J TightSCF
|  2> *xyz 0 1
|  3> C         -0.87096        0.24804       -2.66280
|  4> C         -0.47749        0.60819       -4.10105
|  5> H          0.20677        1.45830       -4.11875
|  6> H         -1.36844        0.92942       -4.64785
|  7> C          0.18467       -0.50664       -4.91676
|  8> F         -0.15869       -1.70109       -4.65798
|  9> O          1.05594       -0.17441       -5.74037
| 10> H         -1.54056       -0.58646       -2.67455
| 11> H         -1.35339        1.08600       -2.20455
| 12> H          0.00660       -0.00662       -2.10609
| 13> *
| 14>
| 15> %MaxCore 64000
| 16>
| 17> %pal nprocs 4
| 18> end
| 19>
| 20> %scf
| 21>   MaxIter 150
| 22> end
| 23>
| 24>
| 25>                          ****END OF INPUT****

CARTESIAN COORDINATES (ANGSTROEM)
---------------------------------
  C     -0.870960    0.248040   -2.662800
  C     -0.477490    0.608190   -4.101050
  H      0.206770    1.458300   -4.118750
  H     -1.368440    0.929420   -4.647850
  C      0.184670   -0.506640   -4.916760
  F     -0.158690   -1.701090   -4.657980
  O      1.055940   -0.174410   -5.740370
  H     -1.540560   -0.586460   -2.674550
  H     -1.353390    1.086000   -2.204550
  H      0.006600   -0.006620   -2.106090

 Total Charge           Charge          ....    0
 Multiplicity           Mult            ....    1
 Number of Electrons    NEL             ....   40
 Basis Dimension        Dim             ....  146

ORBITAL ENERGIES
----------------

  NO   OCC          E(Eh)            E(eV)
   0   2.0000     -24.545215      -667.9093
   1   2.0000     -18.971161      -516.2315
   2   2.0000     -10.271858      -279.5115
   3   2.0000     -10.121109      -275.4094
   4   2.0000     -10.095701      -274.7180
   5   2.0000      -1.380369       -37.5617
   6   2.0000      -1.128229       -30.7007
   7   2.0000      -0.909414       -24.7464
   8   2.0000      -0.788858       -21.4659
   9   2.0000      -0.747943       -20.3526
  10   2.0000      -0.658894       -17.9294
  11   2.0000      -0.649390       -17.6708
  12   2.0000      -0.600225       -16.3329
  13   2.0000      -0.574116       -15.6225
  14   2.0000      -0.538378       -14.6500
  15   2.0000      -0.509571       -13.8661
  16   2.0000      -0.492975       -13.4145
  17   2.0000      -0.480964       -13.0877
  18   2.0000      -0.454924       -12.3791
  19   2.0000      -0.398105       -10.8330
  20   0.0000       0.048929         1.3314
  21   0.0000       0.061918         1.6849
  22   0.0000       0.096631         2.6295
  23   0.0000       0.103711         2.8221
  24   0.0000       0.126832         3.4513

MULLIKEN ATOMIC CHARGES
-----------------------
   0 C :    0.895177
   1 C :   -0.215817
   2 H :   -0.092137
   3 H :   -0.040317
   4 C :    0.458604
   5 F :   -0.309648
   6 O :   -0.314470
   7 H :   -0.113953
   8 H :   -0.144245
   9 H :   -0.123196
Sum of atomic charges:    0.0000000

LOEWDIN ATOMIC CHARGES
----------------------
   0 C :    0.121648
   1 C :   -0.001207
   2 H :    0.039071
   3 H :    0.044956
   4 C :   -0.050276
   5 F :   -0.018567
   6 O :   -0.108717
   7 H :   -0.011783
   8 H :   -0.009207
   9 H :   -0.005919

  Mayer bond orders larger than 0.100000
B(  0-C ,  1-C ) :   1.3070 B(  0-C ,  7-H ) :   0.7619 B(  0-C ,  8-H ) :   0.7404
B(  0-C ,  9-H ) :   0.7784 B(  1-C ,  2-H ) :   0.9309 B(  1-C ,  3-H ) :   0.8481
B(  1-C ,  4-C ) :   1.0613 B(  1-C ,  7-H ) :   0.2048 B(  1-C ,  8-H ) :   0.2514
B(  1-C ,  9-H ) :   0.1956 B(  2-H ,  4-C ) :   0.1509 B(  4-C ,  5-F ) :   0.8620
B(  4-C ,  6-O ) :   1.9758 B(  5-F ,  6-O ) :   0.1139

FINAL SINGLE POINT ENERGY      -291.582681960812

DIPOLE MOMENT
-------------
                                X             Y             Z
Electronic contribution:      2.58914      -5.33393      -5.27440
Nuclear contribution   :     -3.42837       5.66737       6.17046
                        -----------------------------------------
Total Dipole Moment    :     -0.83922       0.33344       0.89606
                        -----------------------------------------
Magnitude (a.u.)       :      1.27216
Magnitude (Debye)      :      3.23358

Rotational constants in cm-1:     0.304660     0.130969     0.097716
Rotational constants in MHz :  9133.464515  3926.366384  2929.457090

                             ****ORCA TERMINATED NORMALLY****
TOTAL RUN TIME: 0 days 0 hours 0 minutes 19 seconds 579 msec
