                         Program Version 5.0.0 -  RELEASE  -
|  1> !LC-BLYP RIJCOSX def2-SVPD def2/J TightSCF
|  2> *xyz 0 1
|  3> C          2.48645       -2.67712       -2.56345
|  4> C          3.03764       -2.36672       -3.92351
|  5> C          2.28036       -2.45441       -4.96769
|  6> N          4.32174       -2.01793       -4.01664
|  7> H          4.87994       -1.91167       -3.17382
|  8> H          4.71015       -1.67088       -4.88356
|  9> H          1.27042       -2.41265       -4.86614
| 10> H          2.58183       -2.05528       -5.84688
| 11> C          2.49799       -1.46946       -1.61030
| 12> H          1.47259       -3.05153       -2.69437
| 13> H          3.08320       -3.49064       -2.14147
| 14> H          1.91240       -0.67831       -2.02991
| 15> H          3.50450       -1.13364       -1.47227
| 16> H          2.08509       -1.75655       -0.66585
| 17> *
| 18>
| 19> %MaxCore 64000
| 20>
| 21> %pal nprocs 4
| 22> end
| 23>
| 24> %scf
| 25>   MaxIter 150
| 26> end
| 27>
| 28>
| 29>                          ****END OF INPUT****

CARTESIAN COORDINATES (ANGSTROEM)
---------------------------------
  C      2.486450   -2.677120   -2.563450
  C      3.037640   -2.366720   -3.923510
  C      2.280360   -2.454410   -4.967690
  N      4.321740   -2.017930   -4.016640
  H      4.879940   -1.911670   -3.173820
  H      4.710150   -1.670880   -4.883560
  H      1.270420   -2.412650   -4.866140
  H      2.581830   -2.055280   -5.846880
  C      2.497990   -1.469460   -1.610300
  H      1.472590   -3.051530   -2.694370
  H      3.083200   -3.490640   -2.141470
  H      1.912400   -0.678310   -2.029910
  H      3.504500   -1.133640   -1.472270
  H      2.085090   -1.756550   -0.665850

 Total Charge           Charge          ....    0
 Multiplicity           Mult            ....    1
 Number of Electrons    NEL             ....   40
 Basis Dimension        Dim             ....  172

ORBITAL ENERGIES
----------------

  NO   OCC          E(Eh)            E(eV)
   0   2.0000     -14.189264      -386.1095
   1   2.0000     -10.108219      -275.0586
   2   2.0000     -10.084674      -274.4179
   3   2.0000     -10.075037      -274.1557
   4   2.0000     -10.017523      -272.5907
   5   2.0000      -1.020306       -27.7639
   6   2.0000      -0.882426       -24.0120
   7   2.0000      -0.827699       -22.5228
   8   2.0000      -0.739848       -20.1323
   9   2.0000      -0.671566       -18.2742
  10   2.0000      -0.629623       -17.1329
  11   2.0000      -0.584005       -15.8916
  12   2.0000      -0.541470       -14.7341
  13   2.0000      -0.536828       -14.6078
  14   2.0000      -0.490828       -13.3561
  15   2.0000      -0.485724       -13.2172
  16   2.0000      -0.453491       -12.3401
  17   2.0000      -0.434835       -11.8325
  18   2.0000      -0.426296       -11.6001
  19   2.0000      -0.294022        -8.0007
  20   0.0000       0.069549         1.8925
  21   0.0000       0.100303         2.7294
  22   0.0000       0.106750         2.9048
  23   0.0000       0.114340         3.1114
  24   0.0000       0.128561         3.4983

MULLIKEN ATOMIC CHARGES
-----------------------
   0 C :   -0.031277
   1 C :   -0.295754
   2 C :    0.513558
   3 N :    0.438761
   4 H :   -0.183341
   5 H :   -0.225350
   6 H :   -0.114354
   7 H :   -0.522132
   8 C :    0.959076
   9 H :    0.036526
  10 H :   -0.121955
  11 H :   -0.151935
  12 H :   -0.161077
  13 H :   -0.140746
Sum of atomic charges:   -0.0000000

LOEWDIN ATOMIC CHARGES
----------------------
   0 C :   -0.040948
   1 C :   -0.275946
   2 C :    0.156618
   3 N :    0.188409
   4 H :   -0.004996
   5 H :    0.004376
   6 H :   -0.073130
   7 H :   -0.080124
   8 C :    0.123182
   9 H :    0.024923
  10 H :    0.029881
  11 H :   -0.008667
  12 H :   -0.028509
  13 H :   -0.015069

  Mayer bond orders larger than 0.100000
B(  0-C ,  1-C ) :   1.3268 B(  0-C ,  2-C ) :   0.1245 B(  0-C ,  8-C ) :   1.1992
B(  0-C ,  9-H ) :   0.8271 B(  0-C , 10-H ) :   0.8373 B(  0-C , 11-H ) :   0.1670
B(  0-C , 12-H ) :   0.2366 B(  0-C , 13-H ) :   0.2274 B(  1-C ,  2-C ) :   1.9625
B(  1-C ,  3-N ) :   1.2832 B(  1-C ,  7-H ) :   0.2727 B(  1-C ,  9-H ) :   0.1839
B(  1-C , 10-H ) :   0.1841 B(  2-C ,  3-N ) :   0.2628 B(  2-C ,  6-H ) :   0.8327
B(  2-C ,  7-H ) :   0.5324 B(  3-N ,  4-H ) :   1.1353 B(  3-N ,  5-H ) :   1.1888
B(  4-H ,  5-H ) :  -0.1585 B(  6-H ,  7-H ) :   0.1780 B(  8-C ,  9-H ) :   0.1097
B(  8-C , 11-H ) :   0.7750 B(  8-C , 12-H ) :   0.7124 B(  8-C , 13-H ) :   0.7572

FINAL SINGLE POINT ENERGY      -211.809555511428

DIPOLE MOMENT
-------------
                                X             Y             Z
Electronic contribution:      1.52075      -0.88248      -2.13446
Nuclear contribution   :     -0.99743       1.27863       2.57190
                        -----------------------------------------
Total Dipole Moment    :      0.52332       0.39614       0.43744
                        -----------------------------------------
Magnitude (a.u.)       :      0.78876
Magnitude (Debye)      :      2.00487

Rotational constants in cm-1:     0.274050     0.130114     0.100964
Rotational constants in MHz :  8215.815505  3900.722919  3026.834930

                             ****ORCA TERMINATED NORMALLY****
TOTAL RUN TIME: 0 days 0 hours 0 minutes 25 seconds 322 msec
