                         Program Version 5.0.0 -  RELEASE  -
|  1> !LC-BLYP RIJCOSX def2-SVPD def2/J TightSCF
|  2> *xyz 0 1
|  3> C         -0.87096        0.24804       -2.66280
|  4> C         -0.47749        0.60819       -4.10105
|  5> H          0.20677        1.45830       -4.11875
|  6> H         -1.36844        0.92942       -4.64785
|  7> C          0.18467       -0.50664       -4.91676
|  8> O         -0.15869       -1.70109       -4.65798
|  9> F          1.05594       -0.17441       -5.74037
| 10> H         -1.54056       -0.58646       -2.67455
| 11> H         -1.35339        1.08600       -2.20455
| 12> H          0.00660       -0.00662       -2.10609
| 13> *
| 14>
| 15> %MaxCore 64000
| 16>
| 17> %pal nprocs 4
| 18> end
| 19>
| 20> %scf
| 21>   MaxIter 150
| 22> end
| 23>
| 24>
| 25>                          ****END OF INPUT****

CARTESIAN COORDINATES (ANGSTROEM)
---------------------------------
  C     -0.870960    0.248040   -2.662800
  C     -0.477490    0.608190   -4.101050
  H      0.206770    1.458300   -4.118750
  H     -1.368440    0.929420   -4.647850
  C      0.184670   -0.506640   -4.916760
  O     -0.158690   -1.701090   -4.657980
  F      1.055940   -0.174410   -5.740370
  H     -1.540560   -0.586460   -2.674550
  H     -1.353390    1.086000   -2.204550
  H      0.006600   -0.006620   -2.106090

 Total Charge           Charge          ....    0
 Multiplicity           Mult            ....    1
 Number of Electrons    NEL             ....   40
 Basis Dimension        Dim             ....  146

ORBITAL ENERGIES
----------------

  NO   OCC          E(Eh)            E(eV)
   0   2.0000     -24.554333      -668.1574
   1   2.0000     -18.967748      -516.1387
   2   2.0000     -10.274139      -279.5735
   3   2.0000     -10.122412      -275.4448
   4   2.0000     -10.089468      -274.5484
   5   2.0000      -1.398914       -38.0664
   6   2.0000      -1.113731       -30.3062
   7   2.0000      -0.905418       -24.6377
   8   2.0000      -0.798666       -21.7328
   9   2.0000      -0.746802       -20.3215
  10   2.0000      -0.667345       -18.1594
  11   2.0000      -0.647626       -17.6228
  12   2.0000      -0.612633       -16.6706
  13   2.0000      -0.573862       -15.6156
  14   2.0000      -0.537851       -14.6357
  15   2.0000      -0.500038       -13.6067
  16   2.0000      -0.477953       -13.0058
  17   2.0000      -0.476751       -12.9731
  18   2.0000      -0.451634       -12.2896
  19   2.0000      -0.396155       -10.7799
  20   0.0000       0.046589         1.2678
  21   0.0000       0.064167         1.7461
  22   0.0000       0.092969         2.5298
  23   0.0000       0.106851         2.9076
  24   0.0000       0.126543         3.4434

MULLIKEN ATOMIC CHARGES
-----------------------
   0 C :    0.887493
   1 C :   -0.223151
   2 H :   -0.087266
   3 H :   -0.032689
   4 C :    0.455344
   5 O :   -0.370378
   6 F :   -0.259388
   7 H :   -0.103017
   8 H :   -0.145928
   9 H :   -0.121022
Sum of atomic charges:    0.0000000

LOEWDIN ATOMIC CHARGES
----------------------
   0 C :    0.130438
   1 C :   -0.009354
   2 H :    0.029020
   3 H :    0.044878
   4 C :   -0.050474
   5 O :   -0.119643
   6 F :   -0.004210
   7 H :   -0.007353
   8 H :   -0.009598
   9 H :   -0.003703

  Mayer bond orders larger than 0.100000
B(  0-C ,  1-C ) :   1.3358 B(  0-C ,  7-H ) :   0.7635 B(  0-C ,  8-H ) :   0.7356
B(  0-C ,  9-H ) :   0.7756 B(  1-C ,  2-H ) :   0.9036 B(  1-C ,  3-H ) :   0.8486
B(  1-C ,  4-C ) :   1.0969 B(  1-C ,  7-H ) :   0.2183 B(  1-C ,  8-H ) :   0.2465
B(  1-C ,  9-H ) :   0.2018 B(  2-H ,  4-C ) :   0.1326 B(  4-C ,  5-O ) :   1.9600
B(  4-C ,  6-F ) :   0.9068 B(  5-O ,  6-F ) :   0.1076

FINAL SINGLE POINT ENERGY      -291.576067543410

DIPOLE MOMENT
-------------
                                X             Y             Z
Electronic contribution:      4.63456      -2.79902      -7.10885
Nuclear contribution   :     -4.75269       4.00281       7.35060
                        -----------------------------------------
Total Dipole Moment    :     -0.11814       1.20379       0.24175
                        -----------------------------------------
Magnitude (a.u.)       :      1.23350
Magnitude (Debye)      :      3.13530

Rotational constants in cm-1:     0.323805     0.124913     0.096140
Rotational constants in MHz :  9707.430323  3744.789513  2882.191141

                             ****ORCA TERMINATED NORMALLY****
TOTAL RUN TIME: 0 days 0 hours 0 minutes 19 seconds 743 msec
