                         Program Version 5.0.0 -  RELEASE  -
|  1> !LC-BLYP RIJCOSX def2-SVPD def2/J TightSCF
|  2> *xyz 0 1
|  3> C          2.48645       -2.67712       -2.56345
|  4> C          3.03764       -2.36672       -3.92351
|  5> N          2.28036       -2.45441       -4.96769
|  6> C          4.32174       -2.01793       -4.01664
|  7> H          4.87994       -1.91167       -3.17382
|  8> H          4.71015       -1.67088       -4.88356
|  9> H          1.27042       -2.41265       -4.86614
| 10> H          2.58183       -2.05528       -5.84688
| 11> C          2.49799       -1.46946       -1.61030
| 12> H          1.47259       -3.05153       -2.69437
| 13> H          3.08320       -3.49064       -2.14147
| 14> H          1.91240       -0.67831       -2.02991
| 15> H          3.50450       -1.13364       -1.47227
| 16> H          2.08509       -1.75655       -0.66585
| 17> *
| 18>
| 19> %MaxCore 64000
| 20>
| 21> %pal nprocs 4
| 22> end
| 23>
| 24> %scf
| 25>   MaxIter 150
| 26> end
| 27>
| 28>
| 29>                          ****END OF INPUT****

CARTESIAN COORDINATES (ANGSTROEM)
---------------------------------
  C      2.486450   -2.677120   -2.563450
  C      3.037640   -2.366720   -3.923510
  N      2.280360   -2.454410   -4.967690
  C      4.321740   -2.017930   -4.016640
  H      4.879940   -1.911670   -3.173820
  H      4.710150   -1.670880   -4.883560
  H      1.270420   -2.412650   -4.866140
  H      2.581830   -2.055280   -5.846880
  C      2.497990   -1.469460   -1.610300
  H      1.472590   -3.051530   -2.694370
  H      3.083200   -3.490640   -2.141470
  H      1.912400   -0.678310   -2.029910
  H      3.504500   -1.133640   -1.472270
  H      2.085090   -1.756550   -0.665850

 Total Charge           Charge          ....    0
 Multiplicity           Mult            ....    1
 Number of Electrons    NEL             ....   40
 Basis Dimension        Dim             ....  172

ORBITAL ENERGIES
----------------

  NO   OCC          E(Eh)            E(eV)
   0   2.0000     -14.193302      -386.2194
   1   2.0000     -10.108640      -275.0701
   2   2.0000     -10.085366      -274.4368
   3   2.0000     -10.071084      -274.0481
   4   2.0000     -10.017607      -272.5929
   5   2.0000      -1.034888       -28.1607
   6   2.0000      -0.884594       -24.0710
   7   2.0000      -0.811491       -22.0818
   8   2.0000      -0.745739       -20.2926
   9   2.0000      -0.674566       -18.3559
  10   2.0000      -0.626491       -17.0477
  11   2.0000      -0.587974       -15.9996
  12   2.0000      -0.551940       -15.0191
  13   2.0000      -0.511935       -13.9305
  14   2.0000      -0.499209       -13.5842
  15   2.0000      -0.479641       -13.0517
  16   2.0000      -0.452027       -12.3003
  17   2.0000      -0.436820       -11.8865
  18   2.0000      -0.435422       -11.8484
  19   2.0000      -0.284317        -7.7367
  20   0.0000       0.071300         1.9402
  21   0.0000       0.096559         2.6275
  22   0.0000       0.107116         2.9148
  23   0.0000       0.111961         3.0466
  24   0.0000       0.128749         3.5034

MULLIKEN ATOMIC CHARGES
-----------------------
   0 C :    0.134845
   1 C :   -0.220906
   2 N :    0.365697
   3 C :    0.597273
   4 H :   -0.308686
   5 H :   -0.595622
   6 H :   -0.103716
   7 H :   -0.135449
   8 C :    0.923269
   9 H :   -0.161564
  10 H :   -0.041096
  11 H :   -0.188410
  12 H :   -0.187403
  13 H :   -0.078231
Sum of atomic charges:   -0.0000000

LOEWDIN ATOMIC CHARGES
----------------------
   0 C :   -0.040947
   1 C :   -0.277894
   2 N :    0.177307
   3 C :    0.172743
   4 H :   -0.081317
   5 H :   -0.087671
   6 H :    0.004311
   7 H :    0.011107
   8 C :    0.124867
   9 H :    0.013373
  10 H :    0.034240
  11 H :   -0.011768
  12 H :   -0.022456
  13 H :   -0.015895

  Mayer bond orders larger than 0.100000
B(  0-C ,  1-C ) :   1.1562 B(  0-C ,  2-N ) :   0.1188 B(  0-C ,  3-C ) :   0.1822
B(  0-C ,  8-C ) :   1.2528 B(  0-C ,  9-H ) :   0.7113 B(  0-C , 10-H ) :   0.7794
B(  0-C , 11-H ) :   0.2005 B(  0-C , 12-H ) :   0.2081 B(  0-C , 13-H ) :   0.1938
B(  1-C ,  2-N ) :   1.1603 B(  1-C ,  3-C ) :   1.7015 B(  1-C ,  5-H ) :   0.1550
B(  1-C ,  9-H ) :   0.2793 B(  1-C , 10-H ) :   0.1562 B(  2-N ,  3-C ) :   0.2446
B(  2-N ,  6-H ) :   0.9989 B(  2-N ,  7-H ) :   1.1123 B(  3-C ,  4-H ) :   0.7479
B(  3-C ,  5-H ) :   0.7014 B(  4-H ,  5-H ) :  -0.1258 B(  6-H ,  7-H ) :  -0.1221
B(  8-C ,  9-H ) :   0.1173 B(  8-C , 11-H ) :   0.7638 B(  8-C , 12-H ) :   0.7749
B(  8-C , 13-H ) :   0.7531

FINAL SINGLE POINT ENERGY      -211.809580686479

DIPOLE MOMENT
-------------
                                X             Y             Z
Electronic contribution:     -0.25030      -1.19322      -2.96958
Nuclear contribution   :     -0.52463       1.37972       2.79217
                        -----------------------------------------
Total Dipole Moment    :     -0.77493       0.18650      -0.17741
                        -----------------------------------------
Magnitude (a.u.)       :      0.81656
Magnitude (Debye)      :      2.07553

Rotational constants in cm-1:     0.281086     0.127387     0.100311
Rotational constants in MHz :  8426.743103  3818.969834  3007.238026

                             ****ORCA TERMINATED NORMALLY****
TOTAL RUN TIME: 0 days 0 hours 0 minutes 23 seconds 513 msec
