                         Program Version 5.0.0 -  RELEASE  -
|  1> !PBE0 D3BJ RIJCOSX def2-SVPD def2/J TightSCF
|  2> *xyz -1 1
|  3> C          3.76678       -2.26611       -6.51175
|  4> C          2.49670       -1.84416       -5.73570
|  5> H          1.62642       -2.21743       -6.30895
|  6> H          2.48182       -2.45607       -4.79341
|  7> O          2.45973       -0.50920       -5.50576
|  8> H          3.82914       -1.70941       -7.42340
|  9> H          3.71764       -3.31144       -6.73483
| 10> H          4.63199       -2.06931       -5.91377
| 11> *
| 12>
| 13> %MaxCore 64000
| 14>
| 15> %pal nprocs 4
| 16> end
| 17>
| 18> %scf
| 19>   MaxIter 150
| 20> end
| 21>
| 22>
| 23>                          ****END OF INPUT****

CARTESIAN COORDINATES (ANGSTROEM)
---------------------------------
  C      3.766780   -2.266110   -6.511750
  C      2.496700   -1.844160   -5.735700
  H      1.626420   -2.217430   -6.308950
  H      2.481820   -2.456070   -4.793410
  O      2.459730   -0.509200   -5.505760
  H      3.829140   -1.709410   -7.423400
  H      3.717640   -3.311440   -6.734830
  H      4.631990   -2.069310   -5.913770

 Total Charge           Charge          ....   -1
 Multiplicity           Mult            ....    1
 Number of Electrons    NEL             ....   26
 Basis Dimension        Dim             ....  103

ORBITAL ENERGIES
----------------

  NO   OCC          E(Eh)            E(eV)
   0   2.0000     -18.884010      -513.8600
   1   2.0000     -10.046361      -273.3754
   2   2.0000     -10.022038      -272.7135
   3   2.0000      -0.701162       -19.0796
   4   2.0000      -0.537929       -14.6378
   5   2.0000      -0.382808       -10.4167
   6   2.0000      -0.261222        -7.1082
   7   2.0000      -0.238530        -6.4907
   8   2.0000      -0.185467        -5.0468
   9   2.0000      -0.167291        -4.5522
  10   2.0000      -0.128518        -3.4971
  11   2.0000       0.019288         0.5248
  12   2.0000       0.021051         0.5728
  13   0.0000       0.186763         5.0821
  14   0.0000       0.217012         5.9052
  15   0.0000       0.251231         6.8364
  16   0.0000       0.264096         7.1864
  17   0.0000       0.281816         7.6686

MULLIKEN ATOMIC CHARGES
-----------------------
   0 C :    0.091361
   1 C :    0.085302
   2 H :   -0.118045
   3 H :   -0.073426
   4 O :   -0.930789
   5 H :   -0.031349
   6 H :    0.004349
   7 H :   -0.027401
Sum of atomic charges:   -1.0000000

LOEWDIN ATOMIC CHARGES
----------------------
   0 C :    0.056334
   1 C :   -0.265305
   2 H :   -0.036475
   3 H :   -0.028875
   4 O :   -0.578227
   5 H :   -0.042413
   6 H :   -0.061631
   7 H :   -0.043408

  Mayer bond orders larger than 0.100000
B(  0-C ,  1-C ) :   1.1952 B(  0-C ,  2-H ) :   0.1169 B(  0-C ,  3-H ) :   0.1134
B(  0-C ,  4-O ) :   0.1902 B(  0-C ,  5-H ) :   0.9412 B(  0-C ,  6-H ) :   0.9299
B(  0-C ,  7-H ) :   0.9328 B(  1-C ,  2-H ) :   0.9934 B(  1-C ,  3-H ) :   0.9911
B(  1-C ,  4-O ) :   1.0830 B(  1-C ,  5-H ) :   0.1544 B(  1-C ,  6-H ) :   0.1058
B(  1-C ,  7-H ) :   0.1472

Dispersion correction           -0.003050644
FINAL SINGLE POINT ENERGY      -154.141454724923

DIPOLE MOMENT
-------------
                                X             Y             Z
Electronic contribution:     -1.06754       2.50702       0.94937
Nuclear contribution   :      1.63615      -3.79938      -1.48621
                        -----------------------------------------
Total Dipole Moment    :      0.56861      -1.29236      -0.53684
                        -----------------------------------------
Magnitude (a.u.)       :      1.51053
Magnitude (Debye)      :      3.83947

Rotational constants in cm-1:     1.265582     0.329289     0.289024
Rotational constants in MHz : 37941.194363  9871.829581  8664.719106

                             ****ORCA TERMINATED NORMALLY****
TOTAL RUN TIME: 0 days 0 hours 0 minutes 10 seconds 651 msec
