                         Program Version 5.0.0 -  RELEASE  -
|  1> !PBE0 D3BJ RIJCOSX def2-SVPD def2/J TightSCF
|  2> *xyz 1 1
|  3> C          4.99986       -1.59613       -5.92488
|  4> N          5.28156       -1.97413       -4.53576
|  5> C          3.76678       -2.26611       -6.51175
|  6> C          4.79250       -1.36132       -3.45730
|  7> N          3.93990       -0.37492       -3.55736
|  8> N          5.25986       -1.75422       -2.23913
|  9> H          5.92282       -2.52145       -2.18672
| 10> H          4.65468       -1.64040       -1.44202
| 11> H          5.70914       -2.87560       -4.38702
| 12> H          3.33010       -0.31764       -4.36125
| 13> H          3.69849        0.11447       -2.70833
| 14> H          4.84333       -0.51793       -5.94302
| 15> H          5.90170       -1.82250       -6.49647
| 16> H          3.63046       -1.94025       -7.52177
| 17> H          2.90710       -2.00116       -5.93240
| 18> H          3.89538       -3.32820       -6.49392
| 19> *
| 20>
| 21> %MaxCore 64000
| 22>
| 23> %pal nprocs 4
| 24> end
| 25>
| 26> %scf
| 27>   MaxIter 150
| 28> end
| 29>
| 30>
| 31>                          ****END OF INPUT****

CARTESIAN COORDINATES (ANGSTROEM)
---------------------------------
  C      4.999860   -1.596130   -5.924880
  N      5.281560   -1.974130   -4.535760
  C      3.766780   -2.266110   -6.511750
  C      4.792500   -1.361320   -3.457300
  N      3.939900   -0.374920   -3.557360
  N      5.259860   -1.754220   -2.239130
  H      5.922820   -2.521450   -2.186720
  H      4.654680   -1.640400   -1.442020
  H      5.709140   -2.875600   -4.387020
  H      3.330100   -0.317640   -4.361250
  H      3.698490    0.114470   -2.708330
  H      4.843330   -0.517930   -5.943020
  H      5.901700   -1.822500   -6.496470
  H      3.630460   -1.940250   -7.521770
  H      2.907100   -2.001160   -5.932400
  H      3.895380   -3.328200   -6.493920

 Total Charge           Charge          ....    1
 Multiplicity           Mult            ....    1
 Number of Electrons    NEL             ....   48
 Basis Dimension        Dim             ....  200

ORBITAL ENERGIES
----------------

  NO   OCC          E(Eh)            E(eV)
   0   2.0000     -14.625228      -397.9727
   1   2.0000     -14.622651      -397.9026
   2   2.0000     -14.615940      -397.7200
   3   2.0000     -10.568672      -287.5882
   4   2.0000     -10.440102      -284.0896
   5   2.0000     -10.373258      -282.2707
   6   2.0000      -1.236252       -33.6401
   7   2.0000      -1.125111       -30.6158
   8   2.0000      -1.109104       -30.1803
   9   2.0000      -0.949615       -25.8403
  10   2.0000      -0.858915       -23.3723
  11   2.0000      -0.820376       -22.3236
  12   2.0000      -0.807322       -21.9683
  13   2.0000      -0.756679       -20.5903
  14   2.0000      -0.712939       -19.4001
  15   2.0000      -0.709264       -19.3001
  16   2.0000      -0.658691       -17.9239
  17   2.0000      -0.646273       -17.5860
  18   2.0000      -0.621522       -16.9125
  19   2.0000      -0.576958       -15.6998
  20   2.0000      -0.547294       -14.8926
  21   2.0000      -0.527610       -14.3570
  22   2.0000      -0.494643       -13.4599
  23   2.0000      -0.465511       -12.6672
  24   0.0000      -0.173414        -4.7188
  25   0.0000      -0.143399        -3.9021
  26   0.0000      -0.112485        -3.0609
  27   0.0000      -0.101799        -2.7701
  28   0.0000      -0.082576        -2.2470

MULLIKEN ATOMIC CHARGES
-----------------------
   0 C :    0.257523
   1 N :   -0.521802
   2 C :    0.530270
   3 C :    1.511734
   4 N :   -0.069420
   5 N :   -0.208325
   6 H :   -0.001536
   7 H :    0.004635
   8 H :   -0.252426
   9 H :   -0.023850
  10 H :   -0.054074
  11 H :   -0.004723
  12 H :   -0.203157
  13 H :    0.101488
  14 H :   -0.079222
  15 H :    0.012886
Sum of atomic charges:    1.0000000

LOEWDIN ATOMIC CHARGES
----------------------
   0 C :    0.040913
   1 N :    0.039155
   2 C :    0.153572
   3 C :   -0.028023
   4 N :    0.281131
   5 N :    0.256931
   6 H :    0.034822
   7 H :    0.028998
   8 H :    0.056140
   9 H :    0.029777
  10 H :    0.046638
  11 H :    0.028624
  12 H :    0.044309
  13 H :    0.008030
  14 H :   -0.018918
  15 H :   -0.002099

  Mayer bond orders larger than 0.100000
B(  0-C ,  1-N ) :   0.8412 B(  0-C ,  2-C ) :   1.2639 B(  0-C ,  8-H ) :  -0.2007
B(  0-C , 11-H ) :   0.8795 B(  0-C , 12-H ) :   0.9545 B(  0-C , 13-H ) :   0.1445
B(  0-C , 14-H ) :   0.1780 B(  0-C , 15-H ) :   0.1950 B(  1-N ,  3-C ) :   0.9560
B(  1-N ,  4-N ) :   0.2326 B(  1-N ,  5-N ) :   0.2088 B(  1-N ,  8-H ) :   1.3510
B(  1-N , 11-H ) :   0.1469 B(  1-N , 12-H ) :   0.1424 B(  2-C , 13-H ) :   0.8061
B(  2-C , 14-H ) :   0.8522 B(  2-C , 15-H ) :   0.8322 B(  3-C ,  4-N ) :   0.9820
B(  3-C ,  5-N ) :   0.7375 B(  3-C ,  6-H ) :  -0.1034 B(  3-C ,  8-H ) :  -0.2157
B(  3-C ,  9-H ) :  -0.1175 B(  3-C , 10-H ) :  -0.1099 B(  4-N ,  5-N ) :   0.1673
B(  4-N ,  9-H ) :   1.1250 B(  4-N , 10-H ) :   1.1903 B(  5-N ,  6-H ) :   1.0709
B(  5-N ,  7-H ) :   1.1480 B(  6-H ,  7-H ) :  -0.1233 B(  9-H , 10-H ) :  -0.1635

Dispersion correction           -0.010411658
FINAL SINGLE POINT ENERGY      -283.891564512002

DIPOLE MOMENT
-------------
                                X             Y             Z
Electronic contribution:      1.75150       1.09515       4.73068
Nuclear contribution   :     -1.95709      -1.20097      -3.70214
                        -----------------------------------------
Total Dipole Moment    :     -0.20559      -0.10582       1.02854
                        -----------------------------------------
Magnitude (a.u.)       :      1.05421
Magnitude (Debye)      :      2.67959

Rotational constants in cm-1:     0.241661     0.071598     0.061743
Rotational constants in MHz :  7244.800091  2146.442409  1851.001864

                             ****ORCA TERMINATED NORMALLY****
TOTAL RUN TIME: 0 days 0 hours 0 minutes 26 seconds 575 msec
