                         Program Version 5.0.0 -  RELEASE  -
|  1> !PBE0 D3BJ RIJCOSX def2-SVPD def2/J TightSCF xyzfile
|  2>
|  3> *xyzfile 0 1 B.xyz
|  4>
|  5> %MaxCore 64000
|  6>
|  7> %pal nprocs 4
|  8> end
|  9>
| 10> %scf
| 11>   MaxIter 150
| 12> end
| 13>
| 14>
| 15>                          ****END OF INPUT****

CARTESIAN COORDINATES (ANGSTROEM)
---------------------------------
  C      4.999862   -1.596133   -5.924876
  N      5.281560   -1.974132   -4.535764
  C      3.766779   -2.266110   -6.511752
  C      2.496702   -1.844161   -5.735704
  H      1.626416   -2.217434   -6.308950
  H      2.481824   -2.456069   -4.793414
  O      2.459729   -0.509204   -5.505757
  C      4.792500   -1.361316   -3.457295
  N      3.939898   -0.374925   -3.557359
  N      5.259860   -1.754224   -2.239133
  H      5.922824   -2.521451   -2.186720
  H      4.654678   -1.640404   -1.442016
  H      5.709139   -2.875599   -4.387021
  H      3.330101   -0.317639   -4.361247
  H      3.698494    0.114468   -2.708333
  H      4.843333   -0.517930   -5.943019
  H      5.901695   -1.822503   -6.496467
  H      3.886191   -3.357076   -6.533604
  H      3.685602   -1.922168   -7.547128

 Total Charge           Charge          ....    0
 Multiplicity           Mult            ....    1
 Number of Electrons    NEL             ....   64
 Basis Dimension        Dim             ....  251

ORBITAL ENERGIES
----------------

  NO   OCC          E(Eh)            E(eV)
   0   2.0000     -19.073337      -519.0119
   1   2.0000     -14.461513      -393.5178
   2   2.0000     -14.455009      -393.3408
   3   2.0000     -14.410330      -392.1250
   4   2.0000     -10.391795      -282.7751
   5   2.0000     -10.266971      -279.3785
   6   2.0000     -10.216362      -278.0013
   7   2.0000     -10.202945      -277.6362
   8   2.0000      -1.062160       -28.9028
   9   2.0000      -0.954131       -25.9632
  10   2.0000      -0.937011       -25.4974
  11   2.0000      -0.898865       -24.4594
  12   2.0000      -0.774592       -21.0777
  13   2.0000      -0.693637       -18.8748
  14   2.0000      -0.649167       -17.6647
  15   2.0000      -0.630857       -17.1665
  16   2.0000      -0.602526       -16.3956
  17   2.0000      -0.557256       -15.1637
  18   2.0000      -0.538666       -14.6578
  19   2.0000      -0.519574       -14.1383
  20   2.0000      -0.485386       -13.2080
  21   2.0000      -0.474986       -12.9250
  22   2.0000      -0.449599       -12.2342
  23   2.0000      -0.420134       -11.4324
  24   2.0000      -0.375674       -10.2226
  25   2.0000      -0.355766        -9.6809
  26   2.0000      -0.343848        -9.3566
  27   2.0000      -0.323092        -8.7918
  28   2.0000      -0.312516        -8.5040
  29   2.0000      -0.290746        -7.9116
  30   2.0000      -0.179289        -4.8787
  31   2.0000      -0.173941        -4.7332
  32   0.0000      -0.013550        -0.3687
  33   0.0000       0.002365         0.0643
  34   0.0000       0.025348         0.6897
  35   0.0000       0.041977         1.1422
  36   0.0000       0.063741         1.7345

MULLIKEN ATOMIC CHARGES
-----------------------
   0 C :    0.662740
   1 N :   -0.590456
   2 C :   -0.100617
   3 C :    0.471471
   4 H :   -0.337647
   5 H :    0.164255
   6 O :   -0.761500
   7 C :    1.430122
   8 N :    0.150434
   9 N :   -0.228297
  10 H :   -0.051347
  11 H :   -0.024604
  12 H :   -0.252813
  13 H :   -0.307583
  14 H :   -0.118858
  15 H :    0.212970
  16 H :   -0.328072
  17 H :   -0.065038
  18 H :    0.074841
Sum of atomic charges:   -0.0000000

LOEWDIN ATOMIC CHARGES
----------------------
   0 C :    0.062960
   1 N :    0.033160
   2 C :   -0.027698
   3 C :   -0.100723
   4 H :    0.005638
   5 H :   -0.000386
   6 O :   -0.424382
   7 C :   -0.045717
   8 N :    0.296103
   9 N :    0.219252
  10 H :    0.008042
  11 H :    0.008623
  12 H :    0.036738
  13 H :   -0.185543
  14 H :    0.028128
  15 H :    0.027938
  16 H :    0.020333
  17 H :    0.011828
  18 H :    0.025707

  Mayer bond orders larger than 0.100000
B(  0-C ,  1-N ) :   0.8902 B(  0-C ,  2-C ) :   1.1587 B(  0-C , 12-H ) :  -0.1868
B(  0-C , 15-H ) :   0.7068 B(  0-C , 16-H ) :   0.9422 B(  0-C , 17-H ) :   0.1430
B(  0-C , 18-H ) :   0.1004 B(  1-N ,  7-C ) :   0.9270 B(  1-N ,  8-N ) :   0.1830
B(  1-N ,  9-N ) :   0.2029 B(  1-N , 12-H ) :   1.3474 B(  1-N , 15-H ) :   0.1783
B(  1-N , 16-H ) :   0.1340 B(  2-C ,  3-C ) :   1.1059 B(  2-C ,  4-H ) :   0.1367
B(  2-C , 15-H ) :   0.1075 B(  2-C , 17-H ) :   0.9245 B(  2-C , 18-H ) :   0.8825
B(  3-C ,  4-H ) :   1.0630 B(  3-C ,  5-H ) :   0.8218 B(  3-C ,  6-O ) :   1.0355
B(  3-C , 17-H ) :   0.1095 B(  6-O , 13-H ) :   0.3500 B(  7-C ,  8-N ) :   1.0774
B(  7-C ,  9-N ) :   0.6906 B(  7-C , 10-H ) :  -0.1160 B(  7-C , 12-H ) :  -0.2081
B(  7-C , 13-H ) :  -0.1475 B(  7-C , 14-H ) :  -0.1181 B(  8-N ,  9-N ) :   0.1732
B(  8-N , 13-H ) :   1.1373 B(  8-N , 14-H ) :   1.1873 B(  9-N , 10-H ) :   1.1188
B(  9-N , 11-H ) :   1.1477 B( 10-H , 11-H ) :  -0.1299 B( 13-H , 14-H ) :  -0.2100
B( 15-H , 16-H ) :  -0.1170

Dispersion correction           -0.014983158
FINAL SINGLE POINT ENERGY      -397.798086209143

DIPOLE MOMENT
-------------
                                X             Y             Z
Electronic contribution:      1.90186       1.94829       3.68260
Nuclear contribution   :      0.51577      -3.31768      -1.36804
                        -----------------------------------------
Total Dipole Moment    :      2.41763      -1.36939       2.31456
                        -----------------------------------------
Magnitude (a.u.)       :      3.61626
Magnitude (Debye)      :      9.19180

Rotational constants in cm-1:     0.111492     0.050787     0.040163
Rotational constants in MHz :  3342.457536  1522.560798  1204.057148

                             ****ORCA TERMINATED NORMALLY****
TOTAL RUN TIME: 0 days 0 hours 0 minutes 46 seconds 656 msec
