                         Program Version 5.0.0 -  RELEASE  -
|  1> !PBE0 D3BJ RIJCOSX def2-SVPD def2/J TightSCF
|  2> *xyz 0 1
|  3> C          3.76678       -2.26611       -6.51175
|  4> C          2.49670       -1.84416       -5.73570
|  5> H          1.62642       -2.21743       -6.30895
|  6> H          2.48182       -2.45607       -4.79341
|  7> F          2.45973       -0.50920       -5.50576
|  8> H          3.82914       -1.70941       -7.42340
|  9> H          3.71764       -3.31144       -6.73483
| 10> H          4.63199       -2.06931       -5.91377
| 11> *
| 12>
| 13> %MaxCore 64000
| 14>
| 15> %pal nprocs 4
| 16> end
| 17>
| 18> %scf
| 19>   MaxIter 150
| 20> end
| 21>
| 22>
| 23>                          ****END OF INPUT****

CARTESIAN COORDINATES (ANGSTROEM)
---------------------------------
  C      3.766780   -2.266110   -6.511750
  C      2.496700   -1.844160   -5.735700
  H      1.626420   -2.217430   -6.308950
  H      2.481820   -2.456070   -4.793410
  F      2.459730   -0.509200   -5.505760
  H      3.829140   -1.709410   -7.423400
  H      3.717640   -3.311440   -6.734830
  H      4.631990   -2.069310   -5.913770

 Total Charge           Charge          ....    0
 Multiplicity           Mult            ....    1
 Number of Electrons    NEL             ....   26
 Basis Dimension        Dim             ....  103

ORBITAL ENERGIES
----------------

  NO   OCC          E(Eh)            E(eV)
   0   2.0000     -24.775803      -674.1839
   1   2.0000     -10.314649      -280.6759
   2   2.0000     -10.228719      -278.3376
   3   2.0000      -1.223859       -33.3029
   4   2.0000      -0.779166       -21.2022
   5   2.0000      -0.647559       -17.6210
   6   2.0000      -0.532141       -14.4803
   7   2.0000      -0.514748       -14.0070
   8   2.0000      -0.480560       -13.0767
   9   2.0000      -0.421554       -11.4711
  10   2.0000      -0.414866       -11.2891
  11   2.0000      -0.350173        -9.5287
  12   2.0000      -0.343810        -9.3556
  13   0.0000       0.030259         0.8234
  14   0.0000       0.061812         1.6820
  15   0.0000       0.084174         2.2905
  16   0.0000       0.089946         2.4475
  17   0.0000       0.116986         3.1834

MULLIKEN ATOMIC CHARGES
-----------------------
   0 C :    0.139960
   1 C :    0.339452
   2 H :   -0.020625
   3 H :    0.019297
   4 F :   -0.474885
   5 H :   -0.011043
   6 H :    0.012350
   7 H :   -0.004505
Sum of atomic charges:   -0.0000000

LOEWDIN ATOMIC CHARGES
----------------------
   0 C :    0.131291
   1 C :    0.061046
   2 H :    0.028822
   3 H :    0.038499
   4 F :   -0.217500
   5 H :   -0.014003
   6 H :   -0.013389
   7 H :   -0.014766

  Mayer bond orders larger than 0.100000
B(  0-C ,  1-C ) :   1.3410 B(  0-C ,  5-H ) :   0.9198 B(  0-C ,  6-H ) :   0.8885
B(  0-C ,  7-H ) :   0.9152 B(  1-C ,  2-H ) :   0.9588 B(  1-C ,  3-H ) :   0.9524
B(  1-C ,  4-F ) :   0.7010 B(  1-C ,  5-H ) :   0.1168 B(  1-C ,  7-H ) :   0.1113

Dispersion correction           -0.002811007
FINAL SINGLE POINT ENERGY      -178.741057302840

DIPOLE MOMENT
-------------
                                X             Y             Z
Electronic contribution:     -2.07732       4.32551       1.80930
Nuclear contribution   :      2.16248      -5.01128      -1.96962
                        -----------------------------------------
Total Dipole Moment    :      0.08515      -0.68577      -0.16033
                        -----------------------------------------
Magnitude (a.u.)       :      0.70940
Magnitude (Debye)      :      1.80314

Rotational constants in cm-1:     1.244010     0.306580     0.270375
Rotational constants in MHz : 37294.476802  9191.037795  8105.639967

                             ****ORCA TERMINATED NORMALLY****
TOTAL RUN TIME: 0 days 0 hours 0 minutes 9 seconds 24 msec
