                         Program Version 5.0.0 -  RELEASE  -
|  1> !PBE0 D3BJ RIJCOSX def2-SVPD def2/J TightSCF
|  2> *xyz 0 1
|  3> C          4.99986       -1.59613       -5.92488
|  4> C          5.28156       -1.97413       -4.53576
|  5> C          3.76678       -2.26611       -6.51175
|  6> C          4.79250       -1.36132       -3.45730
|  7> N          3.93990       -0.37492       -3.55736
|  8> N          5.25986       -1.75422       -2.23913
|  9> H          5.92282       -2.52145       -2.18672
| 10> H          4.65468       -1.64040       -1.44202
| 11> H          5.70914       -2.87560       -4.38702
| 12> H          3.33010       -0.31764       -4.36125
| 13> H          3.69849        0.11447       -2.70833
| 14> H          4.84333       -0.51793       -5.94302
| 15> H          5.90170       -1.82250       -6.49647
| 16> H          3.63046       -1.94025       -7.52177
| 17> H          2.90710       -2.00116       -5.93240
| 18> H          3.89538       -3.32820       -6.49392
| 19> *
| 20>
| 21> %MaxCore 64000
| 22>
| 23> %pal nprocs 4
| 24> end
| 25>
| 26> %scf
| 27>   MaxIter 150
| 28> end
| 29>
| 30>
| 31>                          ****END OF INPUT****

CARTESIAN COORDINATES (ANGSTROEM)
---------------------------------
  C      4.999860   -1.596130   -5.924880
  C      5.281560   -1.974130   -4.535760
  C      3.766780   -2.266110   -6.511750
  C      4.792500   -1.361320   -3.457300
  N      3.939900   -0.374920   -3.557360
  N      5.259860   -1.754220   -2.239130
  H      5.922820   -2.521450   -2.186720
  H      4.654680   -1.640400   -1.442020
  H      5.709140   -2.875600   -4.387020
  H      3.330100   -0.317640   -4.361250
  H      3.698490    0.114470   -2.708330
  H      4.843330   -0.517930   -5.943020
  H      5.901700   -1.822500   -6.496470
  H      3.630460   -1.940250   -7.521770
  H      2.907100   -2.001160   -5.932400
  H      3.895380   -3.328200   -6.493920

 Total Charge           Charge          ....    0
 Multiplicity           Mult            ....    1
 Number of Electrons    NEL             ....   48
 Basis Dimension        Dim             ....  200

ORBITAL ENERGIES
----------------

  NO   OCC          E(Eh)            E(eV)
   0   2.0000     -14.401081      -391.8733
   1   2.0000     -14.392921      -391.6513
   2   2.0000     -10.274582      -279.5856
   3   2.0000     -10.206603      -277.7358
   4   2.0000     -10.201543      -277.5981
   5   2.0000     -10.157914      -276.4109
   6   2.0000      -0.981668       -26.7125
   7   2.0000      -0.887838       -24.1593
   8   2.0000      -0.790532       -21.5115
   9   2.0000      -0.710556       -19.3352
  10   2.0000      -0.630276       -17.1507
  11   2.0000      -0.593605       -16.1528
  12   2.0000      -0.562612       -15.3094
  13   2.0000      -0.518799       -14.1172
  14   2.0000      -0.493870       -13.4389
  15   2.0000      -0.457911       -12.4604
  16   2.0000      -0.429427       -11.6853
  17   2.0000      -0.409045       -11.1307
  18   2.0000      -0.397084       -10.8052
  19   2.0000      -0.365775        -9.9532
  20   2.0000      -0.339214        -9.2305
  21   2.0000      -0.330636        -8.9971
  22   2.0000      -0.279000        -7.5920
  23   2.0000      -0.173272        -4.7150
  24   0.0000       0.019860         0.5404
  25   0.0000       0.046399         1.2626
  26   0.0000       0.059949         1.6313
  27   0.0000       0.068669         1.8686
  28   0.0000       0.084710         2.3051

MULLIKEN ATOMIC CHARGES
-----------------------
   0 C :   -0.286852
   1 C :   -0.386915
   2 C :    0.519632
   3 C :    1.008558
   4 N :    0.003315
   5 N :   -0.211699
   6 H :    0.002155
   7 H :   -0.089705
   8 H :   -0.239412
   9 H :   -0.065027
  10 H :   -0.181417
  11 H :    0.028322
  12 H :   -0.060363
  13 H :    0.053271
  14 H :   -0.090205
  15 H :   -0.003657
Sum of atomic charges:    0.0000000

LOEWDIN ATOMIC CHARGES
----------------------
   0 C :   -0.105688
   1 C :   -0.030407
   2 C :    0.110252
   3 C :   -0.223427
   4 N :    0.194752
   5 N :    0.173527
   6 H :    0.001770
   7 H :   -0.021749
   8 H :   -0.052167
   9 H :   -0.000731
  10 H :   -0.001277
  11 H :    0.006501
  12 H :    0.015853
  13 H :   -0.022446
  14 H :   -0.028388
  15 H :   -0.016375

  Mayer bond orders larger than 0.100000
B(  0-C ,  1-C ) :   1.1662 B(  0-C ,  2-C ) :   1.2200 B(  0-C ,  8-H ) :   0.2159
B(  0-C , 11-H ) :   0.8780 B(  0-C , 12-H ) :   0.9177 B(  0-C , 13-H ) :   0.1426
B(  0-C , 14-H ) :   0.1832 B(  0-C , 15-H ) :   0.2086 B(  1-C ,  3-C ) :   1.5661
B(  1-C ,  4-N ) :   0.2943 B(  1-C ,  5-N ) :   0.3253 B(  1-C ,  8-H ) :   0.9466
B(  1-C , 11-H ) :   0.2435 B(  1-C , 12-H ) :   0.1481 B(  2-C , 13-H ) :   0.8242
B(  2-C , 14-H ) :   0.8687 B(  2-C , 15-H ) :   0.8361 B(  3-C ,  4-N ) :   0.9849
B(  3-C ,  5-N ) :   0.6566 B(  3-C ,  8-H ) :   0.1159 B(  3-C , 10-H ) :  -0.1164
B(  3-C , 11-H ) :  -0.1043 B(  4-N ,  5-N ) :   0.1041 B(  4-N ,  9-H ) :   1.0998
B(  4-N , 10-H ) :   1.2560 B(  5-N ,  6-H ) :   1.0617 B(  5-N ,  7-H ) :   1.1609
B(  6-H ,  7-H ) :  -0.1105 B(  9-H , 10-H ) :  -0.1526

Dispersion correction           -0.010836642
FINAL SINGLE POINT ENERGY      -267.433972131180

DIPOLE MOMENT
-------------
                                X             Y             Z
Electronic contribution:      1.22948       1.38880       4.51174
Nuclear contribution   :     -1.82485      -1.28952      -3.74132
                        -----------------------------------------
Total Dipole Moment    :     -0.59537       0.09928       0.77043
                        -----------------------------------------
Magnitude (a.u.)       :      0.97871
Magnitude (Debye)      :      2.48769

Rotational constants in cm-1:     0.245790     0.071632     0.062004
Rotational constants in MHz :  7368.599517  2147.482078  1858.844841

                             ****ORCA TERMINATED NORMALLY****
TOTAL RUN TIME: 0 days 0 hours 0 minutes 28 seconds 383 msec
