                         Program Version 5.0.0 -  RELEASE  -
|  1> !PBE0 D3BJ RIJCOSX def2-SVPD def2/J TightSCF
|  2> *xyz 0 1
|  3> C          4.99986       -1.59613       -5.92488
|  4> N          5.28156       -1.97413       -4.53576
|  5> C          3.76678       -2.26611       -6.51175
|  6> C          4.79250       -1.36132       -3.45730
|  7> C          3.93990       -0.37492       -3.55736
|  8> N          5.25986       -1.75422       -2.23913
|  9> H          5.92282       -2.52145       -2.18672
| 10> H          4.65468       -1.64040       -1.44202
| 11> H          5.70914       -2.87560       -4.38702
| 12> H          3.33010       -0.31764       -4.36125
| 13> H          3.69849        0.11447       -2.70833
| 14> H          4.84333       -0.51793       -5.94302
| 15> H          5.90170       -1.82250       -6.49647
| 16> H          3.63046       -1.94025       -7.52177
| 17> H          2.90710       -2.00116       -5.93240
| 18> H          3.89538       -3.32820       -6.49392
| 19> *
| 20>
| 21> %MaxCore 64000
| 22>
| 23> %pal nprocs 4
| 24> end
| 25>
| 26> %scf
| 27>   MaxIter 150
| 28> end
| 29>
| 30>
| 31>                          ****END OF INPUT****

CARTESIAN COORDINATES (ANGSTROEM)
---------------------------------
  C      4.999860   -1.596130   -5.924880
  N      5.281560   -1.974130   -4.535760
  C      3.766780   -2.266110   -6.511750
  C      4.792500   -1.361320   -3.457300
  C      3.939900   -0.374920   -3.557360
  N      5.259860   -1.754220   -2.239130
  H      5.922820   -2.521450   -2.186720
  H      4.654680   -1.640400   -1.442020
  H      5.709140   -2.875600   -4.387020
  H      3.330100   -0.317640   -4.361250
  H      3.698490    0.114470   -2.708330
  H      4.843330   -0.517930   -5.943020
  H      5.901700   -1.822500   -6.496470
  H      3.630460   -1.940250   -7.521770
  H      2.907100   -2.001160   -5.932400
  H      3.895380   -3.328200   -6.493920

 Total Charge           Charge          ....    0
 Multiplicity           Mult            ....    1
 Number of Electrons    NEL             ....   48
 Basis Dimension        Dim             ....  200

ORBITAL ENERGIES
----------------

  NO   OCC          E(Eh)            E(eV)
   0   2.0000     -14.399222      -391.8228
   1   2.0000     -14.393887      -391.6776
   2   2.0000     -10.276409      -279.6353
   3   2.0000     -10.263959      -279.2965
   4   2.0000     -10.217614      -278.0354
   5   2.0000     -10.146915      -276.1116
   6   2.0000      -0.981393       -26.7051
   7   2.0000      -0.896298       -24.3895
   8   2.0000      -0.772635       -21.0245
   9   2.0000      -0.733101       -19.9487
  10   2.0000      -0.652710       -17.7611
  11   2.0000      -0.579316       -15.7640
  12   2.0000      -0.560238       -15.2448
  13   2.0000      -0.526715       -14.3326
  14   2.0000      -0.472376       -12.8540
  15   2.0000      -0.459977       -12.5166
  16   2.0000      -0.439708       -11.9651
  17   2.0000      -0.413588       -11.2543
  18   2.0000      -0.397162       -10.8073
  19   2.0000      -0.384866       -10.4727
  20   2.0000      -0.366125        -9.9628
  21   2.0000      -0.358877        -9.7655
  22   2.0000      -0.263001        -7.1566
  23   2.0000      -0.184415        -5.0182
  24   0.0000       0.021707         0.5907
  25   0.0000       0.045774         1.2456
  26   0.0000       0.055974         1.5231
  27   0.0000       0.064175         1.7463
  28   0.0000       0.082519         2.2455

MULLIKEN ATOMIC CHARGES
-----------------------
   0 C :    0.207624
   1 N :   -0.493547
   2 C :    0.549551
   3 C :    0.907809
   4 C :    0.171287
   5 N :   -0.139425
   6 H :   -0.118838
   7 H :   -0.020182
   8 H :   -0.360942
   9 H :   -0.185749
  10 H :   -0.279978
  11 H :    0.074149
  12 H :   -0.251464
  13 H :    0.060123
  14 H :   -0.109295
  15 H :   -0.011122
Sum of atomic charges:    0.0000000

LOEWDIN ATOMIC CHARGES
----------------------
   0 C :    0.015404
   1 N :   -0.029797
   2 C :    0.128098
   3 C :   -0.231561
   4 C :    0.149952
   5 N :    0.179287
   6 H :   -0.013906
   7 H :   -0.003930
   8 H :    0.016161
   9 H :   -0.100573
  10 H :   -0.090962
  11 H :    0.018681
  12 H :    0.019466
  13 H :   -0.014925
  14 H :   -0.022173
  15 H :   -0.019223

  Mayer bond orders larger than 0.100000
B(  0-C ,  1-N ) :   0.8408 B(  0-C ,  2-C ) :   1.2311 B(  0-C ,  4-C ) :   0.1173
B(  0-C ,  8-H ) :  -0.1930 B(  0-C , 11-H ) :   0.8551 B(  0-C , 12-H ) :   0.9860
B(  0-C , 13-H ) :   0.1583 B(  0-C , 14-H ) :   0.1812 B(  0-C , 15-H ) :   0.1878
B(  1-N ,  3-C ) :   0.8450 B(  1-N ,  4-C ) :   0.3608 B(  1-N ,  5-N ) :   0.1460
B(  1-N ,  8-H ) :   1.4012 B(  1-N , 11-H ) :   0.1282 B(  1-N , 12-H ) :   0.1400
B(  2-C , 13-H ) :   0.8045 B(  2-C , 14-H ) :   0.8896 B(  2-C , 15-H ) :   0.8329
B(  3-C ,  4-C ) :   1.7193 B(  3-C ,  5-N ) :   0.7357 B(  3-C ,  8-H ) :  -0.2497
B(  3-C ,  9-H ) :   0.1626 B(  3-C , 10-H ) :   0.2665 B(  4-C ,  5-N ) :   0.2913
B(  4-C ,  9-H ) :   0.7295 B(  4-C , 10-H ) :   0.7949 B(  5-N ,  6-H ) :   1.0917
B(  5-N ,  7-H ) :   1.1198 B(  6-H ,  7-H ) :  -0.1136 B(  9-H , 11-H ) :   0.1070

Dispersion correction           -0.010802060
FINAL SINGLE POINT ENERGY      -267.425289068728

DIPOLE MOMENT
-------------
                                X             Y             Z
Electronic contribution:      2.40635      -0.08247       3.50251
Nuclear contribution   :     -2.10948      -0.95026      -3.53375
                        -----------------------------------------
Total Dipole Moment    :      0.29687      -1.03273      -0.03124
                        -----------------------------------------
Magnitude (a.u.)       :      1.07501
Magnitude (Debye)      :      2.73245

Rotational constants in cm-1:     0.255209     0.072067     0.062929
Rotational constants in MHz :  7650.964615  2160.525743  1886.569524

                             ****ORCA TERMINATED NORMALLY****
TOTAL RUN TIME: 0 days 0 hours 0 minutes 26 seconds 552 msec
