                         Program Version 5.0.0 -  RELEASE  -
|  1> !PBE0 D3BJ RIJCOSX def2-SVPD def2/J TightSCF
|  2> *xyz 0 1
|  3> C          4.99986       -1.59613       -5.92488
|  4> N          5.28156       -1.97413       -4.53576
|  5> C          3.76678       -2.26611       -6.51175
|  6> C          4.79250       -1.36132       -3.45730
|  7> N          3.93990       -0.37492       -3.55736
|  8> C          5.25986       -1.75422       -2.23913
|  9> H          5.92282       -2.52145       -2.18672
| 10> H          4.65468       -1.64040       -1.44202
| 11> H          5.70914       -2.87560       -4.38702
| 12> H          3.33010       -0.31764       -4.36125
| 13> H          3.69849        0.11447       -2.70833
| 14> H          4.84333       -0.51793       -5.94302
| 15> H          5.90170       -1.82250       -6.49647
| 16> H          3.63046       -1.94025       -7.52177
| 17> H          2.90710       -2.00116       -5.93240
| 18> H          3.89538       -3.32820       -6.49392
| 19> *
| 20>
| 21> %MaxCore 64000
| 22>
| 23> %pal nprocs 4
| 24> end
| 25>
| 26> %scf
| 27>   MaxIter 150
| 28> end
| 29>
| 30>
| 31>                          ****END OF INPUT****

CARTESIAN COORDINATES (ANGSTROEM)
---------------------------------
  C      4.999860   -1.596130   -5.924880
  N      5.281560   -1.974130   -4.535760
  C      3.766780   -2.266110   -6.511750
  C      4.792500   -1.361320   -3.457300
  N      3.939900   -0.374920   -3.557360
  C      5.259860   -1.754220   -2.239130
  H      5.922820   -2.521450   -2.186720
  H      4.654680   -1.640400   -1.442020
  H      5.709140   -2.875600   -4.387020
  H      3.330100   -0.317640   -4.361250
  H      3.698490    0.114470   -2.708330
  H      4.843330   -0.517930   -5.943020
  H      5.901700   -1.822500   -6.496470
  H      3.630460   -1.940250   -7.521770
  H      2.907100   -2.001160   -5.932400
  H      3.895380   -3.328200   -6.493920

 Total Charge           Charge          ....    0
 Multiplicity           Mult            ....    1
 Number of Electrons    NEL             ....   48
 Basis Dimension        Dim             ....  200

ORBITAL ENERGIES
----------------

  NO   OCC          E(Eh)            E(eV)
   0   2.0000     -14.401052      -391.8726
   1   2.0000     -14.399200      -391.8221
   2   2.0000     -10.280477      -279.7460
   3   2.0000     -10.272927      -279.5406
   4   2.0000     -10.228596      -278.3342
   5   2.0000     -10.142178      -275.9827
   6   2.0000      -0.991753       -26.9870
   7   2.0000      -0.907368       -24.6907
   8   2.0000      -0.790137       -21.5007
   9   2.0000      -0.712859       -19.3979
  10   2.0000      -0.643664       -17.5150
  11   2.0000      -0.620204       -16.8766
  12   2.0000      -0.562126       -15.2962
  13   2.0000      -0.516168       -14.0457
  14   2.0000      -0.497991       -13.5510
  15   2.0000      -0.460288       -12.5251
  16   2.0000      -0.445571       -12.1246
  17   2.0000      -0.418720       -11.3939
  18   2.0000      -0.400877       -10.9084
  19   2.0000      -0.380834       -10.3630
  20   2.0000      -0.376177       -10.2363
  21   2.0000      -0.360805        -9.8180
  22   2.0000      -0.269796        -7.3415
  23   2.0000      -0.170307        -4.6343
  24   0.0000       0.016339         0.4446
  25   0.0000       0.049678         1.3518
  26   0.0000       0.052037         1.4160
  27   0.0000       0.059253         1.6123
  28   0.0000       0.076392         2.0787

MULLIKEN ATOMIC CHARGES
-----------------------
   0 C :    0.259205
   1 N :   -0.407474
   2 C :    0.526326
   3 C :    0.593023
   4 N :    0.017732
   5 C :    0.372729
   6 H :   -0.167115
   7 H :   -0.356544
   8 H :   -0.306923
   9 H :   -0.115238
  10 H :   -0.077526
  11 H :   -0.030955
  12 H :   -0.263195
  13 H :    0.064083
  14 H :   -0.091401
  15 H :   -0.016727
Sum of atomic charges:   -0.0000000

LOEWDIN ATOMIC CHARGES
----------------------
   0 C :    0.008911
   1 N :   -0.017465
   2 C :    0.124099
   3 C :   -0.236112
   4 N :    0.194257
   5 C :    0.137726
   6 H :   -0.107349
   7 H :   -0.114089
   8 H :    0.031362
   9 H :   -0.013342
  10 H :    0.015265
  11 H :    0.012997
  12 H :    0.020261
  13 H :   -0.015128
  14 H :   -0.025853
  15 H :   -0.015539

  Mayer bond orders larger than 0.100000
B(  0-C ,  1-N ) :   0.8597 B(  0-C ,  2-C ) :   1.2397 B(  0-C ,  8-H ) :  -0.2182
B(  0-C , 11-H ) :   0.8941 B(  0-C , 12-H ) :   0.9578 B(  0-C , 13-H ) :   0.1519
B(  0-C , 14-H ) :   0.1930 B(  0-C , 15-H ) :   0.2055 B(  1-N ,  3-C ) :   0.9793
B(  1-N ,  4-N ) :   0.1873 B(  1-N ,  5-C ) :   0.2410 B(  1-N ,  8-H ) :   1.2969
B(  1-N , 11-H ) :   0.1448 B(  1-N , 12-H ) :   0.1488 B(  2-C , 13-H ) :   0.8176
B(  2-C , 14-H ) :   0.8541 B(  2-C , 15-H ) :   0.8346 B(  3-C ,  4-N ) :   1.0241
B(  3-C ,  5-C ) :   1.6882 B(  3-C ,  6-H ) :   0.1731 B(  3-C ,  7-H ) :   0.1938
B(  3-C ,  8-H ) :  -0.1797 B(  4-N ,  5-C ) :   0.1975 B(  4-N ,  9-H ) :   1.1192
B(  4-N , 10-H ) :   1.1776 B(  5-C ,  6-H ) :   0.7975 B(  5-C ,  7-H ) :   0.8195
B(  6-H ,  7-H ) :   0.1605 B(  9-H , 10-H ) :  -0.1552

Dispersion correction           -0.010736485
FINAL SINGLE POINT ENERGY      -267.420092570608

DIPOLE MOMENT
-------------
                                X             Y             Z
Electronic contribution:      1.15370       1.25131       2.14462
Nuclear contribution   :     -1.82946      -1.24287      -3.25410
                        -----------------------------------------
Total Dipole Moment    :     -0.67576       0.00845      -1.10948
                        -----------------------------------------
Magnitude (a.u.)       :      1.29910
Magnitude (Debye)      :      3.30205

Rotational constants in cm-1:     0.244672     0.074506     0.064043
Rotational constants in MHz :  7335.067153  2233.624025  1919.970379

                             ****ORCA TERMINATED NORMALLY****
TOTAL RUN TIME: 0 days 0 hours 0 minutes 28 seconds 347 msec
