                         Program Version 5.0.0 -  RELEASE  -
|  1> !B3LYP D3BJ RIJCOSX def2-TZVPD def2/J TightSCF
|  2> *xyz -1 1
|  3> C          4.08422        1.74208       -2.11472
|  4> C          4.26524        2.50052       -0.79589
|  5> H          4.86853        3.39267       -0.98113
|  6> H          3.30764        2.82457       -0.38781
|  7> C          4.98224        1.65026        0.24742
|  8> O          4.36806        1.38927        1.31371
|  9> O          6.12892        1.23351       -0.04562
| 10> H          3.57911        2.36849       -2.81997
| 11> H          3.50424        0.85965       -1.94198
| 12> H          5.04288        1.46841       -2.50327
| 13> *
| 14> %MaxCore 64000
| 15> %pal nprocs 8
| 16> end
| 17> %scf
| 18>   MaxIter 150
| 19> end
| 20>
| 21>
| 22>                          ****END OF INPUT****

CARTESIAN COORDINATES (ANGSTROEM)
---------------------------------
  C      4.084220    1.742080   -2.114720
  C      4.265240    2.500520   -0.795890
  H      4.868530    3.392670   -0.981130
  H      3.307640    2.824570   -0.387810
  C      4.982240    1.650260    0.247420
  O      4.368060    1.389270    1.313710
  O      6.128920    1.233510   -0.045620
  H      3.579110    2.368490   -2.819970
  H      3.504240    0.859650   -1.941980
  H      5.042880    1.468410   -2.503270

 Total Charge           Charge          ....   -1
 Multiplicity           Mult            ....    1
 Number of Electrons    NEL             ....   40
 Basis Dimension        Dim             ....  236

ORBITAL ENERGIES
----------------

  NO   OCC          E(Eh)            E(eV)
   0   2.0000     -18.860493      -513.2201
   1   2.0000     -18.860412      -513.2179
   2   2.0000     -10.049927      -273.4724
   3   2.0000     -10.004462      -272.2352
   4   2.0000      -9.993563      -271.9387
   5   2.0000      -0.819797       -22.3078
   6   2.0000      -0.727802       -19.8045
   7   2.0000      -0.604834       -16.4584
   8   2.0000      -0.473895       -12.8953
   9   2.0000      -0.320659        -8.7256
  10   2.0000      -0.291870        -7.9422
  11   2.0000      -0.259901        -7.0723
  12   2.0000      -0.229616        -6.2482
  13   2.0000      -0.214169        -5.8278
  14   2.0000      -0.208321        -5.6687
  15   2.0000      -0.178313        -4.8521
  16   2.0000      -0.161602        -4.3974
  17   2.0000      -0.049037        -1.3344
  18   2.0000      -0.042020        -1.1434
  19   2.0000      -0.027866        -0.7583
  20   0.0000       0.133342         3.6284
  21   0.0000       0.159066         4.3284
  22   0.0000       0.173862         4.7310
  23   0.0000       0.183269         4.9870
  24   0.0000       0.208842         5.6829

MULLIKEN ATOMIC CHARGES
-----------------------
   0 C :   -1.044360
   1 C :    0.019373
   2 H :    0.166535
   3 H :    0.161706
   4 C :    0.384830
   5 O :   -0.736837
   6 O :   -0.743004
   7 H :    0.257033
   8 H :    0.290675
   9 H :    0.244048
Sum of atomic charges:   -1.0000000

LOEWDIN ATOMIC CHARGES
----------------------
   0 C :   -0.125911
   1 C :   -0.208805
   2 H :    0.090758
   3 H :    0.084168
   4 C :   -0.778051
   5 O :   -0.110849
   6 O :   -0.103028
   7 H :    0.039372
   8 H :    0.059285
   9 H :    0.053061

  Mayer bond orders larger than 0.100000
B(  0-C ,  1-C ) :   0.5597 B(  0-C ,  4-C ) :   0.1225 B(  0-C ,  7-H ) :   0.9506
B(  0-C ,  8-H ) :   0.9574 B(  0-C ,  9-H ) :   1.0381 B(  1-C ,  2-H ) :   0.9599
B(  1-C ,  3-H ) :   1.0301 B(  1-C ,  4-C ) :   0.9053 B(  4-C ,  5-O ) :   1.4274
B(  4-C ,  6-O ) :   1.4352

Dispersion correction           -0.010991650
FINAL SINGLE POINT ENERGY      -267.817216813640

DIPOLE MOMENT
-------------
                                X             Y             Z
Electronic contribution:      2.44157      -1.47300       5.11561
Nuclear contribution   :     -3.31311       2.28398      -6.76358
                        -----------------------------------------
Total Dipole Moment    :     -0.87154       0.81098      -1.64797
                        -----------------------------------------
Magnitude (a.u.)       :      2.03300
Magnitude (Debye)      :      5.16748

Rotational constants in cm-1:     0.309287     0.135287     0.107346
Rotational constants in MHz :  9272.201029  4055.789113  3218.155789

                             ****ORCA TERMINATED NORMALLY****
TOTAL RUN TIME: 0 days 0 hours 0 minutes 27 seconds 573 msec
