                         Program Version 5.0.0 -  RELEASE  -
|  1> !B3LYP D3BJ RIJCOSX def2-TZVPD def2/J TightSCF
|  2> *xyz 1 1
|  3> C          3.91385       -1.65829        3.01513
|  4> N          5.03927       -0.90115        2.49282
|  5> C          6.21038       -1.41726        2.17824
|  6> N          6.53591       -2.67712        2.55608
|  7> N          7.07675       -0.70082        1.47891
|  8> H          7.95464       -1.12155        1.20755
|  9> H          6.75616        0.10664        0.96028
| 10> H          4.84217        0.01761        2.11519
| 11> H          5.99388       -3.12692        3.28278
| 12> C          3.13916       -2.37657        1.91061
| 13> H          3.26723       -0.93940        3.52069
| 14> H          4.24720       -2.35509        3.79006
| 15> H          7.49844       -2.97548        2.46878
| 16> H          2.82969       -1.66654        1.17238
| 17> H          2.27790       -2.85264        2.33072
| 18> H          3.76754       -3.11338        1.45548
| 19> *
| 20> %MaxCore 64000
| 21> %pal nprocs 8
| 22> end
| 23> %scf
| 24>   MaxIter 150
| 25> end
| 26>
| 27>
| 28>                          ****END OF INPUT****

CARTESIAN COORDINATES (ANGSTROEM)
---------------------------------
  C      3.913850   -1.658290    3.015130
  N      5.039270   -0.901150    2.492820
  C      6.210380   -1.417260    2.178240
  N      6.535910   -2.677120    2.556080
  N      7.076750   -0.700820    1.478910
  H      7.954640   -1.121550    1.207550
  H      6.756160    0.106640    0.960280
  H      4.842170    0.017610    2.115190
  H      5.993880   -3.126920    3.282780
  C      3.139160   -2.376570    1.910610
  H      3.267230   -0.939400    3.520690
  H      4.247200   -2.355090    3.790060
  H      7.498440   -2.975480    2.468780
  H      2.829690   -1.666540    1.172380
  H      2.277900   -2.852640    2.330720
  H      3.767540   -3.113380    1.455480

 Total Charge           Charge          ....    1
 Multiplicity           Mult            ....    1
 Number of Electrons    NEL             ....   48
 Basis Dimension        Dim             ....  312

ORBITAL ENERGIES
----------------

  NO   OCC          E(Eh)            E(eV)
   0   2.0000     -14.540226      -395.6597
   1   2.0000     -14.538453      -395.6114
   2   2.0000     -14.536351      -395.5542
   3   2.0000     -10.503162      -285.8056
   4   2.0000     -10.377346      -282.3819
   5   2.0000     -10.303128      -280.3624
   6   2.0000      -1.215867       -33.0854
   7   2.0000      -1.107739       -30.1431
   8   2.0000      -1.091452       -29.6999
   9   2.0000      -0.931129       -25.3373
  10   2.0000      -0.842560       -22.9272
  11   2.0000      -0.802426       -21.8351
  12   2.0000      -0.785837       -21.3837
  13   2.0000      -0.744622       -20.2622
  14   2.0000      -0.692738       -18.8504
  15   2.0000      -0.687221       -18.7002
  16   2.0000      -0.654608       -17.8128
  17   2.0000      -0.629357       -17.1257
  18   2.0000      -0.602596       -16.3975
  19   2.0000      -0.562282       -15.3005
  20   2.0000      -0.533527       -14.5180
  21   2.0000      -0.514614       -14.0034
  22   2.0000      -0.478957       -13.0331
  23   2.0000      -0.451798       -12.2940
  24   0.0000      -0.173581        -4.7234
  25   0.0000      -0.164793        -4.4843
  26   0.0000      -0.133491        -3.6325
  27   0.0000      -0.124725        -3.3939
  28   0.0000      -0.102362        -2.7854

MULLIKEN ATOMIC CHARGES
-----------------------
   0 C :   -0.405727
   1 N :   -0.124351
   2 C :    0.612537
   3 N :   -0.289763
   4 N :   -0.291258
   5 H :    0.194609
   6 H :    0.203231
   7 H :    0.194194
   8 H :    0.189847
   9 C :   -1.042016
  10 H :    0.290082
  11 H :    0.295943
  12 H :    0.195768
  13 H :    0.308719
  14 H :    0.341865
  15 H :    0.326319
Sum of atomic charges:    1.0000000

LOEWDIN ATOMIC CHARGES
----------------------
   0 C :   -0.199857
   1 N :    0.087299
   2 C :   -0.433383
   3 N :    0.215256
   4 N :    0.210430
   5 H :    0.137029
   6 H :    0.139624
   7 H :    0.169256
   8 H :    0.119700
   9 C :   -0.051434
  10 H :    0.129982
  11 H :    0.115715
  12 H :    0.133909
  13 H :    0.076180
  14 H :    0.081135
  15 H :    0.069156

  Mayer bond orders larger than 0.100000
B(  0-C ,  1-N ) :   0.8752 B(  0-C ,  9-C ) :   0.6914 B(  0-C , 10-H ) :   0.9375
B(  0-C , 11-H ) :   0.8886 B(  1-N ,  2-C ) :   1.2638 B(  1-N ,  7-H ) :   0.9857
B(  2-C ,  3-N ) :   1.1690 B(  2-C ,  4-N ) :   1.1413 B(  3-N ,  8-H ) :   0.9457
B(  3-N , 12-H ) :   0.9944 B(  4-N ,  5-H ) :   0.9848 B(  4-N ,  6-H ) :   0.9709
B(  9-C , 13-H ) :   0.9760 B(  9-C , 14-H ) :   0.9537 B(  9-C , 15-H ) :   0.9491

Dispersion correction           -0.020359108
FINAL SINGLE POINT ENERGY      -284.355658755399

DIPOLE MOMENT
-------------
                                X             Y             Z
Electronic contribution:      4.68330       1.90051       0.07869
Nuclear contribution   :     -3.67981      -1.62355      -0.28562
                        -----------------------------------------
Total Dipole Moment    :      1.00349       0.27696      -0.20693
                        -----------------------------------------
Magnitude (a.u.)       :      1.06138
Magnitude (Debye)      :      2.69780

Rotational constants in cm-1:     0.222027     0.074735     0.065694
Rotational constants in MHz :  6656.200457  2240.503315  1969.451902

                             ****ORCA TERMINATED NORMALLY****
TOTAL RUN TIME: 0 days 0 hours 0 minutes 40 seconds 655 msec
