                         Program Version 5.0.0 -  RELEASE  -
|  1> !B3LYP D3BJ RIJCOSX def2-TZVPD def2/J TightSCF xyzfile
|  2>
|  3> *xyzfile 0 1 B.xyz
|  4>
|  5> %MaxCore 64000
|  6>
|  7> %pal nprocs 4
|  8> end
|  9>
| 10> %scf
| 11>   MaxIter 150
| 12> end
| 13>
| 14>
| 15>                          ****END OF INPUT****

CARTESIAN COORDINATES (ANGSTROEM)
---------------------------------
  C      3.913853   -1.658291    3.015134
  N      5.039266   -0.901154    2.492821
  C      4.084215    1.742081   -2.114724
  C      4.265245    2.500518   -0.795890
  H      4.868534    3.392674   -0.981134
  H      3.307640    2.824571   -0.387809
  C      4.982240    1.650257    0.247422
  C      6.210384   -1.417261    2.178244
  N      6.535913   -2.677122    2.556078
  N      7.076754   -0.700820    1.478906
  H      7.954643   -1.121554    1.207554
  H      6.756161    0.106637    0.960278
  H      4.842168    0.017609    2.115191
  H      5.993876   -3.126918    3.282784
  H      7.498441   -2.975482    2.468776
  O      4.368065    1.389270    1.313706
  O      6.128919    1.233512   -0.045620
  C      3.139159   -2.376572    1.910609
  H      3.267235   -0.939401    3.520693
  H      4.247195   -2.355095    3.790065
  C      1.997274    0.430918   -1.399218
  C      3.412746    0.376886   -1.965497
  H      4.047407   -0.246590   -1.326706
  H      3.390774   -0.118719   -2.942839
  H      5.068475    1.598504   -2.565728
  H      3.503356    2.363939   -2.804565
  C      2.399946   -1.389579    1.009490
  H      2.440750   -3.087118    2.362976
  H      3.844475   -2.970462    1.318677
  C      2.070177   -1.936705   -0.372401
  H      1.481611   -1.061542    1.509912
  H      3.008628   -0.490001    0.897451
  C      1.322238   -0.935775   -1.256413
  H      1.472747   -2.850902   -0.283997
  H      3.003539   -2.234041   -0.862535
  H      1.376444    1.058920   -2.047420
  H      2.015341    0.929780   -0.426535
  H      0.316648   -0.787213   -0.848278
  H      1.185611   -1.379252   -2.248613

 Total Charge           Charge          ....    0
 Multiplicity           Mult            ....    1
 Number of Electrons    NEL             ....  126
 Basis Dimension        Dim             ....  805

ORBITAL ENERGIES
----------------

  NO   OCC          E(Eh)            E(eV)
   0   2.0000     -19.044597      -518.2298
   1   2.0000     -19.043575      -518.2020
   2   2.0000     -14.380564      -391.3150
   3   2.0000     -14.346408      -390.3856
   4   2.0000     -14.340660      -390.2292
   5   2.0000     -10.326622      -281.0017
   6   2.0000     -10.227652      -278.3086
   7   2.0000     -10.225937      -278.2619
   8   2.0000     -10.175651      -276.8935
   9   2.0000     -10.153471      -276.2900
  10   2.0000     -10.152956      -276.2760
  11   2.0000     -10.149146      -276.1723
  12   2.0000     -10.140136      -275.9271
  13   2.0000     -10.138645      -275.8866
  14   2.0000     -10.137827      -275.8643
  15   2.0000     -10.129401      -275.6350
  16   2.0000      -1.040755       -28.3204
  17   2.0000      -1.008494       -27.4425
  18   2.0000      -0.934778       -25.4366
  19   2.0000      -0.921766       -25.0825
  20   2.0000      -0.911502       -24.8032
  21   2.0000      -0.809885       -22.0381
  22   2.0000      -0.785511       -21.3748
  23   2.0000      -0.756845       -20.5948
  24   2.0000      -0.717568       -19.5260
  25   2.0000      -0.679715       -18.4960
  26   2.0000      -0.662420       -18.0254
  27   2.0000      -0.631839       -17.1932
  28   2.0000      -0.614768       -16.7287
  29   2.0000      -0.602764       -16.4020
  30   2.0000      -0.574883       -15.6434
  31   2.0000      -0.569310       -15.4917
  32   2.0000      -0.538273       -14.6472
  33   2.0000      -0.524956       -14.2848
  34   2.0000      -0.518241       -14.1020
  35   2.0000      -0.497110       -13.5271
  36   2.0000      -0.469812       -12.7842
  37   2.0000      -0.464906       -12.6507
  38   2.0000      -0.457464       -12.4482
  39   2.0000      -0.454044       -12.3552
  40   2.0000      -0.439787       -11.9672
  41   2.0000      -0.422651       -11.5009
  42   2.0000      -0.420299       -11.4369
  43   2.0000      -0.415317       -11.3014
  44   2.0000      -0.407489       -11.0883
  45   2.0000      -0.398104       -10.8330
  46   2.0000      -0.383252       -10.4288
  47   2.0000      -0.370239       -10.0747
  48   2.0000      -0.366258        -9.9664
  49   2.0000      -0.354442        -9.6449
  50   2.0000      -0.348017        -9.4700
  51   2.0000      -0.340793        -9.2734
  52   2.0000      -0.327536        -8.9127
  53   2.0000      -0.319891        -8.7047
  54   2.0000      -0.314673        -8.5627
  55   2.0000      -0.309305        -8.4166
  56   2.0000      -0.300031        -8.1643
  57   2.0000      -0.295202        -8.0329
  58   2.0000      -0.288637        -7.8542
  59   2.0000      -0.276452        -7.5226
  60   2.0000      -0.234350        -6.3770
  61   2.0000      -0.223502        -6.0818
  62   2.0000      -0.217777        -5.9260
  63   0.0000      -0.030298        -0.8244
  64   0.0000      -0.006676        -0.1817
  65   0.0000       0.000033         0.0009
  66   0.0000       0.017158         0.4669
  67   0.0000       0.022414         0.6099

MULLIKEN ATOMIC CHARGES
-----------------------
   0 C :   -0.943286
   1 N :   -0.141674
   2 C :   -0.596724
   3 C :   -0.324958
   4 H :    0.257904
   5 H :    0.221074
   6 C :    0.671263
   7 C :    0.442929
   8 N :   -0.296053
   9 N :   -0.233938
  10 H :    0.168188
  11 H :    0.270326
  12 H :    0.365798
  13 H :    0.170156
  14 H :    0.173136
  15 O :   -0.887432
  16 O :   -0.908926
  17 C :   -0.364010
  18 H :    0.327948
  19 H :    0.302910
  20 C :   -0.373140
  21 C :   -0.339877
  22 H :    0.180506
  23 H :    0.246843
  24 H :    0.187693
  25 H :    0.241856
  26 C :    0.128172
  27 H :    0.281074
  28 H :    0.237726
  29 C :   -0.431885
  30 H :    0.250294
  31 H :   -0.101917
  32 C :   -0.649652
  33 H :    0.218006
  34 H :    0.294870
  35 H :    0.236640
  36 H :    0.238142
  37 H :    0.240056
  38 H :    0.239966
Sum of atomic charges:   -0.0000000

LOEWDIN ATOMIC CHARGES
----------------------
   0 C :   -0.164562
   1 N :    0.104014
   2 C :   -0.199153
   3 C :   -0.121557
   4 H :    0.113170
   5 H :    0.102991
   6 C :   -0.650738
   7 C :   -0.440410
   8 N :    0.177829
   9 N :    0.209386
  10 H :    0.121707
  11 H :    0.039559
  12 H :    0.072773
  13 H :    0.100974
  14 H :    0.114133
  15 O :   -0.050279
  16 O :   -0.037123
  17 C :   -0.179555
  18 H :    0.130667
  19 H :    0.103677
  20 C :   -0.210726
  21 C :   -0.206786
  22 H :    0.102466
  23 H :    0.113932
  24 H :    0.105735
  25 H :    0.106126
  26 C :   -0.208332
  27 H :    0.112672
  28 H :    0.109099
  29 C :   -0.215279
  30 H :    0.126109
  31 H :    0.083769
  32 C :   -0.207935
  33 H :    0.109300
  34 H :    0.106224
  35 H :    0.113488
  36 H :    0.101178
  37 H :    0.105966
  38 H :    0.105491

  Mayer bond orders larger than 0.100000
B(  0-C ,  1-N ) :   0.9797 B(  0-C ,  7-C ) :  -0.1394 B(  0-C , 17-C ) :   0.7504
B(  0-C , 18-H ) :   0.8108 B(  0-C , 19-H ) :   0.9145 B(  0-C , 26-C ) :   0.1442
B(  0-C , 27-H ) :  -0.1320 B(  1-N ,  7-C ) :   1.2970 B(  1-N , 12-H ) :   0.6874
B(  1-N , 15-O ) :  -0.1102 B(  2-C ,  3-C ) :   0.8205 B(  2-C ,  6-C ) :   0.1408
B(  2-C , 20-C ) :   0.1861 B(  2-C , 21-C ) :   0.9691 B(  2-C , 24-H ) :   0.9644
B(  2-C , 25-H ) :   0.9354 B(  3-C ,  4-H ) :   0.8847 B(  3-C ,  5-H ) :   1.0086
B(  3-C ,  6-C ) :   0.9529 B(  3-C , 20-C ) :   0.1205 B(  6-C , 15-O ) :   1.3130
B(  6-C , 16-O ) :   1.1038 B(  7-C ,  8-N ) :   1.0806 B(  7-C ,  9-N ) :   1.1903
B(  8-N , 13-H ) :   0.9650 B(  8-N , 14-H ) :   0.9946 B(  9-N , 10-H ) :   0.9864
B(  9-N , 11-H ) :   0.8172 B( 15-O , 16-O ) :   0.1388 B( 17-C , 26-C ) :   0.5761
B( 17-C , 27-H ) :   0.9919 B( 17-C , 28-H ) :   0.8682 B( 17-C , 29-C ) :   0.4157
B( 17-C , 30-H ) :  -0.1361 B( 17-C , 31-H ) :  -0.1097 B( 20-C , 21-C ) :   0.3116
B( 20-C , 22-H ) :  -0.1298 B( 20-C , 32-C ) :   0.8874 B( 20-C , 35-H ) :   0.9345
B( 20-C , 36-H ) :   1.0103 B( 21-C , 22-H ) :   1.0605 B( 21-C , 23-H ) :   0.9134
B( 21-C , 29-C ) :   0.1398 B( 21-C , 32-C ) :   0.1341 B( 21-C , 36-H ) :  -0.1247
B( 26-C , 29-C ) :   0.4594 B( 26-C , 30-H ) :   0.8110 B( 26-C , 31-H ) :   1.6532
B( 26-C , 32-C ) :   0.1454 B( 26-C , 34-H ) :  -0.1007 B( 29-C , 31-H ) :  -0.2472
B( 29-C , 32-C ) :   0.9133 B( 29-C , 33-H ) :   0.9605 B( 29-C , 34-H ) :   0.9420
B( 30-H , 31-H ) :   0.1394 B( 32-C , 37-H ) :   0.9582 B( 32-C , 38-H ) :   0.9678

Dispersion correction           -0.072499165
FINAL SINGLE POINT ENERGY      -747.687480975487

DIPOLE MOMENT
-------------
                                X             Y             Z
Electronic contribution:     12.27140       3.33028       7.67228
Nuclear contribution   :    -11.44764      -6.21818      -6.18483
                        -----------------------------------------
Total Dipole Moment    :      0.82376      -2.88790       1.48745
                        -----------------------------------------
Magnitude (a.u.)       :      3.35128
Magnitude (Debye)      :      8.51827

Rotational constants in cm-1:     0.020281     0.013510     0.009451
Rotational constants in MHz :   608.005987   405.034308   283.324538

                             ****ORCA TERMINATED NORMALLY****
TOTAL RUN TIME: 0 days 0 hours 10 minutes 30 seconds 602 msec
