                         Program Version 5.0.0 -  RELEASE  -
|  1> !B3LYP D3BJ RIJCOSX def2-TZVPD def2/J TightSCF
|  2> *xyz 0 1
|  3> C          4.08422        1.74208       -2.11472
|  4> C          4.26524        2.50052       -0.79589
|  5> H          4.86853        3.39267       -0.98113
|  6> H          3.30764        2.82457       -0.38781
|  7> C          4.98224        1.65026        0.24742
|  8> F          4.36806        1.38927        1.31371
|  9> O          6.12892        1.23351       -0.04562
| 10> H          3.57911        2.36849       -2.81997
| 11> H          3.50424        0.85965       -1.94198
| 12> H          5.04288        1.46841       -2.50327
| 13> *
| 14> %MaxCore 64000
| 15> %pal nprocs 8
| 16> end
| 17> %scf
| 18>   MaxIter 150
| 19> end
| 20>
| 21>
| 22>                          ****END OF INPUT****

CARTESIAN COORDINATES (ANGSTROEM)
---------------------------------
  C      4.084220    1.742080   -2.114720
  C      4.265240    2.500520   -0.795890
  H      4.868530    3.392670   -0.981130
  H      3.307640    2.824570   -0.387810
  C      4.982240    1.650260    0.247420
  F      4.368060    1.389270    1.313710
  O      6.128920    1.233510   -0.045620
  H      3.579110    2.368490   -2.819970
  H      3.504240    0.859650   -1.941980
  H      5.042880    1.468410   -2.503270

 Total Charge           Charge          ....    0
 Multiplicity           Mult            ....    1
 Number of Electrons    NEL             ....   40
 Basis Dimension        Dim             ....  236

ORBITAL ENERGIES
----------------

  NO   OCC          E(Eh)            E(eV)
   0   2.0000     -24.751942      -673.5346
   1   2.0000     -19.131794      -520.6026
   2   2.0000     -10.347789      -281.5777
   3   2.0000     -10.201387      -277.5938
   4   2.0000     -10.173644      -276.8389
   5   2.0000      -1.318785       -35.8860
   6   2.0000      -1.035104       -28.1666
   7   2.0000      -0.801610       -21.8129
   8   2.0000      -0.690961       -18.8020
   9   2.0000      -0.640159       -17.4196
  10   2.0000      -0.548980       -14.9385
  11   2.0000      -0.535360       -14.5679
  12   2.0000      -0.509933       -13.8760
  13   2.0000      -0.466744       -12.7008
  14   2.0000      -0.436414       -11.8754
  15   2.0000      -0.401203       -10.9173
  16   2.0000      -0.381612       -10.3842
  17   2.0000      -0.376809       -10.2535
  18   2.0000      -0.348648        -9.4872
  19   2.0000      -0.295172        -8.0320
  20   0.0000      -0.035249        -0.9592
  21   0.0000       0.002049         0.0557
  22   0.0000       0.027189         0.7398
  23   0.0000       0.037903         1.0314
  24   0.0000       0.047499         1.2925

MULLIKEN ATOMIC CHARGES
-----------------------
   0 C :   -1.065912
   1 C :   -0.053964
   2 H :    0.211057
   3 H :    0.221190
   4 C :    0.517324
   5 F :   -0.214934
   6 O :   -0.502051
   7 H :    0.277654
   8 H :    0.324505
   9 H :    0.285131
Sum of atomic charges:    0.0000000

LOEWDIN ATOMIC CHARGES
----------------------
   0 C :   -0.081507
   1 C :   -0.153217
   2 H :    0.119544
   3 H :    0.105983
   4 C :   -0.488657
   5 F :    0.205188
   6 O :    0.081400
   7 H :    0.067299
   8 H :    0.072755
   9 H :    0.071213

  Mayer bond orders larger than 0.100000
B(  0-C ,  1-C ) :   0.6301 B(  0-C ,  4-C ) :   0.1090 B(  0-C ,  7-H ) :   0.9592
B(  0-C ,  8-H ) :   0.9206 B(  0-C ,  9-H ) :   1.0145 B(  1-C ,  2-H ) :   0.9529
B(  1-C ,  3-H ) :   0.9768 B(  1-C ,  4-C ) :   0.9035 B(  4-C ,  5-F ) :   1.0112
B(  4-C ,  6-O ) :   1.7413

Dispersion correction           -0.010420681
FINAL SINGLE POINT ENERGY      -292.382957619448

DIPOLE MOMENT
-------------
                                X             Y             Z
Electronic contribution:      1.91762      -2.03857       8.12662
Nuclear contribution   :     -2.87511       2.61564      -8.50037
                        -----------------------------------------
Total Dipole Moment    :     -0.95748       0.57706      -0.37374
                        -----------------------------------------
Magnitude (a.u.)       :      1.17875
Magnitude (Debye)      :      2.99616

Rotational constants in cm-1:     0.297822     0.128965     0.102219
Rotational constants in MHz :  8928.481997  3866.271686  3064.463504

                             ****ORCA TERMINATED NORMALLY****
TOTAL RUN TIME: 0 days 0 hours 0 minutes 26 seconds 212 msec
