                         Program Version 5.0.0 -  RELEASE  -
|  1> !B3LYP D3BJ RIJCOSX def2-TZVPD def2/J TightSCF
|  2> *xyz 0 1
|  3> C          3.91385       -1.65829        3.01513
|  4> C          5.03927       -0.90115        2.49282
|  5> C          6.21038       -1.41726        2.17824
|  6> N          6.53591       -2.67712        2.55608
|  7> N          7.07675       -0.70082        1.47891
|  8> H          7.95464       -1.12155        1.20755
|  9> H          6.75616        0.10664        0.96028
| 10> H          4.84217        0.01761        2.11519
| 11> H          5.99388       -3.12692        3.28278
| 12> C          3.13916       -2.37657        1.91061
| 13> H          3.26723       -0.93940        3.52069
| 14> H          4.24720       -2.35509        3.79006
| 15> H          7.49844       -2.97548        2.46878
| 16> H          2.82969       -1.66654        1.17238
| 17> H          2.27790       -2.85264        2.33072
| 18> H          3.76754       -3.11338        1.45548
| 19> *
| 20> %MaxCore 64000
| 21> %pal nprocs 8
| 22> end
| 23> %scf
| 24>   MaxIter 150
| 25> end
| 26>
| 27>
| 28>                          ****END OF INPUT****

CARTESIAN COORDINATES (ANGSTROEM)
---------------------------------
  C      3.913850   -1.658290    3.015130
  C      5.039270   -0.901150    2.492820
  C      6.210380   -1.417260    2.178240
  N      6.535910   -2.677120    2.556080
  N      7.076750   -0.700820    1.478910
  H      7.954640   -1.121550    1.207550
  H      6.756160    0.106640    0.960280
  H      4.842170    0.017610    2.115190
  H      5.993880   -3.126920    3.282780
  C      3.139160   -2.376570    1.910610
  H      3.267230   -0.939400    3.520690
  H      4.247200   -2.355090    3.790060
  H      7.498440   -2.975480    2.468780
  H      2.829690   -1.666540    1.172380
  H      2.277900   -2.852640    2.330720
  H      3.767540   -3.113380    1.455480

 Total Charge           Charge          ....    0
 Multiplicity           Mult            ....    1
 Number of Electrons    NEL             ....   48
 Basis Dimension        Dim             ....  312

ORBITAL ENERGIES
----------------

  NO   OCC          E(Eh)            E(eV)
   0   2.0000     -14.316133      -389.5618
   1   2.0000     -14.314383      -389.5142
   2   2.0000     -10.209990      -277.8280
   3   2.0000     -10.142991      -276.0048
   4   2.0000     -10.130586      -275.6673
   5   2.0000     -10.090552      -274.5779
   6   2.0000      -0.959822       -26.1181
   7   2.0000      -0.870662       -23.6919
   8   2.0000      -0.773390       -21.0450
   9   2.0000      -0.693799       -18.8792
  10   2.0000      -0.616792       -16.7838
  11   2.0000      -0.576427       -15.6854
  12   2.0000      -0.539670       -14.6852
  13   2.0000      -0.510769       -13.8987
  14   2.0000      -0.473857       -12.8943
  15   2.0000      -0.438256       -11.9255
  16   2.0000      -0.418198       -11.3797
  17   2.0000      -0.387871       -10.5545
  18   2.0000      -0.382570       -10.4102
  19   2.0000      -0.353751        -9.6261
  20   2.0000      -0.329230        -8.9588
  21   2.0000      -0.320863        -8.7311
  22   2.0000      -0.266980        -7.2649
  23   2.0000      -0.161673        -4.3993
  24   0.0000      -0.004050        -0.1102
  25   0.0000       0.022893         0.6230
  26   0.0000       0.028163         0.7664
  27   0.0000       0.040945         1.1142
  28   0.0000       0.055575         1.5123

MULLIKEN ATOMIC CHARGES
-----------------------
   0 C :   -0.368817
   1 C :   -0.354663
   2 C :    0.254385
   3 N :   -0.342442
   4 N :   -0.344615
   5 H :    0.131292
   6 H :    0.166517
   7 H :    0.290553
   8 H :    0.155842
   9 C :   -1.086570
  10 H :    0.189105
  11 H :    0.288812
  12 H :    0.131690
  13 H :    0.308280
  14 H :    0.282645
  15 H :    0.297987
Sum of atomic charges:   -0.0000000

LOEWDIN ATOMIC CHARGES
----------------------
   0 C :   -0.280372
   1 C :   -0.146100
   2 C :   -0.542088
   3 N :    0.128327
   4 N :    0.111290
   5 H :    0.095153
   6 H :    0.109694
   7 H :    0.067412
   8 H :    0.092686
   9 C :   -0.099012
  10 H :    0.100353
  11 H :    0.091238
  12 H :    0.092908
  13 H :    0.063877
  14 H :    0.054751
  15 H :    0.059883

  Mayer bond orders larger than 0.100000
B(  0-C ,  1-C ) :   0.7383 B(  0-C ,  2-C ) :   0.1427 B(  0-C ,  9-C ) :   0.5687
B(  0-C , 10-H ) :   1.1185 B(  0-C , 11-H ) :   0.9356 B(  1-C ,  2-C ) :   1.3959
B(  1-C ,  7-H ) :   0.9912 B(  2-C ,  3-N ) :   1.0179 B(  2-C ,  4-N ) :   1.0687
B(  2-C ,  7-H ) :  -0.1522 B(  3-N ,  8-H ) :   0.9672 B(  3-N , 12-H ) :   1.0474
B(  4-N ,  5-H ) :   1.0369 B(  4-N ,  6-H ) :   0.9885 B(  9-C , 13-H ) :   0.9848
B(  9-C , 14-H ) :   0.9711 B(  9-C , 15-H ) :   0.9745

Dispersion correction           -0.021288829
FINAL SINGLE POINT ENERGY      -267.872783954099

DIPOLE MOMENT
-------------
                                X             Y             Z
Electronic contribution:      4.59926       1.24178      -0.03339
Nuclear contribution   :     -3.74303      -1.46908      -0.23637
                        -----------------------------------------
Total Dipole Moment    :      0.85624      -0.22730      -0.26976
                        -----------------------------------------
Magnitude (a.u.)       :      0.92605
Magnitude (Debye)      :      2.35384

Rotational constants in cm-1:     0.225937     0.074877     0.065953
Rotational constants in MHz :  6773.424301  2244.750632  1977.214101

                             ****ORCA TERMINATED NORMALLY****
TOTAL RUN TIME: 0 days 0 hours 0 minutes 47 seconds 156 msec
