                         Program Version 5.0.0 -  RELEASE  -
|  1> !B3LYP D3BJ RIJCOSX def2-TZVPD def2/J TightSCF
|  2> *xyz 0 1
|  3> C          4.08422        1.74208       -2.11472
|  4> C          4.26524        2.50052       -0.79589
|  5> H          4.86853        3.39267       -0.98113
|  6> H          3.30764        2.82457       -0.38781
|  7> C          4.98224        1.65026        0.24742
|  8> O          4.36806        1.38927        1.31371
|  9> F          6.12892        1.23351       -0.04562
| 10> H          3.57911        2.36849       -2.81997
| 11> H          3.50424        0.85965       -1.94198
| 12> H          5.04288        1.46841       -2.50327
| 13> *
| 14> %MaxCore 64000
| 15> %pal nprocs 8
| 16> end
| 17> %scf
| 18>   MaxIter 150
| 19> end
| 20>
| 21>
| 22>                          ****END OF INPUT****

CARTESIAN COORDINATES (ANGSTROEM)
---------------------------------
  C      4.084220    1.742080   -2.114720
  C      4.265240    2.500520   -0.795890
  H      4.868530    3.392670   -0.981130
  H      3.307640    2.824570   -0.387810
  C      4.982240    1.650260    0.247420
  O      4.368060    1.389270    1.313710
  F      6.128920    1.233510   -0.045620
  H      3.579110    2.368490   -2.819970
  H      3.504240    0.859650   -1.941980
  H      5.042880    1.468410   -2.503270

 Total Charge           Charge          ....    0
 Multiplicity           Mult            ....    1
 Number of Electrons    NEL             ....   40
 Basis Dimension        Dim             ....  236

ORBITAL ENERGIES
----------------

  NO   OCC          E(Eh)            E(eV)
   0   2.0000     -24.753044      -673.5646
   1   2.0000     -19.131339      -520.5902
   2   2.0000     -10.347426      -281.5678
   3   2.0000     -10.201123      -277.5867
   4   2.0000     -10.178169      -276.9621
   5   2.0000      -1.321423       -35.9577
   6   2.0000      -1.032082       -28.0844
   7   2.0000      -0.805540       -21.9199
   8   2.0000      -0.688782       -18.7427
   9   2.0000      -0.645424       -17.5629
  10   2.0000      -0.552037       -15.0217
  11   2.0000      -0.540837       -14.7169
  12   2.0000      -0.503648       -13.7049
  13   2.0000      -0.467234       -12.7141
  14   2.0000      -0.437488       -11.9047
  15   2.0000      -0.404250       -11.0002
  16   2.0000      -0.385804       -10.4983
  17   2.0000      -0.379823       -10.3355
  18   2.0000      -0.351904        -9.5758
  19   2.0000      -0.290471        -7.9041
  20   0.0000      -0.032368        -0.8808
  21   0.0000       0.000419         0.0114
  22   0.0000       0.026948         0.7333
  23   0.0000       0.037096         1.0094
  24   0.0000       0.047613         1.2956

MULLIKEN ATOMIC CHARGES
-----------------------
   0 C :   -1.091716
   1 C :   -0.022565
   2 H :    0.234325
   3 H :    0.189027
   4 C :    0.516723
   5 O :   -0.499858
   6 F :   -0.227783
   7 H :    0.272655
   8 H :    0.333991
   9 H :    0.295200
Sum of atomic charges:    0.0000000

LOEWDIN ATOMIC CHARGES
----------------------
   0 C :   -0.084161
   1 C :   -0.149477
   2 H :    0.115836
   3 H :    0.115436
   4 C :   -0.494787
   5 O :    0.077684
   6 F :    0.209837
   7 H :    0.067735
   8 H :    0.074392
   9 H :    0.067505

  Mayer bond orders larger than 0.100000
B(  0-C ,  1-C ) :   0.5751 B(  0-C ,  4-C ) :   0.1083 B(  0-C ,  7-H ) :   0.9741
B(  0-C ,  8-H ) :   0.9439 B(  0-C ,  9-H ) :   0.9778 B(  1-C ,  2-H ) :   0.9367
B(  1-C ,  3-H ) :   1.0132 B(  1-C ,  4-C ) :   0.9067 B(  4-C ,  5-O ) :   1.7309
B(  4-C ,  6-F ) :   1.0000

Dispersion correction           -0.010353172
FINAL SINGLE POINT ENERGY      -292.382278553513

DIPOLE MOMENT
-------------
                                X             Y             Z
Electronic contribution:      4.83658      -2.28643       5.84247
Nuclear contribution   :     -4.79499       2.78546      -7.01827
                        -----------------------------------------
Total Dipole Moment    :      0.04159       0.49903      -1.17580
                        -----------------------------------------
Magnitude (a.u.)       :      1.27800
Magnitude (Debye)      :      3.24841

Rotational constants in cm-1:     0.286098     0.133492     0.103343
Rotational constants in MHz :  8577.003657  4001.981591  3098.148068

                             ****ORCA TERMINATED NORMALLY****
TOTAL RUN TIME: 0 days 0 hours 0 minutes 26 seconds 144 msec
