                         Program Version 5.0.0 -  RELEASE  -
|  1> !B3LYP D3BJ RIJCOSX def2-TZVPD def2/J TightSCF
|  2> *xyz 0 1
|  3> C          3.91385       -1.65829        3.01513
|  4> N          5.03927       -0.90115        2.49282
|  5> C          6.21038       -1.41726        2.17824
|  6> C          6.53591       -2.67712        2.55608
|  7> N          7.07675       -0.70082        1.47891
|  8> H          7.95464       -1.12155        1.20755
|  9> H          6.75616        0.10664        0.96028
| 10> H          4.84217        0.01761        2.11519
| 11> H          5.99388       -3.12692        3.28278
| 12> C          3.13916       -2.37657        1.91061
| 13> H          3.26723       -0.93940        3.52069
| 14> H          4.24720       -2.35509        3.79006
| 15> H          7.49844       -2.97548        2.46878
| 16> H          2.82969       -1.66654        1.17238
| 17> H          2.27790       -2.85264        2.33072
| 18> H          3.76754       -3.11338        1.45548
| 19> *
| 20> %MaxCore 64000
| 21> %pal nprocs 8
| 22> end
| 23> %scf
| 24>   MaxIter 150
| 25> end
| 26>
| 27>
| 28>                          ****END OF INPUT****

CARTESIAN COORDINATES (ANGSTROEM)
---------------------------------
  C      3.913850   -1.658290    3.015130
  N      5.039270   -0.901150    2.492820
  C      6.210380   -1.417260    2.178240
  C      6.535910   -2.677120    2.556080
  N      7.076750   -0.700820    1.478910
  H      7.954640   -1.121550    1.207550
  H      6.756160    0.106640    0.960280
  H      4.842170    0.017610    2.115190
  H      5.993880   -3.126920    3.282780
  C      3.139160   -2.376570    1.910610
  H      3.267230   -0.939400    3.520690
  H      4.247200   -2.355090    3.790060
  H      7.498440   -2.975480    2.468780
  H      2.829690   -1.666540    1.172380
  H      2.277900   -2.852640    2.330720
  H      3.767540   -3.113380    1.455480

 Total Charge           Charge          ....    0
 Multiplicity           Mult            ....    1
 Number of Electrons    NEL             ....   48
 Basis Dimension        Dim             ....  312

ORBITAL ENERGIES
----------------

  NO   OCC          E(Eh)            E(eV)
   0   2.0000     -14.319891      -389.6640
   1   2.0000     -14.317363      -389.5952
   2   2.0000     -10.215989      -277.9912
   3   2.0000     -10.201769      -277.6042
   4   2.0000     -10.148490      -276.1544
   5   2.0000     -10.080251      -274.2976
   6   2.0000      -0.973214       -26.4825
   7   2.0000      -0.890009       -24.2184
   8   2.0000      -0.753728       -20.5100
   9   2.0000      -0.705734       -19.2040
  10   2.0000      -0.641567       -17.4579
  11   2.0000      -0.565135       -15.3781
  12   2.0000      -0.551032       -14.9943
  13   2.0000      -0.521118       -14.1804
  14   2.0000      -0.466539       -12.6952
  15   2.0000      -0.440070       -11.9749
  16   2.0000      -0.417560       -11.3624
  17   2.0000      -0.399208       -10.8630
  18   2.0000      -0.380613       -10.3570
  19   2.0000      -0.368078       -10.0159
  20   2.0000      -0.362306        -9.8588
  21   2.0000      -0.346858        -9.4385
  22   2.0000      -0.252559        -6.8725
  23   2.0000      -0.164800        -4.4844
  24   0.0000      -0.003412        -0.0928
  25   0.0000       0.019585         0.5329
  26   0.0000       0.030066         0.8181
  27   0.0000       0.033800         0.9197
  28   0.0000       0.058677         1.5967

MULLIKEN ATOMIC CHARGES
-----------------------
   0 C :   -0.302830
   1 N :   -0.205636
   2 C :    0.728043
   3 C :   -1.225074
   4 N :   -0.342859
   5 H :    0.158142
   6 H :    0.147491
   7 H :    0.157869
   8 H :    0.230553
   9 C :   -1.078893
  10 H :    0.263358
  11 H :    0.249311
  12 H :    0.299007
  13 H :    0.274447
  14 H :    0.327092
  15 H :    0.319978
Sum of atomic charges:    0.0000000

LOEWDIN ATOMIC CHARGES
----------------------
   0 C :   -0.233576
   1 N :    0.013028
   2 C :   -0.564813
   3 C :    0.008200
   4 N :    0.117043
   5 H :    0.109051
   6 H :    0.098493
   7 H :    0.137438
   8 H :   -0.007018
   9 C :   -0.078600
  10 H :    0.109425
  11 H :    0.105469
  12 H :    0.001300
  13 H :    0.061824
  14 H :    0.061667
  15 H :    0.061069

  Mayer bond orders larger than 0.100000
B(  0-C ,  1-N ) :   0.8342 B(  0-C ,  9-C ) :   0.6547 B(  0-C , 10-H ) :   0.9164
B(  0-C , 11-H ) :   0.9128 B(  1-N ,  2-C ) :   1.0565 B(  1-N ,  7-H ) :   1.0072
B(  2-C ,  3-C ) :   1.1905 B(  2-C ,  4-N ) :   0.9695 B(  2-C , 12-H ) :  -0.1027
B(  3-C ,  8-H ) :   1.0441 B(  3-C , 12-H ) :   1.0143 B(  4-N ,  5-H ) :   0.9937
B(  4-N ,  6-H ) :   1.0208 B(  9-C , 13-H ) :   0.9844 B(  9-C , 14-H ) :   0.9385
B(  9-C , 15-H ) :   0.9950

Dispersion correction           -0.021191851
FINAL SINGLE POINT ENERGY      -267.864363740296

DIPOLE MOMENT
-------------
                                X             Y             Z
Electronic contribution:      3.05625       2.79580      -0.19884
Nuclear contribution   :     -3.42552      -1.84584      -0.22295
                        -----------------------------------------
Total Dipole Moment    :     -0.36928       0.94996      -0.42180
                        -----------------------------------------
Magnitude (a.u.)       :      1.10304
Magnitude (Debye)      :      2.80371

Rotational constants in cm-1:     0.233526     0.075277     0.067092
Rotational constants in MHz :  7000.931279  2256.752901  2011.361214

                             ****ORCA TERMINATED NORMALLY****
TOTAL RUN TIME: 0 days 0 hours 0 minutes 44 seconds 963 msec
