                         Program Version 5.0.0 -  RELEASE  -
|  1> !B3LYP D3BJ RIJCOSX def2-TZVPD def2/J TightSCF
|  2> *xyz 0 1
|  3> C          3.91385       -1.65829        3.01513
|  4> N          5.03927       -0.90115        2.49282
|  5> C          6.21038       -1.41726        2.17824
|  6> N          6.53591       -2.67712        2.55608
|  7> C          7.07675       -0.70082        1.47891
|  8> H          7.95464       -1.12155        1.20755
|  9> H          6.75616        0.10664        0.96028
| 10> H          4.84217        0.01761        2.11519
| 11> H          5.99388       -3.12692        3.28278
| 12> C          3.13916       -2.37657        1.91061
| 13> H          3.26723       -0.93940        3.52069
| 14> H          4.24720       -2.35509        3.79006
| 15> H          7.49844       -2.97548        2.46878
| 16> H          2.82969       -1.66654        1.17238
| 17> H          2.27790       -2.85264        2.33072
| 18> H          3.76754       -3.11338        1.45548
| 19> *
| 20> %MaxCore 64000
| 21> %pal nprocs 8
| 22> end
| 23> %scf
| 24>   MaxIter 150
| 25> end
| 26>
| 27>
| 28>                          ****END OF INPUT****

CARTESIAN COORDINATES (ANGSTROEM)
---------------------------------
  C      3.913850   -1.658290    3.015130
  N      5.039270   -0.901150    2.492820
  C      6.210380   -1.417260    2.178240
  N      6.535910   -2.677120    2.556080
  C      7.076750   -0.700820    1.478910
  H      7.954640   -1.121550    1.207550
  H      6.756160    0.106640    0.960280
  H      4.842170    0.017610    2.115190
  H      5.993880   -3.126920    3.282780
  C      3.139160   -2.376570    1.910610
  H      3.267230   -0.939400    3.520690
  H      4.247200   -2.355090    3.790060
  H      7.498440   -2.975480    2.468780
  H      2.829690   -1.666540    1.172380
  H      2.277900   -2.852640    2.330720
  H      3.767540   -3.113380    1.455480

 Total Charge           Charge          ....    0
 Multiplicity           Mult            ....    1
 Number of Electrons    NEL             ....   48
 Basis Dimension        Dim             ....  312

ORBITAL ENERGIES
----------------

  NO   OCC          E(Eh)            E(eV)
   0   2.0000     -14.316072      -389.5601
   1   2.0000     -14.315177      -389.5358
   2   2.0000     -10.213068      -277.9117
   3   2.0000     -10.209769      -277.8219
   4   2.0000     -10.156029      -276.3596
   5   2.0000     -10.078339      -274.2455
   6   2.0000      -0.968199       -26.3460
   7   2.0000      -0.882869       -24.0241
   8   2.0000      -0.770749       -20.9732
   9   2.0000      -0.702073       -19.1044
  10   2.0000      -0.630046       -17.1444
  11   2.0000      -0.599606       -16.3161
  12   2.0000      -0.535544       -14.5729
  13   2.0000      -0.497544       -13.5389
  14   2.0000      -0.478479       -13.0201
  15   2.0000      -0.440498       -11.9866
  16   2.0000      -0.430994       -11.7279
  17   2.0000      -0.405653       -11.0384
  18   2.0000      -0.381632       -10.3847
  19   2.0000      -0.372358       -10.1324
  20   2.0000      -0.360356        -9.8058
  21   2.0000      -0.357405        -9.7255
  22   2.0000      -0.255958        -6.9650
  23   2.0000      -0.163547        -4.4503
  24   0.0000      -0.002830        -0.0770
  25   0.0000       0.021418         0.5828
  26   0.0000       0.026666         0.7256
  27   0.0000       0.030627         0.8334
  28   0.0000       0.059870         1.6291

MULLIKEN ATOMIC CHARGES
-----------------------
   0 C :   -0.366253
   1 N :   -0.155065
   2 C :    0.714101
   3 N :   -0.356088
   4 C :   -1.168650
   5 H :    0.249434
   6 H :    0.254670
   7 H :    0.150448
   8 H :    0.136075
   9 C :   -1.042657
  10 H :    0.259536
  11 H :    0.264690
  12 H :    0.152475
  13 H :    0.265801
  14 H :    0.329966
  15 H :    0.311515
Sum of atomic charges:    0.0000000

LOEWDIN ATOMIC CHARGES
----------------------
   0 C :   -0.237820
   1 N :    0.017207
   2 C :   -0.562276
   3 N :    0.123853
   4 C :   -0.002017
   5 H :    0.002642
   6 H :    0.005444
   7 H :    0.146191
   8 H :    0.082405
   9 C :   -0.079504
  10 H :    0.109903
  11 H :    0.100466
  12 H :    0.105764
  13 H :    0.065122
  14 H :    0.060329
  15 H :    0.062290

  Mayer bond orders larger than 0.100000
B(  0-C ,  1-N ) :   0.8658 B(  0-C ,  9-C ) :   0.6681 B(  0-C , 10-H ) :   0.9632
B(  0-C , 11-H ) :   0.9140 B(  1-N ,  2-C ) :   1.0944 B(  1-N ,  4-C ) :   0.1017
B(  1-N ,  7-H ) :   0.9752 B(  2-C ,  3-N ) :   0.9731 B(  2-C ,  4-C ) :   1.1654
B(  2-C ,  5-H ) :  -0.1193 B(  3-N ,  8-H ) :   1.0077 B(  3-N , 12-H ) :   0.9997
B(  4-C ,  5-H ) :   1.1157 B(  4-C ,  6-H ) :   0.9762 B(  9-C , 13-H ) :   1.0012
B(  9-C , 14-H ) :   0.9599 B(  9-C , 15-H ) :   0.9747

Dispersion correction           -0.021046516
FINAL SINGLE POINT ENERGY      -267.864139643973

DIPOLE MOMENT
-------------
                                X             Y             Z
Electronic contribution:      2.51533       0.92171       0.95908
Nuclear contribution   :     -3.31079      -1.42658      -0.45147
                        -----------------------------------------
Total Dipole Moment    :     -0.79545      -0.50487       0.50762
                        -----------------------------------------
Magnitude (a.u.)       :      1.07019
Magnitude (Debye)      :      2.72022

Rotational constants in cm-1:     0.225507     0.077571     0.068070
Rotational constants in MHz :  6760.542142  2325.533779  2040.680522

                             ****ORCA TERMINATED NORMALLY****
TOTAL RUN TIME: 0 days 0 hours 0 minutes 44 seconds 926 msec
