                         Program Version 5.0.0 -  RELEASE  -
|  1> !B3LYP D3BJ RIJCOSX def2-TZVPD def2/J TightSCF xyzfile
|  2>
|  3> *xyzfile 0 1 D1.xyz
|  4>
|  5> %MaxCore 64000
|  6>
|  7> %pal nprocs 4
|  8> end
|  9>
| 10> %scf
| 11>   MaxIter 150
| 12> end
| 13>
| 14>
| 15>                          ****END OF INPUT****

CARTESIAN COORDINATES (ANGSTROEM)
---------------------------------
  C      3.913853   -1.658291    3.015134
  C      5.039266   -0.901154    2.492821
  C      4.084215    1.742081   -2.114724
  C      4.265245    2.500518   -0.795890
  H      4.868534    3.392674   -0.981134
  H      3.307640    2.824571   -0.387809
  C      4.982240    1.650257    0.247422
  C      6.210384   -1.417261    2.178244
  N      6.535913   -2.677122    2.556078
  N      7.076754   -0.700820    1.478906
  H      7.954643   -1.121554    1.207554
  H      6.756161    0.106637    0.960278
  H      4.842168    0.017609    2.115191
  H      5.993876   -3.126918    3.282784
  H      7.498441   -2.975482    2.468776
  F      4.368065    1.389270    1.313706
  O      6.128919    1.233512   -0.045620
  C      3.139159   -2.376572    1.910609
  H      3.267235   -0.939401    3.520693
  H      4.247195   -2.355095    3.790065
  C      1.997274    0.430918   -1.399218
  C      3.412746    0.376886   -1.965497
  H      4.047407   -0.246590   -1.326706
  H      3.390774   -0.118719   -2.942839
  H      5.068475    1.598504   -2.565728
  H      3.503356    2.363939   -2.804565
  C      2.399946   -1.389579    1.009490
  H      2.440750   -3.087118    2.362976
  H      3.844475   -2.970462    1.318677
  C      2.070177   -1.936705   -0.372401
  H      1.481611   -1.061542    1.509912
  H      3.008628   -0.490001    0.897451
  C      1.322238   -0.935775   -1.256413
  H      1.472747   -2.850902   -0.283997
  H      3.003539   -2.234041   -0.862535
  H      1.376444    1.058920   -2.047420
  H      2.015341    0.929780   -0.426535
  H      0.316648   -0.787213   -0.848278
  H      1.185611   -1.379252   -2.248613

 Total Charge           Charge          ....    0
 Multiplicity           Mult            ....    1
 Number of Electrons    NEL             ....  126
 Basis Dimension        Dim             ....  805

ORBITAL ENERGIES
----------------

  NO   OCC          E(Eh)            E(eV)
   0   2.0000     -24.765197      -673.8953
   1   2.0000     -19.153236      -521.1860
   2   2.0000     -14.299754      -389.1161
   3   2.0000     -14.274755      -388.4358
   4   2.0000     -10.368374      -282.1378
   5   2.0000     -10.206843      -277.7423
   6   2.0000     -10.190668      -277.3022
   7   2.0000     -10.186823      -277.1975
   8   2.0000     -10.170808      -276.7618
   9   2.0000     -10.165563      -276.6190
  10   2.0000     -10.159402      -276.4514
  11   2.0000     -10.151705      -276.2419
  12   2.0000     -10.145169      -276.0641
  13   2.0000     -10.136928      -275.8398
  14   2.0000     -10.131986      -275.7053
  15   2.0000     -10.066072      -273.9117
  16   2.0000      -1.337585       -36.3975
  17   2.0000      -1.062670       -28.9167
  18   2.0000      -0.936854       -25.4931
  19   2.0000      -0.847231       -23.0543
  20   2.0000      -0.831224       -22.6188
  21   2.0000      -0.802227       -21.8297
  22   2.0000      -0.774109       -21.0646
  23   2.0000      -0.745790       -20.2940
  24   2.0000      -0.708759       -19.2863
  25   2.0000      -0.688413       -18.7327
  26   2.0000      -0.662032       -18.0148
  27   2.0000      -0.635699       -17.2983
  28   2.0000      -0.604212       -16.4415
  29   2.0000      -0.587414       -15.9844
  30   2.0000      -0.568035       -15.4570
  31   2.0000      -0.559536       -15.2257
  32   2.0000      -0.557371       -15.1668
  33   2.0000      -0.551352       -15.0031
  34   2.0000      -0.526475       -14.3261
  35   2.0000      -0.514951       -14.0125
  36   2.0000      -0.488511       -13.2930
  37   2.0000      -0.480056       -13.0630
  38   2.0000      -0.476568       -12.9681
  39   2.0000      -0.459525       -12.5043
  40   2.0000      -0.447311       -12.1720
  41   2.0000      -0.437568       -11.9068
  42   2.0000      -0.427471       -11.6321
  43   2.0000      -0.417869       -11.3708
  44   2.0000      -0.414733       -11.2855
  45   2.0000      -0.408352       -11.1118
  46   2.0000      -0.392276       -10.6744
  47   2.0000      -0.387820       -10.5531
  48   2.0000      -0.371097       -10.0981
  49   2.0000      -0.366561        -9.9746
  50   2.0000      -0.361942        -9.8490
  51   2.0000      -0.360541        -9.8108
  52   2.0000      -0.349679        -9.5153
  53   2.0000      -0.338954        -9.2234
  54   2.0000      -0.336559        -9.1582
  55   2.0000      -0.323183        -8.7943
  56   2.0000      -0.313141        -8.5210
  57   2.0000      -0.308417        -8.3924
  58   2.0000      -0.305252        -8.3063
  59   2.0000      -0.300075        -8.1654
  60   2.0000      -0.293837        -7.9957
  61   2.0000      -0.243513        -6.6263
  62   2.0000      -0.143809        -3.9133
  63   0.0000      -0.053252        -1.4491
  64   0.0000       0.000201         0.0055
  65   0.0000       0.009643         0.2624
  66   0.0000       0.014670         0.3992
  67   0.0000       0.017273         0.4700

MULLIKEN ATOMIC CHARGES
-----------------------
   0 C :   -0.576704
   1 C :   -0.767939
   2 C :   -0.554743
   3 C :   -0.410453
   4 H :    0.260344
   5 H :    0.281613
   6 C :    0.734010
   7 C :   -0.239990
   8 N :   -0.327025
   9 N :   -0.303555
  10 H :    0.119849
  11 H :    0.239765
  12 H :    0.819948
  13 H :    0.163776
  14 H :    0.115930
  15 F :   -0.252136
  16 O :   -0.681433
  17 C :   -0.484178
  18 H :    0.212172
  19 H :    0.374094
  20 C :   -0.348883
  21 C :   -0.436411
  22 H :    0.243261
  23 H :    0.254811
  24 H :    0.226074
  25 H :    0.252514
  26 C :    0.309072
  27 H :    0.239606
  28 H :    0.265162
  29 C :   -0.416078
  30 H :    0.227450
  31 H :   -0.335654
  32 C :   -0.665345
  33 H :    0.215998
  34 H :    0.277688
  35 H :    0.228583
  36 H :    0.257145
  37 H :    0.238286
  38 H :    0.243376
Sum of atomic charges:    0.0000000

LOEWDIN ATOMIC CHARGES
----------------------
   0 C :   -0.223773
   1 C :   -0.133046
   2 C :   -0.186195
   3 C :   -0.090813
   4 H :    0.126908
   5 H :    0.112015
   6 C :   -0.429867
   7 C :   -0.520628
   8 N :    0.128469
   9 N :    0.125617
  10 H :    0.096658
  11 H :    0.029193
  12 H :    0.031642
  13 H :    0.089361
  14 H :    0.090861
  15 F :    0.189007
  16 O :    0.091565
  17 C :   -0.198014
  18 H :    0.107985
  19 H :    0.093334
  20 C :   -0.213329
  21 C :   -0.202163
  22 H :    0.106926
  23 H :    0.120902
  24 H :    0.112993
  25 H :    0.115519
  26 C :   -0.213655
  27 H :    0.104809
  28 H :    0.110286
  29 C :   -0.213204
  30 H :    0.122660
  31 H :    0.079945
  32 C :   -0.206941
  33 H :    0.112246
  34 H :    0.107345
  35 H :    0.114287
  36 H :    0.096997
  37 H :    0.107600
  38 H :    0.106501

  Mayer bond orders larger than 0.100000
B(  0-C ,  1-C ) :   0.4721 B(  0-C , 12-H ) :  -0.1471 B(  0-C , 17-C ) :   0.7126
B(  0-C , 18-H ) :   1.0744 B(  0-C , 19-H ) :   0.9788 B(  0-C , 26-C ) :   0.2038
B(  1-C ,  7-C ) :   1.4694 B(  1-C ,  8-N ) :  -0.1428 B(  1-C ,  9-N ) :  -0.1000
B(  1-C , 13-H ) :  -0.1021 B(  1-C , 18-H ) :  -0.1004 B(  1-C , 19-H ) :  -0.2258
B(  1-C , 26-C ) :   0.1742 B(  2-C ,  3-C ) :   0.8198 B(  2-C ,  6-C ) :   0.1334
B(  2-C , 20-C ) :   0.1503 B(  2-C , 21-C ) :   0.9616 B(  2-C , 24-H ) :   0.9547
B(  2-C , 25-H ) :   0.9412 B(  3-C ,  4-H ) :   0.8825 B(  3-C ,  5-H ) :   0.9914
B(  3-C ,  6-C ) :   0.9417 B(  3-C , 20-C ) :   0.1406 B(  6-C , 15-F ) :   0.9610
B(  6-C , 16-O ) :   1.4589 B(  7-C ,  8-N ) :   1.0995 B(  7-C ,  9-N ) :   1.1651
B(  7-C , 13-H ) :   0.1170 B(  8-N , 13-H ) :   0.9636 B(  8-N , 14-H ) :   1.0502
B(  9-N , 10-H ) :   1.0173 B(  9-N , 11-H ) :   0.8531 B( 12-H , 15-F ) :  -0.3146
B( 17-C , 26-C ) :   0.5738 B( 17-C , 27-H ) :   1.0059 B( 17-C , 28-H ) :   0.8890
B( 17-C , 29-C ) :   0.4305 B( 17-C , 30-H ) :  -0.1297 B( 20-C , 21-C ) :   0.2510
B( 20-C , 22-H ) :  -0.1381 B( 20-C , 26-C ) :   0.1031 B( 20-C , 32-C ) :   0.9330
B( 20-C , 35-H ) :   0.9408 B( 20-C , 36-H ) :   1.0237 B( 21-C , 22-H ) :   1.0543
B( 21-C , 23-H ) :   0.9020 B( 21-C , 29-C ) :   0.1140 B( 21-C , 32-C ) :   0.1497
B( 21-C , 36-H ) :  -0.1426 B( 26-C , 29-C ) :   0.4773 B( 26-C , 30-H ) :   0.8152
B( 26-C , 31-H ) :   1.5653 B( 26-C , 32-C ) :   0.1391 B( 29-C , 31-H ) :  -0.2393
B( 29-C , 32-C ) :   0.8811 B( 29-C , 33-H ) :   0.9686 B( 29-C , 34-H ) :   0.9418
B( 30-H , 31-H ) :   0.1173 B( 32-C , 37-H ) :   0.9656 B( 32-C , 38-H ) :   0.9658

Dispersion correction           -0.072398918
FINAL SINGLE POINT ENERGY      -755.561349847896

DIPOLE MOMENT
-------------
                                X             Y             Z
Electronic contribution:     11.29154       8.98921       5.89343
Nuclear contribution   :    -11.48003      -8.36271      -6.78621
                        -----------------------------------------
Total Dipole Moment    :     -0.18849       0.62649      -0.89279
                        -----------------------------------------
Magnitude (a.u.)       :      1.10684
Magnitude (Debye)      :      2.81337

Rotational constants in cm-1:     0.020055     0.013548     0.009477
Rotational constants in MHz :   601.234832   406.162779   284.104317

                             ****ORCA TERMINATED NORMALLY****
TOTAL RUN TIME: 0 days 0 hours 11 minutes 13 seconds 492 msec
