                         Program Version 5.0.0 -  RELEASE  -
|  1> !B3LYP D3BJ RIJCOSX def2-TZVPD def2/J TightSCF xyzfile
|  2>
|  3> *xyzfile 0 1 D2.xyz
|  4>
|  5> %MaxCore 64000
|  6>
|  7> %pal nprocs 4
|  8> end
|  9>
| 10> %scf
| 11>   MaxIter 150
| 12> end
| 13>
| 14>
| 15>                          ****END OF INPUT****

CARTESIAN COORDINATES (ANGSTROEM)
---------------------------------
  C      3.913853   -1.658291    3.015134
  N      5.039266   -0.901154    2.492821
  C      4.084215    1.742081   -2.114724
  C      4.265245    2.500518   -0.795890
  H      4.868534    3.392674   -0.981134
  H      3.307640    2.824571   -0.387809
  C      4.982240    1.650257    0.247422
  C      6.210384   -1.417261    2.178244
  C      6.535913   -2.677122    2.556078
  N      7.076754   -0.700820    1.478906
  H      7.954643   -1.121554    1.207554
  H      6.756161    0.106637    0.960278
  H      4.842168    0.017609    2.115191
  H      5.993876   -3.126918    3.282784
  H      7.498441   -2.975482    2.468776
  F      4.368065    1.389270    1.313706
  O      6.128919    1.233512   -0.045620
  C      3.139159   -2.376572    1.910609
  H      3.267235   -0.939401    3.520693
  H      4.247195   -2.355095    3.790065
  C      1.997274    0.430918   -1.399218
  C      3.412746    0.376886   -1.965497
  H      4.047407   -0.246590   -1.326706
  H      3.390774   -0.118719   -2.942839
  H      5.068475    1.598504   -2.565728
  H      3.503356    2.363939   -2.804565
  C      2.399946   -1.389579    1.009490
  H      2.440750   -3.087118    2.362976
  H      3.844475   -2.970462    1.318677
  C      2.070177   -1.936705   -0.372401
  H      1.481611   -1.061542    1.509912
  H      3.008628   -0.490001    0.897451
  C      1.322238   -0.935775   -1.256413
  H      1.472747   -2.850902   -0.283997
  H      3.003539   -2.234041   -0.862535
  H      1.376444    1.058920   -2.047420
  H      2.015341    0.929780   -0.426535
  H      0.316648   -0.787213   -0.848278
  H      1.185611   -1.379252   -2.248613

 Total Charge           Charge          ....    0
 Multiplicity           Mult            ....    1
 Number of Electrons    NEL             ....  126
 Basis Dimension        Dim             ....  805

ORBITAL ENERGIES
----------------

  NO   OCC          E(Eh)            E(eV)
   0   2.0000     -24.791852      -674.6206
   1   2.0000     -19.167263      -521.5677
   2   2.0000     -14.296342      -389.0232
   3   2.0000     -14.275641      -388.4599
   4   2.0000     -10.382058      -282.5102
   5   2.0000     -10.217936      -278.0442
   6   2.0000     -10.195707      -277.4393
   7   2.0000     -10.193472      -277.3785
   8   2.0000     -10.188796      -277.2512
   9   2.0000     -10.179864      -277.0082
  10   2.0000     -10.174899      -276.8731
  11   2.0000     -10.168520      -276.6995
  12   2.0000     -10.162485      -276.5353
  13   2.0000     -10.160898      -276.4921
  14   2.0000     -10.152638      -276.2673
  15   2.0000     -10.060611      -273.7631
  16   2.0000      -1.362632       -37.0791
  17   2.0000      -1.076516       -29.2935
  18   2.0000      -0.950516       -25.8649
  19   2.0000      -0.865193       -23.5431
  20   2.0000      -0.841550       -22.8998
  21   2.0000      -0.810863       -22.0647
  22   2.0000      -0.776971       -21.1425
  23   2.0000      -0.743922       -20.2431
  24   2.0000      -0.715827       -19.4787
  25   2.0000      -0.693196       -18.8628
  26   2.0000      -0.679742       -18.4967
  27   2.0000      -0.655097       -17.8261
  28   2.0000      -0.620107       -16.8740
  29   2.0000      -0.599158       -16.3039
  30   2.0000      -0.589097       -16.0301
  31   2.0000      -0.579470       -15.7682
  32   2.0000      -0.567656       -15.4467
  33   2.0000      -0.551414       -15.0047
  34   2.0000      -0.535155       -14.5623
  35   2.0000      -0.513129       -13.9630
  36   2.0000      -0.497538       -13.5387
  37   2.0000      -0.487479       -13.2650
  38   2.0000      -0.487156       -13.2562
  39   2.0000      -0.468941       -12.7605
  40   2.0000      -0.454000       -12.3540
  41   2.0000      -0.447358       -12.1732
  42   2.0000      -0.435028       -11.8377
  43   2.0000      -0.428128       -11.6499
  44   2.0000      -0.419909       -11.4263
  45   2.0000      -0.409556       -11.1446
  46   2.0000      -0.403461       -10.9787
  47   2.0000      -0.393476       -10.7070
  48   2.0000      -0.381745       -10.3878
  49   2.0000      -0.377868       -10.2823
  50   2.0000      -0.370628       -10.0853
  51   2.0000      -0.364128        -9.9084
  52   2.0000      -0.360288        -9.8039
  53   2.0000      -0.352071        -9.5803
  54   2.0000      -0.344360        -9.3705
  55   2.0000      -0.339484        -9.2378
  56   2.0000      -0.331009        -9.0072
  57   2.0000      -0.320231        -8.7139
  58   2.0000      -0.319351        -8.6900
  59   2.0000      -0.316280        -8.6064
  60   2.0000      -0.312052        -8.4914
  61   2.0000      -0.228110        -6.2072
  62   2.0000      -0.144909        -3.9432
  63   0.0000      -0.067462        -1.8357
  64   0.0000      -0.008534        -0.2322
  65   0.0000       0.007296         0.1985
  66   0.0000       0.009478         0.2579
  67   0.0000       0.015323         0.4170

MULLIKEN ATOMIC CHARGES
-----------------------
   0 C :   -0.910038
   1 N :   -0.330467
   2 C :   -0.563309
   3 C :   -0.421176
   4 H :    0.265780
   5 H :    0.285548
   6 C :    0.716005
   7 C :    0.710462
   8 C :   -1.321675
   9 N :   -0.353430
  10 H :    0.134085
  11 H :    0.281842
  12 H :    0.481889
  13 H :    0.247815
  14 H :    0.321526
  15 F :   -0.371297
  16 O :   -0.677945
  17 C :   -0.452282
  18 H :    0.290527
  19 H :    0.291159
  20 C :   -0.335100
  21 C :   -0.422300
  22 H :    0.226717
  23 H :    0.260575
  24 H :    0.231348
  25 H :    0.253764
  26 C :    0.255188
  27 H :    0.283622
  28 H :    0.310193
  29 C :   -0.414673
  30 H :    0.265978
  31 H :   -0.340769
  32 C :   -0.666211
  33 H :    0.233917
  34 H :    0.260208
  35 H :    0.233587
  36 H :    0.247570
  37 H :    0.250720
  38 H :    0.240647
Sum of atomic charges:    0.0000000

LOEWDIN ATOMIC CHARGES
----------------------
   0 C :   -0.181777
   1 N :    0.035223
   2 C :   -0.184231
   3 C :   -0.090445
   4 H :    0.128333
   5 H :    0.112292
   6 C :   -0.432775
   7 C :   -0.549993
   8 C :    0.003832
   9 N :    0.132712
  10 H :    0.110470
  11 H :    0.023065
  12 H :    0.086965
  13 H :   -0.012505
  14 H :   -0.002071
  15 F :    0.192647
  16 O :    0.095283
  17 C :   -0.178185
  18 H :    0.116954
  19 H :    0.107486
  20 C :   -0.213328
  21 C :   -0.201398
  22 H :    0.106588
  23 H :    0.122347
  24 H :    0.114348
  25 H :    0.116845
  26 C :   -0.216063
  27 H :    0.112167
  28 H :    0.110771
  29 C :   -0.210877
  30 H :    0.122202
  31 H :    0.076615
  32 C :   -0.205270
  33 H :    0.114372
  34 H :    0.109673
  35 H :    0.115347
  36 H :    0.095918
  37 H :    0.108352
  38 H :    0.108112

  Mayer bond orders larger than 0.100000
B(  0-C ,  1-N ) :   1.0308 B(  0-C , 17-C ) :   0.7541 B(  0-C , 18-H ) :   0.8336
B(  0-C , 19-H ) :   0.8810 B(  0-C , 26-C ) :   0.1811 B(  1-N ,  7-C ) :   1.0346
B(  1-N ,  8-C ) :   0.1178 B(  1-N , 12-H ) :   0.6105 B(  2-C ,  3-C ) :   0.8196
B(  2-C ,  6-C ) :   0.1403 B(  2-C , 20-C ) :   0.1528 B(  2-C , 21-C ) :   0.9713
B(  2-C , 24-H ) :   0.9481 B(  2-C , 25-H ) :   0.9400 B(  3-C ,  4-H ) :   0.8899
B(  3-C ,  5-H ) :   0.9843 B(  3-C ,  6-C ) :   0.9387 B(  3-C , 20-C ) :   0.1386
B(  6-C , 15-F ) :   0.8836 B(  6-C , 16-O ) :   1.4824 B(  7-C ,  8-C ) :   1.0265
B(  7-C ,  9-N ) :   0.9651 B(  8-C , 13-H ) :   1.0878 B(  8-C , 14-H ) :   1.0148
B(  9-N , 10-H ) :   1.0006 B(  9-N , 11-H ) :   0.8313 B( 17-C , 26-C ) :   0.5602
B( 17-C , 27-H ) :   0.9844 B( 17-C , 28-H ) :   0.8616 B( 17-C , 29-C ) :   0.4242
B( 17-C , 30-H ) :  -0.1257 B( 17-C , 31-H ) :  -0.1238 B( 20-C , 21-C ) :   0.2365
B( 20-C , 22-H ) :  -0.1474 B( 20-C , 32-C ) :   0.9519 B( 20-C , 35-H ) :   0.9425
B( 20-C , 36-H ) :   1.0229 B( 21-C , 22-H ) :   1.0745 B( 21-C , 23-H ) :   0.8990
B( 21-C , 29-C ) :   0.1067 B( 21-C , 32-C ) :   0.1600 B( 21-C , 36-H ) :  -0.1475
B( 26-C , 29-C ) :   0.4901 B( 26-C , 30-H ) :   0.8085 B( 26-C , 31-H ) :   1.6642
B( 26-C , 32-C ) :   0.1480 B( 26-C , 34-H ) :  -0.1082 B( 29-C , 31-H ) :  -0.2375
B( 29-C , 32-C ) :   0.9077 B( 29-C , 33-H ) :   0.9425 B( 29-C , 34-H ) :   0.9645
B( 32-C , 37-H ) :   0.9533 B( 32-C , 38-H ) :   0.9656

Dispersion correction           -0.071972220
FINAL SINGLE POINT ENERGY      -755.558366385052

DIPOLE MOMENT
-------------
                                X             Y             Z
Electronic contribution:      9.75865      10.52262       5.53698
Nuclear contribution   :    -11.22009      -8.67117      -6.77523
                        -----------------------------------------
Total Dipole Moment    :     -1.46144       1.85145      -1.23824
                        -----------------------------------------
Magnitude (a.u.)       :      2.66401
Magnitude (Debye)      :      6.77137

Rotational constants in cm-1:     0.020086     0.013778     0.009581
Rotational constants in MHz :   602.172053   413.051122   287.243919

                             ****ORCA TERMINATED NORMALLY****
TOTAL RUN TIME: 0 days 0 hours 11 minutes 4 seconds 779 msec
