                         Program Version 5.0.0 -  RELEASE  -
|  1> !B3LYP D3BJ RIJCOSX def2-TZVPD def2/J TightSCF xyzfile
|  2>
|  3> *xyzfile 0 1 D3.xyz
|  4>
|  5> %MaxCore 64000
|  6>
|  7> %pal nprocs 4
|  8> end
|  9>
| 10> %scf
| 11>   MaxIter 150
| 12> end
| 13>
| 14>
| 15>                          ****END OF INPUT****

CARTESIAN COORDINATES (ANGSTROEM)
---------------------------------
  C      3.913853   -1.658291    3.015134
  N      5.039266   -0.901154    2.492821
  C      4.084215    1.742081   -2.114724
  C      4.265245    2.500518   -0.795890
  H      4.868534    3.392674   -0.981134
  H      3.307640    2.824571   -0.387809
  C      4.982240    1.650257    0.247422
  C      6.210384   -1.417261    2.178244
  N      6.535913   -2.677122    2.556078
  C      7.076754   -0.700820    1.478906
  H      7.954643   -1.121554    1.207554
  H      6.756161    0.106637    0.960278
  H      4.842168    0.017609    2.115191
  H      5.993876   -3.126918    3.282784
  H      7.498441   -2.975482    2.468776
  F      4.368065    1.389270    1.313706
  O      6.128919    1.233512   -0.045620
  C      3.139159   -2.376572    1.910609
  H      3.267235   -0.939401    3.520693
  H      4.247195   -2.355095    3.790065
  C      1.997274    0.430918   -1.399218
  C      3.412746    0.376886   -1.965497
  H      4.047407   -0.246590   -1.326706
  H      3.390774   -0.118719   -2.942839
  H      5.068475    1.598504   -2.565728
  H      3.503356    2.363939   -2.804565
  C      2.399946   -1.389579    1.009490
  H      2.440750   -3.087118    2.362976
  H      3.844475   -2.970462    1.318677
  C      2.070177   -1.936705   -0.372401
  H      1.481611   -1.061542    1.509912
  H      3.008628   -0.490001    0.897451
  C      1.322238   -0.935775   -1.256413
  H      1.472747   -2.850902   -0.283997
  H      3.003539   -2.234041   -0.862535
  H      1.376444    1.058920   -2.047420
  H      2.015341    0.929780   -0.426535
  H      0.316648   -0.787213   -0.848278
  H      1.185611   -1.379252   -2.248613

 Total Charge           Charge          ....    0
 Multiplicity           Mult            ....    1
 Number of Electrons    NEL             ....  126
 Basis Dimension        Dim             ....  805

ORBITAL ENERGIES
----------------

  NO   OCC          E(Eh)            E(eV)
   0   2.0000     -24.774103      -674.1376
   1   2.0000     -19.138694      -520.7903
   2   2.0000     -14.296908      -389.0387
   3   2.0000     -14.292766      -388.9259
   4   2.0000     -10.358729      -281.8754
   5   2.0000     -10.203872      -277.6615
   6   2.0000     -10.196335      -277.4564
   7   2.0000     -10.189957      -277.2828
   8   2.0000     -10.184905      -277.1454
   9   2.0000     -10.171853      -276.7902
  10   2.0000     -10.169688      -276.7313
  11   2.0000     -10.166201      -276.6364
  12   2.0000     -10.162632      -276.5393
  13   2.0000     -10.162351      -276.5316
  14   2.0000     -10.159013      -276.4408
  15   2.0000     -10.043138      -273.2877
  16   2.0000      -1.345145       -36.6032
  17   2.0000      -1.049418       -28.5561
  18   2.0000      -0.949864       -25.8471
  19   2.0000      -0.866520       -23.5792
  20   2.0000      -0.832107       -22.6428
  21   2.0000      -0.806904       -21.9570
  22   2.0000      -0.777794       -21.1649
  23   2.0000      -0.740975       -20.1629
  24   2.0000      -0.715415       -19.4674
  25   2.0000      -0.691337       -18.8122
  26   2.0000      -0.667111       -18.1530
  27   2.0000      -0.644178       -17.5290
  28   2.0000      -0.609679       -16.5902
  29   2.0000      -0.599875       -16.3234
  30   2.0000      -0.582016       -15.8375
  31   2.0000      -0.570802       -15.5323
  32   2.0000      -0.562243       -15.2994
  33   2.0000      -0.547371       -14.8947
  34   2.0000      -0.530306       -14.4304
  35   2.0000      -0.508876       -13.8472
  36   2.0000      -0.488963       -13.3054
  37   2.0000      -0.482024       -13.1165
  38   2.0000      -0.473210       -12.8767
  39   2.0000      -0.461600       -12.5608
  40   2.0000      -0.458348       -12.4723
  41   2.0000      -0.442463       -12.0400
  42   2.0000      -0.431944       -11.7538
  43   2.0000      -0.428276       -11.6540
  44   2.0000      -0.417648       -11.3648
  45   2.0000      -0.402294       -10.9470
  46   2.0000      -0.396458       -10.7882
  47   2.0000      -0.389871       -10.6089
  48   2.0000      -0.377177       -10.2635
  49   2.0000      -0.370422       -10.0797
  50   2.0000      -0.365744        -9.9524
  51   2.0000      -0.365106        -9.9350
  52   2.0000      -0.355683        -9.6786
  53   2.0000      -0.349387        -9.5073
  54   2.0000      -0.343276        -9.3410
  55   2.0000      -0.337967        -9.1966
  56   2.0000      -0.330882        -9.0037
  57   2.0000      -0.319610        -8.6970
  58   2.0000      -0.317563        -8.6413
  59   2.0000      -0.313830        -8.5398
  60   2.0000      -0.271627        -7.3914
  61   2.0000      -0.239116        -6.5067
  62   2.0000      -0.140859        -3.8330
  63   0.0000      -0.046933        -1.2771
  64   0.0000      -0.001042        -0.0283
  65   0.0000       0.008914         0.2426
  66   0.0000       0.011137         0.3030
  67   0.0000       0.015093         0.4107

MULLIKEN ATOMIC CHARGES
-----------------------
   0 C :   -0.968507
   1 N :   -0.216102
   2 C :   -0.554813
   3 C :   -0.438838
   4 H :    0.260914
   5 H :    0.280164
   6 C :    0.688828
   7 C :    0.823671
   8 N :   -0.361603
   9 C :   -1.704378
  10 H :    0.173159
  11 H :    0.692594
  12 H :    0.403619
  13 H :    0.123942
  14 H :    0.170046
  15 F :   -0.372183
  16 O :   -0.578854
  17 C :   -0.360943
  18 H :    0.279099
  19 H :    0.303428
  20 C :   -0.337846
  21 C :   -0.459982
  22 H :    0.269886
  23 H :    0.252838
  24 H :    0.225605
  25 H :    0.251049
  26 C :    0.295392
  27 H :    0.300127
  28 H :    0.278095
  29 C :   -0.440033
  30 H :    0.284497
  31 H :   -0.389439
  32 C :   -0.655597
  33 H :    0.225275
  34 H :    0.284849
  35 H :    0.232392
  36 H :    0.247047
  37 H :    0.248742
  38 H :    0.243859
Sum of atomic charges:    0.0000000

LOEWDIN ATOMIC CHARGES
----------------------
   0 C :   -0.186445
   1 N :    0.035326
   2 C :   -0.185447
   3 C :   -0.094262
   4 H :    0.126493
   5 H :    0.109424
   6 C :   -0.438185
   7 C :   -0.541131
   8 N :    0.119484
   9 C :    0.016520
  10 H :    0.010658
  11 H :   -0.047791
  12 H :    0.092477
  13 H :    0.078233
  14 H :    0.102837
  15 F :    0.188177
  16 O :    0.090328
  17 C :   -0.183086
  18 H :    0.117419
  19 H :    0.102651
  20 C :   -0.213491
  21 C :   -0.201492
  22 H :    0.107413
  23 H :    0.121259
  24 H :    0.114351
  25 H :    0.115107
  26 C :   -0.214009
  27 H :    0.109696
  28 H :    0.112396
  29 C :   -0.211580
  30 H :    0.123108
  31 H :    0.079243
  32 C :   -0.205580
  33 H :    0.113305
  34 H :    0.109667
  35 H :    0.115039
  36 H :    0.096081
  37 H :    0.107835
  38 H :    0.107970

  Mayer bond orders larger than 0.100000
B(  0-C ,  1-N ) :   1.0236 B(  0-C ,  7-C ) :  -0.1518 B(  0-C , 17-C ) :   0.6682
B(  0-C , 18-H ) :   0.8970 B(  0-C , 19-H ) :   0.8984 B(  0-C , 26-C ) :   0.1416
B(  0-C , 27-H ) :  -0.1107 B(  0-C , 31-H ) :   0.1123 B(  1-N ,  7-C ) :   1.1490
B(  1-N , 12-H ) :   0.6793 B(  2-C ,  3-C ) :   0.8257 B(  2-C ,  6-C ) :   0.1328
B(  2-C , 20-C ) :   0.1559 B(  2-C , 21-C ) :   0.9879 B(  2-C , 24-H ) :   0.9473
B(  2-C , 25-H ) :   0.9407 B(  3-C ,  4-H ) :   0.8933 B(  3-C ,  5-H ) :   0.9838
B(  3-C ,  6-C ) :   0.9387 B(  3-C , 20-C ) :   0.1363 B(  6-C , 15-F ) :   0.8618
B(  6-C , 16-O ) :   1.5615 B(  7-C ,  8-N ) :   0.9573 B(  7-C ,  9-C ) :   0.9280
B(  7-C , 10-H ) :  -0.2467 B(  8-N , 13-H ) :   1.0380 B(  8-N , 14-H ) :   0.9820
B(  9-C , 10-H ) :   1.3615 B(  9-C , 11-H ) :   0.6731 B(  9-C , 16-O ) :   0.1777
B( 11-H , 16-O ) :  -0.3157 B( 12-H , 15-F ) :  -0.1142 B( 17-C , 26-C ) :   0.5684
B( 17-C , 27-H ) :   1.0013 B( 17-C , 28-H ) :   0.8571 B( 17-C , 29-C ) :   0.4272
B( 17-C , 30-H ) :  -0.1266 B( 17-C , 31-H ) :  -0.1198 B( 20-C , 21-C ) :   0.2208
B( 20-C , 22-H ) :  -0.1444 B( 20-C , 32-C ) :   0.9354 B( 20-C , 35-H ) :   0.9440
B( 20-C , 36-H ) :   1.0253 B( 21-C , 22-H ) :   1.0352 B( 21-C , 23-H ) :   0.9082
B( 21-C , 29-C ) :   0.1158 B( 21-C , 32-C ) :   0.1446 B( 21-C , 36-H ) :  -0.1463
B( 26-C , 29-C ) :   0.4814 B( 26-C , 30-H ) :   0.8263 B( 26-C , 31-H ) :   1.6406
B( 26-C , 32-C ) :   0.1447 B( 26-C , 34-H ) :  -0.1009 B( 29-C , 31-H ) :  -0.2477
B( 29-C , 32-C ) :   0.8974 B( 29-C , 33-H ) :   0.9578 B( 29-C , 34-H ) :   0.9520
B( 32-C , 37-H ) :   0.9564 B( 32-C , 38-H ) :   0.9639

Dispersion correction           -0.072045341
FINAL SINGLE POINT ENERGY      -755.538201465992

DIPOLE MOMENT
-------------
                                X             Y             Z
Electronic contribution:      9.46623       8.67134       6.69554
Nuclear contribution   :    -11.12616      -8.32792      -6.96231
                        -----------------------------------------
Total Dipole Moment    :     -1.65992       0.34342      -0.26677
                        -----------------------------------------
Magnitude (a.u.)       :      1.71594
Magnitude (Debye)      :      4.36157

Rotational constants in cm-1:     0.020226     0.013574     0.009520
Rotational constants in MHz :   606.360011   406.923773   285.390769

                             ****ORCA TERMINATED NORMALLY****
TOTAL RUN TIME: 0 days 0 hours 11 minutes 9 seconds 885 msec
