                         Program Version 5.0.0 -  RELEASE  -
|  1> !B3LYP D3BJ RIJCOSX def2-TZVPD def2/J TightSCF xyzfile
|  2>
|  3> *xyzfile 0 1 D4.xyz
|  4>
|  5> %MaxCore 64000
|  6>
|  7> %pal nprocs 4
|  8> end
|  9>
| 10> %scf
| 11>   MaxIter 150
| 12> end
| 13>
| 14>
| 15>                          ****END OF INPUT****

CARTESIAN COORDINATES (ANGSTROEM)
---------------------------------
  C      3.913853   -1.658291    3.015134
  C      5.039266   -0.901154    2.492821
  C      4.084215    1.742081   -2.114724
  C      4.265245    2.500518   -0.795890
  H      4.868534    3.392674   -0.981134
  H      3.307640    2.824571   -0.387809
  C      4.982240    1.650257    0.247422
  C      6.210384   -1.417261    2.178244
  N      6.535913   -2.677122    2.556078
  N      7.076754   -0.700820    1.478906
  H      7.954643   -1.121554    1.207554
  H      6.756161    0.106637    0.960278
  H      4.842168    0.017609    2.115191
  H      5.993876   -3.126918    3.282784
  H      7.498441   -2.975482    2.468776
  O      4.368065    1.389270    1.313706
  F      6.128919    1.233512   -0.045620
  C      3.139159   -2.376572    1.910609
  H      3.267235   -0.939401    3.520693
  H      4.247195   -2.355095    3.790065
  C      1.997274    0.430918   -1.399218
  C      3.412746    0.376886   -1.965497
  H      4.047407   -0.246590   -1.326706
  H      3.390774   -0.118719   -2.942839
  H      5.068475    1.598504   -2.565728
  H      3.503356    2.363939   -2.804565
  C      2.399946   -1.389579    1.009490
  H      2.440750   -3.087118    2.362976
  H      3.844475   -2.970462    1.318677
  C      2.070177   -1.936705   -0.372401
  H      1.481611   -1.061542    1.509912
  H      3.008628   -0.490001    0.897451
  C      1.322238   -0.935775   -1.256413
  H      1.472747   -2.850902   -0.283997
  H      3.003539   -2.234041   -0.862535
  H      1.376444    1.058920   -2.047420
  H      2.015341    0.929780   -0.426535
  H      0.316648   -0.787213   -0.848278
  H      1.185611   -1.379252   -2.248613

 Total Charge           Charge          ....    0
 Multiplicity           Mult            ....    1
 Number of Electrons    NEL             ....  126
 Basis Dimension        Dim             ....  805

ORBITAL ENERGIES
----------------

  NO   OCC          E(Eh)            E(eV)
   0   2.0000     -24.778560      -674.2589
   1   2.0000     -19.143210      -520.9132
   2   2.0000     -14.299327      -389.1045
   3   2.0000     -14.290664      -388.8687
   4   2.0000     -10.362318      -281.9730
   5   2.0000     -10.205104      -277.6950
   6   2.0000     -10.188972      -277.2560
   7   2.0000     -10.188669      -277.2478
   8   2.0000     -10.172127      -276.7977
   9   2.0000     -10.161703      -276.5140
  10   2.0000     -10.155778      -276.3528
  11   2.0000     -10.147141      -276.1177
  12   2.0000     -10.136160      -275.8189
  13   2.0000     -10.131874      -275.7023
  14   2.0000     -10.125662      -275.5333
  15   2.0000     -10.056840      -273.6605
  16   2.0000      -1.350612       -36.7520
  17   2.0000      -1.051584       -28.6150
  18   2.0000      -0.941257       -25.6129
  19   2.0000      -0.853792       -23.2329
  20   2.0000      -0.832102       -22.6426
  21   2.0000      -0.798445       -21.7268
  22   2.0000      -0.770157       -20.9570
  23   2.0000      -0.741824       -20.1861
  24   2.0000      -0.710142       -19.3240
  25   2.0000      -0.686708       -18.6863
  26   2.0000      -0.667656       -18.1678
  27   2.0000      -0.632724       -17.2173
  28   2.0000      -0.604195       -16.4410
  29   2.0000      -0.590236       -16.0611
  30   2.0000      -0.575347       -15.6560
  31   2.0000      -0.570496       -15.5240
  32   2.0000      -0.551523       -15.0077
  33   2.0000      -0.541013       -14.7217
  34   2.0000      -0.530711       -14.4414
  35   2.0000      -0.511965       -13.9313
  36   2.0000      -0.486258       -13.2317
  37   2.0000      -0.480107       -13.0644
  38   2.0000      -0.477389       -12.9904
  39   2.0000      -0.457367       -12.4456
  40   2.0000      -0.449283       -12.2256
  41   2.0000      -0.436852       -11.8873
  42   2.0000      -0.426860       -11.6154
  43   2.0000      -0.411762       -11.2046
  44   2.0000      -0.408231       -11.1085
  45   2.0000      -0.401884       -10.9358
  46   2.0000      -0.393196       -10.6994
  47   2.0000      -0.384475       -10.4621
  48   2.0000      -0.377739       -10.2788
  49   2.0000      -0.372148       -10.1266
  50   2.0000      -0.361956        -9.8493
  51   2.0000      -0.360857        -9.8194
  52   2.0000      -0.342348        -9.3158
  53   2.0000      -0.334622        -9.1055
  54   2.0000      -0.332808        -9.0562
  55   2.0000      -0.326855        -8.8942
  56   2.0000      -0.309624        -8.4253
  57   2.0000      -0.302979        -8.2445
  58   2.0000      -0.298189        -8.1141
  59   2.0000      -0.293985        -7.9997
  60   2.0000      -0.265395        -7.2218
  61   2.0000      -0.249598        -6.7919
  62   2.0000      -0.141369        -3.8468
  63   0.0000      -0.047312        -1.2874
  64   0.0000      -0.004543        -0.1236
  65   0.0000       0.008095         0.2203
  66   0.0000       0.016050         0.4367
  67   0.0000       0.017539         0.4773

MULLIKEN ATOMIC CHARGES
-----------------------
   0 C :   -0.619760
   1 C :   -0.828552
   2 C :   -0.610993
   3 C :   -0.354136
   4 H :    0.286505
   5 H :    0.251925
   6 C :    0.645182
   7 C :   -0.276750
   8 N :   -0.330497
   9 N :   -0.322964
  10 H :    0.122063
  11 H :    0.278892
  12 H :    0.989081
  13 H :    0.167324
  14 H :    0.109432
  15 O :   -0.544573
  16 F :   -0.398527
  17 C :   -0.517380
  18 H :    0.198310
  19 H :    0.381794
  20 C :   -0.404278
  21 C :   -0.301576
  22 H :    0.186837
  23 H :    0.246630
  24 H :    0.237903
  25 H :    0.258234
  26 C :    0.303503
  27 H :    0.233865
  28 H :    0.255865
  29 C :   -0.406196
  30 H :    0.215733
  31 H :   -0.256092
  32 C :   -0.659136
  33 H :    0.210785
  34 H :    0.271600
  35 H :    0.232352
  36 H :    0.271107
  37 H :    0.236394
  38 H :    0.240097
Sum of atomic charges:    0.0000000

LOEWDIN ATOMIC CHARGES
----------------------
   0 C :   -0.218437
   1 C :   -0.129862
   2 C :   -0.192040
   3 C :   -0.089002
   4 H :    0.122753
   5 H :    0.119680
   6 C :   -0.438756
   7 C :   -0.523026
   8 N :    0.126147
   9 N :    0.124695
  10 H :    0.096499
  11 H :    0.057987
  12 H :    0.010673
  13 H :    0.089760
  14 H :    0.088487
  15 O :    0.081569
  16 F :    0.201637
  17 C :   -0.197509
  18 H :    0.110398
  19 H :    0.092289
  20 C :   -0.210018
  21 C :   -0.203065
  22 H :    0.106168
  23 H :    0.119901
  24 H :    0.109066
  25 H :    0.115088
  26 C :   -0.211149
  27 H :    0.104044
  28 H :    0.108852
  29 C :   -0.214588
  30 H :    0.123467
  31 H :    0.080270
  32 C :   -0.207073
  33 H :    0.111278
  34 H :    0.105618
  35 H :    0.114184
  36 H :    0.100776
  37 H :    0.107821
  38 H :    0.105417

  Mayer bond orders larger than 0.100000
B(  0-C ,  1-C ) :   0.6185 B(  0-C ,  7-C ) :   0.1060 B(  0-C , 12-H ) :  -0.1372
B(  0-C , 17-C ) :   0.7192 B(  0-C , 18-H ) :   1.0702 B(  0-C , 19-H ) :   0.9780
B(  0-C , 26-C ) :   0.1809 B(  1-C ,  7-C ) :   1.4843 B(  1-C ,  8-N ) :  -0.1476
B(  1-C ,  9-N ) :  -0.1208 B(  1-C , 13-H ) :  -0.1000 B(  1-C , 15-O ) :   0.1884
B(  1-C , 19-H ) :  -0.2352 B(  1-C , 26-C ) :   0.1634 B(  2-C ,  3-C ) :   0.7765
B(  2-C ,  6-C ) :   0.1285 B(  2-C , 20-C ) :   0.1675 B(  2-C , 21-C ) :   0.8877
B(  2-C , 24-H ) :   0.9762 B(  2-C , 25-H ) :   0.9258 B(  3-C ,  4-H ) :   0.8886
B(  3-C ,  5-H ) :   1.0030 B(  3-C ,  6-C ) :   0.9192 B(  3-C , 20-C ) :   0.1404
B(  3-C , 21-C ) :  -0.1390 B(  6-C , 15-O ) :   1.7876 B(  6-C , 16-F ) :   0.6729
B(  7-C ,  8-N ) :   1.0858 B(  7-C ,  9-N ) :   1.1854 B(  7-C , 13-H ) :   0.1170
B(  8-N , 13-H ) :   0.9613 B(  8-N , 14-H ) :   1.0590 B(  9-N , 10-H ) :   1.0276
B(  9-N , 11-H ) :   0.8321 B( 12-H , 15-O ) :  -0.5357 B( 15-O , 16-F ) :   0.1296
B( 17-C , 26-C ) :   0.5906 B( 17-C , 27-H ) :   1.0088 B( 17-C , 28-H ) :   0.8929
B( 17-C , 29-C ) :   0.4264 B( 17-C , 30-H ) :  -0.1276 B( 20-C , 21-C ) :   0.3391
B( 20-C , 22-H ) :  -0.1165 B( 20-C , 26-C ) :   0.1135 B( 20-C , 32-C ) :   0.9260
B( 20-C , 35-H ) :   0.9382 B( 20-C , 36-H ) :   0.9962 B( 21-C , 22-H ) :   1.0336
B( 21-C , 23-H ) :   0.9296 B( 21-C , 29-C ) :   0.1241 B( 21-C , 32-C ) :   0.1406
B( 21-C , 35-H ) :  -0.1035 B( 21-C , 36-H ) :  -0.1256 B( 26-C , 29-C ) :   0.4739
B( 26-C , 30-H ) :   0.8100 B( 26-C , 31-H ) :   1.6243 B( 26-C , 32-C ) :   0.1267
B( 29-C , 31-H ) :  -0.2653 B( 29-C , 32-C ) :   0.8812 B( 29-C , 33-H ) :   0.9712
B( 29-C , 34-H ) :   0.9444 B( 30-H , 31-H ) :   0.1470 B( 32-C , 37-H ) :   0.9644
B( 32-C , 38-H ) :   0.9683

Dispersion correction           -0.072608800
FINAL SINGLE POINT ENERGY      -755.549001259677

DIPOLE MOMENT
-------------
                                X             Y             Z
Electronic contribution:     14.26249       8.78580       3.68644
Nuclear contribution   :    -13.61164      -8.17416      -5.14068
                        -----------------------------------------
Total Dipole Moment    :      0.65085       0.61164      -1.45424
                        -----------------------------------------
Magnitude (a.u.)       :      1.70661
Magnitude (Debye)      :      4.33785

Rotational constants in cm-1:     0.019858     0.013613     0.009401
Rotational constants in MHz :   595.331791   408.100423   281.843625

                             ****ORCA TERMINATED NORMALLY****
TOTAL RUN TIME: 0 days 0 hours 10 minutes 5 seconds 622 msec
