                         Program Version 5.0.0 -  RELEASE  -
|  1> !B3LYP D3BJ RIJCOSX def2-TZVPD def2/J TightSCF xyzfile
|  2>
|  3> *xyzfile 0 1 D5.xyz
|  4>
|  5> %MaxCore 64000
|  6>
|  7> %pal nprocs 4
|  8> end
|  9>
| 10> %scf
| 11>   MaxIter 150
| 12> end
| 13>
| 14>
| 15>                          ****END OF INPUT****

CARTESIAN COORDINATES (ANGSTROEM)
---------------------------------
  C      3.913853   -1.658291    3.015134
  N      5.039266   -0.901154    2.492821
  C      4.084215    1.742081   -2.114724
  C      4.265245    2.500518   -0.795890
  H      4.868534    3.392674   -0.981134
  H      3.307640    2.824571   -0.387809
  C      4.982240    1.650257    0.247422
  C      6.210384   -1.417261    2.178244
  C      6.535913   -2.677122    2.556078
  N      7.076754   -0.700820    1.478906
  H      7.954643   -1.121554    1.207554
  H      6.756161    0.106637    0.960278
  H      4.842168    0.017609    2.115191
  H      5.993876   -3.126918    3.282784
  H      7.498441   -2.975482    2.468776
  O      4.368065    1.389270    1.313706
  F      6.128919    1.233512   -0.045620
  C      3.139159   -2.376572    1.910609
  H      3.267235   -0.939401    3.520693
  H      4.247195   -2.355095    3.790065
  C      1.997274    0.430918   -1.399218
  C      3.412746    0.376886   -1.965497
  H      4.047407   -0.246590   -1.326706
  H      3.390774   -0.118719   -2.942839
  H      5.068475    1.598504   -2.565728
  H      3.503356    2.363939   -2.804565
  C      2.399946   -1.389579    1.009490
  H      2.440750   -3.087118    2.362976
  H      3.844475   -2.970462    1.318677
  C      2.070177   -1.936705   -0.372401
  H      1.481611   -1.061542    1.509912
  H      3.008628   -0.490001    0.897451
  C      1.322238   -0.935775   -1.256413
  H      1.472747   -2.850902   -0.283997
  H      3.003539   -2.234041   -0.862535
  H      1.376444    1.058920   -2.047420
  H      2.015341    0.929780   -0.426535
  H      0.316648   -0.787213   -0.848278
  H      1.185611   -1.379252   -2.248613

 Total Charge           Charge          ....    0
 Multiplicity           Mult            ....    1
 Number of Electrons    NEL             ....  126
 Basis Dimension        Dim             ....  805

ORBITAL ENERGIES
----------------

  NO   OCC          E(Eh)            E(eV)
   0   2.0000     -24.794016      -674.6795
   1   2.0000     -19.168508      -521.6016
   2   2.0000     -14.292306      -388.9134
   3   2.0000     -14.282128      -388.6365
   4   2.0000     -10.383031      -282.5366
   5   2.0000     -10.218413      -278.0572
   6   2.0000     -10.199582      -277.5447
   7   2.0000     -10.194070      -277.3947
   8   2.0000     -10.181877      -277.0630
   9   2.0000     -10.179911      -277.0095
  10   2.0000     -10.171301      -276.7752
  11   2.0000     -10.164706      -276.5957
  12   2.0000     -10.157212      -276.3918
  13   2.0000     -10.150382      -276.2059
  14   2.0000     -10.145709      -276.0788
  15   2.0000     -10.061107      -273.7766
  16   2.0000      -1.366002       -37.1708
  17   2.0000      -1.075583       -29.2681
  18   2.0000      -0.948752       -25.8169
  19   2.0000      -0.867904       -23.6169
  20   2.0000      -0.843939       -22.9647
  21   2.0000      -0.807769       -21.9805
  22   2.0000      -0.772283       -21.0149
  23   2.0000      -0.742945       -20.2166
  24   2.0000      -0.709104       -19.2957
  25   2.0000      -0.694516       -18.8987
  26   2.0000      -0.681051       -18.5323
  27   2.0000      -0.650492       -17.7008
  28   2.0000      -0.619079       -16.8460
  29   2.0000      -0.594199       -16.1690
  30   2.0000      -0.591349       -16.0914
  31   2.0000      -0.589578       -16.0432
  32   2.0000      -0.556725       -15.1492
  33   2.0000      -0.552177       -15.0255
  34   2.0000      -0.535330       -14.5671
  35   2.0000      -0.507697       -13.8151
  36   2.0000      -0.501632       -13.6501
  37   2.0000      -0.490267       -13.3408
  38   2.0000      -0.486316       -13.2333
  39   2.0000      -0.466655       -12.6983
  40   2.0000      -0.450857       -12.2684
  41   2.0000      -0.444936       -12.1073
  42   2.0000      -0.432262       -11.7624
  43   2.0000      -0.421798       -11.4777
  44   2.0000      -0.415561       -11.3080
  45   2.0000      -0.413286       -11.2461
  46   2.0000      -0.402064       -10.9407
  47   2.0000      -0.391912       -10.6645
  48   2.0000      -0.387666       -10.5489
  49   2.0000      -0.378219       -10.2919
  50   2.0000      -0.368442       -10.0258
  51   2.0000      -0.361716        -9.8428
  52   2.0000      -0.356691        -9.7061
  53   2.0000      -0.350129        -9.5275
  54   2.0000      -0.343143        -9.3374
  55   2.0000      -0.339764        -9.2454
  56   2.0000      -0.326206        -8.8765
  57   2.0000      -0.317424        -8.6375
  58   2.0000      -0.313725        -8.5369
  59   2.0000      -0.309849        -8.4314
  60   2.0000      -0.304451        -8.2845
  61   2.0000      -0.228274        -6.2116
  62   2.0000      -0.145142        -3.9495
  63   0.0000      -0.066227        -1.8021
  64   0.0000      -0.011350        -0.3088
  65   0.0000       0.007840         0.2133
  66   0.0000       0.009827         0.2674
  67   0.0000       0.016214         0.4412

MULLIKEN ATOMIC CHARGES
-----------------------
   0 C :   -0.888454
   1 N :   -0.300437
   2 C :   -0.622155
   3 C :   -0.345962
   4 H :    0.294202
   5 H :    0.250054
   6 C :    0.639597
   7 C :    0.717522
   8 C :   -1.319781
   9 N :   -0.371943
  10 H :    0.138469
  11 H :    0.323176
  12 H :    0.416020
  13 H :    0.243306
  14 H :    0.320623
  15 O :   -0.666590
  16 F :   -0.409984
  17 C :   -0.481337
  18 H :    0.301187
  19 H :    0.282006
  20 C :   -0.386168
  21 C :   -0.296193
  22 H :    0.173776
  23 H :    0.255276
  24 H :    0.240373
  25 H :    0.262342
  26 C :    0.244105
  27 H :    0.277524
  28 H :    0.303527
  29 C :   -0.404543
  30 H :    0.249530
  31 H :   -0.241572
  32 C :   -0.659361
  33 H :    0.228750
  34 H :    0.252283
  35 H :    0.236448
  36 H :    0.259124
  37 H :    0.248413
  38 H :    0.236847
Sum of atomic charges:   -0.0000000

LOEWDIN ATOMIC CHARGES
----------------------
   0 C :   -0.180040
   1 N :    0.034254
   2 C :   -0.189108
   3 C :   -0.086262
   4 H :    0.125090
   5 H :    0.120773
   6 C :   -0.434597
   7 C :   -0.550241
   8 C :    0.004394
   9 N :    0.133177
  10 H :    0.110709
  11 H :    0.051524
  12 H :    0.060519
  13 H :   -0.010948
  14 H :   -0.003868
  15 O :    0.082699
  16 F :    0.204603
  17 C :   -0.178771
  18 H :    0.118642
  19 H :    0.105762
  20 C :   -0.209997
  21 C :   -0.202129
  22 H :    0.105992
  23 H :    0.121543
  24 H :    0.110659
  25 H :    0.116905
  26 C :   -0.214189
  27 H :    0.110864
  28 H :    0.109100
  29 C :   -0.212543
  30 H :    0.122774
  31 H :    0.076494
  32 C :   -0.205436
  33 H :    0.113277
  34 H :    0.107798
  35 H :    0.115191
  36 H :    0.099834
  37 H :    0.108600
  38 H :    0.106951

  Mayer bond orders larger than 0.100000
B(  0-C ,  1-N ) :   1.0021 B(  0-C , 12-H ) :  -0.1002 B(  0-C , 17-C ) :   0.7703
B(  0-C , 18-H ) :   0.8208 B(  0-C , 19-H ) :   0.8893 B(  0-C , 26-C ) :   0.1639
B(  1-N ,  7-C ) :   0.9926 B(  1-N ,  8-C ) :   0.1037 B(  1-N , 12-H ) :   0.6866
B(  2-C ,  3-C ) :   0.7743 B(  2-C ,  6-C ) :   0.1462 B(  2-C , 20-C ) :   0.1722
B(  2-C , 21-C ) :   0.8927 B(  2-C , 24-H ) :   0.9748 B(  2-C , 25-H ) :   0.9236
B(  3-C ,  4-H ) :   0.8895 B(  3-C ,  5-H ) :   0.9968 B(  3-C ,  6-C ) :   0.9262
B(  3-C , 20-C ) :   0.1377 B(  3-C , 21-C ) :  -0.1337 B(  6-C , 15-O ) :   1.6921
B(  6-C , 16-F ) :   0.6955 B(  7-C ,  8-C ) :   1.0328 B(  7-C ,  9-N ) :   0.9806
B(  7-C , 12-H ) :  -0.1166 B(  8-C , 13-H ) :   1.0926 B(  8-C , 14-H ) :   1.0232
B(  9-N , 10-H ) :   1.0019 B(  9-N , 11-H ) :   0.7998 B( 15-O , 16-F ) :   0.1296
B( 17-C , 26-C ) :   0.5680 B( 17-C , 27-H ) :   0.9871 B( 17-C , 28-H ) :   0.8619
B( 17-C , 29-C ) :   0.4176 B( 17-C , 30-H ) :  -0.1292 B( 17-C , 31-H ) :  -0.1074
B( 20-C , 21-C ) :   0.3206 B( 20-C , 22-H ) :  -0.1204 B( 20-C , 32-C ) :   0.9452
B( 20-C , 35-H ) :   0.9400 B( 20-C , 36-H ) :   0.9996 B( 21-C , 22-H ) :   1.0497
B( 21-C , 23-H ) :   0.9250 B( 21-C , 29-C ) :   0.1154 B( 21-C , 32-C ) :   0.1521
B( 21-C , 36-H ) :  -0.1307 B( 26-C , 29-C ) :   0.4840 B( 26-C , 30-H ) :   0.7974
B( 26-C , 31-H ) :   1.7206 B( 26-C , 32-C ) :   0.1371 B( 26-C , 34-H ) :  -0.1099
B( 29-C , 31-H ) :  -0.2629 B( 29-C , 32-C ) :   0.9013 B( 29-C , 33-H ) :   0.9476
B( 29-C , 34-H ) :   0.9678 B( 30-H , 31-H ) :   0.1330 B( 32-C , 37-H ) :   0.9525
B( 32-C , 38-H ) :   0.9672

Dispersion correction           -0.072173780
FINAL SINGLE POINT ENERGY      -755.558266629471

DIPOLE MOMENT
-------------
                                X             Y             Z
Electronic contribution:     12.76673      10.35821       3.26394
Nuclear contribution   :    -13.35170      -8.48261      -5.12969
                        -----------------------------------------
Total Dipole Moment    :     -0.58497       1.87559      -1.86575
                        -----------------------------------------
Magnitude (a.u.)       :      2.70944
Magnitude (Debye)      :      6.88686

Rotational constants in cm-1:     0.019886     0.013843     0.009504
Rotational constants in MHz :   596.157485   415.004628   284.931121

                             ****ORCA TERMINATED NORMALLY****
TOTAL RUN TIME: 0 days 0 hours 11 minutes 13 seconds 179 msec
