                         Program Version 5.0.0 -  RELEASE  -
|  1> !B3LYP D3BJ RIJCOSX def2-TZVPD def2/J TightSCF xyzfile
|  2>
|  3> *xyzfile 0 1 D6.xyz
|  4>
|  5> %MaxCore 64000
|  6>
|  7> %pal nprocs 4
|  8> end
|  9>
| 10> %scf
| 11>   MaxIter 150
| 12> end
| 13>
| 14>
| 15>                          ****END OF INPUT****

CARTESIAN COORDINATES (ANGSTROEM)
---------------------------------
  C      3.913853   -1.658291    3.015134
  N      5.039266   -0.901154    2.492821
  C      4.084215    1.742081   -2.114724
  C      4.265245    2.500518   -0.795890
  H      4.868534    3.392674   -0.981134
  H      3.307640    2.824571   -0.387809
  C      4.982240    1.650257    0.247422
  C      6.210384   -1.417261    2.178244
  N      6.535913   -2.677122    2.556078
  C      7.076754   -0.700820    1.478906
  H      7.954643   -1.121554    1.207554
  H      6.756161    0.106637    0.960278
  H      4.842168    0.017609    2.115191
  H      5.993876   -3.126918    3.282784
  H      7.498441   -2.975482    2.468776
  O      4.368065    1.389270    1.313706
  F      6.128919    1.233512   -0.045620
  C      3.139159   -2.376572    1.910609
  H      3.267235   -0.939401    3.520693
  H      4.247195   -2.355095    3.790065
  C      1.997274    0.430918   -1.399218
  C      3.412746    0.376886   -1.965497
  H      4.047407   -0.246590   -1.326706
  H      3.390774   -0.118719   -2.942839
  H      5.068475    1.598504   -2.565728
  H      3.503356    2.363939   -2.804565
  C      2.399946   -1.389579    1.009490
  H      2.440750   -3.087118    2.362976
  H      3.844475   -2.970462    1.318677
  C      2.070177   -1.936705   -0.372401
  H      1.481611   -1.061542    1.509912
  H      3.008628   -0.490001    0.897451
  C      1.322238   -0.935775   -1.256413
  H      1.472747   -2.850902   -0.283997
  H      3.003539   -2.234041   -0.862535
  H      1.376444    1.058920   -2.047420
  H      2.015341    0.929780   -0.426535
  H      0.316648   -0.787213   -0.848278
  H      1.185611   -1.379252   -2.248613

 Total Charge           Charge          ....    0
 Multiplicity           Mult            ....    1
 Number of Electrons    NEL             ....  126
 Basis Dimension        Dim             ....  805

ORBITAL ENERGIES
----------------

  NO   OCC          E(Eh)            E(eV)
   0   2.0000     -24.764020      -673.8633
   1   2.0000     -19.152579      -521.1682
   2   2.0000     -14.297565      -389.0565
   3   2.0000     -14.278979      -388.5508
   4   2.0000     -10.367885      -282.1245
   5   2.0000     -10.206916      -277.7443
   6   2.0000     -10.192530      -277.3528
   7   2.0000     -10.190743      -277.3042
   8   2.0000     -10.187657      -277.2203
   9   2.0000     -10.174918      -276.8736
  10   2.0000     -10.166930      -276.6562
  11   2.0000     -10.162956      -276.5481
  12   2.0000     -10.157536      -276.4006
  13   2.0000     -10.152473      -276.2628
  14   2.0000     -10.152219      -276.2559
  15   2.0000     -10.053391      -273.5667
  16   2.0000      -1.337700       -36.4007
  17   2.0000      -1.060074       -28.8461
  18   2.0000      -0.944549       -25.7025
  19   2.0000      -0.862316       -23.4648
  20   2.0000      -0.835184       -22.7265
  21   2.0000      -0.804440       -21.8899
  22   2.0000      -0.774210       -21.0673
  23   2.0000      -0.738473       -20.0949
  24   2.0000      -0.713503       -19.4154
  25   2.0000      -0.679534       -18.4911
  26   2.0000      -0.672666       -18.3042
  27   2.0000      -0.639242       -17.3947
  28   2.0000      -0.610283       -16.6066
  29   2.0000      -0.594481       -16.1767
  30   2.0000      -0.573869       -15.6158
  31   2.0000      -0.567840       -15.4517
  32   2.0000      -0.563537       -15.3346
  33   2.0000      -0.551694       -15.0123
  34   2.0000      -0.524096       -14.2614
  35   2.0000      -0.508911       -13.8482
  36   2.0000      -0.485905       -13.2221
  37   2.0000      -0.483391       -13.1537
  38   2.0000      -0.474146       -12.9022
  39   2.0000      -0.462337       -12.5808
  40   2.0000      -0.455206       -12.3868
  41   2.0000      -0.436460       -11.8767
  42   2.0000      -0.431599       -11.7444
  43   2.0000      -0.422678       -11.5017
  44   2.0000      -0.417160       -11.3515
  45   2.0000      -0.410446       -11.1688
  46   2.0000      -0.394829       -10.7438
  47   2.0000      -0.386021       -10.5042
  48   2.0000      -0.381592       -10.3837
  49   2.0000      -0.376512       -10.2454
  50   2.0000      -0.367405        -9.9976
  51   2.0000      -0.355696        -9.6790
  52   2.0000      -0.353850        -9.6288
  53   2.0000      -0.343994        -9.3606
  54   2.0000      -0.340746        -9.2722
  55   2.0000      -0.335659        -9.1337
  56   2.0000      -0.326584        -8.8868
  57   2.0000      -0.315066        -8.5734
  58   2.0000      -0.313691        -8.5360
  59   2.0000      -0.309026        -8.4090
  60   2.0000      -0.300734        -8.1834
  61   2.0000      -0.234000        -6.3675
  62   2.0000      -0.143827        -3.9137
  63   0.0000      -0.050852        -1.3838
  64   0.0000      -0.001035        -0.0282
  65   0.0000       0.011191         0.3045
  66   0.0000       0.013820         0.3761
  67   0.0000       0.014279         0.3885

MULLIKEN ATOMIC CHARGES
-----------------------
   0 C :   -0.957948
   1 N :   -0.200380
   2 C :   -0.609614
   3 C :   -0.349705
   4 H :    0.286961
   5 H :    0.245090
   6 C :    0.610662
   7 C :    0.828805
   8 N :   -0.361879
   9 C :   -1.572642
  10 H :    0.184094
  11 H :    0.572439
  12 H :    0.350646
  13 H :    0.127538
  14 H :    0.165938
  15 O :   -0.672181
  16 F :   -0.306520
  17 C :   -0.382788
  18 H :    0.288411
  19 H :    0.296089
  20 C :   -0.384449
  21 C :   -0.346012
  22 H :    0.228251
  23 H :    0.247983
  24 H :    0.234591
  25 H :    0.262687
  26 C :    0.268560
  27 H :    0.295497
  28 H :    0.269940
  29 C :   -0.428091
  30 H :    0.269322
  31 H :   -0.284303
  32 C :   -0.652075
  33 H :    0.220786
  34 H :    0.275852
  35 H :    0.233898
  36 H :    0.257959
  37 H :    0.246429
  38 H :    0.240159
Sum of atomic charges:   -0.0000000

LOEWDIN ATOMIC CHARGES
----------------------
   0 C :   -0.184657
   1 N :    0.035700
   2 C :   -0.188996
   3 C :   -0.087075
   4 H :    0.124527
   5 H :    0.118820
   6 C :   -0.432338
   7 C :   -0.541424
   8 N :    0.122638
   9 C :    0.010285
  10 H :    0.006329
  11 H :   -0.027203
  12 H :    0.065605
  13 H :    0.080216
  14 H :    0.102109
  15 O :    0.077780
  16 F :    0.197684
  17 C :   -0.183615
  18 H :    0.119130
  19 H :    0.100824
  20 C :   -0.210234
  21 C :   -0.201893
  22 H :    0.107122
  23 H :    0.120744
  24 H :    0.111322
  25 H :    0.115642
  26 C :   -0.212072
  27 H :    0.108440
  28 H :    0.110687
  29 C :   -0.213082
  30 H :    0.123719
  31 H :    0.078833
  32 C :   -0.205612
  33 H :    0.112294
  34 H :    0.107911
  35 H :    0.114888
  36 H :    0.099903
  37 H :    0.108162
  38 H :    0.106887

  Mayer bond orders larger than 0.100000
B(  0-C ,  1-N ) :   1.0155 B(  0-C ,  7-C ) :  -0.1482 B(  0-C , 17-C ) :   0.6851
B(  0-C , 18-H ) :   0.8875 B(  0-C , 19-H ) :   0.9060 B(  0-C , 26-C ) :   0.1285
B(  0-C , 27-H ) :  -0.1118 B(  0-C , 31-H ) :   0.1197 B(  1-N ,  7-C ) :   1.1071
B(  1-N , 12-H ) :   0.7364 B(  2-C ,  3-C ) :   0.7812 B(  2-C ,  6-C ) :   0.1429
B(  2-C , 20-C ) :   0.1761 B(  2-C , 21-C ) :   0.9166 B(  2-C , 24-H ) :   0.9722
B(  2-C , 25-H ) :   0.9232 B(  3-C ,  4-H ) :   0.8958 B(  3-C ,  5-H ) :   0.9950
B(  3-C ,  6-C ) :   0.9278 B(  3-C , 20-C ) :   0.1342 B(  3-C , 21-C ) :  -0.1296
B(  6-C , 15-O ) :   1.6839 B(  6-C , 16-F ) :   0.7785 B(  7-C ,  8-N ) :   0.9540
B(  7-C ,  9-C ) :   1.0160 B(  7-C , 10-H ) :  -0.2166 B(  7-C , 12-H ) :  -0.1071
B(  8-N , 13-H ) :   1.0336 B(  8-N , 14-H ) :   0.9856 B(  9-C , 10-H ) :   1.3032
B(  9-C , 11-H ) :   0.6913 B(  9-C , 16-F ) :   0.1304 B( 11-H , 16-F ) :  -0.1673
B( 15-O , 16-F ) :   0.1294 B( 17-C , 26-C ) :   0.5700 B( 17-C , 27-H ) :   1.0053
B( 17-C , 28-H ) :   0.8566 B( 17-C , 29-C ) :   0.4234 B( 17-C , 30-H ) :  -0.1306
B( 17-C , 31-H ) :  -0.1000 B( 20-C , 21-C ) :   0.3007 B( 20-C , 22-H ) :  -0.1190
B( 20-C , 32-C ) :   0.9317 B( 20-C , 35-H ) :   0.9432 B( 20-C , 36-H ) :   1.0008
B( 21-C , 22-H ) :   1.0026 B( 21-C , 23-H ) :   0.9343 B( 21-C , 29-C ) :   0.1233
B( 21-C , 32-C ) :   0.1376 B( 21-C , 35-H ) :  -0.1011 B( 21-C , 36-H ) :  -0.1281
B( 26-C , 29-C ) :   0.4747 B( 26-C , 30-H ) :   0.8160 B( 26-C , 31-H ) :   1.7135
B( 26-C , 32-C ) :   0.1332 B( 26-C , 34-H ) :  -0.1027 B( 29-C , 31-H ) :  -0.2718
B( 29-C , 32-C ) :   0.8918 B( 29-C , 33-H ) :   0.9618 B( 29-C , 34-H ) :   0.9563
B( 30-H , 31-H ) :   0.1111 B( 32-C , 37-H ) :   0.9556 B( 32-C , 38-H ) :   0.9656

Dispersion correction           -0.072239955
FINAL SINGLE POINT ENERGY      -755.551599644920

DIPOLE MOMENT
-------------
                                X             Y             Z
Electronic contribution:     12.37981       8.54397       4.38806
Nuclear contribution   :    -13.25777      -8.13937      -5.31678
                        -----------------------------------------
Total Dipole Moment    :     -0.87796       0.40461      -0.92871
                        -----------------------------------------
Magnitude (a.u.)       :      1.34053
Magnitude (Debye)      :      3.40736

Rotational constants in cm-1:     0.020021     0.013636     0.009443
Rotational constants in MHz :   600.208195   408.782966   283.102361

                             ****ORCA TERMINATED NORMALLY****
TOTAL RUN TIME: 0 days 0 hours 10 minutes 35 seconds 432 msec
