                         Program Version 5.0.0 -  RELEASE  -
|  1> !B3LYP D3BJ RIJCOSX def2-SVPD def2/J TightSCF
|  2> *xyz -1 1
|  3> C         -0.71189        0.84252       -4.21834
|  4> C         -0.39762       -0.20587       -5.28802
|  5> O          0.61717       -0.00535       -5.99827
|  6> O         -1.13317       -1.22138       -5.34147
|  7> H         -0.00939        1.64646       -4.28960
|  8> H         -0.64409        0.39449       -3.24902
|  9> H         -1.70192        1.21961       -4.36851
| 10> *
| 11>
| 12> %MaxCore 64000
| 13>
| 14> %pal nprocs 4
| 15> end
| 16>
| 17> %scf
| 18>   MaxIter 150
| 19> end
| 20>
| 21>
| 22>                          ****END OF INPUT****

CARTESIAN COORDINATES (ANGSTROEM)
---------------------------------
  C     -0.711890    0.842520   -4.218340
  C     -0.397620   -0.205870   -5.288020
  O      0.617170   -0.005350   -5.998270
  O     -1.133170   -1.221380   -5.341470
  H     -0.009390    1.646460   -4.289600
  H     -0.644090    0.394490   -3.249020
  H     -1.701920    1.219610   -4.368510

 Total Charge           Charge          ....   -1
 Multiplicity           Mult            ....    1
 Number of Electrons    NEL             ....   32
 Basis Dimension        Dim             ....  110

ORBITAL ENERGIES
----------------

  NO   OCC          E(Eh)            E(eV)
   0   2.0000     -18.874715      -513.6071
   1   2.0000     -18.874122      -513.5910
   2   2.0000     -10.067959      -273.9631
   3   2.0000      -9.996035      -272.0059
   4   2.0000      -0.808798       -22.0085
   5   2.0000      -0.716369       -19.4934
   6   2.0000      -0.536730       -14.6052
   7   2.0000      -0.300097        -8.1661
   8   2.0000      -0.259638        -7.0651
   9   2.0000      -0.245030        -6.6676
  10   2.0000      -0.224077        -6.0975
  11   2.0000      -0.185312        -5.0426
  12   2.0000      -0.166029        -4.5179
  13   2.0000      -0.048744        -1.3264
  14   2.0000      -0.042163        -1.1473
  15   2.0000      -0.026548        -0.7224
  16   0.0000       0.170688         4.6446
  17   0.0000       0.213833         5.8187
  18   0.0000       0.222191         6.0461
  19   0.0000       0.240431         6.5425
  20   0.0000       0.264008         7.1840

MULLIKEN ATOMIC CHARGES
-----------------------
   0 C :    0.694286
   1 C :    0.029874
   2 O :   -0.638946
   3 O :   -0.660102
   4 H :   -0.159760
   5 H :   -0.133469
   6 H :   -0.131883
Sum of atomic charges:   -1.0000000

LOEWDIN ATOMIC CHARGES
----------------------
   0 C :    0.151707
   1 C :   -0.338865
   2 O :   -0.338826
   3 O :   -0.340940
   4 H :   -0.048899
   5 H :   -0.041030
   6 H :   -0.043146

  Mayer bond orders larger than 0.100000
B(  0-C ,  1-C ) :   1.1959 B(  0-C ,  4-H ) :   0.8322 B(  0-C ,  5-H ) :   0.7868
B(  0-C ,  6-H ) :   0.7777 B(  1-C ,  2-O ) :   1.4875 B(  1-C ,  3-O ) :   1.5015
B(  1-C ,  4-H ) :   0.2790 B(  1-C ,  5-H ) :   0.1861 B(  1-C ,  6-H ) :   0.1941

Dispersion correction           -0.006232393
FINAL SINGLE POINT ENERGY      -228.262618664391

DIPOLE MOMENT
-------------
                                X             Y             Z
Electronic contribution:      0.75883      -2.47278      -2.51405
Nuclear contribution   :     -1.06347       3.45957       3.47855
                        -----------------------------------------
Total Dipole Moment    :     -0.30464       0.98679       0.96451
                        -----------------------------------------
Magnitude (a.u.)       :      1.41310
Magnitude (Debye)      :      3.59181

Rotational constants in cm-1:     0.393276     0.333956     0.186777
Rotational constants in MHz : 11790.103634 10011.747201  5599.422324

                             ****ORCA TERMINATED NORMALLY****
TOTAL RUN TIME: 0 days 0 hours 0 minutes 7 seconds 382 msec
