                         Program Version 5.0.0 -  RELEASE  -
|  1> !B3LYP D3BJ RIJCOSX def2-SVPD def2/J TightSCF
|  2> *xyz 1 1
|  3> C          2.23447       -2.98975       -2.39762
|  4> N          2.75680       -2.94555       -3.76503
|  5> C          1.98721       -2.59045       -4.81898
|  6> N          0.74322       -3.01749       -4.91352
|  7> N          2.49964       -1.84860       -5.80324
|  8> H          3.30978       -1.29282       -5.55895
|  9> H          1.80103       -1.30430       -6.28913
| 10> H          3.71612       -2.62880       -3.82953
| 11> H          0.39583       -3.62775       -4.18502
| 12> H          0.03920       -2.45438       -5.37137
| 13> H          1.22098       -3.33251       -2.41386
| 14> H          2.27280       -2.00995       -1.96933
| 15> H          2.82798       -3.65908       -1.81056
| 16> *
| 17>
| 18> %MaxCore 64000
| 19>
| 20> %pal nprocs 4
| 21> end
| 22>
| 23> %scf
| 24>   MaxIter 150
| 25> end
| 26>
| 27>
| 28>                          ****END OF INPUT****

CARTESIAN COORDINATES (ANGSTROEM)
---------------------------------
  C      2.234470   -2.989750   -2.397620
  N      2.756800   -2.945550   -3.765030
  C      1.987210   -2.590450   -4.818980
  N      0.743220   -3.017490   -4.913520
  N      2.499640   -1.848600   -5.803240
  H      3.309780   -1.292820   -5.558950
  H      1.801030   -1.304300   -6.289130
  H      3.716120   -2.628800   -3.829530
  H      0.395830   -3.627750   -4.185020
  H      0.039200   -2.454380   -5.371370
  H      1.220980   -3.332510   -2.413860
  H      2.272800   -2.009950   -1.969330
  H      2.827980   -3.659080   -1.810560

 Total Charge           Charge          ....    1
 Multiplicity           Mult            ....    1
 Number of Electrons    NEL             ....   40
 Basis Dimension        Dim             ....  164

ORBITAL ENERGIES
----------------

  NO   OCC          E(Eh)            E(eV)
   0   2.0000     -14.565691      -396.3526
   1   2.0000     -14.561569      -396.2404
   2   2.0000     -14.560943      -396.2234
   3   2.0000     -10.528519      -286.4956
   4   2.0000     -10.393206      -282.8135
   5   2.0000      -1.217947       -33.1420
   6   2.0000      -1.104112       -30.0444
   7   2.0000      -1.100005       -29.9327
   8   2.0000      -0.901579       -24.5332
   9   2.0000      -0.833202       -22.6726
  10   2.0000      -0.791694       -21.5431
  11   2.0000      -0.756387       -20.5823
  12   2.0000      -0.707742       -19.2586
  13   2.0000      -0.692789       -18.8517
  14   2.0000      -0.647895       -17.6301
  15   2.0000      -0.646615       -17.5953
  16   2.0000      -0.597958       -16.2713
  17   2.0000      -0.585301       -15.9269
  18   2.0000      -0.495301       -13.4778
  19   2.0000      -0.463266       -12.6061
  20   0.0000      -0.203270        -5.5313
  21   0.0000      -0.163995        -4.4625
  22   0.0000      -0.127357        -3.4656
  23   0.0000      -0.116714        -3.1759
  24   0.0000      -0.094718        -2.5774

MULLIKEN ATOMIC CHARGES
-----------------------
   0 C :    1.394181
   1 N :   -0.499818
   2 C :    0.815679
   3 N :    0.189250
   4 N :    0.088814
   5 H :   -0.029838
   6 H :    0.018749
   7 H :   -0.198650
   8 H :   -0.053467
   9 H :   -0.056818
  10 H :   -0.278851
  11 H :   -0.142103
  12 H :   -0.247128
Sum of atomic charges:    1.0000000

LOEWDIN ATOMIC CHARGES
----------------------
   0 C :    0.266901
   1 N :    0.031497
   2 C :   -0.050066
   3 N :    0.287936
   4 N :    0.277866
   5 H :    0.034148
   6 H :    0.033804
   7 H :    0.047873
   8 H :    0.024506
   9 H :    0.046752
  10 H :   -0.017864
  11 H :    0.007128
  12 H :    0.009520

  Mayer bond orders larger than 0.100000
B(  0-C ,  1-N ) :   0.9045 B(  0-C , 10-H ) :   0.7708 B(  0-C , 11-H ) :   0.7675
B(  0-C , 12-H ) :   0.7386 B(  1-N ,  2-C ) :   1.0840 B(  1-N ,  3-N ) :   0.1051
B(  1-N ,  4-N ) :   0.1327 B(  1-N ,  7-H ) :   1.2015 B(  1-N , 10-H ) :   0.1589
B(  1-N , 11-H ) :   0.1433 B(  1-N , 12-H ) :   0.2142 B(  2-C ,  3-N ) :   1.0898
B(  2-C ,  4-N ) :   1.0612 B(  2-C ,  7-H ) :  -0.1616 B(  2-C ,  9-H ) :  -0.1024
B(  3-N ,  4-N ) :   0.1500 B(  3-N ,  8-H ) :   1.0082 B(  3-N ,  9-H ) :   1.2040
B(  4-N ,  5-H ) :   1.0189 B(  4-N ,  6-H ) :   1.0117 B(  8-H ,  9-H ) :  -0.1551

Dispersion correction           -0.015063163
FINAL SINGLE POINT ENERGY      -244.775745740016

DIPOLE MOMENT
-------------
                                X             Y             Z
Electronic contribution:      0.27191      -0.06746      -3.01348
Nuclear contribution   :     -0.61773       0.88991       3.03801
                        -----------------------------------------
Total Dipole Moment    :     -0.34582       0.82245       0.02454
                        -----------------------------------------
Magnitude (a.u.)       :      0.89253
Magnitude (Debye)      :      2.26864

Rotational constants in cm-1:     0.302561     0.133407     0.098295
Rotational constants in MHz :  9070.558660  3999.431512  2946.819102

                             ****ORCA TERMINATED NORMALLY****
TOTAL RUN TIME: 0 days 0 hours 0 minutes 14 seconds 854 msec
