                         Program Version 5.0.0 -  RELEASE  -
|  1> !B3LYP D3BJ RIJCOSX def2-SVPD def2/J TightSCF
|  2> *xyz 0 1
|  3> C         -0.71189        0.84252       -4.21834
|  4> C         -0.39762       -0.20587       -5.28802
|  5> F          0.61717       -0.00535       -5.99827
|  6> O         -1.13317       -1.22138       -5.34147
|  7> H         -0.00939        1.64646       -4.28960
|  8> H         -0.64409        0.39449       -3.24902
|  9> H         -1.70192        1.21961       -4.36851
| 10> *
| 11>
| 12> %MaxCore 64000
| 13>
| 14> %pal nprocs 4
| 15> end
| 16>
| 17> %scf
| 18>   MaxIter 150
| 19> end
| 20>
| 21>
| 22>                          ****END OF INPUT****

CARTESIAN COORDINATES (ANGSTROEM)
---------------------------------
  C     -0.711890    0.842520   -4.218340
  C     -0.397620   -0.205870   -5.288020
  F      0.617170   -0.005350   -5.998270
  O     -1.133170   -1.221380   -5.341470
  H     -0.009390    1.646460   -4.289600
  H     -0.644090    0.394490   -3.249020
  H     -1.701920    1.219610   -4.368510

 Total Charge           Charge          ....    0
 Multiplicity           Mult            ....    1
 Number of Electrons    NEL             ....   32
 Basis Dimension        Dim             ....  110

ORBITAL ENERGIES
----------------

  NO   OCC          E(Eh)            E(eV)
   0   2.0000     -24.772779      -674.1016
   1   2.0000     -19.152300      -521.1606
   2   2.0000     -10.373118      -282.2669
   3   2.0000     -10.213350      -277.9194
   4   2.0000      -1.311552       -35.6892
   5   2.0000      -1.029364       -28.0104
   6   2.0000      -0.768899       -20.9228
   7   2.0000      -0.663057       -18.0427
   8   2.0000      -0.555305       -15.1106
   9   2.0000      -0.550639       -14.9836
  10   2.0000      -0.505717       -13.7613
  11   2.0000      -0.449455       -12.2303
  12   2.0000      -0.436459       -11.8767
  13   2.0000      -0.408410       -11.1134
  14   2.0000      -0.359655        -9.7867
  15   2.0000      -0.300968        -8.1897
  16   0.0000      -0.038839        -1.0569
  17   0.0000       0.009554         0.2600
  18   0.0000       0.056275         1.5313
  19   0.0000       0.084417         2.2971
  20   0.0000       0.085777         2.3341

MULLIKEN ATOMIC CHARGES
-----------------------
   0 C :    0.624779
   1 C :    0.384930
   2 F :   -0.337646
   3 O :   -0.453819
   4 H :   -0.114773
   5 H :   -0.049777
   6 H :   -0.053695
Sum of atomic charges:    0.0000000

LOEWDIN ATOMIC CHARGES
----------------------
   0 C :    0.224793
   1 C :   -0.037336
   2 F :   -0.036383
   3 O :   -0.136147
   4 H :   -0.017219
   5 H :    0.001728
   6 H :    0.000565

  Mayer bond orders larger than 0.100000
B(  0-C ,  1-C ) :   1.2374 B(  0-C ,  4-H ) :   0.8515 B(  0-C ,  5-H ) :   0.7812
B(  0-C ,  6-H ) :   0.7711 B(  1-C ,  2-F ) :   0.8163 B(  1-C ,  3-O ) :   1.8259
B(  1-C ,  4-H ) :   0.1772 B(  1-C ,  5-H ) :   0.1600 B(  1-C ,  6-H ) :   0.1713

Dispersion correction           -0.005734329
FINAL SINGLE POINT ENERGY      -252.794313742826

DIPOLE MOMENT
-------------
                                X             Y             Z
Electronic contribution:      2.41078      -2.26361      -3.80656
Nuclear contribution   :     -2.12043       3.31297       4.29327
                        -----------------------------------------
Total Dipole Moment    :      0.29035       1.04936       0.48671
                        -----------------------------------------
Magnitude (a.u.)       :      1.19263
Magnitude (Debye)      :      3.03142

Rotational constants in cm-1:     0.368089     0.321934     0.177312
Rotational constants in MHz : 11035.034199  9651.332398  5315.666874

                             ****ORCA TERMINATED NORMALLY****
TOTAL RUN TIME: 0 days 0 hours 0 minutes 6 seconds 915 msec
