                         Program Version 5.0.0 -  RELEASE  -
|  1> !B3LYP D3BJ RIJCOSX def2-SVPD def2/J TightSCF
|  2> *xyz 0 1
|  3> C          2.23447       -2.98975       -2.39762
|  4> C          2.75680       -2.94555       -3.76503
|  5> C          1.98721       -2.59045       -4.81898
|  6> N          0.74322       -3.01749       -4.91352
|  7> N          2.49964       -1.84860       -5.80324
|  8> H          3.30978       -1.29282       -5.55895
|  9> H          1.80103       -1.30430       -6.28913
| 10> H          3.71612       -2.62880       -3.82953
| 11> H          0.39583       -3.62775       -4.18502
| 12> H          0.03920       -2.45438       -5.37137
| 13> H          1.22098       -3.33251       -2.41386
| 14> H          2.27280       -2.00995       -1.96933
| 15> H          2.82798       -3.65908       -1.81056
| 16> *
| 17>
| 18> %MaxCore 64000
| 19>
| 20> %pal nprocs 4
| 21> end
| 22>
| 23> %scf
| 24>   MaxIter 150
| 25> end
| 26>
| 27>
| 28>                          ****END OF INPUT****

CARTESIAN COORDINATES (ANGSTROEM)
---------------------------------
  C      2.234470   -2.989750   -2.397620
  C      2.756800   -2.945550   -3.765030
  C      1.987210   -2.590450   -4.818980
  N      0.743220   -3.017490   -4.913520
  N      2.499640   -1.848600   -5.803240
  H      3.309780   -1.292820   -5.558950
  H      1.801030   -1.304300   -6.289130
  H      3.716120   -2.628800   -3.829530
  H      0.395830   -3.627750   -4.185020
  H      0.039200   -2.454380   -5.371370
  H      1.220980   -3.332510   -2.413860
  H      2.272800   -2.009950   -1.969330
  H      2.827980   -3.659080   -1.810560

 Total Charge           Charge          ....    0
 Multiplicity           Mult            ....    1
 Number of Electrons    NEL             ....   40
 Basis Dimension        Dim             ....  164

ORBITAL ENERGIES
----------------

  NO   OCC          E(Eh)            E(eV)
   0   2.0000     -14.336347      -390.1118
   1   2.0000     -14.332313      -390.0021
   2   2.0000     -10.229329      -278.3542
   3   2.0000     -10.151217      -276.2286
   4   2.0000     -10.110658      -275.1250
   5   2.0000      -0.962263       -26.1845
   6   2.0000      -0.871233       -23.7075
   7   2.0000      -0.745531       -20.2869
   8   2.0000      -0.650175       -17.6922
   9   2.0000      -0.587078       -15.9752
  10   2.0000      -0.543306       -14.7841
  11   2.0000      -0.506606       -13.7855
  12   2.0000      -0.471949       -12.8424
  13   2.0000      -0.437128       -11.8949
  14   2.0000      -0.402411       -10.9502
  15   2.0000      -0.376183       -10.2364
  16   2.0000      -0.360746        -9.8164
  17   2.0000      -0.339760        -9.2453
  18   2.0000      -0.275895        -7.5075
  19   2.0000      -0.160286        -4.3616
  20   0.0000       0.007866         0.2141
  21   0.0000       0.034359         0.9350
  22   0.0000       0.048032         1.3070
  23   0.0000       0.061137         1.6636
  24   0.0000       0.079125         2.1531

MULLIKEN ATOMIC CHARGES
-----------------------
   0 C :    1.099087
   1 C :   -0.340114
   2 C :    0.269195
   3 N :    0.126947
   4 N :    0.069508
   5 H :   -0.000336
   6 H :   -0.058686
   7 H :   -0.355264
   8 H :   -0.064170
   9 H :   -0.160416
  10 H :   -0.335986
  11 H :   -0.175988
  12 H :   -0.073779
Sum of atomic charges:    0.0000000

LOEWDIN ATOMIC CHARGES
----------------------
   0 C :    0.096618
   1 C :   -0.046923
   2 C :   -0.244094
   3 N :    0.198312
   4 N :    0.192287
   5 H :   -0.000925
   6 H :   -0.016015
   7 H :   -0.065297
   8 H :   -0.006845
   9 H :   -0.006969
  10 H :   -0.048536
  11 H :   -0.023926
  12 H :   -0.027686

  Mayer bond orders larger than 0.100000
B(  0-C ,  1-C ) :   1.1105 B(  0-C ,  7-H ) :   0.2092 B(  0-C , 10-H ) :   0.6480
B(  0-C , 11-H ) :   0.7591 B(  0-C , 12-H ) :   0.6623 B(  1-C ,  2-C ) :   1.7257
B(  1-C ,  3-N ) :   0.1922 B(  1-C ,  4-N ) :   0.2231 B(  1-C ,  7-H ) :   0.7761
B(  1-C , 10-H ) :   0.3581 B(  1-C , 11-H ) :   0.1124 B(  1-C , 12-H ) :   0.2522
B(  2-C ,  3-N ) :   1.0943 B(  2-C ,  4-N ) :   1.0425 B(  2-C ,  7-H ) :   0.2843
B(  3-N ,  4-N ) :   0.1262 B(  3-N ,  8-H ) :   1.0064 B(  3-N ,  9-H ) :   1.2132
B(  4-N ,  5-H ) :   0.9630 B(  4-N ,  6-H ) :   0.9542 B(  8-H ,  9-H ) :  -0.1373
B( 10-H , 12-H ) :   0.1322

Dispersion correction           -0.015857330
FINAL SINGLE POINT ENERGY      -228.313766087540

DIPOLE MOMENT
-------------
                                X             Y             Z
Electronic contribution:     -0.27717       0.03880      -3.43393
Nuclear contribution   :     -0.47056       0.83150       3.15332
                        -----------------------------------------
Total Dipole Moment    :     -0.74773       0.87030      -0.28061
                        -----------------------------------------
Magnitude (a.u.)       :      1.18121
Magnitude (Debye)      :      3.00240

Rotational constants in cm-1:     0.307275     0.134774     0.099280
Rotational constants in MHz :  9211.860934  4040.421317  2976.324646

                             ****ORCA TERMINATED NORMALLY****
TOTAL RUN TIME: 0 days 0 hours 0 minutes 14 seconds 836 msec
