                         Program Version 5.0.0 -  RELEASE  -
|  1> !B3LYP D3BJ RIJCOSX def2-SVPD def2/J TightSCF
|  2> *xyz 0 1
|  3> C         -0.71189        0.84252       -4.21834
|  4> C         -0.39762       -0.20587       -5.28802
|  5> O          0.61717       -0.00535       -5.99827
|  6> F         -1.13317       -1.22138       -5.34147
|  7> H         -0.00939        1.64646       -4.28960
|  8> H         -0.64409        0.39449       -3.24902
|  9> H         -1.70192        1.21961       -4.36851
| 10> *
| 11>
| 12> %MaxCore 64000
| 13>
| 14> %pal nprocs 4
| 15> end
| 16>
| 17> %scf
| 18>   MaxIter 150
| 19> end
| 20>
| 21>
| 22>                          ****END OF INPUT****

CARTESIAN COORDINATES (ANGSTROEM)
---------------------------------
  C     -0.711890    0.842520   -4.218340
  C     -0.397620   -0.205870   -5.288020
  O      0.617170   -0.005350   -5.998270
  F     -1.133170   -1.221380   -5.341470
  H     -0.009390    1.646460   -4.289600
  H     -0.644090    0.394490   -3.249020
  H     -1.701920    1.219610   -4.368510

 Total Charge           Charge          ....    0
 Multiplicity           Mult            ....    1
 Number of Electrons    NEL             ....   32
 Basis Dimension        Dim             ....  110

ORBITAL ENERGIES
----------------

  NO   OCC          E(Eh)            E(eV)
   0   2.0000     -24.773250      -674.1144
   1   2.0000     -19.152070      -521.1543
   2   2.0000     -10.372756      -282.2570
   3   2.0000     -10.213096      -277.9125
   4   2.0000      -1.311463       -35.6867
   5   2.0000      -1.029670       -28.0187
   6   2.0000      -0.768460       -20.9108
   7   2.0000      -0.663030       -18.0420
   8   2.0000      -0.555840       -15.1252
   9   2.0000      -0.550213       -14.9721
  10   2.0000      -0.505288       -13.7496
  11   2.0000      -0.448597       -12.2069
  12   2.0000      -0.436993       -11.8912
  13   2.0000      -0.408318       -11.1109
  14   2.0000      -0.362382        -9.8609
  15   2.0000      -0.298859        -8.1324
  16   0.0000      -0.035718        -0.9719
  17   0.0000       0.009674         0.2633
  18   0.0000       0.056115         1.5270
  19   0.0000       0.081695         2.2230
  20   0.0000       0.090077         2.4511

MULLIKEN ATOMIC CHARGES
-----------------------
   0 C :    0.640299
   1 C :    0.402291
   2 O :   -0.436442
   3 F :   -0.362069
   4 H :   -0.133331
   5 H :   -0.053744
   6 H :   -0.057004
Sum of atomic charges:   -0.0000000

LOEWDIN ATOMIC CHARGES
----------------------
   0 C :    0.223948
   1 C :   -0.038604
   2 O :   -0.136190
   3 F :   -0.034383
   4 H :   -0.003973
   5 H :   -0.004204
   6 H :   -0.006594

  Mayer bond orders larger than 0.100000
B(  0-C ,  1-C ) :   1.2186 B(  0-C ,  4-H ) :   0.8514 B(  0-C ,  5-H ) :   0.7810
B(  0-C ,  6-H ) :   0.7750 B(  1-C ,  2-O ) :   1.8446 B(  1-C ,  3-F ) :   0.7736
B(  1-C ,  4-H ) :   0.2404 B(  1-C ,  5-H ) :   0.1439 B(  1-C ,  6-H ) :   0.1492

Dispersion correction           -0.005734140
FINAL SINGLE POINT ENERGY      -252.794448278465

DIPOLE MOMENT
-------------
                                X             Y             Z
Electronic contribution:     -0.43402      -4.24019      -2.73834
Nuclear contribution   :     -0.31181       4.56949       3.61460
                        -----------------------------------------
Total Dipole Moment    :     -0.74583       0.32930       0.87627
                        -----------------------------------------
Magnitude (a.u.)       :      1.19689
Magnitude (Debye)      :      3.04225

Rotational constants in cm-1:     0.370228     0.320104     0.177247
Rotational constants in MHz : 11099.151631  9596.483000  5313.726171

                             ****ORCA TERMINATED NORMALLY****
TOTAL RUN TIME: 0 days 0 hours 0 minutes 6 seconds 902 msec
