                         Program Version 5.0.0 -  RELEASE  -
|  1> !B3LYP D3BJ RIJCOSX def2-SVPD def2/J TightSCF
|  2> *xyz 0 1
|  3> C          2.23447       -2.98975       -2.39762
|  4> N          2.75680       -2.94555       -3.76503
|  5> C          1.98721       -2.59045       -4.81898
|  6> C          0.74322       -3.01749       -4.91352
|  7> N          2.49964       -1.84860       -5.80324
|  8> H          3.30978       -1.29282       -5.55895
|  9> H          1.80103       -1.30430       -6.28913
| 10> H          3.71612       -2.62880       -3.82953
| 11> H          0.39583       -3.62775       -4.18502
| 12> H          0.03920       -2.45438       -5.37137
| 13> H          1.22098       -3.33251       -2.41386
| 14> H          2.27280       -2.00995       -1.96933
| 15> H          2.82798       -3.65908       -1.81056
| 16> *
| 17>
| 18> %MaxCore 64000
| 19>
| 20> %pal nprocs 4
| 21> end
| 22>
| 23> %scf
| 24>   MaxIter 150
| 25> end
| 26>
| 27>
| 28>                          ****END OF INPUT****

CARTESIAN COORDINATES (ANGSTROEM)
---------------------------------
  C      2.234470   -2.989750   -2.397620
  N      2.756800   -2.945550   -3.765030
  C      1.987210   -2.590450   -4.818980
  C      0.743220   -3.017490   -4.913520
  N      2.499640   -1.848600   -5.803240
  H      3.309780   -1.292820   -5.558950
  H      1.801030   -1.304300   -6.289130
  H      3.716120   -2.628800   -3.829530
  H      0.395830   -3.627750   -4.185020
  H      0.039200   -2.454380   -5.371370
  H      1.220980   -3.332510   -2.413860
  H      2.272800   -2.009950   -1.969330
  H      2.827980   -3.659080   -1.810560

 Total Charge           Charge          ....    0
 Multiplicity           Mult            ....    1
 Number of Electrons    NEL             ....   40
 Basis Dimension        Dim             ....  164

ORBITAL ENERGIES
----------------

  NO   OCC          E(Eh)            E(eV)
   0   2.0000     -14.333523      -390.0350
   1   2.0000     -14.331677      -389.9848
   2   2.0000     -10.229031      -278.3461
   3   2.0000     -10.208665      -277.7919
   4   2.0000     -10.103036      -274.9176
   5   2.0000      -0.959778       -26.1169
   6   2.0000      -0.879045       -23.9200
   7   2.0000      -0.719259       -19.5720
   8   2.0000      -0.690391       -18.7865
   9   2.0000      -0.564748       -15.3676
  10   2.0000      -0.545160       -14.8346
  11   2.0000      -0.513825       -13.9819
  12   2.0000      -0.449796       -12.2396
  13   2.0000      -0.443374       -12.0648
  14   2.0000      -0.421278       -11.4636
  15   2.0000      -0.392304       -10.6751
  16   2.0000      -0.378113       -10.2890
  17   2.0000      -0.358160        -9.7460
  18   2.0000      -0.254937        -6.9372
  19   2.0000      -0.177530        -4.8308
  20   0.0000       0.010460         0.2846
  21   0.0000       0.035288         0.9602
  22   0.0000       0.049856         1.3567
  23   0.0000       0.057804         1.5729
  24   0.0000       0.079016         2.1501

MULLIKEN ATOMIC CHARGES
-----------------------
   0 C :    1.409752
   1 N :   -0.409746
   2 C :    0.361393
   3 C :    0.496731
   4 N :    0.115340
   5 H :   -0.122445
   6 H :    0.002817
   7 H :   -0.332025
   8 H :   -0.267787
   9 H :   -0.476195
  10 H :   -0.293623
  11 H :   -0.195491
  12 H :   -0.288719
Sum of atomic charges:   -0.0000000

LOEWDIN ATOMIC CHARGES
----------------------
   0 C :    0.218940
   1 N :   -0.033121
   2 C :   -0.249462
   3 C :    0.164433
   4 N :    0.190324
   5 H :   -0.018288
   6 H :   -0.002226
   7 H :    0.006209
   8 H :   -0.108188
   9 H :   -0.097379
  10 H :   -0.031687
  11 H :   -0.020138
  12 H :   -0.019418

  Mayer bond orders larger than 0.100000
B(  0-C ,  1-N ) :   0.8963 B(  0-C , 10-H ) :   0.7852 B(  0-C , 11-H ) :   0.7405
B(  0-C , 12-H ) :   0.6998 B(  1-N ,  2-C ) :   1.0508 B(  1-N ,  3-C ) :   0.2335
B(  1-N ,  4-N ) :   0.1048 B(  1-N ,  7-H ) :   1.1405 B(  1-N , 10-H ) :   0.1477
B(  1-N , 11-H ) :   0.1797 B(  1-N , 12-H ) :   0.2159 B(  2-C ,  3-C ) :   1.6948
B(  2-C ,  4-N ) :   0.9861 B(  2-C ,  8-H ) :   0.2782 B(  2-C ,  9-H ) :   0.1214
B(  3-C ,  4-N ) :   0.2465 B(  3-C ,  8-H ) :   0.5016 B(  3-C ,  9-H ) :   0.8299
B(  4-N ,  5-H ) :   0.9670 B(  4-N ,  6-H ) :   0.9919 B(  8-H ,  9-H ) :   0.1714

Dispersion correction           -0.015790951
FINAL SINGLE POINT ENERGY      -228.306148379405

DIPOLE MOMENT
-------------
                                X             Y             Z
Electronic contribution:      1.53513       0.09918      -2.36597
Nuclear contribution   :     -0.87840       0.81693       2.92070
                        -----------------------------------------
Total Dipole Moment    :      0.65673       0.91611       0.55473
                        -----------------------------------------
Magnitude (a.u.)       :      1.25630
Magnitude (Debye)      :      3.19325

Rotational constants in cm-1:     0.323282     0.134248     0.100848
Rotational constants in MHz :  9691.753357  4024.663509  3023.338831

                             ****ORCA TERMINATED NORMALLY****
TOTAL RUN TIME: 0 days 0 hours 0 minutes 14 seconds 661 msec
