                         Program Version 5.0.0 -  RELEASE  -
|  1> !B3LYP D3BJ RIJCOSX def2-SVPD def2/J TightSCF
|  2> *xyz 0 1
|  3> C          2.23447       -2.98975       -2.39762
|  4> N          2.75680       -2.94555       -3.76503
|  5> C          1.98721       -2.59045       -4.81898
|  6> N          0.74322       -3.01749       -4.91352
|  7> C          2.49964       -1.84860       -5.80324
|  8> H          3.30978       -1.29282       -5.55895
|  9> H          1.80103       -1.30430       -6.28913
| 10> H          3.71612       -2.62880       -3.82953
| 11> H          0.39583       -3.62775       -4.18502
| 12> H          0.03920       -2.45438       -5.37137
| 13> H          1.22098       -3.33251       -2.41386
| 14> H          2.27280       -2.00995       -1.96933
| 15> H          2.82798       -3.65908       -1.81056
| 16> *
| 17>
| 18> %MaxCore 64000
| 19>
| 20> %pal nprocs 4
| 21> end
| 22>
| 23> %scf
| 24>   MaxIter 150
| 25> end
| 26>
| 27>
| 28>                          ****END OF INPUT****

CARTESIAN COORDINATES (ANGSTROEM)
---------------------------------
  C      2.234470   -2.989750   -2.397620
  N      2.756800   -2.945550   -3.765030
  C      1.987210   -2.590450   -4.818980
  N      0.743220   -3.017490   -4.913520
  C      2.499640   -1.848600   -5.803240
  H      3.309780   -1.292820   -5.558950
  H      1.801030   -1.304300   -6.289130
  H      3.716120   -2.628800   -3.829530
  H      0.395830   -3.627750   -4.185020
  H      0.039200   -2.454380   -5.371370
  H      1.220980   -3.332510   -2.413860
  H      2.272800   -2.009950   -1.969330
  H      2.827980   -3.659080   -1.810560

 Total Charge           Charge          ....    0
 Multiplicity           Mult            ....    1
 Number of Electrons    NEL             ....   40
 Basis Dimension        Dim             ....  164

ORBITAL ENERGIES
----------------

  NO   OCC          E(Eh)            E(eV)
   0   2.0000     -14.334870      -390.0716
   1   2.0000     -14.332703      -390.0127
   2   2.0000     -10.232537      -278.4415
   3   2.0000     -10.217437      -278.0306
   4   2.0000     -10.098098      -274.7832
   5   2.0000      -0.961895       -26.1745
   6   2.0000      -0.879348       -23.9283
   7   2.0000      -0.736740       -20.0477
   8   2.0000      -0.668441       -18.1892
   9   2.0000      -0.600716       -16.3463
  10   2.0000      -0.540055       -14.6957
  11   2.0000      -0.492606       -13.4045
  12   2.0000      -0.483071       -13.1450
  13   2.0000      -0.450378       -12.2554
  14   2.0000      -0.408777       -11.1234
  15   2.0000      -0.392933       -10.6922
  16   2.0000      -0.371020       -10.0960
  17   2.0000      -0.361627        -9.8404
  18   2.0000      -0.257279        -7.0009
  19   2.0000      -0.173261        -4.7147
  20   0.0000       0.008715         0.2372
  21   0.0000       0.036712         0.9990
  22   0.0000       0.044811         1.2194
  23   0.0000       0.057943         1.5767
  24   0.0000       0.078644         2.1400

MULLIKEN ATOMIC CHARGES
-----------------------
   0 C :    1.408176
   1 N :   -0.528109
   2 C :    0.247929
   3 N :    0.296792
   4 C :    0.610811
   5 H :   -0.243548
   6 H :   -0.503520
   7 H :   -0.199499
   8 H :   -0.170927
   9 H :   -0.131380
  10 H :   -0.302115
  11 H :   -0.173188
  12 H :   -0.311422
Sum of atomic charges:    0.0000000

LOEWDIN ATOMIC CHARGES
----------------------
   0 C :    0.212862
   1 N :   -0.030119
   2 C :   -0.243878
   3 N :    0.199842
   4 C :    0.148126
   5 H :   -0.110318
   6 H :   -0.110420
   7 H :    0.020899
   8 H :   -0.021494
   9 H :    0.010638
  10 H :   -0.036870
  11 H :   -0.019607
  12 H :   -0.019661

  Mayer bond orders larger than 0.100000
B(  0-C ,  1-N ) :   0.8949 B(  0-C , 10-H ) :   0.7576 B(  0-C , 11-H ) :   0.7485
B(  0-C , 12-H ) :   0.7096 B(  1-N ,  2-C ) :   1.0615 B(  1-N ,  4-C ) :   0.1708
B(  1-N ,  7-H ) :   1.1677 B(  1-N , 10-H ) :   0.1528 B(  1-N , 11-H ) :   0.1319
B(  1-N , 12-H ) :   0.2249 B(  2-C ,  3-N ) :   1.0992 B(  2-C ,  4-C ) :   1.8473
B(  2-C ,  5-H ) :   0.2424 B(  2-C ,  6-H ) :   0.2677 B(  2-C ,  7-H ) :  -0.1128
B(  3-N ,  4-C ) :   0.2171 B(  3-N ,  8-H ) :   1.0082 B(  3-N ,  9-H ) :   1.1618
B(  4-C ,  5-H ) :   0.6956 B(  4-C ,  6-H ) :   0.6325 B(  5-H ,  6-H ) :   0.2893
B(  8-H ,  9-H ) :  -0.1522

Dispersion correction           -0.015722323
FINAL SINGLE POINT ENERGY      -228.301409863109

DIPOLE MOMENT
-------------
                                X             Y             Z
Electronic contribution:     -0.07913      -1.04870      -1.50097
Nuclear contribution   :     -0.52265       1.05368       2.74049
                        -----------------------------------------
Total Dipole Moment    :     -0.60177       0.00498       1.23952
                        -----------------------------------------
Magnitude (a.u.)       :      1.37789
Magnitude (Debye)      :      3.50231

Rotational constants in cm-1:     0.310125     0.138772     0.101978
Rotational constants in MHz :  9297.312912  4160.277024  3057.230514

                             ****ORCA TERMINATED NORMALLY****
TOTAL RUN TIME: 0 days 0 hours 0 minutes 14 seconds 856 msec
