                         Program Version 5.0.0 -  RELEASE  -
|  1> !B3LYP D3BJ RIJCOSX def2-SVPD def2/J TightSCF xyzfile
|  2>
|  3> *xyzfile 0 1 D4.xyz
|  4>
|  5> %MaxCore 64000
|  6>
|  7> %pal nprocs 4
|  8> end
|  9>
| 10> %scf
| 11>   MaxIter 150
| 12> end
| 13>
| 14>
| 15>                          ****END OF INPUT****

CARTESIAN COORDINATES (ANGSTROEM)
---------------------------------
  C      2.234473   -2.989754   -2.397622
  C      2.756799   -2.945553   -3.765029
  C     -1.104325    0.251374   -2.860056
  C     -0.711893    0.842517   -4.218344
  H      0.154626    1.499800   -4.130909
  H     -1.538134    1.459222   -4.582671
  C     -0.397624   -0.205875   -5.288018
  C      1.987208   -2.590451   -4.818975
  N      0.743221   -3.017493   -4.913524
  N      2.499636   -1.848598   -5.803241
  H      3.309780   -1.292818   -5.558947
  H      1.801025   -1.304298   -6.289129
  H      3.716116   -2.628797   -3.829533
  H      0.395828   -3.627747   -4.185024
  H      0.039201   -2.454383   -5.371367
  O      0.617165   -0.005348   -5.998273
  F     -1.133173   -1.221380   -5.341465
  C      2.191199   -1.619503   -1.715492
  H      2.872783   -3.666368   -1.828014
  H      1.246188   -3.447444   -2.407842
  C      1.298729   -0.554314   -2.359773
  H      1.872917   -1.787955   -0.681310
  H      3.216809   -1.238432   -1.654428
  C     -0.196255   -0.863365   -2.325763
  H      1.612531   -0.371346   -3.393065
  H      1.480944    0.388638   -1.834444
  H     -0.404105   -1.761825   -2.909448
  H     -0.490439   -1.087880   -1.294131
  H     -1.143842    1.066711   -2.129680
  H     -2.114401   -0.156834   -2.930323

 Total Charge           Charge          ....    0
 Multiplicity           Mult            ....    1
 Number of Electrons    NEL             ....  102
 Basis Dimension        Dim             ....  402

ORBITAL ENERGIES
----------------

  NO   OCC          E(Eh)            E(eV)
   0   2.0000     -24.804955      -674.9771
   1   2.0000     -19.179959      -521.9132
   2   2.0000     -14.321905      -389.7189
   3   2.0000     -14.305382      -389.2692
   4   2.0000     -10.392950      -282.8066
   5   2.0000     -10.227627      -278.3079
   6   2.0000     -10.218919      -278.0709
   7   2.0000     -10.206453      -277.7317
   8   2.0000     -10.187857      -277.2257
   9   2.0000     -10.177138      -276.9340
  10   2.0000     -10.165649      -276.6214
  11   2.0000     -10.156298      -276.3669
  12   2.0000     -10.098004      -274.7807
  13   2.0000      -1.345505       -36.6130
  14   2.0000      -1.060693       -28.8629
  15   2.0000      -0.948355       -25.8060
  16   2.0000      -0.855738       -23.2858
  17   2.0000      -0.828366       -22.5410
  18   2.0000      -0.784467       -21.3464
  19   2.0000      -0.748024       -20.3548
  20   2.0000      -0.704031       -19.1577
  21   2.0000      -0.687353       -18.7038
  22   2.0000      -0.653376       -17.7793
  23   2.0000      -0.612937       -16.6789
  24   2.0000      -0.599465       -16.3123
  25   2.0000      -0.583164       -15.8687
  26   2.0000      -0.572649       -15.5826
  27   2.0000      -0.560009       -15.2386
  28   2.0000      -0.526967       -14.3395
  29   2.0000      -0.517851       -14.0915
  30   2.0000      -0.489910       -13.3311
  31   2.0000      -0.484485       -13.1835
  32   2.0000      -0.476747       -12.9729
  33   2.0000      -0.454491       -12.3673
  34   2.0000      -0.442827       -12.0499
  35   2.0000      -0.439967       -11.9721
  36   2.0000      -0.432027       -11.7560
  37   2.0000      -0.406798       -11.0695
  38   2.0000      -0.400539       -10.8992
  39   2.0000      -0.394910       -10.7461
  40   2.0000      -0.386914       -10.5285
  41   2.0000      -0.365507        -9.9460
  42   2.0000      -0.361778        -9.8445
  43   2.0000      -0.349153        -9.5009
  44   2.0000      -0.340970        -9.2783
  45   2.0000      -0.328116        -8.9285
  46   2.0000      -0.320397        -8.7184
  47   2.0000      -0.310709        -8.4548
  48   2.0000      -0.308572        -8.3967
  49   2.0000      -0.258424        -7.0321
  50   2.0000      -0.150904        -4.1063
  51   0.0000      -0.062435        -1.6989
  52   0.0000       0.000919         0.0250
  53   0.0000       0.024813         0.6752
  54   0.0000       0.031182         0.8485
  55   0.0000       0.033404         0.9090

MULLIKEN ATOMIC CHARGES
-----------------------
   0 C :    0.499222
   1 C :   -0.053222
   2 C :    0.716310
   3 C :    0.362031
   4 H :    0.118394
   5 H :   -0.341120
   6 C :    0.612220
   7 C :    0.266675
   8 N :    0.383640
   9 N :    0.180872
  10 H :    0.079290
  11 H :   -0.201579
  12 H :   -0.265005
  13 H :    0.023317
  14 H :   -0.496155
  15 O :   -0.462999
  16 F :   -0.468500
  17 C :    0.617126
  18 H :   -0.262873
  19 H :   -0.244290
  20 C :    0.154258
  21 H :   -0.103121
  22 H :   -0.176208
  23 C :    0.170508
  24 H :   -0.209367
  25 H :   -0.208079
  26 H :   -0.266798
  27 H :   -0.193121
  28 H :   -0.186504
  29 H :   -0.044924
Sum of atomic charges:    0.0000000

LOEWDIN ATOMIC CHARGES
----------------------
   0 C :   -0.057732
   1 C :   -0.010569
   2 C :   -0.014292
   3 C :    0.069403
   4 H :    0.034987
   5 H :    0.037648
   6 C :    0.025857
   7 C :   -0.223838
   8 N :    0.234084
   9 N :    0.220944
  10 H :    0.006655
  11 H :   -0.093059
  12 H :   -0.061334
  13 H :    0.000130
  14 H :   -0.071604
  15 O :   -0.121056
  16 F :   -0.029019
  17 C :   -0.017188
  18 H :    0.006827
  19 H :   -0.013345
  20 C :   -0.018586
  21 H :    0.012963
  22 H :    0.019772
  23 C :   -0.021269
  24 H :    0.001805
  25 H :    0.021788
  26 H :   -0.012200
  27 H :    0.026917
  28 H :    0.025222
  29 H :    0.020091

  Mayer bond orders larger than 0.100000
B(  0-C ,  1-C ) :   1.1722 B(  0-C ,  7-C ) :   0.1487 B(  0-C , 12-H ) :   0.4036
B(  0-C , 17-C ) :   1.1172 B(  0-C , 18-H ) :   0.6289 B(  0-C , 19-H ) :   0.6961
B(  0-C , 21-H ) :   0.2386 B(  0-C , 22-H ) :   0.2119 B(  1-C ,  7-C ) :   1.4960
B(  1-C ,  8-N ) :   0.1474 B(  1-C ,  9-N ) :   0.3309 B(  1-C , 12-H ) :   0.4439
B(  1-C , 18-H ) :   0.2468 B(  1-C , 19-H ) :   0.2457 B(  2-C ,  3-C ) :   1.1360
B(  2-C ,  4-H ) :   0.1087 B(  2-C ,  5-H ) :   0.1909 B(  2-C , 23-C ) :   1.2138
B(  2-C , 26-H ) :   0.1189 B(  2-C , 28-H ) :   0.7239 B(  2-C , 29-H ) :   0.5724
B(  3-C ,  4-H ) :   0.7935 B(  3-C ,  5-H ) :   0.6913 B(  3-C ,  6-C ) :   1.1599
B(  3-C , 23-C ) :   0.1182 B(  3-C , 28-H ) :   0.1659 B(  3-C , 29-H ) :   0.1121
B(  4-H ,  5-H ) :  -0.1174 B(  4-H ,  6-C ) :   0.2284 B(  5-H ,  6-C ) :   0.2148
B(  6-C , 15-O ) :   1.6765 B(  6-C , 16-F ) :   0.5795 B(  7-C ,  8-N ) :   1.0568
B(  7-C ,  9-N ) :   0.9048 B(  7-C , 11-H ) :   0.1422 B(  7-C , 12-H ) :   0.4065
B(  8-N ,  9-N ) :   0.1196 B(  8-N , 13-H ) :   0.9040 B(  8-N , 14-H ) :   1.1227
B(  9-N , 10-H ) :   0.8610 B(  9-N , 11-H ) :   0.7994 B( 11-H , 12-H ) :   0.1002
B( 11-H , 15-O ) :   0.1184 B( 13-H , 14-H ) :  -0.2194 B( 17-C , 18-H ) :   0.1241
B( 17-C , 19-H ) :   0.1421 B( 17-C , 20-C ) :   1.2150 B( 17-C , 21-H ) :   0.7010
B( 17-C , 22-H ) :   0.5982 B( 17-C , 24-H ) :   0.1285 B( 20-C , 21-H ) :   0.1805
B( 20-C , 22-H ) :   0.3221 B( 20-C , 23-C ) :   1.2618 B( 20-C , 24-H ) :   0.8408
B( 20-C , 25-H ) :   0.7002 B( 20-C , 26-H ) :   0.1669 B( 20-C , 27-H ) :   0.2391
B( 21-H , 22-H ) :  -0.1619 B( 23-C , 24-H ) :   0.1692 B( 23-C , 25-H ) :   0.2265
B( 23-C , 26-H ) :   0.8329 B( 23-C , 27-H ) :   0.6954 B( 23-C , 28-H ) :   0.1911
B( 23-C , 29-H ) :   0.2944 B( 28-H , 29-H ) :  -0.1494

Dispersion correction           -0.057308221
FINAL SINGLE POINT ENERGY      -636.968312736138

DIPOLE MOMENT
-------------
                                X             Y             Z
Electronic contribution:     -5.99074       0.20084     -13.41436
Nuclear contribution   :      4.38568       1.15960      13.97148
                        -----------------------------------------
Total Dipole Moment    :     -1.60506       1.36044       0.55711
                        -----------------------------------------
Magnitude (a.u.)       :      2.17656
Magnitude (Debye)      :      5.53237

Rotational constants in cm-1:     0.032892     0.023844     0.017123
Rotational constants in MHz :   986.091711   714.821905   513.334630

                             ****ORCA TERMINATED NORMALLY****
TOTAL RUN TIME: 0 days 0 hours 2 minutes 29 seconds 154 msec
