                         Program Version 5.0.0 -  RELEASE  -
|  1> !B3LYP D3BJ RIJCOSX def2-SVPD def2/J TightSCF xyzfile
|  2>
|  3> *xyzfile 0 1 D5.xyz
|  4>
|  5> %MaxCore 64000
|  6>
|  7> %pal nprocs 4
|  8> end
|  9>
| 10> %scf
| 11>   MaxIter 150
| 12> end
| 13>
| 14>
| 15>                          ****END OF INPUT****

CARTESIAN COORDINATES (ANGSTROEM)
---------------------------------
  C      2.234473   -2.989754   -2.397622
  N      2.756799   -2.945553   -3.765029
  C     -1.104325    0.251374   -2.860056
  C     -0.711893    0.842517   -4.218344
  H      0.154626    1.499800   -4.130909
  H     -1.538134    1.459222   -4.582671
  C     -0.397624   -0.205875   -5.288018
  C      1.987208   -2.590451   -4.818975
  C      0.743221   -3.017493   -4.913524
  N      2.499636   -1.848598   -5.803241
  H      3.309780   -1.292818   -5.558947
  H      1.801025   -1.304298   -6.289129
  H      3.716116   -2.628797   -3.829533
  H      0.395828   -3.627747   -4.185024
  H      0.039201   -2.454383   -5.371367
  O      0.617165   -0.005348   -5.998273
  F     -1.133173   -1.221380   -5.341465
  C      2.191199   -1.619503   -1.715492
  H      2.872783   -3.666368   -1.828014
  H      1.246188   -3.447444   -2.407842
  C      1.298729   -0.554314   -2.359773
  H      1.872917   -1.787955   -0.681310
  H      3.216809   -1.238432   -1.654428
  C     -0.196255   -0.863365   -2.325763
  H      1.612531   -0.371346   -3.393065
  H      1.480944    0.388638   -1.834444
  H     -0.404105   -1.761825   -2.909448
  H     -0.490439   -1.087880   -1.294131
  H     -1.143842    1.066711   -2.129680
  H     -2.114401   -0.156834   -2.930323

 Total Charge           Charge          ....    0
 Multiplicity           Mult            ....    1
 Number of Electrons    NEL             ....  102
 Basis Dimension        Dim             ....  402

ORBITAL ENERGIES
----------------

  NO   OCC          E(Eh)            E(eV)
   0   2.0000     -24.776986      -674.2161
   1   2.0000     -19.163110      -521.4547
   2   2.0000     -14.323886      -389.7728
   3   2.0000     -14.304776      -389.2528
   4   2.0000     -10.377788      -282.3940
   5   2.0000     -10.218626      -278.0629
   6   2.0000     -10.216770      -278.0124
   7   2.0000     -10.211955      -277.8814
   8   2.0000     -10.200858      -277.5794
   9   2.0000     -10.184495      -277.1342
  10   2.0000     -10.183978      -277.1201
  11   2.0000     -10.183670      -277.1118
  12   2.0000     -10.088516      -274.5225
  13   2.0000      -1.319009       -35.8920
  14   2.0000      -1.044198       -28.4141
  15   2.0000      -0.947173       -25.7739
  16   2.0000      -0.867191       -23.5975
  17   2.0000      -0.821449       -22.3528
  18   2.0000      -0.779565       -21.2130
  19   2.0000      -0.729970       -19.8635
  20   2.0000      -0.700885       -19.0720
  21   2.0000      -0.684723       -18.6323
  22   2.0000      -0.661449       -17.9989
  23   2.0000      -0.616185       -16.7673
  24   2.0000      -0.585745       -15.9389
  25   2.0000      -0.572322       -15.5737
  26   2.0000      -0.555193       -15.1076
  27   2.0000      -0.542555       -14.7637
  28   2.0000      -0.529425       -14.4064
  29   2.0000      -0.516892       -14.0653
  30   2.0000      -0.487997       -13.2791
  31   2.0000      -0.481968       -13.1150
  32   2.0000      -0.474629       -12.9153
  33   2.0000      -0.452282       -12.3072
  34   2.0000      -0.444851       -12.1050
  35   2.0000      -0.424603       -11.5540
  36   2.0000      -0.418634       -11.3916
  37   2.0000      -0.412204       -11.2166
  38   2.0000      -0.395580       -10.7643
  39   2.0000      -0.389171       -10.5899
  40   2.0000      -0.379262       -10.3203
  41   2.0000      -0.373445       -10.1620
  42   2.0000      -0.361454        -9.8357
  43   2.0000      -0.360464        -9.8087
  44   2.0000      -0.344260        -9.3678
  45   2.0000      -0.333291        -9.0693
  46   2.0000      -0.331230        -9.0132
  47   2.0000      -0.323781        -8.8105
  48   2.0000      -0.304989        -8.2992
  49   2.0000      -0.240082        -6.5330
  50   2.0000      -0.167014        -4.5447
  51   0.0000      -0.046503        -1.2654
  52   0.0000       0.007577         0.2062
  53   0.0000       0.019710         0.5363
  54   0.0000       0.029634         0.8064
  55   0.0000       0.038749         1.0544

MULLIKEN ATOMIC CHARGES
-----------------------
   0 C :    0.991020
   1 N :   -0.313159
   2 C :    0.736349
   3 C :    0.349713
   4 H :    0.091547
   5 H :   -0.348416
   6 C :    0.563020
   7 C :    0.411987
   8 C :    0.888209
   9 N :    0.225962
  10 H :    0.009952
  11 H :   -0.199764
  12 H :   -0.246954
  13 H :   -0.121897
  14 H :   -0.867654
  15 O :   -0.477536
  16 F :   -0.520550
  17 C :    0.534076
  18 H :   -0.477208
  19 H :   -0.077677
  20 C :    0.166636
  21 H :   -0.068783
  22 H :   -0.170633
  23 C :    0.090900
  24 H :   -0.268649
  25 H :   -0.240422
  26 H :   -0.235881
  27 H :   -0.201405
  28 H :   -0.188257
  29 H :   -0.034524
Sum of atomic charges:    0.0000000

LOEWDIN ATOMIC CHARGES
----------------------
   0 C :    0.061946
   1 N :    0.006926
   2 C :   -0.012657
   3 C :    0.067827
   4 H :    0.032113
   5 H :    0.036479
   6 C :    0.028540
   7 C :   -0.228971
   8 C :    0.182594
   9 N :    0.217466
  10 H :   -0.010873
  11 H :   -0.082191
  12 H :    0.010386
  13 H :   -0.093033
  14 H :   -0.141665
  15 O :   -0.128332
  16 F :   -0.036723
  17 C :   -0.010629
  18 H :    0.014694
  19 H :    0.002687
  20 C :   -0.017940
  21 H :    0.018024
  22 H :    0.015450
  23 C :   -0.018320
  24 H :    0.001606
  25 H :    0.022442
  26 H :   -0.007534
  27 H :    0.025183
  28 H :    0.023049
  29 H :    0.021459

  Mayer bond orders larger than 0.100000
B(  0-C ,  1-N ) :   0.9405 B(  0-C ,  8-C ) :   0.1051 B(  0-C , 17-C ) :   1.0679
B(  0-C , 18-H ) :   0.6820 B(  0-C , 19-H ) :   0.7235 B(  0-C , 21-H ) :   0.1830
B(  0-C , 22-H ) :   0.1351 B(  1-N ,  7-C ) :   1.0279 B(  1-N ,  8-C ) :   0.3253
B(  1-N ,  9-N ) :   0.1590 B(  1-N , 12-H ) :   1.0518 B(  1-N , 18-H ) :   0.2294
B(  1-N , 19-H ) :   0.1421 B(  2-C ,  3-C ) :   1.1276 B(  2-C ,  5-H ) :   0.1891
B(  2-C , 23-C ) :   1.2305 B(  2-C , 28-H ) :   0.7154 B(  2-C , 29-H ) :   0.5758
B(  3-C ,  4-H ) :   0.8100 B(  3-C ,  5-H ) :   0.6712 B(  3-C ,  6-C ) :   1.1808
B(  3-C , 23-C ) :   0.1192 B(  3-C , 28-H ) :   0.1714 B(  3-C , 29-H ) :   0.1110
B(  4-H ,  5-H ) :  -0.1160 B(  4-H ,  6-C ) :   0.2373 B(  5-H ,  6-C ) :   0.2318
B(  6-C , 14-H ) :   0.1504 B(  6-C , 15-O ) :   1.6463 B(  6-C , 16-F ) :   0.6255
B(  7-C ,  8-C ) :   1.7351 B(  7-C ,  9-N ) :   0.8326 B(  7-C , 13-H ) :   0.3826
B(  7-C , 14-H ) :   0.1768 B(  8-C ,  9-N ) :   0.2489 B(  8-C , 13-H ) :   0.2614
B(  9-N , 10-H ) :   0.8401 B(  9-N , 11-H ) :   0.9125 B( 11-H , 15-O ) :   0.1161
B( 13-H , 14-H ) :  -0.1028 B( 14-H , 16-F ) :   0.2403 B( 15-O , 16-F ) :   0.1038
B( 17-C , 18-H ) :   0.1243 B( 17-C , 19-H ) :   0.1458 B( 17-C , 20-C ) :   1.2029
B( 17-C , 21-H ) :   0.7353 B( 17-C , 22-H ) :   0.6483 B( 17-C , 24-H ) :   0.1343
B( 18-H , 19-H ) :  -0.1707 B( 20-C , 21-H ) :   0.1996 B( 20-C , 22-H ) :   0.2863
B( 20-C , 23-C ) :   1.2560 B( 20-C , 24-H ) :   0.8510 B( 20-C , 25-H ) :   0.7400
B( 20-C , 26-H ) :   0.1755 B( 20-C , 27-H ) :   0.2631 B( 21-H , 22-H ) :  -0.1344
B( 23-C , 24-H ) :   0.1838 B( 23-C , 25-H ) :   0.2350 B( 23-C , 26-H ) :   0.8713
B( 23-C , 27-H ) :   0.6765 B( 23-C , 28-H ) :   0.1948 B( 23-C , 29-H ) :   0.2894
B( 28-H , 29-H ) :  -0.1534

Dispersion correction           -0.057395307
FINAL SINGLE POINT ENERGY      -636.957927197875

DIPOLE MOMENT
-------------
                                X             Y             Z
Electronic contribution:     -4.36095       0.17967     -12.40571
Nuclear contribution   :      4.07548       1.14852      13.79455
                        -----------------------------------------
Total Dipole Moment    :     -0.28547       1.32819       1.38884
                        -----------------------------------------
Magnitude (a.u.)       :      1.94279
Magnitude (Debye)      :      4.93819

Rotational constants in cm-1:     0.033274     0.023559     0.016968
Rotational constants in MHz :   997.539108   706.293545   508.690532

                             ****ORCA TERMINATED NORMALLY****
TOTAL RUN TIME: 0 days 0 hours 2 minutes 36 seconds 884 msec
