                         Program Version 5.0.0 -  RELEASE  -
|  1> !M062X D3Zero RIJCOSX def2-SVPD def2/J TightSCF
|  2> *xyz -1 1
|  3> C          1.44442        5.26658       -0.97546
|  4> O          1.56525        4.23349       -1.86489
|  5> H          1.76623        6.17572       -1.43893
|  6> H          2.05096        5.07018       -0.11614
|  7> H          0.42160        5.36155       -0.67592
|  8> *
|  9> %MaxCore 64000
| 10>
| 11> %pal nprocs 8
| 12> end
| 13>
| 14> %scf
| 15>   MaxIter 150
| 16> end
| 17>
| 18>
| 19>                          ****END OF INPUT****

CARTESIAN COORDINATES (ANGSTROEM)
---------------------------------
  C      1.444420    5.266580   -0.975460
  O      1.565250    4.233490   -1.864890
  H      1.766230    6.175720   -1.438930
  H      2.050960    5.070180   -0.116140
  H      0.421600    5.361550   -0.675920

 Total Charge           Charge          ....   -1
 Multiplicity           Mult            ....    1
 Number of Electrons    NEL             ....   18
 Basis Dimension        Dim             ....   67

ORBITAL ENERGIES
----------------

  NO   OCC          E(Eh)            E(eV)
   0   2.0000     -19.276908      -524.5513
   1   2.0000     -10.333889      -281.1994
   2   2.0000      -0.756338       -20.5810
   3   2.0000      -0.475630       -12.9426
   4   2.0000      -0.262925        -7.1546
   5   2.0000      -0.262884        -7.1534
   6   2.0000      -0.163483        -4.4486
   7   2.0000      -0.012494        -0.3400
   8   2.0000      -0.012487        -0.3398
   9   0.0000       0.217897         5.9293
  10   0.0000       0.296557         8.0697
  11   0.0000       0.296564         8.0699
  12   0.0000       0.304771         8.2932
  13   0.0000       0.338969         9.2238

MULLIKEN ATOMIC CHARGES
-----------------------
   0 C :    0.762093
   1 O :   -1.038860
   2 H :   -0.241639
   3 H :   -0.241223
   4 H :   -0.240372
Sum of atomic charges:   -1.0000000

LOEWDIN ATOMIC CHARGES
----------------------
   0 C :   -0.108897
   1 O :   -0.662217
   2 H :   -0.076250
   3 H :   -0.076319
   4 H :   -0.076316

  Mayer bond orders larger than 0.100000
B(  0-C ,  1-O ) :   1.1849 B(  0-C ,  2-H ) :   0.9214 B(  0-C ,  3-H ) :   0.9206
B(  0-C ,  4-H ) :   0.9198

Dispersion correction           -0.000000439
FINAL SINGLE POINT ENERGY      -114.953698031466

DIPOLE MOMENT
-------------
                                X             Y             Z
Electronic contribution:      0.16372      -1.40211      -1.20758
Nuclear contribution   :     -0.25440       2.17514       1.87266
                        -----------------------------------------
Total Dipole Moment    :     -0.09068       0.77303       0.66508
                        -----------------------------------------
Magnitude (a.u.)       :      1.02378
Magnitude (Debye)      :      2.60224

Rotational constants in cm-1:     5.477715     0.940444     0.940443
Rotational constants in MHz : 164217.753846 28193.799011 28193.774483

                             ****ORCA TERMINATED NORMALLY****
TOTAL RUN TIME: 0 days 0 hours 0 minutes 3 seconds 188 msec
