                         Program Version 5.0.0 -  RELEASE  -
|  1> !M062X D3Zero RIJCOSX def2-SVPD def2/J TightSCF
|  2> *xyz 1 1
|  3> C         -0.70169        4.07250       -4.00392
|  4> N          0.68053        4.61482       -4.04800
|  5> H          0.69993        5.58489       -4.38827
|  6> H          1.27804        4.05598       -4.66824
|  7> H          1.08573        4.53358       -3.10652
|  8> H         -1.14500        4.14653       -4.97495
|  9> H         -1.28296        4.63405       -3.30271
| 10> H         -0.67274        3.04629       -3.70235
| 11> *
| 12> %MaxCore 64000
| 13>
| 14> %pal nprocs 8
| 15> end
| 16>
| 17> %scf
| 18>   MaxIter 150
| 19> end
| 20>
| 21>
| 22>                          ****END OF INPUT****

CARTESIAN COORDINATES (ANGSTROEM)
---------------------------------
  C     -0.701690    4.072500   -4.003920
  N      0.680530    4.614820   -4.048000
  H      0.699930    5.584890   -4.388270
  H      1.278040    4.055980   -4.668240
  H      1.085730    4.533580   -3.106520
  H     -1.145000    4.146530   -4.974950
  H     -1.282960    4.634050   -3.302710
  H     -0.672740    3.046290   -3.702350

 Total Charge           Charge          ....    1
 Multiplicity           Mult            ....    1
 Number of Electrons    NEL             ....   18
 Basis Dimension        Dim             ....   88

ORBITAL ENERGIES
----------------

  NO   OCC          E(Eh)            E(eV)
   0   2.0000     -15.110727      -411.1838
   1   2.0000     -10.810201      -294.1605
   2   2.0000      -1.324120       -36.0311
   3   2.0000      -1.023573       -27.8528
   4   2.0000      -0.890972       -24.2446
   5   2.0000      -0.880793       -23.9676
   6   2.0000      -0.782296       -21.2874
   7   2.0000      -0.693531       -18.8719
   8   2.0000      -0.691749       -18.8234
   9   0.0000      -0.178540        -4.8583
  10   0.0000      -0.109978        -2.9927
  11   0.0000      -0.106643        -2.9019
  12   0.0000      -0.106199        -2.8898
  13   0.0000      -0.062234        -1.6935

MULLIKEN ATOMIC CHARGES
-----------------------
   0 C :    0.825704
   1 N :   -0.914329
   2 H :    0.385236
   3 H :    0.381367
   4 H :    0.401827
   5 H :   -0.034454
   6 H :   -0.024201
   7 H :   -0.021150
Sum of atomic charges:    1.0000000

LOEWDIN ATOMIC CHARGES
----------------------
   0 C :    0.286061
   1 N :    0.302618
   2 H :    0.113528
   3 H :    0.109199
   4 H :    0.110675
   5 H :    0.025231
   6 H :    0.026194
   7 H :    0.026495

  Mayer bond orders larger than 0.100000
B(  0-C ,  1-N ) :   0.7966 B(  0-C ,  5-H ) :   0.9226 B(  0-C ,  6-H ) :   0.9110
B(  0-C ,  7-H ) :   0.9066 B(  1-N ,  2-H ) :   0.7544 B(  1-N ,  3-H ) :   0.7661
B(  1-N ,  4-H ) :   0.7376

Dispersion correction           -0.000006176
FINAL SINGLE POINT ENERGY       -96.087461748860

DIPOLE MOMENT
-------------
                                X             Y             Z
Electronic contribution:      1.00802       0.42046      -0.03862
Nuclear contribution   :     -0.21844      -0.13976       0.01729
                        -----------------------------------------
Total Dipole Moment    :      0.78958       0.28070      -0.02133
                        -----------------------------------------
Magnitude (a.u.)       :      0.83826
Magnitude (Debye)      :      2.13070

Rotational constants in cm-1:     2.865765     0.688517     0.685249
Rotational constants in MHz : 85913.460223 20641.211162 20543.252263

                             ****ORCA TERMINATED NORMALLY****
TOTAL RUN TIME: 0 days 0 hours 0 minutes 3 seconds 988 msec
