                         Program Version 5.0.0 -  RELEASE  -
|  1> !M062X D3Zero RIJCOSX def2-SVPD def2/J TightSCF
|  2> *xyz 0 1
|  3> C          1.44442        5.26658       -0.97546
|  4> F          1.56525        4.23349       -1.86489
|  5> H          1.76623        6.17572       -1.43893
|  6> H          2.05096        5.07018       -0.11614
|  7> H          0.42160        5.36155       -0.67592
|  8> *
|  9> %MaxCore 64000
| 10>
| 11> %pal nprocs 8
| 12> end
| 13>
| 14> %scf
| 15>   MaxIter 150
| 16> end
| 17>
| 18>
| 19>                          ****END OF INPUT****

CARTESIAN COORDINATES (ANGSTROEM)
---------------------------------
  C      1.444420    5.266580   -0.975460
  F      1.565250    4.233490   -1.864890
  H      1.766230    6.175720   -1.438930
  H      2.050960    5.070180   -0.116140
  H      0.421600    5.361550   -0.675920

 Total Charge           Charge          ....    0
 Multiplicity           Mult            ....    1
 Number of Electrons    NEL             ....   18
 Basis Dimension        Dim             ....   67

ORBITAL ENERGIES
----------------

  NO   OCC          E(Eh)            E(eV)
   0   2.0000     -25.240420      -686.8267
   1   2.0000     -10.621851      -289.0353
   2   2.0000      -1.318320       -35.8733
   3   2.0000      -0.796737       -21.6803
   4   2.0000      -0.577870       -15.7246
   5   2.0000      -0.577804       -15.7229
   6   2.0000      -0.577731       -15.7209
   7   2.0000      -0.429183       -11.6787
   8   2.0000      -0.429147       -11.6777
   9   0.0000       0.040282         1.0961
  10   0.0000       0.094410         2.5690
  11   0.0000       0.120597         3.2816
  12   0.0000       0.120608         3.2819
  13   0.0000       0.156414         4.2562

MULLIKEN ATOMIC CHARGES
-----------------------
   0 C :    0.804046
   1 F :   -0.513093
   2 H :   -0.097764
   3 H :   -0.097150
   4 H :   -0.096038
Sum of atomic charges:   -0.0000000

LOEWDIN ATOMIC CHARGES
----------------------
   0 C :    0.281223
   1 F :   -0.266812
   2 H :   -0.004786
   3 H :   -0.004816
   4 H :   -0.004809

  Mayer bond orders larger than 0.100000
B(  0-C ,  1-F ) :   0.7936 B(  0-C ,  2-H ) :   0.9560 B(  0-C ,  3-H ) :   0.9556
B(  0-C ,  4-H ) :   0.9540

Dispersion correction           -0.000000620
FINAL SINGLE POINT ENERGY      -139.580635725928

DIPOLE MOMENT
-------------
                                X             Y             Z
Electronic contribution:      0.25694      -2.19914      -1.89369
Nuclear contribution   :     -0.32265       2.75860       2.37499
                        -----------------------------------------
Total Dipole Moment    :     -0.06571       0.55946       0.48130
                        -----------------------------------------
Magnitude (a.u.)       :      0.74092
Magnitude (Debye)      :      1.88327

Rotational constants in cm-1:     5.477715     0.875416     0.875415
Rotational constants in MHz : 164217.753846 26244.308980 26244.287726

                             ****ORCA TERMINATED NORMALLY****
TOTAL RUN TIME: 0 days 0 hours 0 minutes 2 seconds 889 msec
