                         Program Version 5.0.0 -  RELEASE  -
|  1> !M062X D3Zero RIJCOSX def2-SVPD def2/J TightSCF
|  2> *xyz 0 1
|  3> C         -0.70169        4.07250       -4.00392
|  4> C          0.68053        4.61482       -4.04800
|  5> H          0.69993        5.58489       -4.38827
|  6> H          1.27804        4.05598       -4.66824
|  7> H          1.08573        4.53358       -3.10652
|  8> H         -1.14500        4.14653       -4.97495
|  9> H         -1.28296        4.63405       -3.30271
| 10> H         -0.67274        3.04629       -3.70235
| 11> *
| 12> %MaxCore 64000
| 13>
| 14> %pal nprocs 8
| 15> end
| 16>
| 17> %scf
| 18>   MaxIter 150
| 19> end
| 20>
| 21>
| 22>                          ****END OF INPUT****

CARTESIAN COORDINATES (ANGSTROEM)
---------------------------------
  C     -0.701690    4.072500   -4.003920
  C      0.680530    4.614820   -4.048000
  H      0.699930    5.584890   -4.388270
  H      1.278040    4.055980   -4.668240
  H      1.085730    4.533580   -3.106520
  H     -1.145000    4.146530   -4.974950
  H     -1.282960    4.634050   -3.302710
  H     -0.672740    3.046290   -3.702350

 Total Charge           Charge          ....    0
 Multiplicity           Mult            ....    1
 Number of Electrons    NEL             ....   18
 Basis Dimension        Dim             ....   88

ORBITAL ENERGIES
----------------

  NO   OCC          E(Eh)            E(eV)
   0   2.0000     -10.526477      -286.4400
   1   2.0000     -10.513618      -286.0901
   2   2.0000      -0.859430       -23.3863
   3   2.0000      -0.700259       -19.0550
   4   2.0000      -0.521772       -14.1981
   5   2.0000      -0.515519       -14.0280
   6   2.0000      -0.429304       -11.6820
   7   2.0000      -0.410240       -11.1632
   8   2.0000      -0.404482       -11.0065
   9   0.0000       0.045651         1.2422
  10   0.0000       0.075907         2.0655
  11   0.0000       0.128284         3.4908
  12   0.0000       0.129909         3.5350
  13   0.0000       0.148131         4.0308

MULLIKEN ATOMIC CHARGES
-----------------------
   0 C :    0.146815
   1 C :    0.453152
   2 H :   -0.158310
   3 H :   -0.159882
   4 H :   -0.139691
   5 H :   -0.052956
   6 H :   -0.049668
   7 H :   -0.039460
Sum of atomic charges:    0.0000000

LOEWDIN ATOMIC CHARGES
----------------------
   0 C :    0.072307
   1 C :    0.076894
   2 H :   -0.031609
   3 H :   -0.035591
   4 H :   -0.033304
   5 H :   -0.017290
   6 H :   -0.016053
   7 H :   -0.015354

  Mayer bond orders larger than 0.100000
B(  0-C ,  1-C ) :   1.4709 B(  0-C ,  2-H ) :   0.1566 B(  0-C ,  3-H ) :   0.1596
B(  0-C ,  4-H ) :   0.1756 B(  0-C ,  5-H ) :   0.8906 B(  0-C ,  6-H ) :   0.8732
B(  0-C ,  7-H ) :   0.8712 B(  1-C ,  2-H ) :   0.8216 B(  1-C ,  3-H ) :   0.8017
B(  1-C ,  4-H ) :   0.8028 B(  1-C ,  5-H ) :   0.1385 B(  1-C ,  6-H ) :   0.1468
B(  1-C ,  7-H ) :   0.1467

Dispersion correction           -0.000006110
FINAL SINGLE POINT ENERGY       -79.700483746176

DIPOLE MOMENT
-------------
                                X             Y             Z
Electronic contribution:      0.00683       0.04512      -0.01112
Nuclear contribution   :      0.01985      -0.04545       0.00953
                        -----------------------------------------
Total Dipole Moment    :      0.02667      -0.00033      -0.00159
                        -----------------------------------------
Magnitude (a.u.)       :      0.02672
Magnitude (Debye)      :      0.06792

Rotational constants in cm-1:     2.865782     0.718825     0.715264
Rotational constants in MHz : 85913.996449 21549.842906 21443.078705

                             ****ORCA TERMINATED NORMALLY****
TOTAL RUN TIME: 0 days 0 hours 0 minutes 4 seconds 75 msec
