                         Program Version 5.0.0 -  RELEASE  -
|  1> !wB97X-D3 RIJCOSX def2-SVP def2/J TightSCF
|  2> *xyz -1 1
|  3> C          0.61188        1.65763       -4.50029
|  4> C          1.69499        1.54179       -5.57045
|  5> H          2.69733        1.73466       -5.18400
|  6> H          1.50666        2.27224       -6.35808
|  7> S          1.78029       -0.03313       -6.42874
|  8> O          2.56929        0.21366       -7.60736
|  9> O          0.41688       -0.46297       -6.61859
| 10> O          2.50513       -0.93326       -5.48257
| 11> H         -0.34424        1.45871       -4.93752
| 12> H          0.61845        2.64655       -4.09174
| 13> H          0.80247        0.94882       -3.72173
| 14> *
| 15> %MaxCore 64000
| 16>
| 17> %pal nprocs 4
| 18> end
| 19>
| 20> %scf
| 21>   MaxIter 150
| 22> end
| 23>
| 24>
| 25>                          ****END OF INPUT****

CARTESIAN COORDINATES (ANGSTROEM)
---------------------------------
  C      0.611880    1.657630   -4.500290
  C      1.694990    1.541790   -5.570450
  H      2.697330    1.734660   -5.184000
  H      1.506660    2.272240   -6.358080
  S      1.780290   -0.033130   -6.428740
  O      2.569290    0.213660   -7.607360
  O      0.416880   -0.462970   -6.618590
  O      2.505130   -0.933260   -5.482570
  H     -0.344240    1.458710   -4.937520
  H      0.618450    2.646550   -4.091740
  H      0.802470    0.948820   -3.721730

 Total Charge           Charge          ....   -1
 Multiplicity           Mult            ....    1
 Number of Electrons    NEL             ....   58
 Basis Dimension        Dim             ....  113

ORBITAL ENERGIES
----------------

  NO   OCC          E(Eh)            E(eV)
   0   2.0000     -88.937070     -2420.1007
   1   2.0000     -18.992808      -516.8206
   2   2.0000     -18.991133      -516.7750
   3   2.0000     -18.968683      -516.1641
   4   2.0000     -10.141509      -275.9645
   5   2.0000     -10.136387      -275.8251
   6   2.0000      -8.017877      -218.1775
   7   2.0000      -5.976919      -162.6402
   8   2.0000      -5.976680      -162.6337
   9   2.0000      -5.976565      -162.6306
  10   2.0000      -1.020732       -27.7755
  11   2.0000      -0.881754       -23.9937
  12   2.0000      -0.844467       -22.9791
  13   2.0000      -0.735500       -20.0140
  14   2.0000      -0.606423       -16.5016
  15   2.0000      -0.468541       -12.7496
  16   2.0000      -0.412008       -11.2113
  17   2.0000      -0.401234       -10.9181
  18   2.0000      -0.363180        -9.8826
  19   2.0000      -0.342019        -9.3068
  20   2.0000      -0.338072        -9.1994
  21   2.0000      -0.314603        -8.5608
  22   2.0000      -0.299327        -8.1451
  23   2.0000      -0.220810        -6.0085
  24   2.0000      -0.218731        -5.9520
  25   2.0000      -0.186804        -5.0832
  26   2.0000      -0.177219        -4.8224
  27   2.0000      -0.159717        -4.3461
  28   2.0000      -0.127152        -3.4600
  29   0.0000       0.287193         7.8149
  30   0.0000       0.340768         9.2728
  31   0.0000       0.345618         9.4047
  32   0.0000       0.352996         9.6055
  33   0.0000       0.379089        10.3155

MULLIKEN ATOMIC CHARGES
-----------------------
   0 C :   -0.005404
   1 C :   -0.136295
   2 H :    0.021987
   3 H :    0.009807
   4 S :    0.880794
   5 O :   -0.578363
   6 O :   -0.578872
   7 O :   -0.641549
   8 H :    0.024259
   9 H :   -0.017924
  10 H :    0.021560
Sum of atomic charges:   -1.0000000

LOEWDIN ATOMIC CHARGES
----------------------
   0 C :   -0.074475
   1 C :   -0.190875
   2 H :    0.012500
   3 H :    0.005906
   4 S :    1.102130
   5 O :   -0.610603
   6 O :   -0.610687
   7 O :   -0.675563
   8 H :    0.019008
   9 H :    0.003664
  10 H :    0.018995

  Mayer bond orders larger than 0.100000
B(  0-C ,  1-C ) :   1.0508 B(  0-C ,  8-H ) :   0.9692 B(  0-C ,  9-H ) :   0.9677
B(  0-C , 10-H ) :   0.9715 B(  1-C ,  2-H ) :   0.9495 B(  1-C ,  3-H ) :   0.9467
B(  1-C ,  4-S ) :   0.8978 B(  4-S ,  5-O ) :   1.6442 B(  4-S ,  6-O ) :   1.6344
B(  4-S ,  7-O ) :   1.5783

Dispersion correction           -0.002885916
FINAL SINGLE POINT ENERGY      -702.635291789035

DIPOLE MOMENT
-------------
                                X             Y             Z
Electronic contribution:      2.24408      -5.68730      -5.05014
Nuclear contribution   :     -2.69163       7.29476       5.86550
                        -----------------------------------------
Total Dipole Moment    :     -0.44755       1.60746       0.81536
                        -----------------------------------------
Magnitude (a.u.)       :      1.85716
Magnitude (Debye)      :      4.72053

Rotational constants in cm-1:     0.163060     0.082831     0.081111
Rotational constants in MHz :  4888.419330  2483.225008  2431.646841

                             ****ORCA TERMINATED NORMALLY****
TOTAL RUN TIME: 0 days 0 hours 0 minutes 16 seconds 828 msec
