                         Program Version 5.0.0 -  RELEASE  -
|  1> !wB97X-D3 RIJCOSX def2-SVP def2/J TightSCF
|  2> *xyz 1 1
|  3> C          1.96337       -1.74915       -1.89689
|  4> N          2.73849       -2.01517       -3.09711
|  5> C          4.04974       -2.15472       -3.15204
|  6> N          4.65821       -1.98629       -4.31866
|  7> N          4.76423       -2.45444       -2.05049
|  8> H          4.28736       -2.77626       -1.21750
|  9> H          5.75082       -2.65835       -2.12599
| 10> H          2.34518       -1.69027       -3.97145
| 11> H          4.10900       -1.59268       -5.07176
| 12> H          5.64910       -2.15646       -4.42724
| 13> C          2.08852       -0.30091       -1.41520
| 14> H          2.23127       -2.45162       -1.10264
| 15> H          0.93025       -1.97780       -2.15544
| 16> H          1.82118        0.36368       -2.21003
| 17> H          3.09792       -0.11068       -1.11551
| 18> H          1.43391       -0.14382       -0.58352
| 19> *
| 20> %MaxCore 64000
| 21>
| 22> %pal nprocs 4
| 23> end
| 24>
| 25> %scf
| 26>   MaxIter 150
| 27> end
| 28>
| 29>
| 30>                          ****END OF INPUT****

CARTESIAN COORDINATES (ANGSTROEM)
---------------------------------
  C      1.963370   -1.749150   -1.896890
  N      2.738490   -2.015170   -3.097110
  C      4.049740   -2.154720   -3.152040
  N      4.658210   -1.986290   -4.318660
  N      4.764230   -2.454440   -2.050490
  H      4.287360   -2.776260   -1.217500
  H      5.750820   -2.658350   -2.125990
  H      2.345180   -1.690270   -3.971450
  H      4.109000   -1.592680   -5.071760
  H      5.649100   -2.156460   -4.427240
  C      2.088520   -0.300910   -1.415200
  H      2.231270   -2.451620   -1.102640
  H      0.930250   -1.977800   -2.155440
  H      1.821180    0.363680   -2.210030
  H      3.097920   -0.110680   -1.115510
  H      1.433910   -0.143820   -0.583520

 Total Charge           Charge          ....    1
 Multiplicity           Mult            ....    1
 Number of Electrons    NEL             ....   48
 Basis Dimension        Dim             ....  134

ORBITAL ENERGIES
----------------

  NO   OCC          E(Eh)            E(eV)
   0   2.0000     -14.661329      -398.9551
   1   2.0000     -14.658467      -398.8772
   2   2.0000     -14.658287      -398.8723
   3   2.0000     -10.627123      -289.1787
   4   2.0000     -10.495679      -285.6019
   5   2.0000     -10.424167      -283.6560
   6   2.0000      -1.329013       -36.1643
   7   2.0000      -1.214064       -33.0364
   8   2.0000      -1.200051       -32.6550
   9   2.0000      -1.039136       -28.2763
  10   2.0000      -0.946649       -25.7596
  11   2.0000      -0.910033       -24.7633
  12   2.0000      -0.888664       -24.1818
  13   2.0000      -0.847851       -23.0712
  14   2.0000      -0.795275       -21.6405
  15   2.0000      -0.786394       -21.3989
  16   2.0000      -0.759655       -20.6713
  17   2.0000      -0.728490       -19.8232
  18   2.0000      -0.699258       -19.0278
  19   2.0000      -0.661419       -17.9981
  20   2.0000      -0.626521       -17.0485
  21   2.0000      -0.605817       -16.4851
  22   2.0000      -0.571413       -15.5489
  23   2.0000      -0.541482       -14.7345
  24   0.0000      -0.075517        -2.0549
  25   0.0000      -0.052035        -1.4159
  26   0.0000      -0.018114        -0.4929
  27   0.0000      -0.006019        -0.1638
  28   0.0000       0.016948         0.4612

MULLIKEN ATOMIC CHARGES
-----------------------
   0 C :   -0.019522
   1 N :   -0.152318
   2 C :    0.098376
   3 N :   -0.061614
   4 N :   -0.088461
   5 H :    0.182060
   6 H :    0.181461
   7 H :    0.170199
   8 H :    0.182353
   9 H :    0.187873
  10 C :   -0.030363
  11 H :    0.072580
  12 H :    0.091126
  13 H :    0.054841
  14 H :    0.046686
  15 H :    0.084723
Sum of atomic charges:    1.0000000

LOEWDIN ATOMIC CHARGES
----------------------
   0 C :    0.036935
   1 N :    0.023639
   2 C :    0.159502
   3 N :    0.043240
   4 N :    0.031779
   5 H :    0.109903
   6 H :    0.112322
   7 H :    0.105233
   8 H :    0.112162
   9 H :    0.115510
  10 C :   -0.051569
  11 H :    0.035755
  12 H :    0.051649
  13 H :    0.034282
  14 H :    0.029027
  15 H :    0.050631

  Mayer bond orders larger than 0.100000
B(  0-C ,  1-N ) :   0.9212 B(  0-C , 10-C ) :   1.0753 B(  0-C , 11-H ) :   0.9590
B(  0-C , 12-H ) :   0.9527 B(  1-N ,  2-C ) :   1.3752 B(  1-N ,  7-H ) :   0.9091
B(  2-C ,  3-N ) :   1.4025 B(  2-C ,  4-N ) :   1.3839 B(  3-N ,  8-H ) :   0.9223
B(  3-N ,  9-H ) :   0.9240 B(  4-N ,  5-H ) :   0.9220 B(  4-N ,  6-H ) :   0.9258
B( 10-C , 13-H ) :   0.9719 B( 10-C , 14-H ) :   0.9699 B( 10-C , 15-H ) :   0.9674

Dispersion correction           -0.003864095
FINAL SINGLE POINT ENERGY      -284.118972895573

DIPOLE MOMENT
-------------
                                X             Y             Z
Electronic contribution:      3.08406      -2.73593      -3.14093
Nuclear contribution   :     -2.17768       2.37118       2.44574
                        -----------------------------------------
Total Dipole Moment    :      0.90638      -0.36475      -0.69519
                        -----------------------------------------
Magnitude (a.u.)       :      1.19911
Magnitude (Debye)      :      3.04789

Rotational constants in cm-1:     0.215650     0.075183     0.066454
Rotational constants in MHz :  6465.033740  2253.919004  1992.232519

                             ****ORCA TERMINATED NORMALLY****
TOTAL RUN TIME: 0 days 0 hours 0 minutes 26 seconds 232 msec
