                         Program Version 5.0.0 -  RELEASE  -
|  1> !wB97X-D3 RIJCOSX def2-SVP def2/J TightSCF
|  2> *xyz 0 1
|  3> C          0.61188        1.65763       -4.50029
|  4> C          1.69499        1.54179       -5.57045
|  5> H          2.69733        1.73466       -5.18400
|  6> H          1.50666        2.27224       -6.35808
|  7> S          1.78029       -0.03313       -6.42874
|  8> F          2.56929        0.21366       -7.60736
|  9> O          0.41688       -0.46297       -6.61859
| 10> O          2.50513       -0.93326       -5.48257
| 11> H         -0.34424        1.45871       -4.93752
| 12> H          0.61845        2.64655       -4.09174
| 13> H          0.80247        0.94882       -3.72173
| 14> *
| 15> %MaxCore 64000
| 16>
| 17> %pal nprocs 4
| 18> end
| 19>
| 20> %scf
| 21>   MaxIter 150
| 22> end
| 23>
| 24>
| 25>                          ****END OF INPUT****

CARTESIAN COORDINATES (ANGSTROEM)
---------------------------------
  C      0.611880    1.657630   -4.500290
  C      1.694990    1.541790   -5.570450
  H      2.697330    1.734660   -5.184000
  H      1.506660    2.272240   -6.358080
  S      1.780290   -0.033130   -6.428740
  F      2.569290    0.213660   -7.607360
  O      0.416880   -0.462970   -6.618590
  O      2.505130   -0.933260   -5.482570
  H     -0.344240    1.458710   -4.937520
  H      0.618450    2.646550   -4.091740
  H      0.802470    0.948820   -3.721730

 Total Charge           Charge          ....    0
 Multiplicity           Mult            ....    1
 Number of Electrons    NEL             ....   58
 Basis Dimension        Dim             ....  113

ORBITAL ENERGIES
----------------

  NO   OCC          E(Eh)            E(eV)
   0   2.0000     -89.212461     -2427.5945
   1   2.0000     -24.909772      -677.8294
   2   2.0000     -19.244657      -523.6738
   3   2.0000     -19.222363      -523.0671
   4   2.0000     -10.348939      -281.6089
   5   2.0000     -10.309405      -280.5332
   6   2.0000      -8.295680      -225.7369
   7   2.0000      -6.258802      -170.3107
   8   2.0000      -6.252140      -170.1294
   9   2.0000      -6.250994      -170.0982
  10   2.0000      -1.491107       -40.5751
  11   2.0000      -1.213979       -33.0341
  12   2.0000      -1.100774       -29.9536
  13   2.0000      -0.935000       -25.4426
  14   2.0000      -0.843858       -22.9625
  15   2.0000      -0.783367       -21.3165
  16   2.0000      -0.692132       -18.8339
  17   2.0000      -0.691093       -18.8056
  18   2.0000      -0.654311       -17.8047
  19   2.0000      -0.596685       -16.2366
  20   2.0000      -0.579324       -15.7642
  21   2.0000      -0.531585       -14.4652
  22   2.0000      -0.528266       -14.3749
  23   2.0000      -0.505817       -13.7640
  24   2.0000      -0.484192       -13.1755
  25   2.0000      -0.473701       -12.8901
  26   2.0000      -0.421282       -11.4637
  27   2.0000      -0.400953       -10.9105
  28   2.0000      -0.386110       -10.5066
  29   0.0000       0.122576         3.3355
  30   0.0000       0.130122         3.5408
  31   0.0000       0.168077         4.5736
  32   0.0000       0.170940         4.6515
  33   0.0000       0.183667         4.9978

MULLIKEN ATOMIC CHARGES
-----------------------
   0 C :   -0.018617
   1 C :   -0.173570
   2 H :    0.090869
   3 H :    0.071472
   4 S :    0.957570
   5 F :   -0.171036
   6 O :   -0.441060
   7 O :   -0.500487
   8 H :    0.064289
   9 H :    0.054406
  10 H :    0.066162
Sum of atomic charges:    0.0000000

LOEWDIN ATOMIC CHARGES
----------------------
   0 C :   -0.047886
   1 C :   -0.155717
   2 H :    0.041061
   3 H :    0.030697
   4 S :    1.161569
   5 F :   -0.114604
   6 O :   -0.482676
   7 O :   -0.545081
   8 H :    0.036481
   9 H :    0.038029
  10 H :    0.038128

  Mayer bond orders larger than 0.100000
B(  0-C ,  1-C ) :   1.0607 B(  0-C ,  8-H ) :   0.9699 B(  0-C ,  9-H ) :   0.9671
B(  0-C , 10-H ) :   0.9741 B(  1-C ,  2-H ) :   0.9356 B(  1-C ,  3-H ) :   0.9344
B(  1-C ,  4-S ) :   0.9224 B(  4-S ,  5-F ) :   1.0289 B(  4-S ,  6-O ) :   1.7849
B(  4-S ,  7-O ) :   1.7307

Dispersion correction           -0.002888223
FINAL SINGLE POINT ENERGY      -727.132767617444

DIPOLE MOMENT
-------------
                                X             Y             Z
Electronic contribution:      3.88047      -5.63890      -7.58468
Nuclear contribution   :     -3.66946       7.33549       7.42434
                        -----------------------------------------
Total Dipole Moment    :      0.21101       1.69659      -0.16034
                        -----------------------------------------
Magnitude (a.u.)       :      1.71716
Magnitude (Debye)      :      4.36468

Rotational constants in cm-1:     0.158379     0.080294     0.077843
Rotational constants in MHz :  4748.076444  2407.152850  2333.668303

                             ****ORCA TERMINATED NORMALLY****
TOTAL RUN TIME: 0 days 0 hours 0 minutes 20 seconds 495 msec
