                         Program Version 5.0.0 -  RELEASE  -
|  1> !wB97X-D3 RIJCOSX def2-SVP def2/J TightSCF
|  2> *xyz 0 1
|  3> C          1.96337       -1.74915       -1.89689
|  4> C          2.73849       -2.01517       -3.09711
|  5> C          4.04974       -2.15472       -3.15204
|  6> N          4.65821       -1.98629       -4.31866
|  7> N          4.76423       -2.45444       -2.05049
|  8> H          4.28736       -2.77626       -1.21750
|  9> H          5.75082       -2.65835       -2.12599
| 10> H          2.34518       -1.69027       -3.97145
| 11> H          4.10900       -1.59268       -5.07176
| 12> H          5.64910       -2.15646       -4.42724
| 13> C          2.08852       -0.30091       -1.41520
| 14> H          2.23127       -2.45162       -1.10264
| 15> H          0.93025       -1.97780       -2.15544
| 16> H          1.82118        0.36368       -2.21003
| 17> H          3.09792       -0.11068       -1.11551
| 18> H          1.43391       -0.14382       -0.58352
| 19> *
| 20> %MaxCore 64000
| 21>
| 22> %pal nprocs 4
| 23> end
| 24>
| 25> %scf
| 26>   MaxIter 150
| 27> end
| 28>
| 29>
| 30>                          ****END OF INPUT****

CARTESIAN COORDINATES (ANGSTROEM)
---------------------------------
  C      1.963370   -1.749150   -1.896890
  C      2.738490   -2.015170   -3.097110
  C      4.049740   -2.154720   -3.152040
  N      4.658210   -1.986290   -4.318660
  N      4.764230   -2.454440   -2.050490
  H      4.287360   -2.776260   -1.217500
  H      5.750820   -2.658350   -2.125990
  H      2.345180   -1.690270   -3.971450
  H      4.109000   -1.592680   -5.071760
  H      5.649100   -2.156460   -4.427240
  C      2.088520   -0.300910   -1.415200
  H      2.231270   -2.451620   -1.102640
  H      0.930250   -1.977800   -2.155440
  H      1.821180    0.363680   -2.210030
  H      3.097920   -0.110680   -1.115510
  H      1.433910   -0.143820   -0.583520

 Total Charge           Charge          ....    0
 Multiplicity           Mult            ....    1
 Number of Electrons    NEL             ....   48
 Basis Dimension        Dim             ....  134

ORBITAL ENERGIES
----------------

  NO   OCC          E(Eh)            E(eV)
   0   2.0000     -14.430085      -392.6626
   1   2.0000     -14.427228      -392.5848
   2   2.0000     -10.326410      -280.9959
   3   2.0000     -10.257137      -279.1109
   4   2.0000     -10.248770      -278.8832
   5   2.0000     -10.196271      -277.4546
   6   2.0000      -1.061674       -28.8896
   7   2.0000      -0.969624       -26.3848
   8   2.0000      -0.875884       -23.8340
   9   2.0000      -0.793956       -21.6046
  10   2.0000      -0.715404       -19.4671
  11   2.0000      -0.676713       -18.4143
  12   2.0000      -0.638694       -17.3797
  13   2.0000      -0.604848       -16.4587
  14   2.0000      -0.565583       -15.3903
  15   2.0000      -0.532330       -14.4854
  16   2.0000      -0.514237       -13.9931
  17   2.0000      -0.478684       -13.0257
  18   2.0000      -0.470937       -12.8149
  19   2.0000      -0.445694       -12.1279
  20   2.0000      -0.415336       -11.3019
  21   2.0000      -0.404640       -11.0108
  22   2.0000      -0.352627        -9.5955
  23   2.0000      -0.235403        -6.4056
  24   0.0000       0.131881         3.5887
  25   0.0000       0.163515         4.4495
  26   0.0000       0.172063         4.6821
  27   0.0000       0.189733         5.1629
  28   0.0000       0.198613         5.4045

MULLIKEN ATOMIC CHARGES
-----------------------
   0 C :   -0.006845
   1 C :   -0.188404
   2 C :   -0.024562
   3 N :   -0.099206
   4 N :   -0.127578
   5 H :    0.130655
   6 H :    0.113154
   7 H :   -0.087868
   8 H :    0.134577
   9 H :    0.112942
  10 C :    0.017240
  11 H :   -0.011829
  12 H :    0.008178
  13 H :    0.009279
  14 H :    0.011429
  15 H :    0.008837
Sum of atomic charges:   -0.0000000

LOEWDIN ATOMIC CHARGES
----------------------
   0 C :   -0.044196
   1 C :   -0.236377
   2 C :    0.038048
   3 N :   -0.028633
   4 N :   -0.037856
   5 H :    0.080659
   6 H :    0.066786
   7 H :   -0.012144
   8 H :    0.085477
   9 H :    0.067390
  10 C :   -0.057230
  11 H :    0.007988
  12 H :    0.023819
  13 H :    0.017835
  14 H :    0.015648
  15 H :    0.012785

  Mayer bond orders larger than 0.100000
B(  0-C ,  1-C ) :   1.0760 B(  0-C , 10-C ) :   1.0710 B(  0-C , 11-H ) :   0.9457
B(  0-C , 12-H ) :   0.9356 B(  1-C ,  2-C ) :   1.7034 B(  1-C ,  7-H ) :   0.9382
B(  2-C ,  3-N ) :   1.2397 B(  2-C ,  4-N ) :   1.2364 B(  3-N ,  8-H ) :   0.9363
B(  3-N ,  9-H ) :   0.9513 B(  4-N ,  5-H ) :   0.9427 B(  4-N ,  6-H ) :   0.9515
B( 10-C , 13-H ) :   0.9722 B( 10-C , 14-H ) :   0.9756 B( 10-C , 15-H ) :   0.9708

Dispersion correction           -0.003858102
FINAL SINGLE POINT ENERGY      -267.642957942292

DIPOLE MOMENT
-------------
                                X             Y             Z
Electronic contribution:      3.47522      -2.46835      -2.54709
Nuclear contribution   :     -2.31778       2.31977       2.35294
                        -----------------------------------------
Total Dipole Moment    :      1.15744      -0.14858      -0.19415
                        -----------------------------------------
Magnitude (a.u.)       :      1.18298
Magnitude (Debye)      :      3.00689

Rotational constants in cm-1:     0.219415     0.075373     0.066689
Rotational constants in MHz :  6577.897266  2259.621393  1999.290981

                             ****ORCA TERMINATED NORMALLY****
TOTAL RUN TIME: 0 days 0 hours 0 minutes 26 seconds 445 msec
