                         Program Version 5.0.0 -  RELEASE  -
|  1> !wB97X-D3 RIJCOSX def2-SVP def2/J TightSCF
|  2> *xyz 0 1
|  3> C          0.61188        1.65763       -4.50029
|  4> C          1.69499        1.54179       -5.57045
|  5> H          2.69733        1.73466       -5.18400
|  6> H          1.50666        2.27224       -6.35808
|  7> S          1.78029       -0.03313       -6.42874
|  8> O          2.56929        0.21366       -7.60736
|  9> F          0.41688       -0.46297       -6.61859
| 10> O          2.50513       -0.93326       -5.48257
| 11> H         -0.34424        1.45871       -4.93752
| 12> H          0.61845        2.64655       -4.09174
| 13> H          0.80247        0.94882       -3.72173
| 14> *
| 15> %MaxCore 64000
| 16>
| 17> %pal nprocs 4
| 18> end
| 19>
| 20> %scf
| 21>   MaxIter 150
| 22> end
| 23>
| 24>
| 25>                          ****END OF INPUT****

CARTESIAN COORDINATES (ANGSTROEM)
---------------------------------
  C      0.611880    1.657630   -4.500290
  C      1.694990    1.541790   -5.570450
  H      2.697330    1.734660   -5.184000
  H      1.506660    2.272240   -6.358080
  S      1.780290   -0.033130   -6.428740
  O      2.569290    0.213660   -7.607360
  F      0.416880   -0.462970   -6.618590
  O      2.505130   -0.933260   -5.482570
  H     -0.344240    1.458710   -4.937520
  H      0.618450    2.646550   -4.091740
  H      0.802470    0.948820   -3.721730

 Total Charge           Charge          ....    0
 Multiplicity           Mult            ....    1
 Number of Electrons    NEL             ....   58
 Basis Dimension        Dim             ....  113

ORBITAL ENERGIES
----------------

  NO   OCC          E(Eh)            E(eV)
   0   2.0000     -89.211955     -2427.5807
   1   2.0000     -24.909482      -677.8215
   2   2.0000     -19.243798      -523.6504
   3   2.0000     -19.222560      -523.0725
   4   2.0000     -10.348622      -281.6003
   5   2.0000     -10.315437      -280.6973
   6   2.0000      -8.295215      -225.7243
   7   2.0000      -6.258482      -170.3020
   8   2.0000      -6.251596      -170.1146
   9   2.0000      -6.250472      -170.0840
  10   2.0000      -1.489436       -40.5296
  11   2.0000      -1.214868       -33.0582
  12   2.0000      -1.100499       -29.9461
  13   2.0000      -0.939229       -25.5577
  14   2.0000      -0.839438       -22.8423
  15   2.0000      -0.789076       -21.4719
  16   2.0000      -0.703947       -19.1554
  17   2.0000      -0.689335       -18.7578
  18   2.0000      -0.643390       -17.5075
  19   2.0000      -0.597458       -16.2577
  20   2.0000      -0.575121       -15.6498
  21   2.0000      -0.548340       -14.9211
  22   2.0000      -0.528844       -14.3906
  23   2.0000      -0.509522       -13.8648
  24   2.0000      -0.491079       -13.3630
  25   2.0000      -0.472000       -12.8438
  26   2.0000      -0.420155       -11.4330
  27   2.0000      -0.401112       -10.9148
  28   2.0000      -0.386167       -10.5081
  29   0.0000       0.109514         2.9800
  30   0.0000       0.142562         3.8793
  31   0.0000       0.165583         4.5057
  32   0.0000       0.177036         4.8174
  33   0.0000       0.184394         5.0176

MULLIKEN ATOMIC CHARGES
-----------------------
   0 C :   -0.039411
   1 C :   -0.173961
   2 H :    0.114832
   3 H :    0.083297
   4 S :    0.955959
   5 O :   -0.435636
   6 F :   -0.174234
   7 O :   -0.499742
   8 H :    0.044965
   9 H :    0.059421
  10 H :    0.064511
Sum of atomic charges:    0.0000000

LOEWDIN ATOMIC CHARGES
----------------------
   0 C :   -0.063838
   1 C :   -0.151106
   2 H :    0.056609
   3 H :    0.036283
   4 S :    1.161804
   5 O :   -0.479855
   6 F :   -0.116776
   7 O :   -0.544672
   8 H :    0.026882
   9 H :    0.039605
  10 H :    0.035064

  Mayer bond orders larger than 0.100000
B(  0-C ,  1-C ) :   1.0392 B(  0-C ,  8-H ) :   0.9754 B(  0-C ,  9-H ) :   0.9665
B(  0-C , 10-H ) :   0.9729 B(  1-C ,  2-H ) :   0.9376 B(  1-C ,  3-H ) :   0.9385
B(  1-C ,  4-S ) :   0.9269 B(  4-S ,  5-O ) :   1.7927 B(  4-S ,  6-F ) :   1.0213
B(  4-S ,  7-O ) :   1.7300

Dispersion correction           -0.002869916
FINAL SINGLE POINT ENERGY      -727.132601000436

DIPOLE MOMENT
-------------
                                X             Y             Z
Electronic contribution:      0.22336      -6.78082      -5.87624
Nuclear contribution   :     -1.42658       8.04056       6.39401
                        -----------------------------------------
Total Dipole Moment    :     -1.20322       1.25974       0.51778
                        -----------------------------------------
Magnitude (a.u.)       :      1.81736
Magnitude (Debye)      :      4.61935

Rotational constants in cm-1:     0.153659     0.082363     0.078978
Rotational constants in MHz :  4606.587369  2469.179541  2367.702074

                             ****ORCA TERMINATED NORMALLY****
TOTAL RUN TIME: 0 days 0 hours 0 minutes 18 seconds 789 msec
