                         Program Version 5.0.0 -  RELEASE  -
|  1> !wB97X-D3 RIJCOSX def2-SVP def2/J TightSCF
|  2> *xyz 0 1
|  3> C          1.96337       -1.74915       -1.89689
|  4> N          2.73849       -2.01517       -3.09711
|  5> C          4.04974       -2.15472       -3.15204
|  6> C          4.65821       -1.98629       -4.31866
|  7> N          4.76423       -2.45444       -2.05049
|  8> H          4.28736       -2.77626       -1.21750
|  9> H          5.75082       -2.65835       -2.12599
| 10> H          2.34518       -1.69027       -3.97145
| 11> H          4.10900       -1.59268       -5.07176
| 12> H          5.64910       -2.15646       -4.42724
| 13> C          2.08852       -0.30091       -1.41520
| 14> H          2.23127       -2.45162       -1.10264
| 15> H          0.93025       -1.97780       -2.15544
| 16> H          1.82118        0.36368       -2.21003
| 17> H          3.09792       -0.11068       -1.11551
| 18> H          1.43391       -0.14382       -0.58352
| 19> *
| 20> %MaxCore 64000
| 21>
| 22> %pal nprocs 4
| 23> end
| 24>
| 25> %scf
| 26>   MaxIter 150
| 27> end
| 28>
| 29>
| 30>                          ****END OF INPUT****

CARTESIAN COORDINATES (ANGSTROEM)
---------------------------------
  C      1.963370   -1.749150   -1.896890
  N      2.738490   -2.015170   -3.097110
  C      4.049740   -2.154720   -3.152040
  C      4.658210   -1.986290   -4.318660
  N      4.764230   -2.454440   -2.050490
  H      4.287360   -2.776260   -1.217500
  H      5.750820   -2.658350   -2.125990
  H      2.345180   -1.690270   -3.971450
  H      4.109000   -1.592680   -5.071760
  H      5.649100   -2.156460   -4.427240
  C      2.088520   -0.300910   -1.415200
  H      2.231270   -2.451620   -1.102640
  H      0.930250   -1.977800   -2.155440
  H      1.821180    0.363680   -2.210030
  H      3.097920   -0.110680   -1.115510
  H      1.433910   -0.143820   -0.583520

 Total Charge           Charge          ....    0
 Multiplicity           Mult            ....    1
 Number of Electrons    NEL             ....   48
 Basis Dimension        Dim             ....  134

ORBITAL ENERGIES
----------------

  NO   OCC          E(Eh)            E(eV)
   0   2.0000     -14.428833      -392.6285
   1   2.0000     -14.427240      -392.5852
   2   2.0000     -10.328099      -281.0419
   3   2.0000     -10.327111      -281.0150
   4   2.0000     -10.276691      -279.6430
   5   2.0000     -10.193354      -277.3753
   6   2.0000      -1.072306       -29.1789
   7   2.0000      -0.984082       -26.7782
   8   2.0000      -0.876748       -23.8575
   9   2.0000      -0.803435       -21.8626
  10   2.0000      -0.731468       -19.9042
  11   2.0000      -0.697441       -18.9783
  12   2.0000      -0.632963       -17.2238
  13   2.0000      -0.593132       -16.1399
  14   2.0000      -0.574422       -15.6308
  15   2.0000      -0.533758       -14.5243
  16   2.0000      -0.529527       -14.4092
  17   2.0000      -0.495308       -13.4780
  18   2.0000      -0.474521       -12.9124
  19   2.0000      -0.466275       -12.6880
  20   2.0000      -0.452144       -12.3035
  21   2.0000      -0.448652       -12.2085
  22   2.0000      -0.340869        -9.2755
  23   2.0000      -0.242077        -6.5872
  24   0.0000       0.129512         3.5242
  25   0.0000       0.158905         4.3240
  26   0.0000       0.172963         4.7066
  27   0.0000       0.184376         5.0171
  28   0.0000       0.196045         5.3346

MULLIKEN ATOMIC CHARGES
-----------------------
   0 C :    0.020743
   1 N :   -0.170742
   2 C :   -0.010825
   3 C :   -0.111475
   4 N :   -0.135208
   5 H :    0.112780
   6 H :    0.133348
   7 H :    0.129361
   8 H :   -0.050066
   9 H :   -0.047833
  10 C :   -0.013212
  11 H :    0.024901
  12 H :    0.031702
  13 H :    0.026952
  14 H :    0.034261
  15 H :    0.025317
Sum of atomic charges:   -0.0000000

LOEWDIN ATOMIC CHARGES
----------------------
   0 C :    0.026419
   1 N :   -0.034643
   2 C :    0.043510
   3 C :   -0.260803
   4 N :   -0.036810
   5 H :    0.064528
   6 H :    0.084571
   7 H :    0.084535
   8 H :   -0.009289
   9 H :   -0.008525
  10 C :   -0.067272
  11 H :    0.016846
  12 H :    0.025317
  13 H :    0.023395
  14 H :    0.024944
  15 H :    0.023276

  Mayer bond orders larger than 0.100000
B(  0-C ,  1-N ) :   1.0095 B(  0-C , 10-C ) :   1.0663 B(  0-C , 11-H ) :   0.9604
B(  0-C , 12-H ) :   0.9621 B(  1-N ,  2-C ) :   1.1992 B(  1-N ,  7-H ) :   0.9253
B(  2-C ,  3-C ) :   1.7545 B(  2-C ,  4-N ) :   1.2074 B(  3-C ,  8-H ) :   0.9391
B(  3-C ,  9-H ) :   0.9530 B(  4-N ,  5-H ) :   0.9516 B(  4-N ,  6-H ) :   0.9453
B( 10-C , 13-H ) :   0.9723 B( 10-C , 14-H ) :   0.9694 B( 10-C , 15-H ) :   0.9686

Dispersion correction           -0.003890877
FINAL SINGLE POINT ENERGY      -267.639468223853

DIPOLE MOMENT
-------------
                                X             Y             Z
Electronic contribution:      1.41676      -2.37295      -1.15601
Nuclear contribution   :     -1.91052       2.32590       2.09379
                        -----------------------------------------
Total Dipole Moment    :     -0.49376      -0.04705       0.93778
                        -----------------------------------------
Magnitude (a.u.)       :      1.06087
Magnitude (Debye)      :      2.69652

Rotational constants in cm-1:     0.219448     0.077923     0.068804
Rotational constants in MHz :  6578.886179  2336.083179  2062.700476

                             ****ORCA TERMINATED NORMALLY****
TOTAL RUN TIME: 0 days 0 hours 0 minutes 25 seconds 207 msec
