                         Program Version 5.0.0 -  RELEASE  -
|  1> !wB97X-D3 RIJCOSX def2-SVP def2/J TightSCF
|  2> *xyz 0 1
|  3> C          0.61188        1.65763       -4.50029
|  4> C          1.69499        1.54179       -5.57045
|  5> H          2.69733        1.73466       -5.18400
|  6> H          1.50666        2.27224       -6.35808
|  7> S          1.78029       -0.03313       -6.42874
|  8> O          2.56929        0.21366       -7.60736
|  9> O          0.41688       -0.46297       -6.61859
| 10> F          2.50513       -0.93326       -5.48257
| 11> H         -0.34424        1.45871       -4.93752
| 12> H          0.61845        2.64655       -4.09174
| 13> H          0.80247        0.94882       -3.72173
| 14> *
| 15> %MaxCore 64000
| 16>
| 17> %pal nprocs 4
| 18> end
| 19>
| 20> %scf
| 21>   MaxIter 150
| 22> end
| 23>
| 24>
| 25>                          ****END OF INPUT****

CARTESIAN COORDINATES (ANGSTROEM)
---------------------------------
  C      0.611880    1.657630   -4.500290
  C      1.694990    1.541790   -5.570450
  H      2.697330    1.734660   -5.184000
  H      1.506660    2.272240   -6.358080
  S      1.780290   -0.033130   -6.428740
  O      2.569290    0.213660   -7.607360
  O      0.416880   -0.462970   -6.618590
  F      2.505130   -0.933260   -5.482570
  H     -0.344240    1.458710   -4.937520
  H      0.618450    2.646550   -4.091740
  H      0.802470    0.948820   -3.721730

 Total Charge           Charge          ....    0
 Multiplicity           Mult            ....    1
 Number of Electrons    NEL             ....   58
 Basis Dimension        Dim             ....  113

ORBITAL ENERGIES
----------------

  NO   OCC          E(Eh)            E(eV)
   0   2.0000     -89.211113     -2427.5578
   1   2.0000     -24.880756      -677.0398
   2   2.0000     -19.245575      -523.6987
   3   2.0000     -19.243998      -523.6558
   4   2.0000     -10.347673      -281.5745
   5   2.0000     -10.310286      -280.5572
   6   2.0000      -8.294026      -225.6919
   7   2.0000      -6.256943      -170.2601
   8   2.0000      -6.250782      -170.0924
   9   2.0000      -6.249622      -170.0609
  10   2.0000      -1.443982       -39.2928
  11   2.0000      -1.227378       -33.3986
  12   2.0000      -1.131337       -30.7852
  13   2.0000      -0.935761       -25.4634
  14   2.0000      -0.825609       -22.4660
  15   2.0000      -0.774448       -21.0738
  16   2.0000      -0.678727       -18.4691
  17   2.0000      -0.657309       -17.8863
  18   2.0000      -0.645138       -17.5551
  19   2.0000      -0.594322       -16.1723
  20   2.0000      -0.577446       -15.7131
  21   2.0000      -0.551752       -15.0139
  22   2.0000      -0.529046       -14.3961
  23   2.0000      -0.501941       -13.6585
  24   2.0000      -0.497748       -13.5444
  25   2.0000      -0.475199       -12.9308
  26   2.0000      -0.429833       -11.6963
  27   2.0000      -0.420360       -11.4386
  28   2.0000      -0.409239       -11.1359
  29   0.0000       0.117185         3.1888
  30   0.0000       0.141464         3.8494
  31   0.0000       0.170063         4.6277
  32   0.0000       0.173789         4.7290
  33   0.0000       0.184584         5.0228

MULLIKEN ATOMIC CHARGES
-----------------------
   0 C :   -0.028221
   1 C :   -0.185228
   2 H :    0.084740
   3 H :    0.106445
   4 S :    0.970186
   5 O :   -0.444249
   6 O :   -0.446907
   7 F :   -0.226291
   8 H :    0.068584
   9 H :    0.053596
  10 H :    0.047344
Sum of atomic charges:   -0.0000000

LOEWDIN ATOMIC CHARGES
----------------------
   0 C :   -0.060062
   1 C :   -0.157003
   2 H :    0.037425
   3 H :    0.052023
   4 S :    1.169191
   5 O :   -0.486369
   6 O :   -0.486591
   7 F :   -0.172126
   8 H :    0.036655
   9 H :    0.037224
  10 H :    0.029632

  Mayer bond orders larger than 0.100000
B(  0-C ,  1-C ) :   1.0420 B(  0-C ,  8-H ) :   0.9700 B(  0-C ,  9-H ) :   0.9660
B(  0-C , 10-H ) :   0.9766 B(  1-C ,  2-H ) :   0.9381 B(  1-C ,  3-H ) :   0.9392
B(  1-C ,  4-S ) :   0.9206 B(  4-S ,  5-O ) :   1.7984 B(  4-S ,  6-O ) :   1.7909
B(  4-S ,  7-F ) :   0.9655

Dispersion correction           -0.002849988
FINAL SINGLE POINT ENERGY      -727.158867586141

DIPOLE MOMENT
-------------
                                X             Y             Z
Electronic contribution:      3.79157      -7.61304      -3.93804
Nuclear contribution   :     -3.60260       8.53062       5.21025
                        -----------------------------------------
Total Dipole Moment    :      0.18897       0.91758       1.27220
                        -----------------------------------------
Magnitude (a.u.)       :      1.57992
Magnitude (Debye)      :      4.01584

Rotational constants in cm-1:     0.154011     0.080858     0.079602
Rotational constants in MHz :  4617.134198  2424.070332  2386.404775

                             ****ORCA TERMINATED NORMALLY****
TOTAL RUN TIME: 0 days 0 hours 0 minutes 19 seconds 135 msec
