                         Program Version 5.0.0 -  RELEASE  -
|  1> !wB97X-D3 RIJCOSX def2-SVP def2/J TightSCF
|  2> *xyz 0 1
|  3> C          1.96337       -1.74915       -1.89689
|  4> N          2.73849       -2.01517       -3.09711
|  5> C          4.04974       -2.15472       -3.15204
|  6> N          4.65821       -1.98629       -4.31866
|  7> C          4.76423       -2.45444       -2.05049
|  8> H          4.28736       -2.77626       -1.21750
|  9> H          5.75082       -2.65835       -2.12599
| 10> H          2.34518       -1.69027       -3.97145
| 11> H          4.10900       -1.59268       -5.07176
| 12> H          5.64910       -2.15646       -4.42724
| 13> C          2.08852       -0.30091       -1.41520
| 14> H          2.23127       -2.45162       -1.10264
| 15> H          0.93025       -1.97780       -2.15544
| 16> H          1.82118        0.36368       -2.21003
| 17> H          3.09792       -0.11068       -1.11551
| 18> H          1.43391       -0.14382       -0.58352
| 19> *
| 20> %MaxCore 64000
| 21>
| 22> %pal nprocs 4
| 23> end
| 24>
| 25> %scf
| 26>   MaxIter 150
| 27> end
| 28>
| 29>
| 30>                          ****END OF INPUT****

CARTESIAN COORDINATES (ANGSTROEM)
---------------------------------
  C      1.963370   -1.749150   -1.896890
  N      2.738490   -2.015170   -3.097110
  C      4.049740   -2.154720   -3.152040
  N      4.658210   -1.986290   -4.318660
  C      4.764230   -2.454440   -2.050490
  H      4.287360   -2.776260   -1.217500
  H      5.750820   -2.658350   -2.125990
  H      2.345180   -1.690270   -3.971450
  H      4.109000   -1.592680   -5.071760
  H      5.649100   -2.156460   -4.427240
  C      2.088520   -0.300910   -1.415200
  H      2.231270   -2.451620   -1.102640
  H      0.930250   -1.977800   -2.155440
  H      1.821180    0.363680   -2.210030
  H      3.097920   -0.110680   -1.115510
  H      1.433910   -0.143820   -0.583520

 Total Charge           Charge          ....    0
 Multiplicity           Mult            ....    1
 Number of Electrons    NEL             ....   48
 Basis Dimension        Dim             ....  134

ORBITAL ENERGIES
----------------

  NO   OCC          E(Eh)            E(eV)
   0   2.0000     -14.431440      -392.6994
   1   2.0000     -14.431046      -392.6887
   2   2.0000     -10.330090      -281.0960
   3   2.0000     -10.319407      -280.8053
   4   2.0000     -10.269130      -279.4372
   5   2.0000     -10.192003      -277.3385
   6   2.0000      -1.077956       -29.3327
   7   2.0000      -0.988526       -26.8992
   8   2.0000      -0.858845       -23.3704
   9   2.0000      -0.807288       -21.9674
  10   2.0000      -0.744984       -20.2721
  11   2.0000      -0.659573       -17.9479
  12   2.0000      -0.644615       -17.5409
  13   2.0000      -0.620313       -16.8796
  14   2.0000      -0.564283       -15.3549
  15   2.0000      -0.535907       -14.5828
  16   2.0000      -0.513173       -13.9642
  17   2.0000      -0.490447       -13.3457
  18   2.0000      -0.471973       -12.8431
  19   2.0000      -0.457614       -12.4523
  20   2.0000      -0.455298       -12.3893
  21   2.0000      -0.437593       -11.9075
  22   2.0000      -0.338526        -9.2118
  23   2.0000      -0.242009        -6.5854
  24   0.0000       0.129634         3.5275
  25   0.0000       0.161866         4.4046
  26   0.0000       0.176789         4.8107
  27   0.0000       0.182155         4.9567
  28   0.0000       0.204789         5.5726

MULLIKEN ATOMIC CHARGES
-----------------------
   0 C :    0.048038
   1 N :   -0.190272
   2 C :   -0.002039
   3 N :   -0.116675
   4 C :   -0.135963
   5 H :   -0.040819
   6 H :   -0.052498
   7 H :    0.104070
   8 H :    0.110186
   9 H :    0.139259
  10 C :   -0.017009
  11 H :    0.048209
  12 H :    0.024395
  13 H :    0.011903
  14 H :    0.043674
  15 H :    0.025543
Sum of atomic charges:    0.0000000

LOEWDIN ATOMIC CHARGES
----------------------
   0 C :    0.040462
   1 N :   -0.033732
   2 C :    0.042279
   3 N :   -0.025842
   4 C :   -0.276323
   5 H :   -0.008676
   6 H :   -0.010469
   7 H :    0.063320
   8 H :    0.065026
   9 H :    0.087456
  10 C :   -0.065131
  11 H :    0.029798
  12 H :    0.021542
  13 H :    0.016836
  14 H :    0.029489
  15 H :    0.023963

  Mayer bond orders larger than 0.100000
B(  0-C ,  1-N ) :   0.9932 B(  0-C , 10-C ) :   1.0849 B(  0-C , 11-H ) :   0.9534
B(  0-C , 12-H ) :   0.9641 B(  1-N ,  2-C ) :   1.1783 B(  1-N ,  7-H ) :   0.9379
B(  2-C ,  3-N ) :   1.2295 B(  2-C ,  4-C ) :   1.7448 B(  3-N ,  8-H ) :   0.9521
B(  3-N ,  9-H ) :   0.9429 B(  4-C ,  5-H ) :   0.9450 B(  4-C ,  6-H ) :   0.9487
B( 10-C , 13-H ) :   0.9719 B( 10-C , 14-H ) :   0.9675 B( 10-C , 15-H ) :   0.9702

Dispersion correction           -0.003853453
FINAL SINGLE POINT ENERGY      -267.638088800478

DIPOLE MOMENT
-------------
                                X             Y             Z
Electronic contribution:      1.33058      -1.80391      -3.54896
Nuclear contribution   :     -1.88803       2.22658       2.57497
                        -----------------------------------------
Total Dipole Moment    :     -0.55745       0.42267      -0.97399
                        -----------------------------------------
Magnitude (a.u.)       :      1.19919
Magnitude (Debye)      :      3.04810

Rotational constants in cm-1:     0.226509     0.075782     0.067928
Rotational constants in MHz :  6790.555051  2271.890226  2036.439218

                             ****ORCA TERMINATED NORMALLY****
TOTAL RUN TIME: 0 days 0 hours 0 minutes 25 seconds 166 msec
