                         Program Version 5.0.0 -  RELEASE  -
|  1> !wB97X-D3 RIJCOSX def2-SVP def2/J TightSCF xyzfile
|  2>
|  3> *xyzfile 0 1 D3.xyz
|  4>
|  5> %MaxCore 64000
|  6>
|  7> %pal nprocs 18
|  8> end
|  9>
| 10> %scf
| 11>   MaxIter 150
| 12> end
| 13>
| 14>
| 15>                          ****END OF INPUT****

CARTESIAN COORDINATES (ANGSTROEM)
---------------------------------
  C      1.963365   -1.749150   -1.896887
  N      2.738490   -2.015170   -3.097113
  C      0.611877    1.657634   -4.500288
  C      1.694991    1.541794   -5.570447
  H      2.697326    1.734659   -5.183996
  H      1.506656    2.272239   -6.358076
  S      1.780287   -0.033128   -6.428739
  C      4.049736   -2.154717   -3.152044
  N      4.658206   -1.986293   -4.318655
  C      4.764231   -2.454435   -2.050491
  H      4.287363   -2.776259   -1.217496
  H      5.750825   -2.658351   -2.125988
  H      2.345176   -1.690274   -3.971447
  H      4.109004   -1.592677   -5.071760
  H      5.649095   -2.156462   -4.427237
  F      2.569287    0.213657   -7.607360
  O      0.416880   -0.462969   -6.618595
  C      2.088520   -0.300912   -1.415204
  H      2.231272   -2.451616   -1.102643
  H      0.930249   -1.977801   -2.155438
  C      0.680356    0.655418   -3.348038
  H     -0.356865    1.549231   -4.991128
  H      0.650228    2.675438   -4.096000
  C      1.968993    0.733582   -2.535654
  H      3.051356   -0.168602   -0.911868
  H      1.316501   -0.136231   -0.657252
  O      2.505129   -0.933263   -5.482570
  H      2.824195    0.624726   -3.208464
  H      2.058919    1.730331   -2.093112
  H      0.542252   -0.344731   -3.766662
  H     -0.174219    0.829692   -2.685182

 Total Charge           Charge          ....    0
 Multiplicity           Mult            ....    1
 Number of Electrons    NEL             ....  120
 Basis Dimension        Dim             ....  285

ORBITAL ENERGIES
----------------

  NO   OCC          E(Eh)            E(eV)
   0   2.0000     -89.248158     -2428.5659
   1   2.0000     -24.939191      -678.6299
   2   2.0000     -19.275719      -524.5190
   3   2.0000     -19.268264      -524.3161
   4   2.0000     -14.393881      -391.6774
   5   2.0000     -14.393733      -391.6734
   6   2.0000     -10.367479      -282.1134
   7   2.0000     -10.329022      -281.0670
   8   2.0000     -10.304217      -280.3920
   9   2.0000     -10.301150      -280.3085
  10   2.0000     -10.299027      -280.2508
  11   2.0000     -10.286016      -279.8967
  12   2.0000     -10.272909      -279.5401
  13   2.0000     -10.168536      -276.6999
  14   2.0000      -8.330920      -226.6959
  15   2.0000      -6.293928      -171.2665
  16   2.0000      -6.287818      -171.1002
  17   2.0000      -6.286025      -171.0514
  18   2.0000      -1.520599       -41.3776
  19   2.0000      -1.249878       -34.0109
  20   2.0000      -1.145470       -31.1698
  21   2.0000      -1.047661       -28.5083
  22   2.0000      -0.967691       -26.3322
  23   2.0000      -0.959124       -26.0991
  24   2.0000      -0.907357       -24.6904
  25   2.0000      -0.869231       -23.6530
  26   2.0000      -0.832353       -22.6495
  27   2.0000      -0.791933       -21.5496
  28   2.0000      -0.781674       -21.2704
  29   2.0000      -0.746017       -20.3002
  30   2.0000      -0.722915       -19.6715
  31   2.0000      -0.709229       -19.2991
  32   2.0000      -0.692655       -18.8481
  33   2.0000      -0.673402       -18.3242
  34   2.0000      -0.638623       -17.3778
  35   2.0000      -0.620436       -16.8829
  36   2.0000      -0.616457       -16.7746
  37   2.0000      -0.610413       -16.6102
  38   2.0000      -0.593644       -16.1539
  39   2.0000      -0.580599       -15.7989
  40   2.0000      -0.556510       -15.1434
  41   2.0000      -0.554289       -15.0830
  42   2.0000      -0.538998       -14.6669
  43   2.0000      -0.521637       -14.1945
  44   2.0000      -0.517226       -14.0744
  45   2.0000      -0.511058       -13.9066
  46   2.0000      -0.484802       -13.1921
  47   2.0000      -0.480083       -13.0637
  48   2.0000      -0.462995       -12.5987
  49   2.0000      -0.459753       -12.5105
  50   2.0000      -0.455047       -12.3825
  51   2.0000      -0.441633       -12.0175
  52   2.0000      -0.437551       -11.9064
  53   2.0000      -0.432921       -11.7804
  54   2.0000      -0.424108       -11.5406
  55   2.0000      -0.420448       -11.4410
  56   2.0000      -0.416160       -11.3243
  57   2.0000      -0.404478       -11.0064
  58   2.0000      -0.308297        -8.3892
  59   2.0000      -0.217666        -5.9230
  60   0.0000       0.093310         2.5391
  61   0.0000       0.108263         2.9460
  62   0.0000       0.135801         3.6953
  63   0.0000       0.143116         3.8944
  64   0.0000       0.152118         4.1393

MULLIKEN ATOMIC CHARGES
-----------------------
   0 C :    0.089213
   1 N :   -0.194006
   2 C :   -0.023916
   3 C :   -0.133248
   4 H :    0.100196
   5 H :    0.085209
   6 S :    0.998093
   7 C :   -0.000248
   8 N :   -0.119190
   9 C :   -0.150868
  10 H :   -0.052664
  11 H :   -0.065410
  12 H :    0.121733
  13 H :    0.104937
  14 H :    0.121141
  15 F :   -0.160028
  16 O :   -0.419676
  17 C :    0.005712
  18 H :    0.039549
  19 H :    0.019647
  20 C :   -0.063869
  21 H :    0.059450
  22 H :    0.053948
  23 C :   -0.064478
  24 H :    0.034447
  25 H :    0.012211
  26 O :   -0.508741
  27 H :    0.022070
  28 H :    0.016119
  29 H :    0.038953
  30 H :    0.033713
Sum of atomic charges:   -0.0000000

LOEWDIN ATOMIC CHARGES
----------------------
   0 C :    0.040748
   1 N :   -0.037376
   2 C :   -0.037336
   3 C :   -0.145595
   4 H :    0.042832
   5 H :    0.039025
   6 S :    1.190277
   7 C :    0.047398
   8 N :   -0.036840
   9 C :   -0.296664
  10 H :   -0.013766
  11 H :   -0.015722
  12 H :    0.033725
  13 H :    0.036600
  14 H :    0.076419
  15 F :   -0.103873
  16 O :   -0.462745
  17 C :   -0.047083
  18 H :    0.028059
  19 H :    0.017915
  20 C :   -0.044451
  21 H :    0.037023
  22 H :    0.041313
  23 C :   -0.046482
  24 H :    0.031573
  25 H :    0.019614
  26 O :   -0.485244
  27 H :    0.017196
  28 H :    0.021925
  29 H :    0.020455
  30 H :    0.031079

  Mayer bond orders larger than 0.100000
B(  0-C ,  1-N ) :   1.0298 B(  0-C , 17-C ) :   1.0582 B(  0-C , 18-H ) :   0.9511
B(  0-C , 19-H ) :   0.9561 B(  1-N ,  7-C ) :   1.1849 B(  1-N , 12-H ) :   0.9037
B(  2-C ,  3-C ) :   1.0418 B(  2-C , 20-C ) :   1.0845 B(  2-C , 21-H ) :   0.9458
B(  2-C , 22-H ) :   0.9416 B(  3-C ,  4-H ) :   0.9242 B(  3-C ,  5-H ) :   0.9321
B(  3-C ,  6-S ) :   0.9235 B(  6-S , 15-F ) :   1.0492 B(  6-S , 16-O ) :   1.8065
B(  6-S , 26-O ) :   1.5779 B(  7-C ,  8-N ) :   1.2437 B(  7-C ,  9-C ) :   1.7319
B(  8-N , 13-H ) :   0.9192 B(  8-N , 14-H ) :   0.9471 B(  9-C , 10-H ) :   0.9415
B(  9-C , 11-H ) :   0.9461 B( 17-C , 23-C ) :   1.0852 B( 17-C , 24-H ) :   0.9353
B( 17-C , 25-H ) :   0.9487 B( 20-C , 23-C ) :   1.0426 B( 20-C , 29-H ) :   0.9415
B( 20-C , 30-H ) :   0.9439 B( 23-C , 27-H ) :   0.9394 B( 23-C , 28-H ) :   0.9485

Dispersion correction           -0.016403738
FINAL SINGLE POINT ENERGY     -1072.141750772555

DIPOLE MOMENT
-------------
                                X             Y             Z
Electronic contribution:     -1.13012      -0.17488     -24.75294
Nuclear contribution   :      0.44707       2.53104      23.12246
                        -----------------------------------------
Total Dipole Moment    :     -0.68305       2.35616      -1.63048
                        -----------------------------------------
Magnitude (a.u.)       :      2.94560
Magnitude (Debye)      :      7.48711

Rotational constants in cm-1:     0.028906     0.014696     0.011110
Rotational constants in MHz :   866.591909   440.585554   333.081943

                             ****ORCA TERMINATED NORMALLY****
TOTAL RUN TIME: 0 days 0 hours 0 minutes 50 seconds 392 msec
