                         Program Version 5.0.0 -  RELEASE  -
|  1> !wB97X-D3 RIJCOSX def2-SVP def2/J TightSCF xyzfile
|  2>
|  3> *xyzfile 0 1 D8.xyz
|  4>
|  5> %MaxCore 64000
|  6>
|  7> %pal nprocs 18
|  8> end
|  9>
| 10> %scf
| 11>   MaxIter 150
| 12> end
| 13>
| 14>
| 15>                          ****END OF INPUT****

CARTESIAN COORDINATES (ANGSTROEM)
---------------------------------
  C      1.963365   -1.749150   -1.896887
  N      2.738490   -2.015170   -3.097113
  C      0.611877    1.657634   -4.500288
  C      1.694991    1.541794   -5.570447
  H      2.697326    1.734659   -5.183996
  H      1.506656    2.272239   -6.358076
  S      1.780287   -0.033128   -6.428739
  C      4.049736   -2.154717   -3.152044
  C      4.658206   -1.986293   -4.318655
  N      4.764231   -2.454435   -2.050491
  H      4.287363   -2.776259   -1.217496
  H      5.750825   -2.658351   -2.125988
  H      2.345176   -1.690274   -3.971447
  H      4.109004   -1.592677   -5.071760
  H      5.649095   -2.156462   -4.427237
  O      2.569287    0.213657   -7.607360
  O      0.416880   -0.462969   -6.618595
  C      2.088520   -0.300912   -1.415204
  H      2.231272   -2.451616   -1.102643
  H      0.930249   -1.977801   -2.155438
  C      0.680356    0.655418   -3.348038
  H     -0.356865    1.549231   -4.991128
  H      0.650228    2.675438   -4.096000
  C      1.968993    0.733582   -2.535654
  H      3.051356   -0.168602   -0.911868
  H      1.316501   -0.136231   -0.657252
  F      2.505129   -0.933263   -5.482570
  H      2.824195    0.624726   -3.208464
  H      2.058919    1.730331   -2.093112
  H      0.542252   -0.344731   -3.766662
  H     -0.174219    0.829692   -2.685182

 Total Charge           Charge          ....    0
 Multiplicity           Mult            ....    1
 Number of Electrons    NEL             ....  120
 Basis Dimension        Dim             ....  285

ORBITAL ENERGIES
----------------

  NO   OCC          E(Eh)            E(eV)
   0   2.0000     -89.218229     -2427.7514
   1   2.0000     -24.898330      -677.5180
   2   2.0000     -19.252959      -523.8996
   3   2.0000     -19.249844      -523.8149
   4   2.0000     -14.428845      -392.6288
   5   2.0000     -14.423833      -392.4925
   6   2.0000     -10.349028      -281.6114
   7   2.0000     -10.328282      -281.0468
   8   2.0000     -10.328225      -281.0453
   9   2.0000     -10.320030      -280.8223
  10   2.0000     -10.306950      -280.4664
  11   2.0000     -10.299209      -280.2557
  12   2.0000     -10.293992      -280.1138
  13   2.0000     -10.189813      -277.2789
  14   2.0000      -8.300949      -225.8803
  15   2.0000      -6.264135      -170.4558
  16   2.0000      -6.257535      -170.2762
  17   2.0000      -6.256360      -170.2442
  18   2.0000      -1.463694       -39.8292
  19   2.0000      -1.235425       -33.6176
  20   2.0000      -1.137523       -30.9536
  21   2.0000      -1.073555       -29.2129
  22   2.0000      -0.986885       -26.8545
  23   2.0000      -0.957602       -26.0577
  24   2.0000      -0.911061       -24.7912
  25   2.0000      -0.874456       -23.7952
  26   2.0000      -0.826689       -22.4954
  27   2.0000      -0.818346       -22.2683
  28   2.0000      -0.777234       -21.1496
  29   2.0000      -0.741528       -20.1780
  30   2.0000      -0.701522       -19.0894
  31   2.0000      -0.696872       -18.9629
  32   2.0000      -0.677468       -18.4348
  33   2.0000      -0.673309       -18.3217
  34   2.0000      -0.652265       -17.7490
  35   2.0000      -0.630494       -17.1566
  36   2.0000      -0.605284       -16.4706
  37   2.0000      -0.600583       -16.3427
  38   2.0000      -0.586671       -15.9641
  39   2.0000      -0.581673       -15.8281
  40   2.0000      -0.570000       -15.5105
  41   2.0000      -0.558905       -15.2086
  42   2.0000      -0.545523       -14.8444
  43   2.0000      -0.533644       -14.5212
  44   2.0000      -0.522614       -14.2210
  45   2.0000      -0.502460       -13.6726
  46   2.0000      -0.496223       -13.5029
  47   2.0000      -0.489586       -13.3223
  48   2.0000      -0.478416       -13.0184
  49   2.0000      -0.469209       -12.7678
  50   2.0000      -0.463607       -12.6154
  51   2.0000      -0.454397       -12.3648
  52   2.0000      -0.439894       -11.9701
  53   2.0000      -0.437390       -11.9020
  54   2.0000      -0.430786       -11.7223
  55   2.0000      -0.423998       -11.5376
  56   2.0000      -0.419377       -11.4118
  57   2.0000      -0.414549       -11.2805
  58   2.0000      -0.340837        -9.2747
  59   2.0000      -0.242235        -6.5916
  60   0.0000       0.108315         2.9474
  61   0.0000       0.122831         3.3424
  62   0.0000       0.132479         3.6049
  63   0.0000       0.147611         4.0167
  64   0.0000       0.154577         4.2063

MULLIKEN ATOMIC CHARGES
-----------------------
   0 C :    0.054045
   1 N :   -0.179229
   2 C :   -0.019018
   3 C :   -0.142848
   4 H :    0.094273
   5 H :    0.109292
   6 S :    0.977122
   7 C :   -0.011127
   8 C :   -0.140527
   9 N :   -0.130553
  10 H :    0.111462
  11 H :    0.132400
  12 H :    0.124015
  13 H :   -0.035380
  14 H :   -0.051143
  15 O :   -0.429801
  16 O :   -0.437785
  17 C :    0.004603
  18 H :    0.026884
  19 H :    0.036198
  20 C :   -0.081696
  21 H :    0.061095
  22 H :    0.045254
  23 C :   -0.062932
  24 H :    0.026886
  25 H :    0.020287
  26 F :   -0.212559
  27 H :    0.022790
  28 H :    0.026552
  29 H :    0.024465
  30 H :    0.036976
Sum of atomic charges:    0.0000000

LOEWDIN ATOMIC CHARGES
----------------------
   0 C :    0.027329
   1 N :   -0.039544
   2 C :   -0.046713
   3 C :   -0.149595
   4 H :    0.038981
   5 H :    0.055966
   6 S :    1.177935
   7 C :    0.042516
   8 C :   -0.272838
   9 N :   -0.037227
  10 H :    0.063989
  11 H :    0.084280
  12 H :    0.047258
  13 H :   -0.023925
  14 H :   -0.009956
  15 O :   -0.475551
  16 O :   -0.481906
  17 C :   -0.051211
  18 H :    0.019519
  19 H :    0.024864
  20 C :   -0.048405
  21 H :    0.037110
  22 H :    0.036729
  23 C :   -0.046803
  24 H :    0.026323
  25 H :    0.022884
  26 F :   -0.112056
  27 H :    0.017990
  28 H :    0.027082
  29 H :    0.012571
  30 H :    0.032406

  Mayer bond orders larger than 0.100000
B(  0-C ,  1-N ) :   1.0255 B(  0-C , 17-C ) :   1.0415 B(  0-C , 18-H ) :   0.9594
B(  0-C , 19-H ) :   0.9542 B(  1-N ,  7-C ) :   1.1955 B(  1-N , 12-H ) :   0.9116
B(  2-C ,  3-C ) :   1.0297 B(  2-C , 20-C ) :   1.0825 B(  2-C , 21-H ) :   0.9451
B(  2-C , 22-H ) :   0.9410 B(  3-C ,  4-H ) :   0.9293 B(  3-C ,  5-H ) :   0.9353
B(  3-C ,  6-S ) :   0.9212 B(  6-S , 15-O ) :   1.8075 B(  6-S , 16-O ) :   1.7797
B(  6-S , 26-F ) :   0.8973 B(  7-C ,  8-C ) :   1.7459 B(  7-C ,  9-N ) :   1.2160
B(  8-C , 13-H ) :   0.9333 B(  8-C , 14-H ) :   0.9528 B(  9-N , 10-H ) :   0.9507
B(  9-N , 11-H ) :   0.9444 B( 17-C , 23-C ) :   1.0828 B( 17-C , 24-H ) :   0.9397
B( 17-C , 25-H ) :   0.9461 B( 20-C , 23-C ) :   1.0430 B( 20-C , 29-H ) :   0.9431
B( 20-C , 30-H ) :   0.9437 B( 23-C , 27-H ) :   0.9400 B( 23-C , 28-H ) :   0.9483

Dispersion correction           -0.016408015
FINAL SINGLE POINT ENERGY     -1072.148274160046

DIPOLE MOMENT
-------------
                                X             Y             Z
Electronic contribution:     -0.85284      -2.96685     -18.37225
Nuclear contribution   :      0.50676       3.90127      20.40426
                        -----------------------------------------
Total Dipole Moment    :     -0.34608       0.93442       2.03201
                        -----------------------------------------
Magnitude (a.u.)       :      2.26318
Magnitude (Debye)      :      5.75255

Rotational constants in cm-1:     0.029548     0.014706     0.011197
Rotational constants in MHz :   885.834387   440.871746   335.667619

                             ****ORCA TERMINATED NORMALLY****
TOTAL RUN TIME: 0 days 0 hours 0 minutes 37 seconds 441 msec
