                         Program Version 5.0.0 -  RELEASE  -
|  1> !M062X D3Zero RIJCOSX def2-TZVPD def2/J TightSCF
|  2> *xyz -1 1
|  3> C         -0.10608        1.76991       -4.08984
|  4> C         -0.25875        1.00432       -5.40983
|  5> C          0.39596       -0.37070       -5.33994
|  6> H          0.23915        1.56939       -6.20125
|  7> H         -1.30936        0.88869       -5.68245
|  8> O         -0.32633       -1.39040       -5.49128
|  9> O          1.61941       -0.40073       -5.03683
| 10> H         -0.57627        2.72718       -4.17630
| 11> H          0.93321        1.90140       -3.87192
| 12> H         -0.56868        1.21534       -3.30031
| 13> *
| 14> %MaxCore 64000
| 15>
| 16> %pal nprocs 4
| 17> end
| 18>
| 19> %scf
| 20>   MaxIter 150
| 21> end
| 22>
| 23>
| 24>                          ****END OF INPUT****

CARTESIAN COORDINATES (ANGSTROEM)
---------------------------------
  C     -0.106080    1.769910   -4.089840
  C     -0.258750    1.004320   -5.409830
  C      0.395960   -0.370700   -5.339940
  H      0.239150    1.569390   -6.201250
  H     -1.309360    0.888690   -5.682450
  O     -0.326330   -1.390400   -5.491280
  O      1.619410   -0.400730   -5.036830
  H     -0.576270    2.727180   -4.176300
  H      0.933210    1.901400   -3.871920
  H     -0.568680    1.215340   -3.300310

 Total Charge           Charge          ....   -1
 Multiplicity           Mult            ....    1
 Number of Electrons    NEL             ....   40
 Basis Dimension        Dim             ....  236

ORBITAL ENERGIES
----------------

  NO   OCC          E(Eh)            E(eV)
   0   2.0000     -19.360575      -526.8280
   1   2.0000     -19.358784      -526.7793
   2   2.0000     -10.421425      -283.5814
   3   2.0000     -10.370241      -282.1886
   4   2.0000     -10.360414      -281.9212
   5   2.0000      -0.940901       -25.6032
   6   2.0000      -0.841587       -22.9007
   7   2.0000      -0.702859       -19.1258
   8   2.0000      -0.563062       -15.3217
   9   2.0000      -0.399916       -10.8823
  10   2.0000      -0.362845        -9.8735
  11   2.0000      -0.337486        -9.1835
  12   2.0000      -0.300657        -8.1813
  13   2.0000      -0.284948        -7.7538
  14   2.0000      -0.279209        -7.5977
  15   2.0000      -0.244795        -6.6612
  16   2.0000      -0.229523        -6.2456
  17   2.0000      -0.112293        -3.0556
  18   2.0000      -0.111505        -3.0342
  19   2.0000      -0.103636        -2.8201
  20   0.0000       0.141669         3.8550
  21   0.0000       0.164102         4.4654
  22   0.0000       0.172027         4.6811
  23   0.0000       0.185350         5.0436
  24   0.0000       0.210318         5.7231

MULLIKEN ATOMIC CHARGES
-----------------------
   0 C :   -1.067656
   1 C :   -0.299870
   2 C :    0.603186
   3 H :    0.261189
   4 H :    0.257086
   5 O :   -0.795425
   6 O :   -0.803828
   7 H :    0.289155
   8 H :    0.249845
   9 H :    0.306316
Sum of atomic charges:   -1.0000000

LOEWDIN ATOMIC CHARGES
----------------------
   0 C :   -0.131077
   1 C :   -0.212308
   2 C :   -0.771240
   3 H :    0.096130
   4 H :    0.091016
   5 O :   -0.118407
   6 O :   -0.118413
   7 H :    0.043676
   8 H :    0.056816
   9 H :    0.063808

  Mayer bond orders larger than 0.100000
B(  0-C ,  1-C ) :   0.4685 B(  0-C ,  7-H ) :   0.9507 B(  0-C ,  8-H ) :   1.0475
B(  0-C ,  9-H ) :   0.9620 B(  1-C ,  2-C ) :   0.9261 B(  1-C ,  3-H ) :   0.9682
B(  1-C ,  4-H ) :   0.9981 B(  2-C ,  5-O ) :   1.3393 B(  2-C ,  6-O ) :   1.3374

Dispersion correction           -0.000085539
FINAL SINGLE POINT ENERGY      -267.831062222113

DIPOLE MOMENT
-------------
                                X             Y             Z
Electronic contribution:      1.72469      -5.27415      -1.70391
Nuclear contribution   :     -2.46071       7.20791       1.95694
                        -----------------------------------------
Total Dipole Moment    :     -0.73602       1.93377       0.25303
                        -----------------------------------------
Magnitude (a.u.)       :      2.08452
Magnitude (Debye)      :      5.29842

Rotational constants in cm-1:     0.309435     0.135317     0.107436
Rotational constants in MHz :  9276.637721  4056.700783  3220.846587

                             ****ORCA TERMINATED NORMALLY****
TOTAL RUN TIME: 0 days 0 hours 0 minutes 33 seconds 164 msec
