                         Program Version 5.0.0 -  RELEASE  -
|  1> !M062X D3Zero RIJCOSX def2-TZVPD def2/J TightSCF
|  2> *xyz 1 1
|  3> C          0.81607       -2.10149       -2.18655
|  4> H          1.69623       -2.36869       -1.60046
|  5> N          1.10055       -2.46749       -3.59927
|  6> C          0.51624       -0.61363       -2.03937
|  7> H         -0.02007       -2.71285       -1.84084
|  8> H          1.70061       -1.75723       -4.07838
|  9> H          0.29386       -2.35977       -4.25632
| 10> H          1.50132       -3.42848       -3.69491
| 11> H         -0.34841       -0.36504       -2.61858
| 12> H          1.35358       -0.04503       -2.38643
| 13> H          0.33317       -0.38682       -1.00984
| 14> *
| 15> %MaxCore 64000
| 16>
| 17> %pal nprocs 4
| 18> end
| 19>
| 20> %scf
| 21>   MaxIter 150
| 22> end
| 23>
| 24>
| 25>                          ****END OF INPUT****

CARTESIAN COORDINATES (ANGSTROEM)
---------------------------------
  C      0.816070   -2.101490   -2.186550
  H      1.696230   -2.368690   -1.600460
  N      1.100550   -2.467490   -3.599270
  C      0.516240   -0.613630   -2.039370
  H     -0.020070   -2.712850   -1.840840
  H      1.700610   -1.757230   -4.078380
  H      0.293860   -2.359770   -4.256320
  H      1.501320   -3.428480   -3.694910
  H     -0.348410   -0.365040   -2.618580
  H      1.353580   -0.045030   -2.386430
  H      0.333170   -0.386820   -1.009840

 Total Charge           Charge          ....    1
 Multiplicity           Mult            ....    1
 Number of Electrons    NEL             ....   26
 Basis Dimension        Dim             ....  183

ORBITAL ENERGIES
----------------

  NO   OCC          E(Eh)            E(eV)
   0   2.0000     -15.083903      -410.4539
   1   2.0000     -10.790923      -293.6360
   2   2.0000     -10.709823      -291.4291
   3   2.0000      -1.318067       -35.8664
   4   2.0000      -1.062028       -28.8992
   5   2.0000      -0.936062       -25.4715
   6   2.0000      -0.863888       -23.5076
   7   2.0000      -0.845934       -23.0190
   8   2.0000      -0.771623       -20.9969
   9   2.0000      -0.706446       -19.2234
  10   2.0000      -0.647363       -17.6156
  11   2.0000      -0.631894       -17.1947
  12   2.0000      -0.614764       -16.7286
  13   0.0000      -0.178729        -4.8635
  14   0.0000      -0.124589        -3.3902
  15   0.0000      -0.118246        -3.2176
  16   0.0000      -0.115670        -3.1476
  17   0.0000      -0.078890        -2.1467

MULLIKEN ATOMIC CHARGES
-----------------------
   0 C :   -0.234454
   1 H :    0.329698
   2 N :   -0.533667
   3 C :   -1.212818
   4 H :    0.334763
   5 H :    0.397409
   6 H :    0.409895
   7 H :    0.405345
   8 H :    0.382127
   9 H :    0.396956
  10 H :    0.324745
Sum of atomic charges:    1.0000000

LOEWDIN ATOMIC CHARGES
----------------------
   0 C :   -0.203904
   1 H :    0.135953
   2 N :    0.152464
   3 C :   -0.057009
   4 H :    0.137509
   5 H :    0.188205
   6 H :    0.192298
   7 H :    0.194988
   8 H :    0.083431
   9 H :    0.083052
  10 H :    0.093012

  Mayer bond orders larger than 0.100000
B(  0-C ,  1-H ) :   0.9216 B(  0-C ,  2-N ) :   0.8026 B(  0-C ,  3-C ) :   0.4790
B(  0-C ,  4-H ) :   0.9267 B(  2-N ,  5-H ) :   0.8385 B(  2-N ,  6-H ) :   0.8289
B(  2-N ,  7-H ) :   0.8346 B(  3-C ,  8-H ) :   0.9152 B(  3-C ,  9-H ) :   0.8951
B(  3-C , 10-H ) :   0.9833

Dispersion correction           -0.000054527
FINAL SINGLE POINT ENERGY      -135.504749882523

DIPOLE MOMENT
-------------
                                X             Y             Z
Electronic contribution:      0.41461      -1.42158      -1.05667
Nuclear contribution   :     -0.07506       0.54337      -0.16191
                        -----------------------------------------
Total Dipole Moment    :      0.33956      -0.87822      -1.21858
                        -----------------------------------------
Magnitude (a.u.)       :      1.53997
Magnitude (Debye)      :      3.91429

Rotational constants in cm-1:     0.999557     0.280801     0.246932
Rotational constants in MHz : 29965.963633  8418.199581  7402.841054

                             ****ORCA TERMINATED NORMALLY****
TOTAL RUN TIME: 0 days 0 hours 0 minutes 19 seconds 836 msec
