                         Program Version 5.0.0 -  RELEASE  -
|  1> !M062X D3Zero RIJCOSX def2-TZVPD def2/J TightSCF xyzfile
|  2>
|  3> *xyzfile 0 1 B.xyz
|  4>
|  5> %MaxCore 64000
|  6>
|  7> %pal nprocs 4
|  8> end
|  9>
| 10> %scf
| 11>   MaxIter 150
| 12> end
| 13>
| 14>
| 15>                          ****END OF INPUT****

CARTESIAN COORDINATES (ANGSTROEM)
---------------------------------
  C      0.816067   -2.101491   -2.186546
  H      1.696232   -2.368691   -1.600457
  N      1.100552   -2.467492   -3.599269
  C      0.516243   -0.613634   -2.039373
  H     -0.020066   -2.712849   -1.840844
  C     -0.868621   -0.193925   -2.546303
  C     -0.984801    1.284739   -2.928686
  H     -0.764939    1.904116   -2.051568
  H     -2.032613    1.478953   -3.178952
  C     -0.106085    1.769914   -4.089836
  H     -0.347744    2.822196   -4.262942
  H      0.949683    1.745875   -3.808781
  C     -0.258747    1.004323   -5.409829
  C      0.395958   -0.370696   -5.339939
  H      0.239150    1.569393   -6.201253
  H     -1.309360    0.888694   -5.682455
  H      1.700606   -1.757225   -4.078378
  H      0.293855   -2.359766   -4.256324
  H      1.501324   -3.428479   -3.694915
  O     -0.326329   -1.390398   -5.491279
  O      1.619412   -0.400726   -5.036827
  H     -1.607271   -0.412651   -1.768955
  H     -1.157234   -0.796164   -3.409254
  H      1.299044   -0.056805   -2.558982
  H      0.612393   -0.365579   -0.979171

 Total Charge           Charge          ....    0
 Multiplicity           Mult            ....    1
 Number of Electrons    NEL             ....   80
 Basis Dimension        Dim             ....  511

ORBITAL ENERGIES
----------------

  NO   OCC          E(Eh)            E(eV)
   0   2.0000     -19.561234      -532.2882
   1   2.0000     -19.559239      -532.2340
   2   2.0000     -14.832641      -403.6167
   3   2.0000     -10.614897      -288.8460
   4   2.0000     -10.609798      -288.7073
   5   2.0000     -10.549607      -287.0694
   6   2.0000     -10.531591      -286.5792
   7   2.0000     -10.527068      -286.4561
   8   2.0000     -10.520188      -286.2689
   9   2.0000     -10.511240      -286.0254
  10   2.0000      -1.153713       -31.3941
  11   2.0000      -1.087325       -29.5876
  12   2.0000      -1.049158       -28.5490
  13   2.0000      -0.915280       -24.9060
  14   2.0000      -0.869841       -23.6696
  15   2.0000      -0.819561       -22.3014
  16   2.0000      -0.750979       -20.4352
  17   2.0000      -0.713642       -19.4192
  18   2.0000      -0.653992       -17.7960
  19   2.0000      -0.644056       -17.5256
  20   2.0000      -0.618740       -16.8368
  21   2.0000      -0.590862       -16.0782
  22   2.0000      -0.561184       -15.2706
  23   2.0000      -0.541967       -14.7477
  24   2.0000      -0.527828       -14.3629
  25   2.0000      -0.517573       -14.0839
  26   2.0000      -0.497485       -13.5373
  27   2.0000      -0.488579       -13.2949
  28   2.0000      -0.471977       -12.8432
  29   2.0000      -0.457190       -12.4408
  30   2.0000      -0.456057       -12.4099
  31   2.0000      -0.436495       -11.8776
  32   2.0000      -0.416824       -11.3423
  33   2.0000      -0.410947       -11.1824
  34   2.0000      -0.385074       -10.4784
  35   2.0000      -0.370985       -10.0950
  36   2.0000      -0.367383        -9.9970
  37   2.0000      -0.317259        -8.6331
  38   2.0000      -0.309947        -8.4341
  39   2.0000      -0.302875        -8.2416
  40   0.0000      -0.007878        -0.2144
  41   0.0000       0.019318         0.5257
  42   0.0000       0.026823         0.7299
  43   0.0000       0.028445         0.7740
  44   0.0000       0.045601         1.2409

MULLIKEN ATOMIC CHARGES
-----------------------
   0 C :   -0.863894
   1 H :    0.371929
   2 N :   -0.528605
   3 C :   -0.377065
   4 H :    0.359003
   5 C :   -0.520108
   6 C :   -0.947272
   7 H :    0.339395
   8 H :    0.378472
   9 C :   -0.535394
  10 H :    0.383927
  11 H :    0.214120
  12 C :   -0.767970
  13 C :    1.092616
  14 H :    0.370196
  15 H :    0.322445
  16 H :    0.415515
  17 H :    0.421174
  18 H :    0.358715
  19 O :   -0.956639
  20 O :   -0.939983
  21 H :    0.393196
  22 H :    0.308220
  23 H :    0.270806
  24 H :    0.437200
Sum of atomic charges:   -0.0000000

LOEWDIN ATOMIC CHARGES
----------------------
   0 C :   -0.166541
   1 H :    0.121061
   2 N :    0.123422
   3 C :   -0.186211
   4 H :    0.127837
   5 C :   -0.202780
   6 C :   -0.202905
   7 H :    0.112189
   8 H :    0.113385
   9 C :   -0.206304
  10 H :    0.108575
  11 H :    0.105189
  12 C :   -0.111523
  13 C :   -0.664804
  14 H :    0.119388
  15 H :    0.118679
  16 H :    0.101581
  17 H :    0.101581
  18 H :    0.177605
  19 O :   -0.071993
  20 O :   -0.062680
  21 H :    0.115148
  22 H :    0.100692
  23 H :    0.109230
  24 H :    0.120180

  Mayer bond orders larger than 0.100000
B(  0-C ,  1-H ) :   0.9160 B(  0-C ,  2-N ) :   0.8806 B(  0-C ,  3-C ) :   0.6652
B(  0-C ,  4-H ) :   0.9221 B(  0-C ,  5-C ) :   0.1535 B(  2-N , 16-H ) :   0.7001
B(  2-N , 17-H ) :   0.6958 B(  2-N , 18-H ) :   0.8729 B(  3-C ,  5-C ) :   0.2161
B(  3-C ,  6-C ) :   0.1479 B(  3-C , 22-H ) :  -0.1538 B(  3-C , 23-H ) :   0.9886
B(  3-C , 24-H ) :   0.8593 B(  5-C ,  6-C ) :   0.6760 B(  5-C ,  9-C ) :  -0.1170
B(  5-C , 21-H ) :   0.9324 B(  5-C , 22-H ) :   1.0118 B(  5-C , 23-H ) :  -0.1026
B(  6-C ,  7-H ) :   0.9715 B(  6-C ,  8-H ) :   0.9586 B(  6-C ,  9-C ) :   0.6494
B(  9-C , 10-H ) :   0.9016 B(  9-C , 11-H ) :   1.0306 B(  9-C , 12-C ) :   0.6876
B( 12-C , 13-C ) :   0.9029 B( 12-C , 14-H ) :   0.8864 B( 12-C , 15-H ) :   1.0542
B( 13-C , 19-O ) :   0.8374 B( 13-C , 20-O ) :   0.9405 B( 16-H , 20-O ) :   0.1718
B( 17-H , 19-O ) :   0.1923

Dispersion correction           -0.001030543
FINAL SINGLE POINT ENERGY      -480.967376587727

DIPOLE MOMENT
-------------
                                X             Y             Z
Electronic contribution:      2.28062      -3.07796      -6.23119
Nuclear contribution   :     -2.02598       1.95876       8.24116
                        -----------------------------------------
Total Dipole Moment    :      0.25464      -1.11919       2.00997
                        -----------------------------------------
Magnitude (a.u.)       :      2.31461
Magnitude (Debye)      :      5.88326

Rotational constants in cm-1:     0.052900     0.041948     0.028766
Rotational constants in MHz :  1585.892512  1257.572595   862.390225

                             ****ORCA TERMINATED NORMALLY****
TOTAL RUN TIME: 0 days 0 hours 3 minutes 25 seconds 844 msec
