                         Program Version 5.0.0 -  RELEASE  -
|  1> !M062X D3Zero RIJCOSX def2-TZVPD def2/J TightSCF
|  2> *xyz 0 1
|  3> C         -0.10608        1.76991       -4.08984
|  4> C         -0.25875        1.00432       -5.40983
|  5> C          0.39596       -0.37070       -5.33994
|  6> H          0.23915        1.56939       -6.20125
|  7> H         -1.30936        0.88869       -5.68245
|  8> F         -0.32633       -1.39040       -5.49128
|  9> O          1.61941       -0.40073       -5.03683
| 10> H         -0.57627        2.72718       -4.17630
| 11> H          0.93321        1.90140       -3.87192
| 12> H         -0.56868        1.21534       -3.30031
| 13> *
| 14> %MaxCore 64000
| 15>
| 16> %pal nprocs 4
| 17> end
| 18>
| 19> %scf
| 20>   MaxIter 150
| 21> end
| 22>
| 23>
| 24>                          ****END OF INPUT****

CARTESIAN COORDINATES (ANGSTROEM)
---------------------------------
  C     -0.106080    1.769910   -4.089840
  C     -0.258750    1.004320   -5.409830
  C      0.395960   -0.370700   -5.339940
  H      0.239150    1.569390   -6.201250
  H     -1.309360    0.888690   -5.682450
  F     -0.326330   -1.390400   -5.491280
  O      1.619410   -0.400730   -5.036830
  H     -0.576270    2.727180   -4.176300
  H      0.933210    1.901400   -3.871920
  H     -0.568680    1.215340   -3.300310

 Total Charge           Charge          ....    0
 Multiplicity           Mult            ....    1
 Number of Electrons    NEL             ....   40
 Basis Dimension        Dim             ....  236

ORBITAL ENERGIES
----------------

  NO   OCC          E(Eh)            E(eV)
   0   2.0000     -25.315496      -688.8697
   1   2.0000     -19.634198      -534.2737
   2   2.0000     -10.721370      -291.7433
   3   2.0000     -10.569296      -287.6052
   4   2.0000     -10.540362      -286.8178
   5   2.0000      -1.463284       -39.8180
   6   2.0000      -1.153834       -31.3974
   7   2.0000      -0.901724       -24.5372
   8   2.0000      -0.787831       -21.4380
   9   2.0000      -0.731932       -19.9169
  10   2.0000      -0.643366       -17.5069
  11   2.0000      -0.631098       -17.1731
  12   2.0000      -0.594868       -16.1872
  13   2.0000      -0.538978       -14.6663
  14   2.0000      -0.510903       -13.9024
  15   2.0000      -0.467923       -12.7328
  16   2.0000      -0.448468       -12.2034
  17   2.0000      -0.440904       -11.9976
  18   2.0000      -0.412840       -11.2339
  19   2.0000      -0.371570       -10.1109
  20   0.0000       0.004722         0.1285
  21   0.0000       0.014774         0.4020
  22   0.0000       0.035651         0.9701
  23   0.0000       0.042563         1.1582
  24   0.0000       0.052456         1.4274

MULLIKEN ATOMIC CHARGES
-----------------------
   0 C :   -1.101669
   1 C :   -0.336475
   2 C :    0.718240
   3 H :    0.289487
   4 H :    0.307531
   5 F :   -0.241813
   6 O :   -0.583169
   7 H :    0.308843
   8 H :    0.302576
   9 H :    0.336449
Sum of atomic charges:    0.0000000

LOEWDIN ATOMIC CHARGES
----------------------
   0 C :   -0.086779
   1 C :   -0.156185
   2 C :   -0.471708
   3 H :    0.122610
   4 H :    0.111118
   5 F :    0.193243
   6 O :    0.067531
   7 H :    0.069996
   8 H :    0.073914
   9 H :    0.076261

  Mayer bond orders larger than 0.100000
B(  0-C ,  1-C ) :   0.5351 B(  0-C ,  7-H ) :   0.9540 B(  0-C ,  8-H ) :   1.0099
B(  0-C ,  9-H ) :   0.9260 B(  1-C ,  2-C ) :   0.9069 B(  1-C ,  3-H ) :   0.9692
B(  1-C ,  4-H ) :   0.9304 B(  2-C ,  5-F ) :   0.9243 B(  2-C ,  6-O ) :   1.6336

Dispersion correction           -0.000088786
FINAL SINGLE POINT ENERGY      -292.393486100850

DIPOLE MOMENT
-------------
                                X             Y             Z
Electronic contribution:      0.83395      -8.15025      -2.56611
Nuclear contribution   :     -1.80992       8.85192       2.42184
                        -----------------------------------------
Total Dipole Moment    :     -0.97597       0.70168      -0.14427
                        -----------------------------------------
Magnitude (a.u.)       :      1.21065
Magnitude (Debye)      :      3.07724

Rotational constants in cm-1:     0.298360     0.128849     0.102271
Rotational constants in MHz :  8944.606599  3862.796179  3066.020510

                             ****ORCA TERMINATED NORMALLY****
TOTAL RUN TIME: 0 days 0 hours 0 minutes 34 seconds 470 msec
