                         Program Version 5.0.0 -  RELEASE  -
|  1> !M062X D3Zero RIJCOSX def2-TZVPD def2/J TightSCF
|  2> *xyz 0 1
|  3> C          0.81607       -2.10149       -2.18655
|  4> H          1.69623       -2.36869       -1.60046
|  5> C          1.10055       -2.46749       -3.59927
|  6> C          0.51624       -0.61363       -2.03937
|  7> H         -0.02007       -2.71285       -1.84084
|  8> H          1.70061       -1.75723       -4.07838
|  9> H          0.29386       -2.35977       -4.25632
| 10> H          1.50132       -3.42848       -3.69491
| 11> H         -0.34841       -0.36504       -2.61858
| 12> H          1.35358       -0.04503       -2.38643
| 13> H          0.33317       -0.38682       -1.00984
| 14> *
| 15> %MaxCore 64000
| 16>
| 17> %pal nprocs 4
| 18> end
| 19>
| 20> %scf
| 21>   MaxIter 150
| 22> end
| 23>
| 24>
| 25>                          ****END OF INPUT****

CARTESIAN COORDINATES (ANGSTROEM)
---------------------------------
  C      0.816070   -2.101490   -2.186550
  H      1.696230   -2.368690   -1.600460
  C      1.100550   -2.467490   -3.599270
  C      0.516240   -0.613630   -2.039370
  H     -0.020070   -2.712850   -1.840840
  H      1.700610   -1.757230   -4.078380
  H      0.293860   -2.359770   -4.256320
  H      1.501320   -3.428480   -3.694910
  H     -0.348410   -0.365040   -2.618580
  H      1.353580   -0.045030   -2.386430
  H      0.333170   -0.386820   -1.009840

 Total Charge           Charge          ....    0
 Multiplicity           Mult            ....    1
 Number of Electrons    NEL             ....   26
 Basis Dimension        Dim             ....  183

ORBITAL ENERGIES
----------------

  NO   OCC          E(Eh)            E(eV)
   0   2.0000     -10.521517      -286.3050
   1   2.0000     -10.511263      -286.0260
   2   2.0000     -10.498188      -285.6702
   3   2.0000      -0.888655       -24.1815
   4   2.0000      -0.780287       -21.2327
   5   2.0000      -0.673069       -18.3151
   6   2.0000      -0.530416       -14.4334
   7   2.0000      -0.514581       -14.0024
   8   2.0000      -0.477814       -13.0020
   9   2.0000      -0.440378       -11.9833
  10   2.0000      -0.401594       -10.9279
  11   2.0000      -0.395540       -10.7632
  12   2.0000      -0.381038       -10.3686
  13   0.0000       0.024149         0.6571
  14   0.0000       0.043534         1.1846
  15   0.0000       0.045269         1.2318
  16   0.0000       0.075964         2.0671
  17   0.0000       0.094980         2.5845

MULLIKEN ATOMIC CHARGES
-----------------------
   0 C :   -0.093202
   1 H :    0.305712
   2 C :   -1.313071
   3 C :   -1.196415
   4 H :    0.291001
   5 H :    0.376071
   6 H :    0.386154
   7 H :    0.291131
   8 H :    0.328287
   9 H :    0.331864
  10 H :    0.292469
Sum of atomic charges:   -0.0000000

LOEWDIN ATOMIC CHARGES
----------------------
   0 C :   -0.322679
   1 H :    0.104051
   2 C :   -0.143759
   3 C :   -0.120145
   4 H :    0.105205
   5 H :    0.059111
   6 H :    0.061165
   7 H :    0.059814
   8 H :    0.068411
   9 H :    0.067334
  10 H :    0.061492

  Mayer bond orders larger than 0.100000
B(  0-C ,  1-H ) :   0.9534 B(  0-C ,  2-C ) :   0.4567 B(  0-C ,  3-C ) :   0.4999
B(  0-C ,  4-H ) :   0.9486 B(  2-C ,  3-C ) :   0.1511 B(  2-C ,  5-H ) :   0.9227
B(  2-C ,  6-H ) :   0.9400 B(  2-C ,  7-H ) :   0.9848 B(  3-C ,  8-H ) :   0.9638
B(  3-C ,  9-H ) :   0.9711 B(  3-C , 10-H ) :   0.9979

Dispersion correction           -0.000053119
FINAL SINGLE POINT ENERGY      -119.100840114207

DIPOLE MOMENT
-------------
                                X             Y             Z
Electronic contribution:     -0.01868      -0.30725       0.46663
Nuclear contribution   :      0.01737       0.30387      -0.47422
                        -----------------------------------------
Total Dipole Moment    :     -0.00131      -0.00338      -0.00759
                        -----------------------------------------
Magnitude (a.u.)       :      0.00841
Magnitude (Debye)      :      0.02138

Rotational constants in cm-1:     1.006891     0.295208     0.258491
Rotational constants in MHz : 30185.831813  8850.104914  7749.351732

                             ****ORCA TERMINATED NORMALLY****
TOTAL RUN TIME: 0 days 0 hours 0 minutes 20 seconds 175 msec
