                         Program Version 5.0.0 -  RELEASE  -
|  1> !M062X D3Zero RIJCOSX def2-TZVPD def2/J TightSCF
|  2> *xyz 0 1
|  3> C         -0.10608        1.76991       -4.08984
|  4> C         -0.25875        1.00432       -5.40983
|  5> C          0.39596       -0.37070       -5.33994
|  6> H          0.23915        1.56939       -6.20125
|  7> H         -1.30936        0.88869       -5.68245
|  8> O         -0.32633       -1.39040       -5.49128
|  9> F          1.61941       -0.40073       -5.03683
| 10> H         -0.57627        2.72718       -4.17630
| 11> H          0.93321        1.90140       -3.87192
| 12> H         -0.56868        1.21534       -3.30031
| 13> *
| 14> %MaxCore 64000
| 15>
| 16> %pal nprocs 4
| 17> end
| 18>
| 19> %scf
| 20>   MaxIter 150
| 21> end
| 22>
| 23>
| 24>                          ****END OF INPUT****

CARTESIAN COORDINATES (ANGSTROEM)
---------------------------------
  C     -0.106080    1.769910   -4.089840
  C     -0.258750    1.004320   -5.409830
  C      0.395960   -0.370700   -5.339940
  H      0.239150    1.569390   -6.201250
  H     -1.309360    0.888690   -5.682450
  O     -0.326330   -1.390400   -5.491280
  F      1.619410   -0.400730   -5.036830
  H     -0.576270    2.727180   -4.176300
  H      0.933210    1.901400   -3.871920
  H     -0.568680    1.215340   -3.300310

 Total Charge           Charge          ....    0
 Multiplicity           Mult            ....    1
 Number of Electrons    NEL             ....   40
 Basis Dimension        Dim             ....  236

ORBITAL ENERGIES
----------------

  NO   OCC          E(Eh)            E(eV)
   0   2.0000     -25.314138      -688.8327
   1   2.0000     -19.635108      -534.2984
   2   2.0000     -10.720447      -291.7182
   3   2.0000     -10.569175      -287.6019
   4   2.0000     -10.545340      -286.9533
   5   2.0000      -1.461811       -39.7779
   6   2.0000      -1.154087       -31.4043
   7   2.0000      -0.906414       -24.6648
   8   2.0000      -0.784581       -21.3495
   9   2.0000      -0.735772       -20.0214
  10   2.0000      -0.644331       -17.5331
  11   2.0000      -0.634951       -17.2779
  12   2.0000      -0.587135       -15.9768
  13   2.0000      -0.540107       -14.6971
  14   2.0000      -0.511462       -13.9176
  15   2.0000      -0.472369       -12.8538
  16   2.0000      -0.455349       -12.3907
  17   2.0000      -0.444043       -12.0830
  18   2.0000      -0.418233       -11.3807
  19   2.0000      -0.367830       -10.0092
  20   0.0000       0.005872         0.1598
  21   0.0000       0.017057         0.4641
  22   0.0000       0.034517         0.9393
  23   0.0000       0.041682         1.1342
  24   0.0000       0.052939         1.4406

MULLIKEN ATOMIC CHARGES
-----------------------
   0 C :   -1.094714
   1 C :   -0.353997
   2 C :    0.728745
   3 H :    0.312943
   4 H :    0.272259
   5 O :   -0.581856
   6 F :   -0.242074
   7 H :    0.302050
   8 H :    0.313998
   9 H :    0.342646
Sum of atomic charges:   -0.0000000

LOEWDIN ATOMIC CHARGES
----------------------
   0 C :   -0.089059
   1 C :   -0.151883
   2 C :   -0.478439
   3 H :    0.119302
   4 H :    0.120077
   5 O :    0.070598
   6 F :    0.190275
   7 H :    0.070608
   8 H :    0.070726
   9 H :    0.077794

  Mayer bond orders larger than 0.100000
B(  0-C ,  1-C ) :   0.4977 B(  0-C ,  7-H ) :   0.9703 B(  0-C ,  8-H ) :   0.9670
B(  0-C ,  9-H ) :   0.9468 B(  1-C ,  2-C ) :   0.9296 B(  1-C ,  3-H ) :   0.9420
B(  1-C ,  4-H ) :   0.9767 B(  2-C ,  5-O ) :   1.6378 B(  2-C ,  6-F ) :   0.9012

Dispersion correction           -0.000091821
FINAL SINGLE POINT ENERGY      -292.394924406307

DIPOLE MOMENT
-------------
                                X             Y             Z
Electronic contribution:      4.06132      -6.47826      -1.80573
Nuclear contribution   :     -3.93139       7.77287       1.92635
                        -----------------------------------------
Total Dipole Moment    :      0.12993       1.29461       0.12062
                        -----------------------------------------
Magnitude (a.u.)       :      1.30669
Magnitude (Debye)      :      3.32135

Rotational constants in cm-1:     0.286068     0.133630     0.103472
Rotational constants in MHz :  8576.109806  4006.118234  3102.010802

                             ****ORCA TERMINATED NORMALLY****
TOTAL RUN TIME: 0 days 0 hours 0 minutes 34 seconds 293 msec
