                         Program Version 5.0.0 -  RELEASE  -
|  1> !M062X D3Zero RIJCOSX def2-TZVPD def2/J TightSCF xyzfile
|  2>
|  3> *xyzfile 0 1 D1.xyz
|  4>
|  5> %MaxCore 64000
|  6>
|  7> %pal nprocs 4
|  8> end
|  9>
| 10> %scf
| 11>   MaxIter 150
| 12> end
| 13>
| 14>
| 15>                          ****END OF INPUT****

CARTESIAN COORDINATES (ANGSTROEM)
---------------------------------
  C      0.816067   -2.101491   -2.186546
  H      1.696232   -2.368691   -1.600457
  C      1.100552   -2.467492   -3.599269
  C      0.516243   -0.613634   -2.039373
  H     -0.020066   -2.712849   -1.840844
  C     -0.868621   -0.193925   -2.546303
  C     -0.984801    1.284739   -2.928686
  H     -0.764939    1.904116   -2.051568
  H     -2.032613    1.478953   -3.178952
  C     -0.106085    1.769914   -4.089836
  H     -0.347744    2.822196   -4.262942
  H      0.949683    1.745875   -3.808781
  C     -0.258747    1.004323   -5.409829
  C      0.395958   -0.370696   -5.339939
  H      0.239150    1.569393   -6.201253
  H     -1.309360    0.888694   -5.682455
  H      1.700606   -1.757225   -4.078378
  H      0.293855   -2.359766   -4.256324
  H      1.501324   -3.428479   -3.694915
  F     -0.326329   -1.390398   -5.491279
  O      1.619412   -0.400726   -5.036827
  H     -1.607271   -0.412651   -1.768955
  H     -1.157234   -0.796164   -3.409254
  H      1.299044   -0.056805   -2.558982
  H      0.612393   -0.365579   -0.979171

 Total Charge           Charge          ....    0
 Multiplicity           Mult            ....    1
 Number of Electrons    NEL             ....   80
 Basis Dimension        Dim             ....  511

ORBITAL ENERGIES
----------------

  NO   OCC          E(Eh)            E(eV)
   0   2.0000     -25.322460      -689.0592
   1   2.0000     -19.640365      -534.4415
   2   2.0000     -10.729358      -291.9607
   3   2.0000     -10.570403      -287.6353
   4   2.0000     -10.549791      -287.0744
   5   2.0000     -10.537830      -286.7489
   6   2.0000     -10.530320      -286.5446
   7   2.0000     -10.516365      -286.1648
   8   2.0000     -10.506638      -285.9002
   9   2.0000     -10.457187      -284.5545
  10   2.0000      -1.476576       -40.1797
  11   2.0000      -1.169082       -31.8123
  12   2.0000      -0.926961       -25.2239
  13   2.0000      -0.893330       -24.3087
  14   2.0000      -0.842510       -22.9259
  15   2.0000      -0.803458       -21.8632
  16   2.0000      -0.762001       -20.7351
  17   2.0000      -0.726957       -19.7815
  18   2.0000      -0.689083       -18.7509
  19   2.0000      -0.654345       -17.8056
  20   2.0000      -0.637979       -17.3603
  21   2.0000      -0.634445       -17.2641
  22   2.0000      -0.609671       -16.5900
  23   2.0000      -0.551876       -15.0173
  24   2.0000      -0.532410       -14.4876
  25   2.0000      -0.512540       -13.9469
  26   2.0000      -0.508285       -13.8311
  27   2.0000      -0.495271       -13.4770
  28   2.0000      -0.482517       -13.1300
  29   2.0000      -0.468359       -12.7447
  30   2.0000      -0.451510       -12.2862
  31   2.0000      -0.431725       -11.7478
  32   2.0000      -0.428612       -11.6631
  33   2.0000      -0.412469       -11.2239
  34   2.0000      -0.397849       -10.8260
  35   2.0000      -0.390531       -10.6269
  36   2.0000      -0.379585       -10.3290
  37   2.0000      -0.365860        -9.9556
  38   2.0000      -0.357214        -9.7203
  39   2.0000      -0.331038        -9.0080
  40   0.0000      -0.002855        -0.0777
  41   0.0000       0.011676         0.3177
  42   0.0000       0.026951         0.7334
  43   0.0000       0.029055         0.7906
  44   0.0000       0.032995         0.8978

MULLIKEN ATOMIC CHARGES
-----------------------
   0 C :   -0.486968
   1 H :    0.338665
   2 C :   -1.456537
   3 C :   -0.479002
   4 H :    0.318075
   5 C :   -0.490705
   6 C :   -0.980682
   7 H :    0.352864
   8 H :    0.373056
   9 C :   -0.531314
  10 H :    0.387046
  11 H :    0.260404
  12 C :   -0.692585
  13 C :    0.736213
  14 H :    0.370472
  15 H :    0.360707
  16 H :    0.538551
  17 H :    0.406088
  18 H :    0.385140
  19 F :   -0.328608
  20 O :   -0.658030
  21 H :    0.402785
  22 H :    0.249447
  23 H :    0.228701
  24 H :    0.396214
Sum of atomic charges:    0.0000000

LOEWDIN ATOMIC CHARGES
----------------------
   0 C :   -0.244751
   1 H :    0.108997
   2 C :   -0.124980
   3 C :   -0.210010
   4 H :    0.112174
   5 C :   -0.202225
   6 C :   -0.204526
   7 H :    0.116711
   8 H :    0.111521
   9 C :   -0.196248
  10 H :    0.114145
  11 H :    0.111047
  12 C :   -0.086724
  13 C :   -0.451431
  14 H :    0.128623
  15 H :    0.123730
  16 H :    0.026186
  17 H :    0.040393
  18 H :    0.073376
  19 F :    0.160858
  20 O :    0.056112
  21 H :    0.118364
  22 H :    0.101560
  23 H :    0.104248
  24 H :    0.112851

  Mayer bond orders larger than 0.100000
B(  0-C ,  1-H ) :   0.9564 B(  0-C ,  2-C ) :   0.3850 B(  0-C ,  3-C ) :   0.7256
B(  0-C ,  4-H ) :   0.9799 B(  0-C ,  5-C ) :   0.2216 B(  2-C , 13-C ) :   0.1561
B(  2-C , 16-H ) :   0.8244 B(  2-C , 17-H ) :   0.9032 B(  2-C , 18-H ) :   0.9205
B(  2-C , 20-O ) :   0.1389 B(  3-C ,  5-C ) :   0.2455 B(  3-C ,  6-C ) :   0.1499
B(  3-C , 22-H ) :  -0.1177 B(  3-C , 23-H ) :   1.0556 B(  3-C , 24-H ) :   0.8573
B(  5-C ,  6-C ) :   0.6525 B(  5-C , 13-C ) :   0.1377 B(  5-C , 21-H ) :   0.9089
B(  5-C , 22-H ) :   0.9813 B(  5-C , 23-H ) :  -0.1401 B(  6-C ,  7-H ) :   0.9673
B(  6-C ,  8-H ) :   0.9704 B(  6-C ,  9-C ) :   0.6643 B(  9-C , 10-H ) :   0.9022
B(  9-C , 11-H ) :   1.0027 B(  9-C , 12-C ) :   0.6293 B( 12-C , 13-C ) :   0.8772
B( 12-C , 14-H ) :   0.9007 B( 12-C , 15-H ) :   0.9884 B( 13-C , 19-F ) :   0.6924
B( 13-C , 20-O ) :   1.4987 B( 16-H , 20-O ) :  -0.1808

Dispersion correction           -0.001010852
FINAL SINGLE POINT ENERGY      -488.877220102703

DIPOLE MOMENT
-------------
                                X             Y             Z
Electronic contribution:      0.33756      -1.96888     -10.56033
Nuclear contribution   :     -1.21560       2.80077      10.24180
                        -----------------------------------------
Total Dipole Moment    :     -0.87804       0.83189      -0.31853
                        -----------------------------------------
Magnitude (a.u.)       :      1.25078
Magnitude (Debye)      :      3.17924

Rotational constants in cm-1:     0.051255     0.042531     0.028894
Rotational constants in MHz :  1536.587743  1275.050721   866.218876

                             ****ORCA TERMINATED NORMALLY****
TOTAL RUN TIME: 0 days 0 hours 3 minutes 30 seconds 57 msec
