                         Program Version 5.0.0 -  RELEASE  -
|  1> !M062X D3Zero RIJCOSX def2-TZVPD def2/J TightSCF xyzfile
|  2>
|  3> *xyzfile 0 1 D2.xyz
|  4>
|  5> %MaxCore 64000
|  6>
|  7> %pal nprocs 4
|  8> end
|  9>
| 10> %scf
| 11>   MaxIter 150
| 12> end
| 13>
| 14>
| 15>                          ****END OF INPUT****

CARTESIAN COORDINATES (ANGSTROEM)
---------------------------------
  C      0.816067   -2.101491   -2.186546
  H      1.696232   -2.368691   -1.600457
  C      1.100552   -2.467492   -3.599269
  C      0.516243   -0.613634   -2.039373
  H     -0.020066   -2.712849   -1.840844
  C     -0.868621   -0.193925   -2.546303
  C     -0.984801    1.284739   -2.928686
  H     -0.764939    1.904116   -2.051568
  H     -2.032613    1.478953   -3.178952
  C     -0.106085    1.769914   -4.089836
  H     -0.347744    2.822196   -4.262942
  H      0.949683    1.745875   -3.808781
  C     -0.258747    1.004323   -5.409829
  C      0.395958   -0.370696   -5.339939
  H      0.239150    1.569393   -6.201253
  H     -1.309360    0.888694   -5.682455
  H      1.700606   -1.757225   -4.078378
  H      0.293855   -2.359766   -4.256324
  H      1.501324   -3.428479   -3.694915
  O     -0.326329   -1.390398   -5.491279
  F      1.619412   -0.400726   -5.036827
  H     -1.607271   -0.412651   -1.768955
  H     -1.157234   -0.796164   -3.409254
  H      1.299044   -0.056805   -2.558982
  H      0.612393   -0.365579   -0.979171

 Total Charge           Charge          ....    0
 Multiplicity           Mult            ....    1
 Number of Electrons    NEL             ....   80
 Basis Dimension        Dim             ....  511

ORBITAL ENERGIES
----------------

  NO   OCC          E(Eh)            E(eV)
   0   2.0000     -25.322791      -689.0682
   1   2.0000     -19.639800      -534.4261
   2   2.0000     -10.728611      -291.9404
   3   2.0000     -10.570345      -287.6337
   4   2.0000     -10.553735      -287.1817
   5   2.0000     -10.537882      -286.7503
   6   2.0000     -10.524998      -286.3997
   7   2.0000     -10.520329      -286.2727
   8   2.0000     -10.507731      -285.9299
   9   2.0000     -10.458402      -284.5876
  10   2.0000      -1.476431       -40.1757
  11   2.0000      -1.168651       -31.8006
  12   2.0000      -0.929535       -25.2939
  13   2.0000      -0.895150       -24.3583
  14   2.0000      -0.843216       -22.9451
  15   2.0000      -0.802365       -21.8335
  16   2.0000      -0.761879       -20.7318
  17   2.0000      -0.727347       -19.7921
  18   2.0000      -0.689631       -18.7658
  19   2.0000      -0.656731       -17.8705
  20   2.0000      -0.649457       -17.6726
  21   2.0000      -0.632461       -17.2101
  22   2.0000      -0.596389       -16.2286
  23   2.0000      -0.552449       -15.0329
  24   2.0000      -0.531489       -14.4626
  25   2.0000      -0.513844       -13.9824
  26   2.0000      -0.510304       -13.8861
  27   2.0000      -0.498585       -13.5672
  28   2.0000      -0.488546       -13.2940
  29   2.0000      -0.461005       -12.5446
  30   2.0000      -0.450783       -12.2664
  31   2.0000      -0.443963       -12.0809
  32   2.0000      -0.432063       -11.7570
  33   2.0000      -0.412054       -11.2126
  34   2.0000      -0.395441       -10.7605
  35   2.0000      -0.391668       -10.6578
  36   2.0000      -0.377030       -10.2595
  37   2.0000      -0.363983        -9.9045
  38   2.0000      -0.360776        -9.8172
  39   2.0000      -0.331588        -9.0230
  40   0.0000      -0.001744        -0.0475
  41   0.0000       0.012266         0.3338
  42   0.0000       0.026321         0.7162
  43   0.0000       0.027160         0.7391
  44   0.0000       0.033087         0.9003

MULLIKEN ATOMIC CHARGES
-----------------------
   0 C :   -0.495305
   1 H :    0.336555
   2 C :   -1.413231
   3 C :   -0.476845
   4 H :    0.318631
   5 C :   -0.481590
   6 C :   -0.942718
   7 H :    0.355523
   8 H :    0.374130
   9 C :   -0.556354
  10 H :    0.377991
  11 H :    0.273548
  12 C :   -0.690214
  13 C :    0.766759
  14 H :    0.380918
  15 H :    0.315624
  16 H :    0.441465
  17 H :    0.466073
  18 H :    0.382327
  19 O :   -0.690048
  20 F :   -0.308146
  21 H :    0.399391
  22 H :    0.269086
  23 H :    0.205612
  24 H :    0.390819
Sum of atomic charges:   -0.0000000

LOEWDIN ATOMIC CHARGES
----------------------
   0 C :   -0.245116
   1 H :    0.107052
   2 C :   -0.122043
   3 C :   -0.210357
   4 H :    0.114791
   5 C :   -0.202091
   6 C :   -0.203712
   7 H :    0.115524
   8 H :    0.113300
   9 C :   -0.200831
  10 H :    0.113528
  11 H :    0.108003
  12 C :   -0.081338
  13 C :   -0.456962
  14 H :    0.125921
  15 H :    0.131737
  16 H :    0.044240
  17 H :    0.024104
  18 H :    0.074308
  19 O :    0.049015
  20 F :    0.165522
  21 H :    0.118328
  22 H :    0.102152
  23 H :    0.102195
  24 H :    0.112729

  Mayer bond orders larger than 0.100000
B(  0-C ,  1-H ) :   0.9624 B(  0-C ,  2-C ) :   0.4069 B(  0-C ,  3-C ) :   0.7632
B(  0-C ,  4-H ) :   0.9757 B(  0-C ,  5-C ) :   0.1727 B(  2-C , 13-C ) :   0.1704
B(  2-C , 16-H ) :   0.8192 B(  2-C , 17-H ) :   0.9297 B(  2-C , 18-H ) :   0.9170
B(  2-C , 19-O ) :   0.1276 B(  3-C ,  5-C ) :   0.2462 B(  3-C ,  6-C ) :   0.1603
B(  3-C , 22-H ) :  -0.1231 B(  3-C , 23-H ) :   1.0467 B(  3-C , 24-H ) :   0.8628
B(  5-C ,  6-C ) :   0.6563 B(  5-C , 13-C ) :   0.1053 B(  5-C , 21-H ) :   0.9212
B(  5-C , 22-H ) :   1.0076 B(  5-C , 23-H ) :  -0.1462 B(  6-C ,  7-H ) :   0.9722
B(  6-C ,  8-H ) :   0.9720 B(  6-C ,  9-C ) :   0.6842 B(  9-C , 10-H ) :   0.9202
B(  9-C , 11-H ) :   0.9914 B(  9-C , 12-C ) :   0.5983 B( 12-C , 13-C ) :   0.8910
B( 12-C , 14-H ) :   0.9019 B( 12-C , 15-H ) :   1.0409 B( 13-C , 19-O ) :   1.4023
B( 13-C , 20-F ) :   0.7111 B( 17-H , 19-O ) :  -0.1474

Dispersion correction           -0.001010224
FINAL SINGLE POINT ENERGY      -488.876867970311

DIPOLE MOMENT
-------------
                                X             Y             Z
Electronic contribution:      3.58485      -0.30963      -9.79247
Nuclear contribution   :     -3.57245       1.60200       9.69133
                        -----------------------------------------
Total Dipole Moment    :      0.01240       1.29237      -0.10113
                        -----------------------------------------
Magnitude (a.u.)       :      1.29638
Magnitude (Debye)      :      3.29513

Rotational constants in cm-1:     0.051520     0.042563     0.028962
Rotational constants in MHz :  1544.537298  1275.996546   868.258224

                             ****ORCA TERMINATED NORMALLY****
TOTAL RUN TIME: 0 days 0 hours 3 minutes 30 seconds 764 msec
