                         Program Version 5.0.0 -  RELEASE  -
|  1> !B3LYP D3BJ RIJCOSX def2-SVPD def2/J TightSCF
|  2> *xyz -1 1
|  3> C         -0.15102        0.25496       -4.09426
|  4> C         -0.72184       -0.99951       -3.43931
|  5> H         -1.08340       -1.69755       -4.20566
|  6> H         -1.58106       -0.72385       -2.82049
|  7> C          0.28725       -1.71177       -2.52740
|  8> H          1.13178       -2.06738       -3.15940
|  9> H         -0.20414       -2.63733       -2.17048
| 10> O          0.71050       -0.92751       -1.48177
| 11> H         -0.89787        0.70479       -4.71455
| 12> H          0.69695       -0.00870       -4.69119
| 13> H          0.14812        0.94842       -3.33628
| 14> *
| 15> %MaxCore 64000
| 16>
| 17> %pal nprocs 4
| 18> end
| 19>
| 20> %scf
| 21>   MaxIter 150
| 22> end
| 23>
| 24>
| 25>                          ****END OF INPUT****

CARTESIAN COORDINATES (ANGSTROEM)
---------------------------------
  C     -0.151020    0.254960   -4.094260
  C     -0.721840   -0.999510   -3.439310
  H     -1.083400   -1.697550   -4.205660
  H     -1.581060   -0.723850   -2.820490
  C      0.287250   -1.711770   -2.527400
  H      1.131780   -2.067380   -3.159400
  H     -0.204140   -2.637330   -2.170480
  O      0.710500   -0.927510   -1.481770
  H     -0.897870    0.704790   -4.714550
  H      0.696950   -0.008700   -4.691190
  H      0.148120    0.948420   -3.336280

 Total Charge           Charge          ....   -1
 Multiplicity           Mult            ....    1
 Number of Electrons    NEL             ....   34
 Basis Dimension        Dim             ....  139

ORBITAL ENERGIES
----------------

  NO   OCC          E(Eh)            E(eV)
   0   2.0000     -18.812393      -511.9112
   1   2.0000     -10.001119      -272.1443
   2   2.0000      -9.999779      -272.1078
   3   2.0000      -9.991669      -271.8871
   4   2.0000      -0.674356       -18.3502
   5   2.0000      -0.576863       -15.6972
   6   2.0000      -0.461974       -12.5710
   7   2.0000      -0.361002        -9.8234
   8   2.0000      -0.274280        -7.4635
   9   2.0000      -0.266225        -7.2443
  10   2.0000      -0.219864        -5.9828
  11   2.0000      -0.188321        -5.1245
  12   2.0000      -0.162667        -4.4264
  13   2.0000      -0.153916        -4.1883
  14   2.0000      -0.113497        -3.0884
  15   2.0000       0.024791         0.6746
  16   2.0000       0.028239         0.7684
  17   0.0000       0.164081         4.4649
  18   0.0000       0.189177         5.1478
  19   0.0000       0.204857         5.5744
  20   0.0000       0.232746         6.3333
  21   0.0000       0.248688         6.7672

MULLIKEN ATOMIC CHARGES
-----------------------
   0 C :    0.821928
   1 C :   -0.376199
   2 H :   -0.151140
   3 H :   -0.134330
   4 C :    0.581553
   5 H :   -0.184725
   6 H :   -0.248560
   7 O :   -0.890963
   8 H :   -0.175689
   9 H :   -0.143483
  10 H :   -0.098392
Sum of atomic charges:   -1.0000000

LOEWDIN ATOMIC CHARGES
----------------------
   0 C :    0.093984
   1 C :   -0.109986
   2 H :   -0.016256
   3 H :   -0.001211
   4 C :   -0.212960
   5 H :   -0.032146
   6 H :   -0.039462
   7 O :   -0.556054
   8 H :   -0.052751
   9 H :   -0.038315
  10 H :   -0.034842

  Mayer bond orders larger than 0.100000
B(  0-C ,  1-C ) :   1.2573 B(  0-C ,  8-H ) :   0.7428 B(  0-C ,  9-H ) :   0.7838
B(  0-C , 10-H ) :   0.7954 B(  1-C ,  2-H ) :   0.9842 B(  1-C ,  3-H ) :   0.9383
B(  1-C ,  4-C ) :   1.0416 B(  1-C ,  5-H ) :   0.1438 B(  1-C ,  6-H ) :   0.1753
B(  1-C ,  7-O ) :   0.1487 B(  1-C ,  8-H ) :   0.2287 B(  1-C ,  9-H ) :   0.2147
B(  1-C , 10-H ) :   0.2303 B(  2-H ,  4-C ) :   0.1095 B(  3-H ,  4-C ) :   0.1512
B(  4-C ,  5-H ) :   0.9230 B(  4-C ,  6-H ) :   0.9116 B(  4-C ,  7-O ) :   1.1323

Dispersion correction           -0.010960882
FINAL SINGLE POINT ENERGY      -193.501846976648

DIPOLE MOMENT
-------------
                                X             Y             Z
Electronic contribution:      1.04968      -0.18979       2.79505
Nuclear contribution   :     -1.95025       0.39850      -4.64834
                        -----------------------------------------
Total Dipole Moment    :     -0.90057       0.20871      -1.85329
                        -----------------------------------------
Magnitude (a.u.)       :      2.07105
Magnitude (Debye)      :      5.26419

Rotational constants in cm-1:     0.507767     0.175836     0.148827
Rotational constants in MHz : 15222.471408  5271.439482  4461.706759

                             ****ORCA TERMINATED NORMALLY****
TOTAL RUN TIME: 0 days 0 hours 0 minutes 9 seconds 596 msec
