                         Program Version 5.0.0 -  RELEASE  -
|  1> !B3LYP D3BJ RIJCOSX def2-SVPD def2/J TightSCF
|  2> *xyz 1 1
|  3> C          3.48828        1.60092       -1.52204
|  4> C          4.34297        1.31342       -2.75683
|  5> N          2.81029        0.42878       -1.01420
|  6> H          5.13203        0.60499       -2.48447
|  7> C          3.53590        0.74925       -3.92460
|  8> H          4.84125        2.24214       -3.05408
|  9> H          2.71455        2.33145       -1.76030
| 10> H          4.09099        2.06315       -0.73338
| 11> C          3.29098       -0.41802       -0.12908
| 12> N          2.51754       -1.43202        0.23936
| 13> N          4.53549       -0.28441        0.39580
| 14> H          5.04363        0.57189        0.22290
| 15> H          4.72335       -0.73327        1.28180
| 16> H          1.93479        0.10230       -1.40379
| 17> H          1.67464       -1.50562       -0.31610
| 18> H          2.92850       -2.21850        0.72549
| 19> H          4.18704        0.56990       -4.75451
| 20> H          2.78096        1.45217       -4.20898
| 21> H          3.07436       -0.16949       -3.62832
| 22> *
| 23> %MaxCore 64000
| 24>
| 25> %pal nprocs 4
| 26> end
| 27>
| 28> %scf
| 29>   MaxIter 150
| 30> end
| 31>
| 32>
| 33>                          ****END OF INPUT****

CARTESIAN COORDINATES (ANGSTROEM)
---------------------------------
  C      3.488280    1.600920   -1.522040
  C      4.342970    1.313420   -2.756830
  N      2.810290    0.428780   -1.014200
  H      5.132030    0.604990   -2.484470
  C      3.535900    0.749250   -3.924600
  H      4.841250    2.242140   -3.054080
  H      2.714550    2.331450   -1.760300
  H      4.090990    2.063150   -0.733380
  C      3.290980   -0.418020   -0.129080
  N      2.517540   -1.432020    0.239360
  N      4.535490   -0.284410    0.395800
  H      5.043630    0.571890    0.222900
  H      4.723350   -0.733270    1.281800
  H      1.934790    0.102300   -1.403790
  H      1.674640   -1.505620   -0.316100
  H      2.928500   -2.218500    0.725490
  H      4.187040    0.569900   -4.754510
  H      2.780960    1.452170   -4.208980
  H      3.074360   -0.169490   -3.628320

 Total Charge           Charge          ....    1
 Multiplicity           Mult            ....    1
 Number of Electrons    NEL             ....   56
 Basis Dimension        Dim             ....  236

ORBITAL ENERGIES
----------------

  NO   OCC          E(Eh)            E(eV)
   0   2.0000     -14.556349      -396.0984
   1   2.0000     -14.553207      -396.0129
   2   2.0000     -14.550705      -395.9448
   3   2.0000     -10.515536      -286.1423
   4   2.0000     -10.388787      -282.6933
   5   2.0000     -10.326192      -280.9900
   6   2.0000     -10.298928      -280.2481
   7   2.0000      -1.210130       -32.9293
   8   2.0000      -1.098432       -29.8898
   9   2.0000      -1.084894       -29.5215
  10   2.0000      -0.936529       -25.4843
  11   2.0000      -0.858285       -23.3551
  12   2.0000      -0.822428       -22.3794
  13   2.0000      -0.781416       -21.2634
  14   2.0000      -0.766288       -20.8518
  15   2.0000      -0.728210       -19.8156
  16   2.0000      -0.693352       -18.8671
  17   2.0000      -0.683861       -18.6088
  18   2.0000      -0.654976       -17.8228
  19   2.0000      -0.637047       -17.3349
  20   2.0000      -0.599010       -16.2999
  21   2.0000      -0.582070       -15.8389
  22   2.0000      -0.552596       -15.0369
  23   2.0000      -0.505495       -13.7552
  24   2.0000      -0.492140       -13.3918
  25   2.0000      -0.485295       -13.2055
  26   2.0000      -0.476600       -12.9689
  27   2.0000      -0.449422       -12.2294
  28   0.0000      -0.173397        -4.7184
  29   0.0000      -0.158250        -4.3062
  30   0.0000      -0.128115        -3.4862
  31   0.0000      -0.110367        -3.0032
  32   0.0000      -0.085980        -2.3396

MULLIKEN ATOMIC CHARGES
-----------------------
   0 C :    0.948807
   1 C :   -0.160751
   2 N :   -0.439710
   3 H :   -0.090554
   4 C :    0.946553
   5 H :   -0.171192
   6 H :   -0.332859
   7 H :   -0.169694
   8 C :    1.165971
   9 N :    0.140937
  10 N :    0.151866
  11 H :   -0.080137
  12 H :   -0.177361
  13 H :   -0.220526
  14 H :   -0.026431
  15 H :   -0.111465
  16 H :   -0.146483
  17 H :   -0.042890
  18 H :   -0.184080
Sum of atomic charges:    1.0000000

LOEWDIN ATOMIC CHARGES
----------------------
   0 C :    0.078350
   1 C :   -0.044627
   2 N :    0.051009
   3 H :    0.019171
   4 C :    0.144829
   5 H :    0.035599
   6 H :    0.041992
   7 H :    0.025642
   8 C :   -0.035871
   9 N :    0.270097
  10 N :    0.289243
  11 H :    0.006686
  12 H :    0.032702
  13 H :    0.053962
  14 H :    0.031257
  15 H :    0.043325
  16 H :   -0.004532
  17 H :   -0.009009
  18 H :   -0.029825

  Mayer bond orders larger than 0.100000
B(  0-C ,  1-C ) :   1.0888 B(  0-C ,  2-N ) :   0.9369 B(  0-C ,  3-H ) :   0.1182
B(  0-C ,  6-H ) :   0.7204 B(  0-C ,  7-H ) :   0.8372 B(  0-C , 13-H ) :  -0.2369
B(  1-C ,  3-H ) :   0.8856 B(  1-C ,  4-C ) :   1.3039 B(  1-C ,  5-H ) :   0.9512
B(  1-C ,  6-H ) :   0.1352 B(  1-C , 16-H ) :   0.2408 B(  1-C , 17-H ) :   0.2241
B(  1-C , 18-H ) :   0.2174 B(  2-N ,  6-H ) :   0.2471 B(  2-N ,  7-H ) :   0.1326
B(  2-N ,  8-C ) :   1.0307 B(  2-N ,  9-N ) :   0.2665 B(  2-N , 10-N ) :   0.2046
B(  2-N , 13-H ) :   1.3013 B(  4-C , 16-H ) :   0.7597 B(  4-C , 17-H ) :   0.7333
B(  4-C , 18-H ) :   0.7761 B(  6-H ,  7-H ) :  -0.1276 B(  8-C ,  9-N ) :   0.9636
B(  8-C , 10-N ) :   0.9812 B(  8-C , 11-H ) :  -0.1118 B(  8-C , 12-H ) :  -0.1178
B(  8-C , 13-H ) :  -0.2703 B(  8-C , 14-H ) :  -0.1023 B(  9-N , 10-N ) :   0.1292
B(  9-N , 14-H ) :   1.0724 B(  9-N , 15-H ) :   1.1886 B( 10-N , 11-H ) :   1.0509
B( 10-N , 12-H ) :   1.2372 B( 11-H , 12-H ) :  -0.1640 B( 14-H , 15-H ) :  -0.1439

Dispersion correction           -0.025802646
FINAL SINGLE POINT ENERGY      -323.318190047775

DIPOLE MOMENT
-------------
                                X             Y             Z
Electronic contribution:     -1.34202      -2.87976       6.36312
Nuclear contribution   :      1.03951       2.07316      -5.00363
                        -----------------------------------------
Total Dipole Moment    :     -0.30251      -0.80660       1.35949
                        -----------------------------------------
Magnitude (a.u.)       :      1.60945
Magnitude (Debye)      :      4.09090

Rotational constants in cm-1:     0.160664     0.048801     0.043832
Rotational constants in MHz :  4816.589604  1463.007061  1314.037102

                             ****ORCA TERMINATED NORMALLY****
TOTAL RUN TIME: 0 days 0 hours 0 minutes 30 seconds 253 msec
