                         Program Version 5.0.0 -  RELEASE  -
|  1> !B3LYP D3BJ RIJCOSX def2-SVPD def2/J TightSCF xyzfile
|  2>
|  3> *xyzfile 0 1 B.xyz
|  4>
|  5> %MaxCore 64000
|  6>
|  7> %pal nprocs 4
|  8> end
|  9>
| 10> %scf
| 11>   MaxIter 150
| 12> end
| 13>
| 14>
| 15>                          ****END OF INPUT****

CARTESIAN COORDINATES (ANGSTROEM)
---------------------------------
  C      3.488276    1.600919   -1.522040
  C      4.342970    1.313419   -2.756826
  N      2.810285    0.428783   -1.014196
  H      5.132033    0.604994   -2.484466
  C      3.535896    0.749253   -3.924604
  H      4.841247    2.242136   -3.054083
  H      2.991617   -0.132199   -3.574137
  H      4.225505    0.392784   -4.695962
  C      2.564776    1.750890   -4.544523
  H      1.918749    2.171679   -3.769419
  C      1.686235    1.161657   -5.650111
  H      3.132494    2.594775   -4.951604
  C      0.839616   -0.037582   -5.220473
  H      2.323886    0.866395   -6.490796
  H      1.029518    1.951850   -6.029329
  C     -0.151019    0.254955   -4.094256
  H      1.499442   -0.857141   -4.922958
  H      0.290097   -0.410143   -6.091131
  H      0.328265    0.833022   -3.299125
  C     -0.721843   -0.999513   -3.439309
  H     -0.957367    0.884951   -4.485450
  H     -1.083403   -1.697555   -4.205656
  H     -1.581056   -0.723848   -2.820490
  C      0.287250   -1.711771   -2.527405
  H      1.131780   -2.067380   -3.159396
  H     -0.204137   -2.637326   -2.170480
  O      0.710505   -0.927506   -1.481767
  H      2.714548    2.331455   -1.760302
  H      4.090991    2.063151   -0.733382
  C      3.290978   -0.418021   -0.129083
  N      2.517536   -1.432017    0.239360
  N      4.535490   -0.284410    0.395800
  H      5.043627    0.571888    0.222899
  H      4.723346   -0.733273    1.281800
  H      1.934787    0.102305   -1.403788
  H      1.674638   -1.505616   -0.316095
  H      2.928503   -2.218502    0.725494

 Total Charge           Charge          ....    0
 Multiplicity           Mult            ....    1
 Number of Electrons    NEL             ....  112
 Basis Dimension        Dim             ....  467

ORBITAL ENERGIES
----------------

  NO   OCC          E(Eh)            E(eV)
   0   2.0000     -19.009414      -517.2724
   1   2.0000     -14.389699      -391.5636
   2   2.0000     -14.349617      -390.4729
   3   2.0000     -14.343857      -390.3162
   4   2.0000     -10.330071      -281.0955
   5   2.0000     -10.236555      -278.5508
   6   2.0000     -10.191858      -277.3345
   7   2.0000     -10.174887      -276.8728
   8   2.0000     -10.169225      -276.7187
   9   2.0000     -10.162349      -276.5316
  10   2.0000     -10.162146      -276.5260
  11   2.0000     -10.150670      -276.2138
  12   2.0000     -10.140207      -275.9291
  13   2.0000     -10.128347      -275.6063
  14   2.0000      -1.024705       -27.8836
  15   2.0000      -0.920991       -25.0614
  16   2.0000      -0.901681       -24.5360
  17   2.0000      -0.871869       -23.7248
  18   2.0000      -0.804514       -21.8920
  19   2.0000      -0.770638       -20.9701
  20   2.0000      -0.732833       -19.9414
  21   2.0000      -0.696308       -18.9475
  22   2.0000      -0.655432       -17.8352
  23   2.0000      -0.646300       -17.5867
  24   2.0000      -0.608619       -16.5614
  25   2.0000      -0.597593       -16.2613
  26   2.0000      -0.592385       -16.1196
  27   2.0000      -0.563182       -15.3250
  28   2.0000      -0.540394       -14.7049
  29   2.0000      -0.520412       -14.1611
  30   2.0000      -0.509506       -13.8644
  31   2.0000      -0.495394       -13.4803
  32   2.0000      -0.483502       -13.1568
  33   2.0000      -0.472712       -12.8632
  34   2.0000      -0.460935       -12.5427
  35   2.0000      -0.451566       -12.2877
  36   2.0000      -0.434595       -11.8259
  37   2.0000      -0.419800       -11.4233
  38   2.0000      -0.413346       -11.2477
  39   2.0000      -0.394286       -10.7291
  40   2.0000      -0.390417       -10.6238
  41   2.0000      -0.379154       -10.3173
  42   2.0000      -0.360263        -9.8032
  43   2.0000      -0.353897        -9.6300
  44   2.0000      -0.345879        -9.4118
  45   2.0000      -0.334555        -9.1037
  46   2.0000      -0.323030        -8.7901
  47   2.0000      -0.313965        -8.5434
  48   2.0000      -0.311314        -8.4713
  49   2.0000      -0.306750        -8.3471
  50   2.0000      -0.291242        -7.9251
  51   2.0000      -0.287237        -7.8161
  52   2.0000      -0.282119        -7.6768
  53   2.0000      -0.267382        -7.2758
  54   2.0000      -0.179971        -4.8973
  55   2.0000      -0.173375        -4.7178
  56   0.0000      -0.012917        -0.3515
  57   0.0000       0.002871         0.0781
  58   0.0000       0.018990         0.5167
  59   0.0000       0.034850         0.9483
  60   0.0000       0.035106         0.9553

MULLIKEN ATOMIC CHARGES
-----------------------
   0 C :    1.397706
   1 C :    0.480831
   2 N :    0.253068
   3 H :   -0.157751
   4 C :    0.550410
   5 H :   -0.203075
   6 H :   -0.480037
   7 H :   -0.223847
   8 C :    0.072462
   9 H :   -0.013237
  10 C :    0.827030
  11 H :   -0.321514
  12 C :    0.160026
  13 H :   -0.130772
  14 H :   -0.233037
  15 C :    0.369801
  16 H :   -0.120679
  17 H :   -0.314083
  18 H :   -0.408084
  19 C :    0.456260
  20 H :   -0.196297
  21 H :   -0.142624
  22 H :   -0.129951
  23 C :    0.889596
  24 H :   -0.254850
  25 H :   -0.390429
  26 O :   -0.882642
  27 H :   -0.393841
  28 H :   -0.388551
  29 C :    1.012718
  30 N :    0.500825
  31 N :    0.251119
  32 H :   -0.124040
  33 H :   -0.210537
  34 H :   -0.979311
  35 H :   -0.287687
  36 H :   -0.234976
Sum of atomic charges:   -0.0000000

LOEWDIN ATOMIC CHARGES
----------------------
   0 C :    0.079418
   1 C :   -0.010865
   2 N :    0.077799
   3 H :    0.013141
   4 C :   -0.018120
   5 H :    0.021772
   6 H :    0.003267
   7 H :    0.026296
   8 C :   -0.029204
   9 H :   -0.003774
  10 C :   -0.025596
  11 H :    0.019959
  12 C :   -0.029096
  13 H :    0.016429
  14 H :    0.018256
  15 C :   -0.025427
  16 H :   -0.006229
  17 H :    0.019072
  18 H :   -0.006576
  19 C :   -0.024942
  20 H :    0.017856
  21 H :    0.015141
  22 H :    0.017364
  23 C :   -0.060844
  24 H :   -0.006202
  25 H :    0.003716
  26 O :   -0.423201
  27 H :    0.020468
  28 H :    0.007456
  29 C :   -0.040601
  30 N :    0.275487
  31 N :    0.250403
  32 H :   -0.017825
  33 H :    0.007000
  34 H :   -0.090555
  35 H :   -0.104872
  36 H :    0.013628

  Mayer bond orders larger than 0.100000
B(  0-C ,  1-C ) :   1.0364 B(  0-C ,  2-N ) :   0.9058 B(  0-C ,  4-C ) :   0.1272
B(  0-C ,  5-H ) :   0.1032 B(  0-C , 27-H ) :   0.5797 B(  0-C , 28-H ) :   0.7051
B(  0-C , 34-H ) :  -0.6260 B(  1-C ,  3-H ) :   0.6793 B(  1-C ,  4-C ) :   1.1918
B(  1-C ,  5-H ) :   0.8599 B(  1-C ,  6-H ) :   0.1253 B(  1-C ,  7-H ) :   0.1080
B(  1-C , 27-H ) :   0.1200 B(  1-C , 28-H ) :   0.1520 B(  2-N , 27-H ) :   0.2353
B(  2-N , 28-H ) :   0.1125 B(  2-N , 29-C ) :   1.2450 B(  2-N , 31-N ) :   0.1939
B(  2-N , 34-H ) :   0.9914 B(  3-H ,  4-C ) :   0.2348 B(  4-C ,  6-H ) :   0.6719
B(  4-C ,  7-H ) :   0.6850 B(  4-C ,  8-C ) :   1.1676 B(  4-C , 11-H ) :   0.1770
B(  6-H ,  8-C ) :   0.2045 B(  7-H ,  8-C ) :   0.1588 B(  8-C ,  9-H ) :   0.7957
B(  8-C , 10-C ) :   1.1465 B(  8-C , 11-H ) :   0.8382 B(  8-C , 12-C ) :   0.1332
B(  8-C , 13-H ) :   0.1324 B(  8-C , 14-H ) :   0.3518 B(  9-H , 10-C ) :   0.1022
B( 10-C , 11-H ) :   0.1003 B( 10-C , 12-C ) :   1.1606 B( 10-C , 13-H ) :   0.6258
B( 10-C , 14-H ) :   0.5740 B( 10-C , 17-H ) :   0.1028 B( 12-C , 13-H ) :   0.2737
B( 12-C , 14-H ) :   0.1347 B( 12-C , 15-C ) :   1.1788 B( 12-C , 16-H ) :   0.8446
B( 12-C , 17-H ) :   0.7632 B( 12-C , 18-H ) :   0.1838 B( 12-C , 20-H ) :   0.2220
B( 13-H , 14-H ) :  -0.1613 B( 15-C , 16-H ) :   0.1261 B( 15-C , 17-H ) :   0.2806
B( 15-C , 18-H ) :   0.7729 B( 15-C , 19-C ) :   1.1874 B( 15-C , 20-H ) :   0.6997
B( 15-C , 21-H ) :   0.1214 B( 15-C , 22-H ) :   0.2604 B( 18-H , 19-C ) :   0.1955
B( 19-C , 21-H ) :   0.7334 B( 19-C , 22-H ) :   0.6470 B( 19-C , 23-C ) :   1.1048
B( 19-C , 24-H ) :   0.1281 B( 19-C , 25-H ) :   0.1432 B( 19-C , 26-O ) :   0.1097
B( 21-H , 23-C ) :   0.1797 B( 22-H , 23-C ) :   0.1754 B( 23-C , 24-H ) :   0.8159
B( 23-C , 25-H ) :   0.8400 B( 23-C , 26-O ) :   0.9469 B( 26-O , 34-H ) :   0.1928
B( 26-O , 35-H ) :   0.2977 B( 27-H , 28-H ) :  -0.1397 B( 27-H , 34-H ) :   0.1574
B( 29-C , 30-N ) :   0.9533 B( 29-C , 31-N ) :   0.9363 B( 29-C , 32-H ) :  -0.1155
B( 29-C , 34-H ) :  -0.7498 B( 29-C , 35-H ) :  -0.1363 B( 29-C , 36-H ) :  -0.1030
B( 30-N , 31-N ) :   0.1197 B( 30-N , 35-H ) :   0.9895 B( 30-N , 36-H ) :   1.1895
B( 31-N , 32-H ) :   1.0632 B( 31-N , 33-H ) :   1.1851 B( 32-H , 33-H ) :  -0.1558
B( 35-H , 36-H ) :  -0.1658

Dispersion correction           -0.065323570
FINAL SINGLE POINT ENERGY      -633.633849619287

DIPOLE MOMENT
-------------
                                X             Y             Z
Electronic contribution:      3.59708      -2.05233      11.33359
Nuclear contribution   :     -0.74583       2.62534      -9.91488
                        -----------------------------------------
Total Dipole Moment    :      2.85126       0.57301       1.41871
                        -----------------------------------------
Magnitude (a.u.)       :      3.23585
Magnitude (Debye)      :      8.22488

Rotational constants in cm-1:     0.027028     0.016098     0.010898
Rotational constants in MHz :   810.278072   482.590922   326.703462

                             ****ORCA TERMINATED NORMALLY****
TOTAL RUN TIME: 0 days 0 hours 3 minutes 25 seconds 125 msec
