                         Program Version 5.0.0 -  RELEASE  -
|  1> !B3LYP D3BJ RIJCOSX def2-SVPD def2/J TightSCF
|  2> *xyz 0 1
|  3> C         -0.15102        0.25496       -4.09426
|  4> C         -0.72184       -0.99951       -3.43931
|  5> H         -1.08340       -1.69755       -4.20566
|  6> H         -1.58106       -0.72385       -2.82049
|  7> C          0.28725       -1.71177       -2.52740
|  8> H          1.13178       -2.06738       -3.15940
|  9> H         -0.20414       -2.63733       -2.17048
| 10> F          0.71050       -0.92751       -1.48177
| 11> H         -0.89787        0.70479       -4.71455
| 12> H          0.69695       -0.00870       -4.69119
| 13> H          0.14812        0.94842       -3.33628
| 14> *
| 15> %MaxCore 64000
| 16>
| 17> %pal nprocs 4
| 18> end
| 19>
| 20> %scf
| 21>   MaxIter 150
| 22> end
| 23>
| 24>
| 25>                          ****END OF INPUT****

CARTESIAN COORDINATES (ANGSTROEM)
---------------------------------
  C     -0.151020    0.254960   -4.094260
  C     -0.721840   -0.999510   -3.439310
  H     -1.083400   -1.697550   -4.205660
  H     -1.581060   -0.723850   -2.820490
  C      0.287250   -1.711770   -2.527400
  H      1.131780   -2.067380   -3.159400
  H     -0.204140   -2.637330   -2.170480
  F      0.710500   -0.927510   -1.481770
  H     -0.897870    0.704790   -4.714550
  H      0.696950   -0.008700   -4.691190
  H      0.148120    0.948420   -3.336280

 Total Charge           Charge          ....    0
 Multiplicity           Mult            ....    1
 Number of Electrons    NEL             ....   34
 Basis Dimension        Dim             ....  139

ORBITAL ENERGIES
----------------

  NO   OCC          E(Eh)            E(eV)
   0   2.0000     -24.686336      -671.7493
   1   2.0000     -10.262124      -279.2466
   2   2.0000     -10.190058      -277.2856
   3   2.0000     -10.170712      -276.7591
   4   2.0000      -1.183179       -32.1959
   5   2.0000      -0.783564       -21.3219
   6   2.0000      -0.684600       -18.6289
   7   2.0000      -0.593432       -16.1481
   8   2.0000      -0.511939       -13.9306
   9   2.0000      -0.493590       -13.4313
  10   2.0000      -0.471044       -12.8178
  11   2.0000      -0.437659       -11.9093
  12   2.0000      -0.402670       -10.9572
  13   2.0000      -0.378039       -10.2870
  14   2.0000      -0.355478        -9.6731
  15   2.0000      -0.329658        -8.9704
  16   2.0000      -0.328793        -8.9469
  17   0.0000       0.019864         0.5405
  18   0.0000       0.046069         1.2536
  19   0.0000       0.054845         1.4924
  20   0.0000       0.065752         1.7892
  21   0.0000       0.089187         2.4269

MULLIKEN ATOMIC CHARGES
-----------------------
   0 C :    0.848405
   1 C :   -0.325802
   2 H :   -0.147084
   3 H :   -0.146023
   4 C :    0.876932
   5 H :   -0.108959
   6 H :   -0.165320
   7 F :   -0.444945
   8 H :   -0.150139
   9 H :   -0.130517
  10 H :   -0.106548
Sum of atomic charges:    0.0000000

LOEWDIN ATOMIC CHARGES
----------------------
   0 C :    0.129384
   1 C :   -0.061537
   2 H :    0.024784
   3 H :    0.020506
   4 C :    0.100094
   5 H :    0.032451
   6 H :    0.025737
   7 F :   -0.210646
   8 H :   -0.022039
   9 H :   -0.020368
  10 H :   -0.018366

  Mayer bond orders larger than 0.100000
B(  0-C ,  1-C ) :   1.3006 B(  0-C ,  8-H ) :   0.7647 B(  0-C ,  9-H ) :   0.7765
B(  0-C , 10-H ) :   0.7859 B(  1-C ,  2-H ) :   0.9344 B(  1-C ,  3-H ) :   0.9183
B(  1-C ,  4-C ) :   1.1826 B(  1-C ,  5-H ) :   0.1122 B(  1-C ,  6-H ) :   0.1378
B(  1-C ,  8-H ) :   0.2153 B(  1-C ,  9-H ) :   0.1956 B(  1-C , 10-H ) :   0.2094
B(  3-H ,  4-C ) :   0.1020 B(  4-C ,  5-H ) :   0.8770 B(  4-C ,  6-H ) :   0.8686
B(  4-C ,  7-F ) :   0.7243

Dispersion correction           -0.010332848
FINAL SINGLE POINT ENERGY      -218.111201804854

DIPOLE MOMENT
-------------
                                X             Y             Z
Electronic contribution:      2.46950      -0.82270       5.75275
Nuclear contribution   :     -2.76068       0.49992      -6.33880
                        -----------------------------------------
Total Dipole Moment    :     -0.29119      -0.32278      -0.58606
                        -----------------------------------------
Magnitude (a.u.)       :      0.72969
Magnitude (Debye)      :      1.85472

Rotational constants in cm-1:     0.493380     0.165620     0.140427
Rotational constants in MHz : 14791.174622  4965.163858  4209.902284

                             ****ORCA TERMINATED NORMALLY****
TOTAL RUN TIME: 0 days 0 hours 0 minutes 8 seconds 412 msec
