                         Program Version 5.0.0 -  RELEASE  -
|  1> !B3LYP D3BJ RIJCOSX def2-SVPD def2/J TightSCF
|  2> *xyz 0 1
|  3> C          3.48828        1.60092       -1.52204
|  4> C          4.34297        1.31342       -2.75683
|  5> C          2.81029        0.42878       -1.01420
|  6> H          5.13203        0.60499       -2.48447
|  7> C          3.53590        0.74925       -3.92460
|  8> H          4.84125        2.24214       -3.05408
|  9> H          2.71455        2.33145       -1.76030
| 10> H          4.09099        2.06315       -0.73338
| 11> C          3.29098       -0.41802       -0.12908
| 12> N          2.51754       -1.43202        0.23936
| 13> N          4.53549       -0.28441        0.39580
| 14> H          5.04363        0.57189        0.22290
| 15> H          4.72335       -0.73327        1.28180
| 16> H          1.93479        0.10230       -1.40379
| 17> H          1.67464       -1.50562       -0.31610
| 18> H          2.92850       -2.21850        0.72549
| 19> H          4.18704        0.56990       -4.75451
| 20> H          2.78096        1.45217       -4.20898
| 21> H          3.07436       -0.16949       -3.62832
| 22> *
| 23> %MaxCore 64000
| 24>
| 25> %pal nprocs 4
| 26> end
| 27>
| 28> %scf
| 29>   MaxIter 150
| 30> end
| 31>
| 32>
| 33>                          ****END OF INPUT****

CARTESIAN COORDINATES (ANGSTROEM)
---------------------------------
  C      3.488280    1.600920   -1.522040
  C      4.342970    1.313420   -2.756830
  C      2.810290    0.428780   -1.014200
  H      5.132030    0.604990   -2.484470
  C      3.535900    0.749250   -3.924600
  H      4.841250    2.242140   -3.054080
  H      2.714550    2.331450   -1.760300
  H      4.090990    2.063150   -0.733380
  C      3.290980   -0.418020   -0.129080
  N      2.517540   -1.432020    0.239360
  N      4.535490   -0.284410    0.395800
  H      5.043630    0.571890    0.222900
  H      4.723350   -0.733270    1.281800
  H      1.934790    0.102300   -1.403790
  H      1.674640   -1.505620   -0.316100
  H      2.928500   -2.218500    0.725490
  H      4.187040    0.569900   -4.754510
  H      2.780960    1.452170   -4.208980
  H      3.074360   -0.169490   -3.628320

 Total Charge           Charge          ....    0
 Multiplicity           Mult            ....    1
 Number of Electrons    NEL             ....   56
 Basis Dimension        Dim             ....  236

ORBITAL ENERGIES
----------------

  NO   OCC          E(Eh)            E(eV)
   0   2.0000     -14.332053      -389.9950
   1   2.0000     -14.327703      -389.8766
   2   2.0000     -10.223570      -278.1975
   3   2.0000     -10.160193      -276.4729
   4   2.0000     -10.158856      -276.4365
   5   2.0000     -10.151000      -276.2228
   6   2.0000     -10.108456      -275.0651
   7   2.0000      -0.951343       -25.8873
   8   2.0000      -0.863371       -23.4935
   9   2.0000      -0.780443       -21.2369
  10   2.0000      -0.716132       -19.4870
  11   2.0000      -0.653325       -17.7779
  12   2.0000      -0.591278       -16.0895
  13   2.0000      -0.568535       -15.4706
  14   2.0000      -0.538795       -14.6614
  15   2.0000      -0.505954       -13.7677
  16   2.0000      -0.469194       -12.7674
  17   2.0000      -0.442071       -12.0294
  18   2.0000      -0.439251       -11.9526
  19   2.0000      -0.408093       -11.1048
  20   2.0000      -0.391145       -10.6436
  21   2.0000      -0.375120       -10.2075
  22   2.0000      -0.361661        -9.8413
  23   2.0000      -0.330857        -9.0031
  24   2.0000      -0.316840        -8.6216
  25   2.0000      -0.314516        -8.5584
  26   2.0000      -0.266896        -7.2626
  27   2.0000      -0.164955        -4.4887
  28   0.0000       0.012333         0.3356
  29   0.0000       0.038191         1.0392
  30   0.0000       0.039992         1.0882
  31   0.0000       0.057537         1.5656
  32   0.0000       0.066337         1.8051

MULLIKEN ATOMIC CHARGES
-----------------------
   0 C :    0.479369
   1 C :   -0.148410
   2 C :   -0.171987
   3 H :   -0.154920
   4 C :    0.943650
   5 H :   -0.160138
   6 H :   -0.116056
   7 H :   -0.161126
   8 C :    0.551762
   9 N :    0.104540
  10 N :    0.093850
  11 H :   -0.060704
  12 H :   -0.284056
  13 H :   -0.338319
  14 H :    0.037942
  15 H :   -0.235828
  16 H :   -0.146581
  17 H :   -0.062577
  18 H :   -0.170410
Sum of atomic charges:   -0.0000000

LOEWDIN ATOMIC CHARGES
----------------------
   0 C :   -0.056330
   1 C :   -0.071709
   2 C :   -0.032577
   3 H :    0.012950
   4 C :    0.126092
   5 H :    0.009997
   6 H :    0.013980
   7 H :    0.002592
   8 C :   -0.220080
   9 N :    0.181012
  10 N :    0.210863
  11 H :   -0.023435
  12 H :   -0.017208
  13 H :   -0.050109
  14 H :   -0.000669
  15 H :   -0.008820
  16 H :   -0.025800
  17 H :   -0.021002
  18 H :   -0.029749

  Mayer bond orders larger than 0.100000
B(  0-C ,  1-C ) :   1.1040 B(  0-C ,  2-C ) :   1.1275 B(  0-C ,  3-H ) :   0.1489
B(  0-C ,  5-H ) :   0.1228 B(  0-C ,  6-H ) :   0.7396 B(  0-C ,  7-H ) :   0.7862
B(  0-C , 13-H ) :   0.2798 B(  1-C ,  3-H ) :   0.9132 B(  1-C ,  4-C ) :   1.3031
B(  1-C ,  5-H ) :   0.8880 B(  1-C ,  6-H ) :   0.1049 B(  1-C , 16-H ) :   0.2630
B(  1-C , 17-H ) :   0.2435 B(  1-C , 18-H ) :   0.2476 B(  2-C ,  6-H ) :   0.2410
B(  2-C ,  7-H ) :   0.3126 B(  2-C ,  8-C ) :   1.6527 B(  2-C ,  9-N ) :   0.3327
B(  2-C , 10-N ) :   0.1889 B(  2-C , 11-H ) :  -0.1154 B(  2-C , 13-H ) :   0.7968
B(  4-C , 16-H ) :   0.7017 B(  4-C , 17-H ) :   0.7362 B(  4-C , 18-H ) :   0.7620
B(  7-H ,  8-C ) :  -0.1096 B(  8-C ,  9-N ) :   0.9018 B(  8-C , 10-N ) :   0.9648
B(  8-C , 13-H ) :   0.2578 B(  9-N , 10-N ) :   0.1117 B(  9-N , 14-H ) :   1.0316
B(  9-N , 15-H ) :   1.1964 B( 10-N , 11-H ) :   1.0199 B( 10-N , 12-H ) :   1.2421
B( 11-H , 12-H ) :  -0.1396 B( 14-H , 15-H ) :  -0.1412

Dispersion correction           -0.026856324
FINAL SINGLE POINT ENERGY      -306.851413629522

DIPOLE MOMENT
-------------
                                X             Y             Z
Electronic contribution:     -0.69373      -2.66208       5.55960
Nuclear contribution   :      0.88816       2.11069      -4.95634
                        -----------------------------------------
Total Dipole Moment    :      0.19443      -0.55139       0.60327
                        -----------------------------------------
Magnitude (a.u.)       :      0.84010
Magnitude (Debye)      :      2.13536

Rotational constants in cm-1:     0.162296     0.048922     0.043870
Rotational constants in MHz :  4865.524396  1466.649652  1315.198467

                             ****ORCA TERMINATED NORMALLY****
TOTAL RUN TIME: 0 days 0 hours 0 minutes 33 seconds 807 msec
