                         Program Version 5.0.0 -  RELEASE  -
|  1> !B3LYP D3BJ RIJCOSX def2-SVPD def2/J TightSCF
|  2> *xyz 0 1
|  3> C          3.48828        1.60092       -1.52204
|  4> C          4.34297        1.31342       -2.75683
|  5> N          2.81029        0.42878       -1.01420
|  6> H          5.13203        0.60499       -2.48447
|  7> C          3.53590        0.74925       -3.92460
|  8> H          4.84125        2.24214       -3.05408
|  9> H          2.71455        2.33145       -1.76030
| 10> H          4.09099        2.06315       -0.73338
| 11> C          3.29098       -0.41802       -0.12908
| 12> C          2.51754       -1.43202        0.23936
| 13> N          4.53549       -0.28441        0.39580
| 14> H          5.04363        0.57189        0.22290
| 15> H          4.72335       -0.73327        1.28180
| 16> H          1.93479        0.10230       -1.40379
| 17> H          1.67464       -1.50562       -0.31610
| 18> H          2.92850       -2.21850        0.72549
| 19> H          4.18704        0.56990       -4.75451
| 20> H          2.78096        1.45217       -4.20898
| 21> H          3.07436       -0.16949       -3.62832
| 22> *
| 23> %MaxCore 64000
| 24>
| 25> %pal nprocs 4
| 26> end
| 27>
| 28> %scf
| 29>   MaxIter 150
| 30> end
| 31>
| 32>
| 33>                          ****END OF INPUT****

CARTESIAN COORDINATES (ANGSTROEM)
---------------------------------
  C      3.488280    1.600920   -1.522040
  C      4.342970    1.313420   -2.756830
  N      2.810290    0.428780   -1.014200
  H      5.132030    0.604990   -2.484470
  C      3.535900    0.749250   -3.924600
  H      4.841250    2.242140   -3.054080
  H      2.714550    2.331450   -1.760300
  H      4.090990    2.063150   -0.733380
  C      3.290980   -0.418020   -0.129080
  C      2.517540   -1.432020    0.239360
  N      4.535490   -0.284410    0.395800
  H      5.043630    0.571890    0.222900
  H      4.723350   -0.733270    1.281800
  H      1.934790    0.102300   -1.403790
  H      1.674640   -1.505620   -0.316100
  H      2.928500   -2.218500    0.725490
  H      4.187040    0.569900   -4.754510
  H      2.780960    1.452170   -4.208980
  H      3.074360   -0.169490   -3.628320

 Total Charge           Charge          ....    0
 Multiplicity           Mult            ....    1
 Number of Electrons    NEL             ....   56
 Basis Dimension        Dim             ....  236

ORBITAL ENERGIES
----------------

  NO   OCC          E(Eh)            E(eV)
   0   2.0000     -14.330621      -389.9560
   1   2.0000     -14.330352      -389.9487
   2   2.0000     -10.226343      -278.2730
   3   2.0000     -10.223689      -278.2007
   4   2.0000     -10.184129      -277.1242
   5   2.0000     -10.171885      -276.7911
   6   2.0000     -10.093376      -274.6547
   7   2.0000      -0.961544       -26.1649
   8   2.0000      -0.875944       -23.8356
   9   2.0000      -0.785664       -21.3790
  10   2.0000      -0.721709       -19.6387
  11   2.0000      -0.664782       -18.0896
  12   2.0000      -0.605232       -16.4692
  13   2.0000      -0.587627       -15.9901
  14   2.0000      -0.533580       -14.5194
  15   2.0000      -0.501352       -13.6425
  16   2.0000      -0.481315       -13.0972
  17   2.0000      -0.455570       -12.3967
  18   2.0000      -0.444043       -12.0830
  19   2.0000      -0.413100       -11.2410
  20   2.0000      -0.389053       -10.5867
  21   2.0000      -0.386510       -10.5175
  22   2.0000      -0.378552       -10.3009
  23   2.0000      -0.352514        -9.5924
  24   2.0000      -0.350551        -9.5390
  25   2.0000      -0.343512        -9.3474
  26   2.0000      -0.258695        -7.0395
  27   2.0000      -0.162288        -4.4161
  28   0.0000       0.010482         0.2852
  29   0.0000       0.028296         0.7700
  30   0.0000       0.039154         1.0654
  31   0.0000       0.048094         1.3087
  32   0.0000       0.066436         1.8078

MULLIKEN ATOMIC CHARGES
-----------------------
   0 C :    0.970737
   1 C :   -0.182067
   2 N :   -0.264627
   3 H :   -0.097069
   4 C :    0.950221
   5 H :   -0.215073
   6 H :   -0.407610
   7 H :   -0.209841
   8 C :    0.526396
   9 C :    0.610235
  10 N :    0.205896
  11 H :   -0.214057
  12 H :   -0.179855
  13 H :   -0.284102
  14 H :   -0.290643
  15 H :   -0.516695
  16 H :   -0.171749
  17 H :   -0.053436
  18 H :   -0.176661
Sum of atomic charges:    0.0000000

LOEWDIN ATOMIC CHARGES
----------------------
   0 C :    0.050503
   1 C :   -0.062302
   2 N :   -0.011007
   3 H :    0.014489
   4 C :    0.128870
   5 H :    0.015179
   6 H :    0.018323
   7 H :    0.008344
   8 C :   -0.229820
   9 C :    0.144201
  10 N :    0.208964
  11 H :   -0.037291
  12 H :    0.001100
  13 H :    0.029820
  14 H :   -0.108615
  15 H :   -0.101585
  16 H :   -0.021453
  17 H :   -0.020857
  18 H :   -0.026863

  Mayer bond orders larger than 0.100000
B(  0-C ,  1-C ) :   1.0817 B(  0-C ,  2-N ) :   0.9316 B(  0-C ,  3-H ) :   0.1249
B(  0-C ,  5-H ) :   0.1056 B(  0-C ,  6-H ) :   0.6979 B(  0-C ,  7-H ) :   0.8406
B(  0-C , 13-H ) :  -0.2653 B(  1-C ,  3-H ) :   0.8925 B(  1-C ,  4-C ) :   1.2816
B(  1-C ,  5-H ) :   0.9548 B(  1-C ,  6-H ) :   0.1465 B(  1-C , 16-H ) :   0.2487
B(  1-C , 17-H ) :   0.2318 B(  1-C , 18-H ) :   0.2328 B(  2-N ,  6-H ) :   0.2565
B(  2-N ,  7-H ) :   0.1431 B(  2-N ,  8-C ) :   1.0851 B(  2-N ,  9-C ) :   0.2532
B(  2-N , 10-N ) :   0.1198 B(  2-N , 13-H ) :   1.2383 B(  4-C , 16-H ) :   0.7446
B(  4-C , 17-H ) :   0.7318 B(  4-C , 18-H ) :   0.7773 B(  6-H ,  7-H ) :  -0.1353
B(  8-C ,  9-C ) :   1.6227 B(  8-C , 10-N ) :   0.9096 B(  8-C , 13-H ) :  -0.1983
B(  8-C , 14-H ) :   0.2728 B(  8-C , 15-H ) :   0.2425 B(  9-C , 10-N ) :   0.2136
B(  9-C , 14-H ) :   0.7492 B(  9-C , 15-H ) :   0.6266 B( 10-N , 11-H ) :   1.0326
B( 10-N , 12-H ) :   1.2028 B( 11-H , 12-H ) :  -0.1517

Dispersion correction           -0.026504292
FINAL SINGLE POINT ENERGY      -306.839386874354

DIPOLE MOMENT
-------------
                                X             Y             Z
Electronic contribution:     -0.29149      -0.80006       4.28234
Nuclear contribution   :      0.82404       1.70307      -4.68174
                        -----------------------------------------
Total Dipole Moment    :      0.53254       0.90302      -0.39940
                        -----------------------------------------
Magnitude (a.u.)       :      1.12185
Magnitude (Debye)      :      2.85153

Rotational constants in cm-1:     0.164049     0.050262     0.045260
Rotational constants in MHz :  4918.051182  1506.829450  1356.872102

                             ****ORCA TERMINATED NORMALLY****
TOTAL RUN TIME: 0 days 0 hours 0 minutes 30 seconds 535 msec
