                         Program Version 5.0.0 -  RELEASE  -
|  1> !B3LYP D3BJ RIJCOSX def2-SVPD def2/J TightSCF
|  2> *xyz 0 1
|  3> C          3.48828        1.60092       -1.52204
|  4> C          4.34297        1.31342       -2.75683
|  5> N          2.81029        0.42878       -1.01420
|  6> H          5.13203        0.60499       -2.48447
|  7> C          3.53590        0.74925       -3.92460
|  8> H          4.84125        2.24214       -3.05408
|  9> H          2.71455        2.33145       -1.76030
| 10> H          4.09099        2.06315       -0.73338
| 11> C          3.29098       -0.41802       -0.12908
| 12> N          2.51754       -1.43202        0.23936
| 13> C          4.53549       -0.28441        0.39580
| 14> H          5.04363        0.57189        0.22290
| 15> H          4.72335       -0.73327        1.28180
| 16> H          1.93479        0.10230       -1.40379
| 17> H          1.67464       -1.50562       -0.31610
| 18> H          2.92850       -2.21850        0.72549
| 19> H          4.18704        0.56990       -4.75451
| 20> H          2.78096        1.45217       -4.20898
| 21> H          3.07436       -0.16949       -3.62832
| 22> *
| 23> %MaxCore 64000
| 24>
| 25> %pal nprocs 4
| 26> end
| 27>
| 28> %scf
| 29>   MaxIter 150
| 30> end
| 31>
| 32>
| 33>                          ****END OF INPUT****

CARTESIAN COORDINATES (ANGSTROEM)
---------------------------------
  C      3.488280    1.600920   -1.522040
  C      4.342970    1.313420   -2.756830
  N      2.810290    0.428780   -1.014200
  H      5.132030    0.604990   -2.484470
  C      3.535900    0.749250   -3.924600
  H      4.841250    2.242140   -3.054080
  H      2.714550    2.331450   -1.760300
  H      4.090990    2.063150   -0.733380
  C      3.290980   -0.418020   -0.129080
  N      2.517540   -1.432020    0.239360
  C      4.535490   -0.284410    0.395800
  H      5.043630    0.571890    0.222900
  H      4.723350   -0.733270    1.281800
  H      1.934790    0.102300   -1.403790
  H      1.674640   -1.505620   -0.316100
  H      2.928500   -2.218500    0.725490
  H      4.187040    0.569900   -4.754510
  H      2.780960    1.452170   -4.208980
  H      3.074360   -0.169490   -3.628320

 Total Charge           Charge          ....    0
 Multiplicity           Mult            ....    1
 Number of Electrons    NEL             ....   56
 Basis Dimension        Dim             ....  236

ORBITAL ENERGIES
----------------

  NO   OCC          E(Eh)            E(eV)
   0   2.0000     -14.336766      -390.1232
   1   2.0000     -14.333260      -390.0278
   2   2.0000     -10.229254      -278.3521
   3   2.0000     -10.216450      -278.0037
   4   2.0000     -10.176983      -276.9298
   5   2.0000     -10.168604      -276.7018
   6   2.0000     -10.095163      -274.7033
   7   2.0000      -0.970916       -26.4200
   8   2.0000      -0.881818       -23.9955
   9   2.0000      -0.773525       -21.0487
  10   2.0000      -0.703006       -19.1298
  11   2.0000      -0.689073       -18.7506
  12   2.0000      -0.605275       -16.4704
  13   2.0000      -0.553951       -15.0738
  14   2.0000      -0.544782       -14.8243
  15   2.0000      -0.528823       -14.3900
  16   2.0000      -0.474687       -12.9169
  17   2.0000      -0.451780       -12.2936
  18   2.0000      -0.440269       -11.9803
  19   2.0000      -0.404844       -11.0164
  20   2.0000      -0.400979       -10.9112
  21   2.0000      -0.380830       -10.3629
  22   2.0000      -0.369891       -10.0653
  23   2.0000      -0.349405        -9.5078
  24   2.0000      -0.345171        -9.3926
  25   2.0000      -0.336968        -9.1694
  26   2.0000      -0.253414        -6.8958
  27   2.0000      -0.165801        -4.5117
  28   0.0000       0.004655         0.1267
  29   0.0000       0.032789         0.8922
  30   0.0000       0.042119         1.1461
  31   0.0000       0.048679         1.3246
  32   0.0000       0.066140         1.7998

MULLIKEN ATOMIC CHARGES
-----------------------
   0 C :    0.929974
   1 C :   -0.147905
   2 N :   -0.445063
   3 H :   -0.114685
   4 C :    0.932561
   5 H :   -0.206904
   6 H :   -0.402197
   7 H :   -0.069144
   8 C :    0.587963
   9 N :    0.197338
  10 C :    0.633455
  11 H :   -0.216268
  12 H :   -0.656670
  13 H :   -0.334390
  14 H :   -0.162366
  15 H :   -0.116442
  16 H :   -0.171600
  17 H :   -0.059893
  18 H :   -0.177766
Sum of atomic charges:    0.0000000

LOEWDIN ATOMIC CHARGES
----------------------
   0 C :    0.058963
   1 C :   -0.054168
   2 N :   -0.012439
   3 H :    0.016966
   4 C :    0.124868
   5 H :    0.017470
   6 H :    0.018109
   7 H :    0.016447
   8 C :   -0.237138
   9 N :    0.192676
  10 C :    0.165815
  11 H :   -0.130791
  12 H :   -0.112553
  13 H :    0.017376
  14 H :   -0.016237
  15 H :    0.011675
  16 H :   -0.022171
  17 H :   -0.022900
  18 H :   -0.031969

  Mayer bond orders larger than 0.100000
B(  0-C ,  1-C ) :   1.0722 B(  0-C ,  2-N ) :   0.9194 B(  0-C ,  3-H ) :   0.1447
B(  0-C ,  6-H ) :   0.7571 B(  0-C ,  7-H ) :   0.8280 B(  0-C , 13-H ) :  -0.2364
B(  1-C ,  3-H ) :   0.8977 B(  1-C ,  4-C ) :   1.2792 B(  1-C ,  5-H ) :   0.9592
B(  1-C ,  6-H ) :   0.1318 B(  1-C , 16-H ) :   0.2472 B(  1-C , 17-H ) :   0.2276
B(  1-C , 18-H ) :   0.2242 B(  2-N ,  6-H ) :   0.2118 B(  2-N ,  7-H ) :   0.1223
B(  2-N ,  8-C ) :   0.8727 B(  2-N ,  9-N ) :   0.1734 B(  2-N , 10-C ) :   0.4009
B(  2-N , 13-H ) :   1.3496 B(  4-C , 16-H ) :   0.7470 B(  4-C , 17-H ) :   0.7356
B(  4-C , 18-H ) :   0.7872 B(  6-H ,  7-H ) :  -0.1657 B(  8-C ,  9-N ) :   0.9089
B(  8-C , 10-C ) :   1.6840 B(  8-C , 11-H ) :   0.3284 B(  8-C , 12-H ) :   0.2379
B(  8-C , 13-H ) :  -0.2830 B(  9-N , 10-C ) :   0.2704 B(  9-N , 14-H ) :   1.0517
B(  9-N , 15-H ) :   1.1865 B( 10-C , 11-H ) :   0.6259 B( 10-C , 12-H ) :   0.6193
B( 14-H , 15-H ) :  -0.1337

Dispersion correction           -0.026655771
FINAL SINGLE POINT ENERGY      -306.839591473173

DIPOLE MOMENT
-------------
                                X             Y             Z
Electronic contribution:     -2.20503      -2.02673       4.07501
Nuclear contribution   :      1.26608       1.95446      -4.64747
                        -----------------------------------------
Total Dipole Moment    :     -0.93895      -0.07226      -0.57246
                        -----------------------------------------
Magnitude (a.u.)       :      1.10207
Magnitude (Debye)      :      2.80125

Rotational constants in cm-1:     0.166109     0.049557     0.044716
Rotational constants in MHz :  4979.835529  1485.675017  1340.540851

                             ****ORCA TERMINATED NORMALLY****
TOTAL RUN TIME: 0 days 0 hours 0 minutes 31 seconds 735 msec
