                         Program Version 5.0.0 -  RELEASE  -
|  1> !B3LYP D3BJ RIJCOSX def2-SVPD def2/J TightSCF xyzfile
|  2>
|  3> *xyzfile 0 1 D2.xyz
|  4>
|  5> %MaxCore 64000
|  6>
|  7> %pal nprocs 4
|  8> end
|  9>
| 10> %scf
| 11>   MaxIter 150
| 12> end
| 13>
| 14>
| 15>                          ****END OF INPUT****

CARTESIAN COORDINATES (ANGSTROEM)
---------------------------------
  C      3.488276    1.600919   -1.522040
  C      4.342970    1.313419   -2.756826
  N      2.810285    0.428783   -1.014196
  H      5.132033    0.604994   -2.484466
  C      3.535896    0.749253   -3.924604
  H      4.841247    2.242136   -3.054083
  H      2.991617   -0.132199   -3.574137
  H      4.225505    0.392784   -4.695962
  C      2.564776    1.750890   -4.544523
  H      1.918749    2.171679   -3.769419
  C      1.686235    1.161657   -5.650111
  H      3.132494    2.594775   -4.951604
  C      0.839616   -0.037582   -5.220473
  H      2.323886    0.866395   -6.490796
  H      1.029518    1.951850   -6.029329
  C     -0.151019    0.254955   -4.094256
  H      1.499442   -0.857141   -4.922958
  H      0.290097   -0.410143   -6.091131
  H      0.328265    0.833022   -3.299125
  C     -0.721843   -0.999513   -3.439309
  H     -0.957367    0.884951   -4.485450
  H     -1.083403   -1.697555   -4.205656
  H     -1.581056   -0.723848   -2.820490
  C      0.287250   -1.711771   -2.527405
  H      1.131780   -2.067380   -3.159396
  H     -0.204137   -2.637326   -2.170480
  F      0.710505   -0.927506   -1.481767
  H      2.714548    2.331455   -1.760302
  H      4.090991    2.063151   -0.733382
  C      3.290978   -0.418021   -0.129083
  C      2.517536   -1.432017    0.239360
  N      4.535490   -0.284410    0.395800
  H      5.043627    0.571888    0.222899
  H      4.723346   -0.733273    1.281800
  H      1.934787    0.102305   -1.403788
  H      1.674638   -1.505616   -0.316095
  H      2.928503   -2.218502    0.725494

 Total Charge           Charge          ....    0
 Multiplicity           Mult            ....    1
 Number of Electrons    NEL             ....  112
 Basis Dimension        Dim             ....  467

ORBITAL ENERGIES
----------------

  NO   OCC          E(Eh)            E(eV)
   0   2.0000     -24.712626      -672.4647
   1   2.0000     -14.314595      -389.5199
   2   2.0000     -14.302307      -389.1856
   3   2.0000     -10.273923      -279.5676
   4   2.0000     -10.209295      -277.8090
   5   2.0000     -10.206236      -277.7258
   6   2.0000     -10.196990      -277.4742
   7   2.0000     -10.186691      -277.1940
   8   2.0000     -10.183010      -277.0938
   9   2.0000     -10.180624      -277.0289
  10   2.0000     -10.177547      -276.9451
  11   2.0000     -10.175453      -276.8881
  12   2.0000     -10.174194      -276.8539
  13   2.0000     -10.065125      -273.8860
  14   2.0000      -1.218614       -33.1602
  15   2.0000      -0.942204       -25.6387
  16   2.0000      -0.859205       -23.3802
  17   2.0000      -0.819736       -22.3062
  18   2.0000      -0.792594       -21.5676
  19   2.0000      -0.766202       -20.8494
  20   2.0000      -0.721299       -19.6275
  21   2.0000      -0.698374       -19.0037
  22   2.0000      -0.664108       -18.0713
  23   2.0000      -0.638250       -17.3677
  24   2.0000      -0.607680       -16.5358
  25   2.0000      -0.594420       -16.1750
  26   2.0000      -0.573661       -15.6101
  27   2.0000      -0.556399       -15.1404
  28   2.0000      -0.535871       -14.5818
  29   2.0000      -0.523199       -14.2370
  30   2.0000      -0.511352       -13.9146
  31   2.0000      -0.497216       -13.5299
  32   2.0000      -0.483270       -13.1504
  33   2.0000      -0.473231       -12.8773
  34   2.0000      -0.467835       -12.7304
  35   2.0000      -0.454332       -12.3630
  36   2.0000      -0.438018       -11.9191
  37   2.0000      -0.431459       -11.7406
  38   2.0000      -0.429259       -11.6807
  39   2.0000      -0.414088       -11.2679
  40   2.0000      -0.395811       -10.7706
  41   2.0000      -0.383687       -10.4406
  42   2.0000      -0.374997       -10.2042
  43   2.0000      -0.372882       -10.1466
  44   2.0000      -0.365255        -9.9391
  45   2.0000      -0.361726        -9.8431
  46   2.0000      -0.347821        -9.4647
  47   2.0000      -0.344666        -9.3788
  48   2.0000      -0.337945        -9.1959
  49   2.0000      -0.329913        -8.9774
  50   2.0000      -0.321417        -8.7462
  51   2.0000      -0.318877        -8.6771
  52   2.0000      -0.315873        -8.5953
  53   2.0000      -0.312351        -8.4995
  54   2.0000      -0.241086        -6.5603
  55   2.0000      -0.142580        -3.8798
  56   0.0000       0.015794         0.4298
  57   0.0000       0.020135         0.5479
  58   0.0000       0.026415         0.7188
  59   0.0000       0.030609         0.8329
  60   0.0000       0.044954         1.2233

MULLIKEN ATOMIC CHARGES
-----------------------
   0 C :    1.348428
   1 C :    0.497602
   2 N :    0.404192
   3 H :   -0.146607
   4 C :    0.577703
   5 H :   -0.240757
   6 H :   -0.491031
   7 H :   -0.238047
   8 C :    0.090424
   9 H :   -0.026957
  10 C :    0.824189
  11 H :   -0.318515
  12 C :    0.181952
  13 H :   -0.119655
  14 H :   -0.237806
  15 C :    0.404510
  16 H :   -0.120281
  17 H :   -0.322960
  18 H :   -0.419738
  19 C :    0.461384
  20 H :   -0.183925
  21 H :   -0.150845
  22 H :   -0.146484
  23 C :    1.068915
  24 H :   -0.203222
  25 H :   -0.328431
  26 F :   -0.633565
  27 H :   -0.437607
  28 H :   -0.398329
  29 C :    0.486504
  30 C :    0.957524
  31 N :    0.254273
  32 H :   -0.189750
  33 H :   -0.200471
  34 H :   -0.927726
  35 H :   -0.659954
  36 H :   -0.414934
Sum of atomic charges:    0.0000000

LOEWDIN ATOMIC CHARGES
----------------------
   0 C :    0.065108
   1 C :   -0.013522
   2 N :    0.012167
   3 H :    0.016083
   4 C :   -0.023267
   5 H :    0.017132
   6 H :   -0.003934
   7 H :    0.024890
   8 C :   -0.028971
   9 H :   -0.005317
  10 C :   -0.022266
  11 H :    0.023418
  12 C :   -0.027421
  13 H :    0.020531
  14 H :    0.019831
  15 C :   -0.019046
  16 H :   -0.004826
  17 H :    0.022109
  18 H :    0.001530
  19 C :   -0.003562
  20 H :    0.027342
  21 H :    0.032886
  22 H :    0.025903
  23 C :    0.168774
  24 H :    0.031866
  25 H :    0.039651
  26 F :   -0.217011
  27 H :    0.006785
  28 H :    0.007000
  29 C :   -0.209193
  30 C :    0.167393
  31 N :    0.204980
  32 H :   -0.041012
  33 H :   -0.002490
  34 H :   -0.049392
  35 H :   -0.160710
  36 H :   -0.103442

  Mayer bond orders larger than 0.100000
B(  0-C ,  1-C ) :   1.0398 B(  0-C ,  2-N ) :   1.0421 B(  0-C ,  4-C ) :   0.1478
B(  0-C ,  5-H ) :   0.1364 B(  0-C , 27-H ) :   0.5480 B(  0-C , 28-H ) :   0.7093
B(  0-C , 34-H ) :  -0.6372 B(  1-C ,  3-H ) :   0.6818 B(  1-C ,  4-C ) :   1.1836
B(  1-C ,  5-H ) :   0.8410 B(  1-C ,  6-H ) :   0.1523 B(  1-C ,  7-H ) :   0.1076
B(  1-C , 27-H ) :   0.1196 B(  1-C , 28-H ) :   0.1451 B(  2-N , 27-H ) :   0.1716
B(  2-N , 29-C ) :   1.0710 B(  2-N , 30-C ) :   0.2082 B(  2-N , 31-N ) :   0.1796
B(  2-N , 34-H ) :   0.7715 B(  3-H ,  4-C ) :   0.2371 B(  3-H ,  5-H ) :  -0.1017
B(  3-H , 34-H ) :   0.1078 B(  4-C ,  6-H ) :   0.6800 B(  4-C ,  7-H ) :   0.6734
B(  4-C ,  8-C ) :   1.1590 B(  4-C , 11-H ) :   0.1743 B(  6-H ,  8-C ) :   0.1962
B(  7-H ,  8-C ) :   0.1611 B(  8-C ,  9-H ) :   0.8028 B(  8-C , 10-C ) :   1.1434
B(  8-C , 11-H ) :   0.8388 B(  8-C , 12-C ) :   0.1366 B(  8-C , 13-H ) :   0.1319
B(  8-C , 14-H ) :   0.3451 B( 10-C , 12-C ) :   1.1761 B( 10-C , 13-H ) :   0.6267
B( 10-C , 14-H ) :   0.5761 B( 10-C , 17-H ) :   0.1096 B( 12-C , 13-H ) :   0.2764
B( 12-C , 14-H ) :   0.1372 B( 12-C , 15-C ) :   1.1731 B( 12-C , 16-H ) :   0.8320
B( 12-C , 17-H ) :   0.7696 B( 12-C , 18-H ) :   0.1859 B( 12-C , 20-H ) :   0.2160
B( 13-H , 14-H ) :  -0.1660 B( 15-C , 16-H ) :   0.1259 B( 15-C , 17-H ) :   0.2680
B( 15-C , 18-H ) :   0.7598 B( 15-C , 19-C ) :   1.1625 B( 15-C , 20-H ) :   0.7433
B( 15-C , 21-H ) :   0.1055 B( 15-C , 22-H ) :   0.2523 B( 15-C , 23-C ) :   0.1018
B( 18-H , 19-C ) :   0.1673 B( 19-C , 21-H ) :   0.7382 B( 19-C , 22-H ) :   0.6529
B( 19-C , 23-C ) :   1.1997 B( 19-C , 24-H ) :   0.1344 B( 19-C , 25-H ) :   0.1640
B( 19-C , 26-F ) :   0.1004 B( 21-H , 23-C ) :   0.1763 B( 22-H , 23-C ) :   0.1799
B( 23-C , 24-H ) :   0.7839 B( 23-C , 25-H ) :   0.8203 B( 23-C , 26-F ) :   0.5800
B( 24-H , 26-F ) :   0.1252 B( 26-F , 34-H ) :   0.1124 B( 26-F , 35-H ) :   0.1688
B( 27-H , 28-H ) :  -0.1401 B( 27-H , 34-H ) :   0.2100 B( 29-C , 30-C ) :   1.6792
B( 29-C , 31-N ) :   0.8867 B( 29-C , 34-H ) :  -0.6372 B( 29-C , 35-H ) :   0.2901
B( 29-C , 36-H ) :   0.4647 B( 30-C , 31-N ) :   0.2752 B( 30-C , 35-H ) :   0.2644
B( 30-C , 36-H ) :   0.3177 B( 31-N , 32-H ) :   0.9840 B( 31-N , 33-H ) :   1.1933
B( 32-H , 33-H ) :  -0.1489 B( 34-H , 35-H ) :  -0.1148 B( 35-H , 36-H ) :   0.2631

Dispersion correction           -0.064839659
FINAL SINGLE POINT ENERGY      -641.530992714137

DIPOLE MOMENT
-------------
                                X             Y             Z
Electronic contribution:     -1.29165      -3.14853       9.43128
Nuclear contribution   :      1.09892       3.58083     -10.64472
                        -----------------------------------------
Total Dipole Moment    :     -0.19273       0.43230      -1.21343
                        -----------------------------------------
Magnitude (a.u.)       :      1.30248
Magnitude (Debye)      :      3.31064

Rotational constants in cm-1:     0.026768     0.016312     0.010954
Rotational constants in MHz :   802.489946   489.033275   328.388904

                             ****ORCA TERMINATED NORMALLY****
TOTAL RUN TIME: 0 days 0 hours 3 minutes 12 seconds 863 msec
