                         Program Version 5.0.0 -  RELEASE  -
|  1> !B3LYP D3BJ RIJCOSX def2-SVPD def2/J TightSCF xyzfile
|  2>
|  3> *xyzfile 0 1 D3.xyz
|  4>
|  5> %MaxCore 64000
|  6>
|  7> %pal nprocs 4
|  8> end
|  9>
| 10> %scf
| 11>   MaxIter 150
| 12> end
| 13>
| 14>
| 15>                          ****END OF INPUT****

CARTESIAN COORDINATES (ANGSTROEM)
---------------------------------
  C      3.488276    1.600919   -1.522040
  C      4.342970    1.313419   -2.756826
  N      2.810285    0.428783   -1.014196
  H      5.132033    0.604994   -2.484466
  C      3.535896    0.749253   -3.924604
  H      4.841247    2.242136   -3.054083
  H      2.991617   -0.132199   -3.574137
  H      4.225505    0.392784   -4.695962
  C      2.564776    1.750890   -4.544523
  H      1.918749    2.171679   -3.769419
  C      1.686235    1.161657   -5.650111
  H      3.132494    2.594775   -4.951604
  C      0.839616   -0.037582   -5.220473
  H      2.323886    0.866395   -6.490796
  H      1.029518    1.951850   -6.029329
  C     -0.151019    0.254955   -4.094256
  H      1.499442   -0.857141   -4.922958
  H      0.290097   -0.410143   -6.091131
  H      0.328265    0.833022   -3.299125
  C     -0.721843   -0.999513   -3.439309
  H     -0.957367    0.884951   -4.485450
  H     -1.083403   -1.697555   -4.205656
  H     -1.581056   -0.723848   -2.820490
  C      0.287250   -1.711771   -2.527405
  H      1.131780   -2.067380   -3.159396
  H     -0.204137   -2.637326   -2.170480
  F      0.710505   -0.927506   -1.481767
  H      2.714548    2.331455   -1.760302
  H      4.090991    2.063151   -0.733382
  C      3.290978   -0.418021   -0.129083
  N      2.517536   -1.432017    0.239360
  C      4.535490   -0.284410    0.395800
  H      5.043627    0.571888    0.222899
  H      4.723346   -0.733273    1.281800
  H      1.934787    0.102305   -1.403788
  H      1.674638   -1.505616   -0.316095
  H      2.928503   -2.218502    0.725494

 Total Charge           Charge          ....    0
 Multiplicity           Mult            ....    1
 Number of Electrons    NEL             ....  112
 Basis Dimension        Dim             ....  467

ORBITAL ENERGIES
----------------

  NO   OCC          E(Eh)            E(eV)
   0   2.0000     -24.742095      -673.2666
   1   2.0000     -14.306336      -389.2952
   2   2.0000     -14.302374      -389.1874
   3   2.0000     -10.291924      -280.0575
   4   2.0000     -10.208951      -277.7997
   5   2.0000     -10.208610      -277.7904
   6   2.0000     -10.201174      -277.5881
   7   2.0000     -10.194122      -277.3962
   8   2.0000     -10.187970      -277.2288
   9   2.0000     -10.182593      -277.0824
  10   2.0000     -10.177070      -276.9322
  11   2.0000     -10.173234      -276.8278
  12   2.0000     -10.167141      -276.6620
  13   2.0000     -10.076087      -274.1843
  14   2.0000      -1.246783       -33.9267
  15   2.0000      -0.947993       -25.7962
  16   2.0000      -0.859856       -23.3979
  17   2.0000      -0.826014       -22.4770
  18   2.0000      -0.796122       -21.6636
  19   2.0000      -0.762671       -20.7533
  20   2.0000      -0.721600       -19.6357
  21   2.0000      -0.689982       -18.7754
  22   2.0000      -0.681661       -18.5489
  23   2.0000      -0.649285       -17.6679
  24   2.0000      -0.617633       -16.8067
  25   2.0000      -0.591562       -16.0972
  26   2.0000      -0.573878       -15.6160
  27   2.0000      -0.560007       -15.2386
  28   2.0000      -0.554786       -15.0965
  29   2.0000      -0.525891       -14.3102
  30   2.0000      -0.521653       -14.1949
  31   2.0000      -0.510164       -13.8823
  32   2.0000      -0.492706       -13.4072
  33   2.0000      -0.476522       -12.9668
  34   2.0000      -0.464168       -12.6306
  35   2.0000      -0.455758       -12.4018
  36   2.0000      -0.441081       -12.0024
  37   2.0000      -0.437876       -11.9152
  38   2.0000      -0.429663       -11.6917
  39   2.0000      -0.411721       -11.2035
  40   2.0000      -0.402020       -10.9395
  41   2.0000      -0.387056       -10.5323
  42   2.0000      -0.381060       -10.3692
  43   2.0000      -0.373819       -10.1721
  44   2.0000      -0.371101       -10.0982
  45   2.0000      -0.362164        -9.8550
  46   2.0000      -0.352860        -9.6018
  47   2.0000      -0.349657        -9.5147
  48   2.0000      -0.341859        -9.3025
  49   2.0000      -0.337930        -9.1956
  50   2.0000      -0.332179        -9.0391
  51   2.0000      -0.318791        -8.6747
  52   2.0000      -0.317215        -8.6319
  53   2.0000      -0.310514        -8.4495
  54   2.0000      -0.230942        -6.2843
  55   2.0000      -0.146840        -3.9957
  56   0.0000       0.006621         0.1802
  57   0.0000       0.017566         0.4780
  58   0.0000       0.026512         0.7214
  59   0.0000       0.030255         0.8233
  60   0.0000       0.042218         1.1488

MULLIKEN ATOMIC CHARGES
-----------------------
   0 C :    1.318870
   1 C :    0.515158
   2 N :    0.426062
   3 H :   -0.172948
   4 C :    0.538181
   5 H :   -0.218433
   6 H :   -0.496755
   7 H :   -0.226569
   8 C :    0.088203
   9 H :   -0.025585
  10 C :    0.828392
  11 H :   -0.313679
  12 C :    0.178305
  13 H :   -0.116932
  14 H :   -0.236425
  15 C :    0.399264
  16 H :   -0.119260
  17 H :   -0.328258
  18 H :   -0.425339
  19 C :    0.469379
  20 H :   -0.184565
  21 H :   -0.147246
  22 H :   -0.141780
  23 C :    1.065866
  24 H :   -0.193006
  25 H :   -0.315255
  26 F :   -0.696917
  27 H :   -0.429516
  28 H :   -0.281536
  29 C :    0.527009
  30 N :    0.579895
  31 C :    0.720821
  32 H :   -0.127845
  33 H :   -0.739271
  34 H :   -1.143978
  35 H :   -0.385651
  36 H :   -0.188657
Sum of atomic charges:    0.0000000

LOEWDIN ATOMIC CHARGES
----------------------
   0 C :    0.072785
   1 C :   -0.005545
   2 N :    0.011944
   3 H :    0.018747
   4 C :   -0.025548
   5 H :    0.019435
   6 H :   -0.007515
   7 H :    0.024659
   8 C :   -0.029129
   9 H :   -0.005681
  10 C :   -0.021967
  11 H :    0.024277
  12 C :   -0.027422
  13 H :    0.021104
  14 H :    0.019882
  15 C :   -0.017721
  16 H :   -0.005196
  17 H :    0.022276
  18 H :    0.002247
  19 C :   -0.001086
  20 H :    0.028895
  21 H :    0.035206
  22 H :    0.026774
  23 C :    0.168390
  24 H :    0.034169
  25 H :    0.039167
  26 F :   -0.206535
  27 H :    0.006475
  28 H :    0.014632
  29 C :   -0.218165
  30 N :    0.212215
  31 C :    0.157727
  32 H :   -0.136374
  33 H :   -0.118037
  34 H :   -0.058365
  35 H :   -0.084786
  36 H :    0.008065

  Mayer bond orders larger than 0.100000
B(  0-C ,  1-C ) :   1.0285 B(  0-C ,  2-N ) :   1.0574 B(  0-C ,  4-C ) :   0.1238
B(  0-C ,  5-H ) :   0.1084 B(  0-C , 27-H ) :   0.6003 B(  0-C , 28-H ) :   0.7293
B(  0-C , 34-H ) :  -0.6765 B(  1-C ,  3-H ) :   0.7021 B(  1-C ,  4-C ) :   1.1811
B(  1-C ,  5-H ) :   0.8394 B(  1-C ,  6-H ) :   0.1531 B(  1-C , 27-H ) :   0.1066
B(  1-C , 28-H ) :   0.1308 B(  2-N , 27-H ) :   0.2234 B(  2-N , 29-C ) :   1.0042
B(  2-N , 31-C ) :   0.4915 B(  2-N , 33-H ) :   0.1276 B(  2-N , 34-H ) :   0.4648
B(  3-H ,  4-C ) :   0.2446 B(  3-H ,  5-H ) :  -0.1217 B(  4-C ,  6-H ) :   0.6839
B(  4-C ,  7-H ) :   0.6877 B(  4-C ,  8-C ) :   1.1612 B(  4-C , 11-H ) :   0.1788
B(  6-H ,  8-C ) :   0.1956 B(  7-H ,  8-C ) :   0.1670 B(  8-C ,  9-H ) :   0.8057
B(  8-C , 10-C ) :   1.1458 B(  8-C , 11-H ) :   0.8354 B(  8-C , 12-C ) :   0.1366
B(  8-C , 13-H ) :   0.1347 B(  8-C , 14-H ) :   0.3487 B( 10-C , 12-C ) :   1.1743
B( 10-C , 13-H ) :   0.6261 B( 10-C , 14-H ) :   0.5746 B( 10-C , 17-H ) :   0.1101
B( 12-C , 13-H ) :   0.2759 B( 12-C , 14-H ) :   0.1340 B( 12-C , 15-C ) :   1.1728
B( 12-C , 16-H ) :   0.8298 B( 12-C , 17-H ) :   0.7777 B( 12-C , 18-H ) :   0.1845
B( 12-C , 20-H ) :   0.2148 B( 13-H , 14-H ) :  -0.1651 B( 15-C , 16-H ) :   0.1263
B( 15-C , 17-H ) :   0.2624 B( 15-C , 18-H ) :   0.7649 B( 15-C , 19-C ) :   1.1681
B( 15-C , 20-H ) :   0.7479 B( 15-C , 21-H ) :   0.1089 B( 15-C , 22-H ) :   0.2522
B( 18-H , 19-C ) :   0.1654 B( 19-C , 21-H ) :   0.7294 B( 19-C , 22-H ) :   0.6537
B( 19-C , 23-C ) :   1.1978 B( 19-C , 24-H ) :   0.1304 B( 19-C , 25-H ) :   0.1625
B( 19-C , 26-F ) :   0.1131 B( 21-H , 23-C ) :   0.1845 B( 22-H , 23-C ) :   0.1651
B( 23-C , 24-H ) :   0.7799 B( 23-C , 25-H ) :   0.8103 B( 23-C , 26-F ) :   0.5457
B( 24-H , 26-F ) :   0.1426 B( 26-F , 34-H ) :   0.1855 B( 26-F , 35-H ) :   0.1869
B( 27-H , 28-H ) :  -0.1830 B( 27-H , 34-H ) :   0.1306 B( 29-C , 30-N ) :   0.8725
B( 29-C , 31-C ) :   1.5874 B( 29-C , 32-H ) :   0.4117 B( 29-C , 33-H ) :   0.3947
B( 29-C , 34-H ) :  -0.6579 B( 30-N , 31-C ) :   0.2838 B( 30-N , 35-H ) :   0.9058
B( 30-N , 36-H ) :   1.1795 B( 31-C , 32-H ) :   0.5503 B( 31-C , 33-H ) :   0.4481
B( 35-H , 36-H ) :  -0.1409

Dispersion correction           -0.064838174
FINAL SINGLE POINT ENERGY      -641.543704443523

DIPOLE MOMENT
-------------
                                X             Y             Z
Electronic contribution:     -3.23817      -4.30879       9.07363
Nuclear contribution   :      1.49917       3.80845     -10.61369
                        -----------------------------------------
Total Dipole Moment    :     -1.73900      -0.50034      -1.54006
                        -----------------------------------------
Magnitude (a.u.)       :      2.37619
Magnitude (Debye)      :      6.03978

Rotational constants in cm-1:     0.026547     0.016542     0.011018
Rotational constants in MHz :   795.873737   495.912559   330.323979

                             ****ORCA TERMINATED NORMALLY****
TOTAL RUN TIME: 0 days 0 hours 3 minutes 27 seconds 326 msec
