                         Program Version 5.0.0 -  RELEASE  -
|  1> !PBE0 D3BJ RIJCOSX def2-TZVP def2/J TightSCF
|  2> *xyz -1 1
|  3> C         -0.77894        0.17197        1.80496
|  4> C         -0.60249       -0.63071        0.49224
|  5> H          0.31389       -1.24035        0.60350
|  6> H         -0.36383        0.11332       -0.30117
|  7> O         -1.71206       -1.37684        0.20253
|  8> H         -1.65864        0.77733        1.73736
|  9> H          0.07466        0.79896        1.95712
| 10> H         -0.87474       -0.50584        2.62734
| 11> *
| 12> %MaxCore 64000
| 13>
| 14> %pal nprocs 4
| 15> end
| 16>
| 17> %scf
| 18>   MaxIter 150
| 19> end
| 20>
| 21>
| 22>                          ****END OF INPUT****

CARTESIAN COORDINATES (ANGSTROEM)
---------------------------------
  C     -0.778940    0.171970    1.804960
  C     -0.602490   -0.630710    0.492240
  H      0.313890   -1.240350    0.603500
  H     -0.363830    0.113320   -0.301170
  O     -1.712060   -1.376840    0.202530
  H     -1.658640    0.777330    1.737360
  H      0.074660    0.798960    1.957120
  H     -0.874740   -0.505840    2.627340

 Total Charge           Charge          ....   -1
 Multiplicity           Mult            ....    1
 Number of Electrons    NEL             ....   26
 Basis Dimension        Dim             ....  123

ORBITAL ENERGIES
----------------

  NO   OCC          E(Eh)            E(eV)
   0   2.0000     -18.849894      -512.9317
   1   2.0000     -10.023469      -272.7525
   2   2.0000     -10.001587      -272.1570
   3   2.0000      -0.691631       -18.8202
   4   2.0000      -0.537188       -14.6176
   5   2.0000      -0.381749       -10.3879
   6   2.0000      -0.254395        -6.9224
   7   2.0000      -0.231348        -6.2953
   8   2.0000      -0.174802        -4.7566
   9   2.0000      -0.160209        -4.3595
  10   2.0000      -0.112733        -3.0676
  11   2.0000       0.034461         0.9377
  12   2.0000       0.035662         0.9704
  13   0.0000       0.226879         6.1737
  14   0.0000       0.262631         7.1465
  15   0.0000       0.287365         7.8196
  16   0.0000       0.292390         7.9563
  17   0.0000       0.323962         8.8155

MULLIKEN ATOMIC CHARGES
-----------------------
   0 C :   -0.174202
   1 C :    0.037714
   2 H :   -0.063579
   3 H :   -0.066689
   4 O :   -0.770654
   5 H :    0.033278
   6 H :   -0.027694
   7 H :    0.031825
Sum of atomic charges:   -1.0000000

LOEWDIN ATOMIC CHARGES
----------------------
   0 C :   -0.369488
   1 C :   -0.556765
   2 H :    0.053259
   3 H :    0.052154
   4 O :   -0.424895
   5 H :    0.087525
   6 H :    0.071660
   7 H :    0.086548

  Mayer bond orders larger than 0.100000
B(  0-C ,  1-C ) :   0.9065 B(  0-C ,  4-O ) :  -0.2438 B(  0-C ,  5-H ) :   0.9635
B(  0-C ,  6-H ) :   0.9203 B(  0-C ,  7-H ) :   0.9663 B(  1-C ,  2-H ) :   0.9166
B(  1-C ,  3-H ) :   0.9181 B(  1-C ,  4-O ) :   1.6100

Dispersion correction           -0.003049835
FINAL SINGLE POINT ENERGY      -154.297252132885

DIPOLE MOMENT
-------------
                                X             Y             Z
Electronic contribution:     -1.77698      -1.96457      -1.54961
Nuclear contribution   :      2.47835       2.80827       2.30058
                        -----------------------------------------
Total Dipole Moment    :      0.70137       0.84370       0.75097
                        -----------------------------------------
Magnitude (a.u.)       :      1.32955
Magnitude (Debye)      :      3.37945

Rotational constants in cm-1:     1.255775     0.327783     0.287473
Rotational constants in MHz : 37647.186859  9826.677683  8618.224821

                             ****ORCA TERMINATED NORMALLY****
TOTAL RUN TIME: 0 days 0 hours 0 minutes 10 seconds 483 msec
