                         Program Version 5.0.0 -  RELEASE  -
|  1> !PBE0 D3BJ RIJCOSX def2-TZVP def2/J TightSCF
|  2> *xyz 1 1
|  3> C         -2.12050        0.88520        1.78951
|  4> C         -0.77894        0.17197        1.80496
|  5> H         -2.32419        1.47265        2.68608
|  6> H         -2.18770        1.54127        0.91948
|  7> N         -3.17690       -0.15948        1.61070
|  8> H         -4.06474        0.23127        1.28675
|  9> H         -3.34407       -0.67151        2.48493
| 10> H         -2.71686       -0.78189        0.93588
| 11> H         -0.65708       -0.37837        0.89547
| 12> H         -0.74207       -0.50050        2.63642
| 13> H          0.00707        0.89251        1.89389
| 14> *
| 15> %MaxCore 64000
| 16>
| 17> %pal nprocs 4
| 18> end
| 19>
| 20> %scf
| 21>   MaxIter 150
| 22> end
| 23>
| 24>
| 25>                          ****END OF INPUT****

CARTESIAN COORDINATES (ANGSTROEM)
---------------------------------
  C     -2.120500    0.885200    1.789510
  C     -0.778940    0.171970    1.804960
  H     -2.324190    1.472650    2.686080
  H     -2.187700    1.541270    0.919480
  N     -3.176900   -0.159480    1.610700
  H     -4.064740    0.231270    1.286750
  H     -3.344070   -0.671510    2.484930
  H     -2.716860   -0.781890    0.935880
  H     -0.657080   -0.378370    0.895470
  H     -0.742070   -0.500500    2.636420
  H      0.007070    0.892510    1.893890

 Total Charge           Charge          ....    1
 Multiplicity           Mult            ....    1
 Number of Electrons    NEL             ....   26
 Basis Dimension        Dim             ....  141

ORBITAL ENERGIES
----------------

  NO   OCC          E(Eh)            E(eV)
   0   2.0000     -14.716641      -400.4602
   1   2.0000     -10.476868      -285.0901
   2   2.0000     -10.399349      -282.9807
   3   2.0000      -1.243443       -33.8358
   4   2.0000      -0.990737       -26.9593
   5   2.0000      -0.864688       -23.5293
   6   2.0000      -0.819995       -22.3132
   7   2.0000      -0.809255       -22.0210
   8   2.0000      -0.706091       -19.2137
   9   2.0000      -0.657826       -17.9003
  10   2.0000      -0.597626       -16.2622
  11   2.0000      -0.590157       -16.0590
  12   2.0000      -0.568398       -15.4669
  13   0.0000      -0.183812        -5.0018
  14   0.0000      -0.123246        -3.3537
  15   0.0000      -0.121575        -3.3082
  16   0.0000      -0.101145        -2.7523
  17   0.0000      -0.067679        -1.8416

MULLIKEN ATOMIC CHARGES
-----------------------
   0 C :   -0.210722
   1 C :   -0.385637
   2 H :    0.198820
   3 H :    0.190178
   4 N :   -0.278622
   5 H :    0.335434
   6 H :    0.329175
   7 H :    0.323628
   8 H :    0.151228
   9 H :    0.159046
  10 H :    0.187471
Sum of atomic charges:    1.0000000

LOEWDIN ATOMIC CHARGES
----------------------
   0 C :   -0.276921
   1 C :   -0.283560
   2 H :    0.152479
   3 H :    0.154835
   4 N :    0.171189
   5 H :    0.219472
   6 H :    0.222086
   7 H :    0.227013
   8 H :    0.130563
   9 H :    0.133140
  10 H :    0.149705

  Mayer bond orders larger than 0.100000
B(  0-C ,  1-C ) :   1.0191 B(  0-C ,  2-H ) :   0.9443 B(  0-C ,  3-H ) :   0.9440
B(  0-C ,  4-N ) :   0.8866 B(  1-C ,  8-H ) :   0.9514 B(  1-C ,  9-H ) :   0.9577
B(  1-C , 10-H ) :   0.9540 B(  4-N ,  5-H ) :   0.8712 B(  4-N ,  6-H ) :   0.8756
B(  4-N ,  7-H ) :   0.8714

Dispersion correction           -0.005073556
FINAL SINGLE POINT ENERGY      -135.420354270902

DIPOLE MOMENT
-------------
                                X             Y             Z
Electronic contribution:     -1.82856      -0.15691      -0.05818
Nuclear contribution   :      0.50278      -0.30871      -0.06979
                        -----------------------------------------
Total Dipole Moment    :     -1.32578      -0.46562      -0.12797
                        -----------------------------------------
Magnitude (a.u.)       :      1.41099
Magnitude (Debye)      :      3.58644

Rotational constants in cm-1:     0.963746     0.295157     0.256910
Rotational constants in MHz : 28892.375247  8848.576767  7701.963879

                             ****ORCA TERMINATED NORMALLY****
TOTAL RUN TIME: 0 days 0 hours 0 minutes 13 seconds 78 msec
