                         Program Version 5.0.0 -  RELEASE  -
|  1> !PBE0 D3BJ RIJCOSX def2-TZVP def2/J TightSCF
|  2> *xyz 0 1
|  3> C         -0.77894        0.17197        1.80496
|  4> C         -0.60249       -0.63071        0.49224
|  5> H          0.31389       -1.24035        0.60350
|  6> H         -0.36383        0.11332       -0.30117
|  7> F         -1.71206       -1.37684        0.20253
|  8> H         -1.65864        0.77733        1.73736
|  9> H          0.07466        0.79896        1.95712
| 10> H         -0.87474       -0.50584        2.62734
| 11> *
| 12> %MaxCore 64000
| 13>
| 14> %pal nprocs 4
| 15> end
| 16>
| 17> %scf
| 18>   MaxIter 150
| 19> end
| 20>
| 21>
| 22>                          ****END OF INPUT****

CARTESIAN COORDINATES (ANGSTROEM)
---------------------------------
  C     -0.778940    0.171970    1.804960
  C     -0.602490   -0.630710    0.492240
  H      0.313890   -1.240350    0.603500
  H     -0.363830    0.113320   -0.301170
  F     -1.712060   -1.376840    0.202530
  H     -1.658640    0.777330    1.737360
  H      0.074660    0.798960    1.957120
  H     -0.874740   -0.505840    2.627340

 Total Charge           Charge          ....    0
 Multiplicity           Mult            ....    1
 Number of Electrons    NEL             ....   26
 Basis Dimension        Dim             ....  123

ORBITAL ENERGIES
----------------

  NO   OCC          E(Eh)            E(eV)
   0   2.0000     -24.756391      -673.6557
   1   2.0000     -10.298753      -280.2433
   2   2.0000     -10.213489      -277.9232
   3   2.0000      -1.230284       -33.4777
   4   2.0000      -0.784677       -21.3521
   5   2.0000      -0.651086       -17.7169
   6   2.0000      -0.523911       -14.2563
   7   2.0000      -0.510009       -13.8781
   8   2.0000      -0.472826       -12.8663
   9   2.0000      -0.418220       -11.3803
  10   2.0000      -0.412817       -11.2333
  11   2.0000      -0.346439        -9.4271
  12   2.0000      -0.343220        -9.3395
  13   0.0000       0.051924         1.4129
  14   0.0000       0.090204         2.4546
  15   0.0000       0.105789         2.8787
  16   0.0000       0.109267         2.9733
  17   0.0000       0.123899         3.3715

MULLIKEN ATOMIC CHARGES
-----------------------
   0 C :   -0.344224
   1 C :    0.018204
   2 H :    0.095712
   3 H :    0.094983
   4 F :   -0.225877
   5 H :    0.124201
   6 H :    0.114269
   7 H :    0.122732
Sum of atomic charges:   -0.0000000

LOEWDIN ATOMIC CHARGES
----------------------
   0 C :   -0.313936
   1 C :   -0.371964
   2 H :    0.116492
   3 H :    0.117831
   4 F :    0.096950
   5 H :    0.117460
   6 H :    0.120888
   7 H :    0.116279

  Mayer bond orders larger than 0.100000
B(  0-C ,  1-C ) :   1.0113 B(  0-C ,  5-H ) :   0.9677 B(  0-C ,  6-H ) :   0.9567
B(  0-C ,  7-H ) :   0.9690 B(  1-C ,  2-H ) :   0.9655 B(  1-C ,  3-H ) :   0.9665
B(  1-C ,  4-F ) :   1.0056

Dispersion correction           -0.002810418
FINAL SINGLE POINT ENERGY      -178.937344717975

DIPOLE MOMENT
-------------
                                X             Y             Z
Electronic contribution:     -2.75032      -3.30454      -2.83232
Nuclear contribution   :      3.27800       3.70743       3.04146
                        -----------------------------------------
Total Dipole Moment    :      0.52768       0.40289       0.20914
                        -----------------------------------------
Magnitude (a.u.)       :      0.69607
Magnitude (Debye)      :      1.76926

Rotational constants in cm-1:     1.234437     0.305084     0.268865
Rotational constants in MHz : 37007.496448  9146.194083  8060.380630

                             ****ORCA TERMINATED NORMALLY****
TOTAL RUN TIME: 0 days 0 hours 0 minutes 9 seconds 414 msec
