                         Program Version 5.0.0 -  RELEASE  -
|  1> !PBE0 D3BJ RIJCOSX def2-TZVP def2/J TightSCF
|  2> *xyz 0 1
|  3> C         -2.12050        0.88520        1.78951
|  4> C         -0.77894        0.17197        1.80496
|  5> H         -2.32419        1.47265        2.68608
|  6> H         -2.18770        1.54127        0.91948
|  7> C         -3.17690       -0.15948        1.61070
|  8> H         -4.06474        0.23127        1.28675
|  9> H         -3.34407       -0.67151        2.48493
| 10> H         -2.71686       -0.78189        0.93588
| 11> H         -0.65708       -0.37837        0.89547
| 12> H         -0.74207       -0.50050        2.63642
| 13> H          0.00707        0.89251        1.89389
| 14> *
| 15> %MaxCore 64000
| 16>
| 17> %pal nprocs 4
| 18> end
| 19>
| 20> %scf
| 21>   MaxIter 150
| 22> end
| 23>
| 24>
| 25>                          ****END OF INPUT****

CARTESIAN COORDINATES (ANGSTROEM)
---------------------------------
  C     -2.120500    0.885200    1.789510
  C     -0.778940    0.171970    1.804960
  H     -2.324190    1.472650    2.686080
  H     -2.187700    1.541270    0.919480
  C     -3.176900   -0.159480    1.610700
  H     -4.064740    0.231270    1.286750
  H     -3.344070   -0.671510    2.484930
  H     -2.716860   -0.781890    0.935880
  H     -0.657080   -0.378370    0.895470
  H     -0.742070   -0.500500    2.636420
  H      0.007070    0.892510    1.893890

 Total Charge           Charge          ....    0
 Multiplicity           Mult            ....    1
 Number of Electrons    NEL             ....   26
 Basis Dimension        Dim             ....  141

ORBITAL ENERGIES
----------------

  NO   OCC          E(Eh)            E(eV)
   0   2.0000     -10.206621      -277.7363
   1   2.0000     -10.196913      -277.4721
   2   2.0000     -10.176462      -276.9156
   3   2.0000      -0.819271       -22.2935
   4   2.0000      -0.706730       -19.2311
   5   2.0000      -0.603502       -16.4221
   6   2.0000      -0.485416       -13.2089
   7   2.0000      -0.466720       -12.7001
   8   2.0000      -0.412165       -11.2156
   9   2.0000      -0.396731       -10.7956
  10   2.0000      -0.351175        -9.5559
  11   2.0000      -0.342545        -9.3211
  12   2.0000      -0.338409        -9.2086
  13   0.0000       0.052367         1.4250
  14   0.0000       0.093290         2.5385
  15   0.0000       0.100526         2.7355
  16   0.0000       0.104410         2.8411
  17   0.0000       0.122968         3.3461

MULLIKEN ATOMIC CHARGES
-----------------------
   0 C :   -0.162408
   1 C :   -0.358433
   2 H :    0.093834
   3 H :    0.089658
   4 C :   -0.326770
   5 H :    0.114677
   6 H :    0.110204
   7 H :    0.096630
   8 H :    0.114086
   9 H :    0.112250
  10 H :    0.116272
Sum of atomic charges:    0.0000000

LOEWDIN ATOMIC CHARGES
----------------------
   0 C :   -0.323891
   1 C :   -0.312305
   2 H :    0.127929
   3 H :    0.133098
   4 C :   -0.304259
   5 H :    0.104638
   6 H :    0.108078
   7 H :    0.117075
   8 H :    0.116767
   9 H :    0.117879
  10 H :    0.114993

  Mayer bond orders larger than 0.100000
B(  0-C ,  1-C ) :   1.0065 B(  0-C ,  2-H ) :   0.9634 B(  0-C ,  3-H ) :   0.9644
B(  0-C ,  4-C ) :   0.9930 B(  1-C ,  8-H ) :   0.9731 B(  1-C ,  9-H ) :   0.9736
B(  1-C , 10-H ) :   0.9751 B(  4-C ,  5-H ) :   0.9765 B(  4-C ,  6-H ) :   0.9792
B(  4-C ,  7-H ) :   0.9762

Dispersion correction           -0.005091972
FINAL SINGLE POINT ENERGY      -119.015414867015

DIPOLE MOMENT
-------------
                                X             Y             Z
Electronic contribution:     -0.14477       0.47303       0.11306
Nuclear contribution   :      0.13334      -0.45108      -0.10852
                        -----------------------------------------
Total Dipole Moment    :     -0.01143       0.02195       0.00454
                        -----------------------------------------
Magnitude (a.u.)       :      0.02516
Magnitude (Debye)      :      0.06395

Rotational constants in cm-1:     0.972269     0.310387     0.269029
Rotational constants in MHz : 29147.878530  9305.178981  8065.286472

                             ****ORCA TERMINATED NORMALLY****
TOTAL RUN TIME: 0 days 0 hours 0 minutes 11 seconds 952 msec
