                         Program Version 5.0.0 -  RELEASE  -
|  1> !LC-PBE RIJCOSX def2-SVPD def2/J TightSCF
|  2> *xyz -1 1
|  3> C          0.28725       -1.71177       -2.52740
|  4> O          0.71050       -0.92751       -1.48177
|  5> H          0.92384       -1.55316       -3.37267
|  6> H         -0.71828       -1.45137       -2.78433
|  7> H          0.32655       -2.74158       -2.23955
|  8> *
|  9> %MaxCore 64000
| 10>
| 11> %pal nprocs 4
| 12> end
| 13>
| 14> %scf
| 15>   MaxIter 150
| 16> end
| 17>
| 18>
| 19>                          ****END OF INPUT****

CARTESIAN COORDINATES (ANGSTROEM)
---------------------------------
  C      0.287250   -1.711770   -2.527400
  O      0.710500   -0.927510   -1.481770
  H      0.923840   -1.553160   -3.372670
  H     -0.718280   -1.451370   -2.784330
  H      0.326550   -2.741580   -2.239550

 Total Charge           Charge          ....   -1
 Multiplicity           Mult            ....    1
 Number of Electrons    NEL             ....   18
 Basis Dimension        Dim             ....   67

ORBITAL ENERGIES
----------------

  NO   OCC          E(Eh)            E(eV)
   0   2.0000     -18.629443      -506.9329
   1   2.0000      -9.909915      -269.6625
   2   2.0000      -0.810248       -22.0480
   3   2.0000      -0.549120       -14.9423
   4   2.0000      -0.337817        -9.1925
   5   2.0000      -0.337811        -9.1923
   6   2.0000      -0.231111        -6.2889
   7   2.0000      -0.074757        -2.0342
   8   2.0000      -0.074750        -2.0341
   9   0.0000       0.262324         7.1382
  10   0.0000       0.340566         9.2673
  11   0.0000       0.340568         9.2673
  12   0.0000       0.350151         9.5281
  13   0.0000       0.387508        10.5446

MULLIKEN ATOMIC CHARGES
-----------------------
   0 C :    0.534830
   1 O :   -1.004513
   2 H :   -0.176874
   3 H :   -0.176696
   4 H :   -0.176747
Sum of atomic charges:   -1.0000000

LOEWDIN ATOMIC CHARGES
----------------------
   0 C :   -0.148940
   1 O :   -0.662913
   2 H :   -0.062718
   3 H :   -0.062715
   4 H :   -0.062713

  Mayer bond orders larger than 0.100000
B(  0-C ,  1-O ) :   1.2876 B(  0-C ,  2-H ) :   0.9443 B(  0-C ,  3-H ) :   0.9442
B(  0-C ,  4-H ) :   0.9444

FINAL SINGLE POINT ENERGY      -114.684550516933

DIPOLE MOMENT
-------------
                                X             Y             Z
Electronic contribution:      0.53764       0.99616       1.32804
Nuclear contribution   :     -0.89006      -1.64923      -2.19886
                        -----------------------------------------
Total Dipole Moment    :     -0.35242      -0.65308      -0.87082
                        -----------------------------------------
Magnitude (a.u.)       :      1.14413
Magnitude (Debye)      :      2.90815

Rotational constants in cm-1:     5.477712     0.934243     0.934241
Rotational constants in MHz : 164217.678885 28007.889263 28007.851448

                             ****ORCA TERMINATED NORMALLY****
TOTAL RUN TIME: 0 days 0 hours 0 minutes 3 seconds 676 msec
