                         Program Version 5.0.0 -  RELEASE  -
|  1> !LC-PBE RIJCOSX def2-SVPD def2/J TightSCF
|  2> *xyz 1 1
|  3> C          3.48828        1.60092       -1.52204
|  4> N          2.81029        0.42878       -1.01420
|  5> C          3.29098       -0.41802       -0.12908
|  6> N          2.51754       -1.43202        0.23936
|  7> N          4.53549       -0.28441        0.39580
|  8> H          5.04363        0.57189        0.22290
|  9> H          4.72335       -0.73327        1.28180
| 10> H          1.93479        0.10230       -1.40379
| 11> H          1.67464       -1.50562       -0.31610
| 12> H          2.92850       -2.21850        0.72549
| 13> H          2.85802        2.09943       -2.22855
| 14> H          4.39853        1.30677       -2.00144
| 15> H          3.70992        2.26379       -0.71187
| 16> *
| 17> %MaxCore 64000
| 18>
| 19> %pal nprocs 4
| 20> end
| 21>
| 22> %scf
| 23>   MaxIter 150
| 24> end
| 25>
| 26>
| 27>                          ****END OF INPUT****

CARTESIAN COORDINATES (ANGSTROEM)
---------------------------------
  C      3.488280    1.600920   -1.522040
  N      2.810290    0.428780   -1.014200
  C      3.290980   -0.418020   -0.129080
  N      2.517540   -1.432020    0.239360
  N      4.535490   -0.284410    0.395800
  H      5.043630    0.571890    0.222900
  H      4.723350   -0.733270    1.281800
  H      1.934790    0.102300   -1.403790
  H      1.674640   -1.505620   -0.316100
  H      2.928500   -2.218500    0.725490
  H      2.858020    2.099430   -2.228550
  H      4.398530    1.306770   -2.001440
  H      3.709920    2.263790   -0.711870

 Total Charge           Charge          ....    1
 Multiplicity           Mult            ....    1
 Number of Electrons    NEL             ....   40
 Basis Dimension        Dim             ....  164

ORBITAL ENERGIES
----------------

  NO   OCC          E(Eh)            E(eV)
   0   2.0000     -14.468803      -393.7161
   1   2.0000     -14.458773      -393.4432
   2   2.0000     -14.457723      -393.4146
   3   2.0000     -10.477649      -285.1113
   4   2.0000     -10.335143      -281.2335
   5   2.0000      -1.399765       -38.0895
   6   2.0000      -1.277374       -34.7591
   7   2.0000      -1.261846       -34.3366
   8   2.0000      -1.078217       -29.3398
   9   2.0000      -0.985259       -26.8103
  10   2.0000      -0.939230       -25.5577
  11   2.0000      -0.911237       -24.7960
  12   2.0000      -0.843017       -22.9397
  13   2.0000      -0.829468       -22.5710
  14   2.0000      -0.817493       -22.2451
  15   2.0000      -0.791378       -21.5345
  16   2.0000      -0.739897       -20.1336
  17   2.0000      -0.720470       -19.6050
  18   2.0000      -0.619485       -16.8571
  19   2.0000      -0.590879       -16.0786
  20   0.0000      -0.086265        -2.3474
  21   0.0000      -0.079311        -2.1582
  22   0.0000      -0.043163        -1.1745
  23   0.0000      -0.036278        -0.9872
  24   0.0000      -0.007053        -0.1919

MULLIKEN ATOMIC CHARGES
-----------------------
   0 C :    0.771648
   1 N :   -0.601103
   2 C :    1.175568
   3 N :   -0.091926
   4 N :   -0.132796
   5 H :    0.008334
   6 H :   -0.006764
   7 H :   -0.129268
   8 H :    0.074573
   9 H :   -0.024815
  10 H :   -0.170576
  11 H :    0.070150
  12 H :    0.056975
Sum of atomic charges:    1.0000000

LOEWDIN ATOMIC CHARGES
----------------------
   0 C :    0.222520
   1 N :    0.002499
   2 C :   -0.034003
   3 N :    0.247018
   4 N :    0.265983
   5 H :    0.024398
   6 H :    0.045151
   7 H :    0.064583
   8 H :    0.042578
   9 H :    0.055224
  10 H :    0.026336
  11 H :    0.019310
  12 H :    0.018404

  Mayer bond orders larger than 0.100000
B(  0-C ,  1-N ) :   0.9857 B(  0-C ,  7-H ) :  -0.1123 B(  0-C , 10-H ) :   0.9073
B(  0-C , 11-H ) :   0.8490 B(  0-C , 12-H ) :   0.8381 B(  1-N ,  2-C ) :   1.0629
B(  1-N ,  3-N ) :   0.2366 B(  1-N ,  4-N ) :   0.1948 B(  1-N ,  7-H ) :   1.2658
B(  1-N , 10-H ) :   0.1521 B(  1-N , 11-H ) :   0.1191 B(  1-N , 12-H ) :   0.1305
B(  2-C ,  3-N ) :   0.9406 B(  2-C ,  4-N ) :   0.9861 B(  2-C ,  5-H ) :  -0.1022
B(  2-C ,  7-H ) :  -0.2191 B(  3-N ,  4-N ) :   0.1321 B(  3-N ,  8-H ) :   1.0494
B(  3-N ,  9-H ) :   1.1756 B(  4-N ,  5-H ) :   1.0509 B(  4-N ,  6-H ) :   1.1554
B(  5-H ,  6-H ) :  -0.1279 B(  8-H ,  9-H ) :  -0.1294

FINAL SINGLE POINT ENERGY      -244.158771148821

DIPOLE MOMENT
-------------
                                X             Y             Z
Electronic contribution:     -0.69009      -2.29493       1.33988
Nuclear contribution   :      0.56176       1.95858      -1.15445
                        -----------------------------------------
Total Dipole Moment    :     -0.12833      -0.33635       0.18543
                        -----------------------------------------
Magnitude (a.u.)       :      0.40495
Magnitude (Debye)      :      1.02930

Rotational constants in cm-1:     0.309570     0.135399     0.096056
Rotational constants in MHz :  9280.673410  4059.171112  2879.675555

                             ****ORCA TERMINATED NORMALLY****
TOTAL RUN TIME: 0 days 0 hours 0 minutes 17 seconds 487 msec
