                         Program Version 5.0.0 -  RELEASE  -
|  1> !LC-PBE RIJCOSX def2-SVPD def2/J TightSCF xyzfile
|  2>
|  3> *xyzfile 0 1 B.xyz
|  4>
|  5> %MaxCore 64000
|  6>
|  7> %pal nprocs 4
|  8> end
|  9>
| 10> %scf
| 11>   MaxIter 150
| 12> end
| 13>
| 14>
| 15>                          ****END OF INPUT****

CARTESIAN COORDINATES (ANGSTROEM)
---------------------------------
  C      3.488276    1.600919   -1.522040
  C      4.342970    1.313419   -2.756826
  N      2.810285    0.428783   -1.014196
  H      5.132033    0.604994   -2.484466
  C      3.535896    0.749253   -3.924604
  H      4.841247    2.242136   -3.054083
  H      2.991617   -0.132199   -3.574137
  H      4.225505    0.392784   -4.695962
  C      2.564776    1.750890   -4.544523
  H      1.918749    2.171679   -3.769419
  C      1.686235    1.161657   -5.650111
  H      3.132494    2.594775   -4.951604
  C      0.839616   -0.037582   -5.220473
  H      2.323886    0.866395   -6.490796
  H      1.029518    1.951850   -6.029329
  C     -0.151019    0.254955   -4.094256
  H      1.499442   -0.857141   -4.922958
  H      0.290097   -0.410143   -6.091131
  H      0.328265    0.833022   -3.299125
  C     -0.721843   -0.999513   -3.439309
  H     -0.957367    0.884951   -4.485450
  H     -1.083403   -1.697555   -4.205656
  H     -1.581056   -0.723848   -2.820490
  C      0.287250   -1.711771   -2.527405
  H      1.131780   -2.067380   -3.159396
  H     -0.204137   -2.637326   -2.170480
  O      0.710505   -0.927506   -1.481767
  H      2.714548    2.331455   -1.760302
  H      4.090991    2.063151   -0.733382
  C      3.290978   -0.418021   -0.129083
  N      2.517536   -1.432017    0.239360
  N      4.535490   -0.284410    0.395800
  H      5.043627    0.571888    0.222899
  H      4.723346   -0.733273    1.281800
  H      1.934787    0.102305   -1.403788
  H      1.674638   -1.505616   -0.316095
  H      2.928503   -2.218502    0.725494

 Total Charge           Charge          ....    0
 Multiplicity           Mult            ....    1
 Number of Electrons    NEL             ....  112
 Basis Dimension        Dim             ....  467

ORBITAL ENERGIES
----------------

  NO   OCC          E(Eh)            E(eV)
   0   2.0000     -18.858122      -513.1556
   1   2.0000     -14.290722      -388.8703
   2   2.0000     -14.251782      -387.8107
   3   2.0000     -14.242877      -387.5684
   4   2.0000     -10.285505      -279.8828
   5   2.0000     -10.182057      -277.0678
   6   2.0000     -10.137432      -275.8535
   7   2.0000     -10.120169      -275.3838
   8   2.0000     -10.114725      -275.2357
   9   2.0000     -10.107783      -275.0468
  10   2.0000     -10.105189      -274.9762
  11   2.0000     -10.096020      -274.7267
  12   2.0000     -10.085056      -274.4283
  13   2.0000     -10.072681      -274.0916
  14   2.0000      -1.207302       -32.8523
  15   2.0000      -1.093778       -29.7632
  16   2.0000      -1.073970       -29.2242
  17   2.0000      -1.037884       -28.2422
  18   2.0000      -0.987305       -26.8659
  19   2.0000      -0.950167       -25.8554
  20   2.0000      -0.908569       -24.7234
  21   2.0000      -0.866843       -23.5880
  22   2.0000      -0.822954       -22.3937
  23   2.0000      -0.806280       -21.9400
  24   2.0000      -0.768388       -20.9089
  25   2.0000      -0.756363       -20.5817
  26   2.0000      -0.750686       -20.4272
  27   2.0000      -0.716729       -19.5032
  28   2.0000      -0.695764       -18.9327
  29   2.0000      -0.669453       -18.2167
  30   2.0000      -0.658639       -17.9225
  31   2.0000      -0.640442       -17.4273
  32   2.0000      -0.631236       -17.1768
  33   2.0000      -0.617650       -16.8071
  34   2.0000      -0.609192       -16.5770
  35   2.0000      -0.604067       -16.4375
  36   2.0000      -0.578363       -15.7380
  37   2.0000      -0.565319       -15.3831
  38   2.0000      -0.556751       -15.1500
  39   2.0000      -0.533189       -14.5088
  40   2.0000      -0.526512       -14.3271
  41   2.0000      -0.516372       -14.0512
  42   2.0000      -0.493889       -13.4394
  43   2.0000      -0.485439       -13.2095
  44   2.0000      -0.479849       -13.0573
  45   2.0000      -0.464281       -12.6337
  46   2.0000      -0.450150       -12.2492
  47   2.0000      -0.443225       -12.0608
  48   2.0000      -0.441153       -12.0044
  49   2.0000      -0.435898       -11.8614
  50   2.0000      -0.414948       -11.2913
  51   2.0000      -0.412451       -11.2234
  52   2.0000      -0.405268       -11.0279
  53   2.0000      -0.391833       -10.6623
  54   2.0000      -0.305759        -8.3201
  55   2.0000      -0.298942        -8.1346
  56   0.0000       0.065243         1.7754
  57   0.0000       0.088517         2.4087
  58   0.0000       0.096794         2.6339
  59   0.0000       0.108229         2.9451
  60   0.0000       0.108739         2.9589

MULLIKEN ATOMIC CHARGES
-----------------------
   0 C :    0.941073
   1 C :    0.164680
   2 N :    0.124740
   3 H :    0.018102
   4 C :    0.183904
   5 H :   -0.016206
   6 H :   -0.286182
   7 H :   -0.053881
   8 C :   -0.222088
   9 H :    0.099826
  10 C :    0.449787
  11 H :   -0.120645
  12 C :   -0.149417
  13 H :    0.043315
  14 H :   -0.044578
  15 C :    0.054302
  16 H :    0.004311
  17 H :   -0.110502
  18 H :   -0.235940
  19 C :    0.116993
  20 H :   -0.033286
  21 H :    0.021153
  22 H :    0.049847
  23 C :    0.466780
  24 H :   -0.088969
  25 H :   -0.172414
  26 O :   -0.817407
  27 H :   -0.182652
  28 H :   -0.201295
  29 C :    1.121002
  30 N :    0.250288
  31 N :    0.048624
  32 H :   -0.035664
  33 H :   -0.107585
  34 H :   -0.926159
  35 H :   -0.234932
  36 H :   -0.118924
Sum of atomic charges:    0.0000000

LOEWDIN ATOMIC CHARGES
----------------------
   0 C :    0.052235
   1 C :   -0.040606
   2 N :    0.066191
   3 H :    0.028520
   4 C :   -0.046667
   5 H :    0.037188
   6 H :    0.016930
   7 H :    0.041031
   8 C :   -0.058257
   9 H :    0.009922
  10 C :   -0.055420
  11 H :    0.035011
  12 C :   -0.058219
  13 H :    0.032069
  14 H :    0.033813
  15 C :   -0.053402
  16 H :    0.007690
  17 H :    0.034084
  18 H :    0.007436
  19 C :   -0.057061
  20 H :    0.033059
  21 H :    0.031460
  22 H :    0.033290
  23 C :   -0.092795
  24 H :    0.011243
  25 H :    0.020806
  26 O :   -0.433377
  27 H :    0.035080
  28 H :    0.022988
  29 C :   -0.032460
  30 N :    0.254260
  31 N :    0.229646
  32 H :   -0.005310
  33 H :    0.020481
  34 H :   -0.088463
  35 H :   -0.100750
  36 H :    0.028355

  Mayer bond orders larger than 0.100000
B(  0-C ,  1-C ) :   1.0727 B(  0-C ,  2-N ) :   0.9015 B(  0-C , 27-H ) :   0.7652
B(  0-C , 28-H ) :   0.8559 B(  0-C , 34-H ) :  -0.5639 B(  1-C ,  3-H ) :   0.8034
B(  1-C ,  4-C ) :   1.2318 B(  1-C ,  5-H ) :   0.9428 B(  1-C , 28-H ) :   0.1043
B(  2-N , 27-H ) :   0.1853 B(  2-N , 29-C ) :   1.2375 B(  2-N , 31-N ) :   0.1899
B(  2-N , 34-H ) :   1.2169 B(  3-H ,  4-C ) :   0.1693 B(  4-C ,  6-H ) :   0.8697
B(  4-C ,  7-H ) :   0.8380 B(  4-C ,  8-C ) :   1.2056 B(  4-C , 11-H ) :   0.1593
B(  6-H ,  8-C ) :   0.1532 B(  7-H ,  8-C ) :   0.1304 B(  8-C ,  9-H ) :   0.8617
B(  8-C , 10-C ) :   1.1902 B(  8-C , 11-H ) :   0.9616 B(  8-C , 14-H ) :   0.2537
B( 10-C , 12-C ) :   1.1924 B( 10-C , 13-H ) :   0.7656 B( 10-C , 14-H ) :   0.7535
B( 12-C , 13-H ) :   0.1958 B( 12-C , 14-H ) :   0.1052 B( 12-C , 15-C ) :   1.2275
B( 12-C , 16-H ) :   0.9207 B( 12-C , 17-H ) :   0.9034 B( 12-C , 18-H ) :   0.1306
B( 12-C , 20-H ) :   0.1820 B( 15-C , 17-H ) :   0.2341 B( 15-C , 18-H ) :   0.9057
B( 15-C , 19-C ) :   1.2231 B( 15-C , 20-H ) :   0.8356 B( 15-C , 22-H ) :   0.1818
B( 18-H , 19-C ) :   0.1365 B( 19-C , 21-H ) :   0.8367 B( 19-C , 22-H ) :   0.7789
B( 19-C , 23-C ) :   1.1518 B( 21-H , 23-C ) :   0.1316 B( 22-H , 23-C ) :   0.1354
B( 23-C , 24-H ) :   0.8911 B( 23-C , 25-H ) :   0.9763 B( 23-C , 26-O ) :   1.0015
B( 26-O , 34-H ) :   0.2552 B( 26-O , 35-H ) :   0.3271 B( 27-H , 34-H ) :   0.1245
B( 29-C , 30-N ) :   0.9140 B( 29-C , 31-N ) :   0.9100 B( 29-C , 34-H ) :  -0.7019
B( 29-C , 35-H ) :  -0.1495 B( 29-C , 36-H ) :  -0.1026 B( 30-N , 31-N ) :   0.1098
B( 30-N , 35-H ) :   1.0361 B( 30-N , 36-H ) :   1.2007 B( 31-N , 32-H ) :   1.0439
B( 31-N , 33-H ) :   1.1842 B( 32-H , 33-H ) :  -0.1444 B( 35-H , 36-H ) :  -0.1542

FINAL SINGLE POINT ENERGY      -631.944543231448

DIPOLE MOMENT
-------------
                                X             Y             Z
Electronic contribution:      3.65123      -2.06254      11.31800
Nuclear contribution   :     -0.74583       2.62534      -9.91488
                        -----------------------------------------
Total Dipole Moment    :      2.90541       0.56281       1.40312
                        -----------------------------------------
Magnitude (a.u.)       :      3.27519
Magnitude (Debye)      :      8.32488

Rotational constants in cm-1:     0.027028     0.016098     0.010898
Rotational constants in MHz :   810.278072   482.590922   326.703462

                             ****ORCA TERMINATED NORMALLY****
TOTAL RUN TIME: 0 days 0 hours 3 minutes 49 seconds 472 msec
