                         Program Version 5.0.0 -  RELEASE  -
|  1> !LC-PBE RIJCOSX def2-SVPD def2/J TightSCF
|  2> *xyz 0 1
|  3> C          0.28725       -1.71177       -2.52740
|  4> F          0.71050       -0.92751       -1.48177
|  5> H          0.92384       -1.55316       -3.37267
|  6> H         -0.71828       -1.45137       -2.78433
|  7> H          0.32655       -2.74158       -2.23955
|  8> *
|  9> %MaxCore 64000
| 10>
| 11> %pal nprocs 4
| 12> end
| 13>
| 14> %scf
| 15>   MaxIter 150
| 16> end
| 17>
| 18>
| 19>                          ****END OF INPUT****

CARTESIAN COORDINATES (ANGSTROEM)
---------------------------------
  C      0.287250   -1.711770   -2.527400
  F      0.710500   -0.927510   -1.481770
  H      0.923840   -1.553160   -3.372670
  H     -0.718280   -1.451370   -2.784330
  H      0.326550   -2.741580   -2.239550

 Total Charge           Charge          ....    0
 Multiplicity           Mult            ....    1
 Number of Electrons    NEL             ....   18
 Basis Dimension        Dim             ....   67

ORBITAL ENERGIES
----------------

  NO   OCC          E(Eh)            E(eV)
   0   2.0000     -24.490838      -666.4296
   1   2.0000     -10.197981      -277.5012
   2   2.0000      -1.337437       -36.3935
   3   2.0000      -0.869799       -23.6684
   4   2.0000      -0.644177       -17.5289
   5   2.0000      -0.642525       -17.4840
   6   2.0000      -0.642523       -17.4839
   7   2.0000      -0.489983       -13.3331
   8   2.0000      -0.489974       -13.3329
   9   0.0000       0.091902         2.5008
  10   0.0000       0.147112         4.0031
  11   0.0000       0.175877         4.7859
  12   0.0000       0.175879         4.7859
  13   0.0000       0.213920         5.8211

MULLIKEN ATOMIC CHARGES
-----------------------
   0 C :    0.598642
   1 F :   -0.463620
   2 H :   -0.045115
   3 H :   -0.044903
   4 H :   -0.045004
Sum of atomic charges:   -0.0000000

LOEWDIN ATOMIC CHARGES
----------------------
   0 C :    0.231282
   1 F :   -0.248649
   2 H :    0.005786
   3 H :    0.005790
   4 H :    0.005792

  Mayer bond orders larger than 0.100000
B(  0-C ,  1-F ) :   0.8888 B(  0-C ,  2-H ) :   0.9648 B(  0-C ,  3-H ) :   0.9646
B(  0-C ,  4-H ) :   0.9648

FINAL SINGLE POINT ENERGY      -139.286240576900

DIPOLE MOMENT
-------------
                                X             Y             Z
Electronic contribution:      0.89015       1.64944       2.19902
Nuclear contribution   :     -1.12906      -2.09208      -2.78929
                        -----------------------------------------
Total Dipole Moment    :     -0.23890      -0.44264      -0.59027
                        -----------------------------------------
Magnitude (a.u.)       :      0.77551
Magnitude (Debye)      :      1.97119

Rotational constants in cm-1:     5.477712     0.869598     0.869597
Rotational constants in MHz : 164217.678885 26069.889584 26069.856821

                             ****ORCA TERMINATED NORMALLY****
TOTAL RUN TIME: 0 days 0 hours 0 minutes 3 seconds 306 msec
