                         Program Version 5.0.0 -  RELEASE  -
|  1> !LC-PBE RIJCOSX def2-SVPD def2/J TightSCF
|  2> *xyz 0 1
|  3> C          3.48828        1.60092       -1.52204
|  4> C          2.81029        0.42878       -1.01420
|  5> C          3.29098       -0.41802       -0.12908
|  6> N          2.51754       -1.43202        0.23936
|  7> N          4.53549       -0.28441        0.39580
|  8> H          5.04363        0.57189        0.22290
|  9> H          4.72335       -0.73327        1.28180
| 10> H          1.93479        0.10230       -1.40379
| 11> H          1.67464       -1.50562       -0.31610
| 12> H          2.92850       -2.21850        0.72549
| 13> H          2.85802        2.09943       -2.22855
| 14> H          4.39853        1.30677       -2.00144
| 15> H          3.70992        2.26379       -0.71187
| 16> *
| 17> %MaxCore 64000
| 18>
| 19> %pal nprocs 4
| 20> end
| 21>
| 22> %scf
| 23>   MaxIter 150
| 24> end
| 25>
| 26>
| 27>                          ****END OF INPUT****

CARTESIAN COORDINATES (ANGSTROEM)
---------------------------------
  C      3.488280    1.600920   -1.522040
  C      2.810290    0.428780   -1.014200
  C      3.290980   -0.418020   -0.129080
  N      2.517540   -1.432020    0.239360
  N      4.535490   -0.284410    0.395800
  H      5.043630    0.571890    0.222900
  H      4.723350   -0.733270    1.281800
  H      1.934790    0.102300   -1.403790
  H      1.674640   -1.505620   -0.316100
  H      2.928500   -2.218500    0.725490
  H      2.858020    2.099430   -2.228550
  H      4.398530    1.306770   -2.001440
  H      3.709920    2.263790   -0.711870

 Total Charge           Charge          ....    0
 Multiplicity           Mult            ....    1
 Number of Electrons    NEL             ....   40
 Basis Dimension        Dim             ....  164

ORBITAL ENERGIES
----------------

  NO   OCC          E(Eh)            E(eV)
   0   2.0000     -14.230270      -387.2253
   1   2.0000     -14.223011      -387.0278
   2   2.0000     -10.170075      -276.7418
   3   2.0000     -10.092491      -274.6306
   4   2.0000     -10.052227      -273.5350
   5   2.0000      -1.128188       -30.6996
   6   2.0000      -1.030285       -28.0355
   7   2.0000      -0.925375       -25.1807
   8   2.0000      -0.816645       -22.2220
   9   2.0000      -0.736327       -20.0365
  10   2.0000      -0.685641       -18.6572
  11   2.0000      -0.654178       -17.8011
  12   2.0000      -0.603176       -16.4133
  13   2.0000      -0.573416       -15.6035
  14   2.0000      -0.558658       -15.2019
  15   2.0000      -0.516096       -14.0437
  16   2.0000      -0.502895       -13.6845
  17   2.0000      -0.473832       -12.8936
  18   2.0000      -0.400837       -10.9073
  19   2.0000      -0.277967        -7.5639
  20   0.0000       0.091941         2.5018
  21   0.0000       0.115800         3.1511
  22   0.0000       0.126233         3.4350
  23   0.0000       0.153184         4.1684
  24   0.0000       0.162004         4.4084

MULLIKEN ATOMIC CHARGES
-----------------------
   0 C :    0.580833
   1 C :   -0.669104
   2 C :    0.581539
   3 N :   -0.020070
   4 N :   -0.137726
   5 H :    0.017647
   6 H :   -0.125765
   7 H :   -0.303533
   8 H :    0.083370
   9 H :   -0.129127
  10 H :    0.029652
  11 H :    0.040261
  12 H :    0.052024
Sum of atomic charges:   -0.0000000

LOEWDIN ATOMIC CHARGES
----------------------
   0 C :    0.056684
   1 C :   -0.091964
   2 C :   -0.239148
   3 N :    0.152919
   4 N :    0.185799
   5 H :   -0.007252
   6 H :   -0.002775
   7 H :   -0.043106
   8 H :    0.008578
   9 H :    0.004001
  10 H :   -0.005308
  11 H :   -0.008521
  12 H :   -0.009908

  Mayer bond orders larger than 0.100000
B(  0-C ,  1-C ) :   1.2062 B(  0-C ,  7-H ) :   0.1216 B(  0-C , 10-H ) :   0.8040
B(  0-C , 11-H ) :   0.7400 B(  0-C , 12-H ) :   0.7125 B(  1-C ,  2-C ) :   1.6888
B(  1-C ,  3-N ) :   0.2851 B(  1-C ,  4-N ) :   0.1854 B(  1-C ,  5-H ) :  -0.1047
B(  1-C ,  7-H ) :   1.0499 B(  1-C , 10-H ) :   0.2439 B(  1-C , 11-H ) :   0.1828
B(  1-C , 12-H ) :   0.2390 B(  2-C ,  3-N ) :   0.9719 B(  2-C ,  4-N ) :   0.9407
B(  2-C ,  7-H ) :   0.1485 B(  3-N ,  8-H ) :   1.0366 B(  3-N ,  9-H ) :   1.1478
B(  4-N ,  5-H ) :   1.0218 B(  4-N ,  6-H ) :   1.1816 B(  5-H ,  6-H ) :  -0.1108
B(  7-H , 10-H ) :  -0.1162 B(  8-H ,  9-H ) :  -0.1222

FINAL SINGLE POINT ENERGY      -227.715645859313

DIPOLE MOMENT
-------------
                                X             Y             Z
Electronic contribution:     -0.23355      -2.54234       1.79325
Nuclear contribution   :      0.45569       2.05070      -1.27895
                        -----------------------------------------
Total Dipole Moment    :      0.22214      -0.49164       0.51430
                        -----------------------------------------
Magnitude (a.u.)       :      0.74536
Magnitude (Debye)      :      1.89455

Rotational constants in cm-1:     0.314404     0.136412     0.097030
Rotational constants in MHz :  9425.600285  4089.541372  2908.875289

                             ****ORCA TERMINATED NORMALLY****
TOTAL RUN TIME: 0 days 0 hours 0 minutes 18 seconds 244 msec
