                         Program Version 5.0.0 -  RELEASE  -
|  1> !LC-PBE RIJCOSX def2-SVPD def2/J TightSCF
|  2> *xyz 0 1
|  3> C          3.48828        1.60092       -1.52204
|  4> N          2.81029        0.42878       -1.01420
|  5> C          3.29098       -0.41802       -0.12908
|  6> C          2.51754       -1.43202        0.23936
|  7> N          4.53549       -0.28441        0.39580
|  8> H          5.04363        0.57189        0.22290
|  9> H          4.72335       -0.73327        1.28180
| 10> H          1.93479        0.10230       -1.40379
| 11> H          1.67464       -1.50562       -0.31610
| 12> H          2.92850       -2.21850        0.72549
| 13> H          2.85802        2.09943       -2.22855
| 14> H          4.39853        1.30677       -2.00144
| 15> H          3.70992        2.26379       -0.71187
| 16> *
| 17> %MaxCore 64000
| 18>
| 19> %pal nprocs 4
| 20> end
| 21>
| 22> %scf
| 23>   MaxIter 150
| 24> end
| 25>
| 26>
| 27>                          ****END OF INPUT****

CARTESIAN COORDINATES (ANGSTROEM)
---------------------------------
  C      3.488280    1.600920   -1.522040
  N      2.810290    0.428780   -1.014200
  C      3.290980   -0.418020   -0.129080
  C      2.517540   -1.432020    0.239360
  N      4.535490   -0.284410    0.395800
  H      5.043630    0.571890    0.222900
  H      4.723350   -0.733270    1.281800
  H      1.934790    0.102300   -1.403790
  H      1.674640   -1.505620   -0.316100
  H      2.928500   -2.218500    0.725490
  H      2.858020    2.099430   -2.228550
  H      4.398530    1.306770   -2.001440
  H      3.709920    2.263790   -0.711870

 Total Charge           Charge          ....    0
 Multiplicity           Mult            ....    1
 Number of Electrons    NEL             ....   40
 Basis Dimension        Dim             ....  164

ORBITAL ENERGIES
----------------

  NO   OCC          E(Eh)            E(eV)
   0   2.0000     -14.232899      -387.2969
   1   2.0000     -14.230551      -387.2330
   2   2.0000     -10.178514      -276.9715
   3   2.0000     -10.160992      -276.4946
   4   2.0000     -10.035074      -273.0682
   5   2.0000      -1.141162       -31.0526
   6   2.0000      -1.045686       -28.4546
   7   2.0000      -0.918441       -24.9920
   8   2.0000      -0.826591       -22.4927
   9   2.0000      -0.752540       -20.4777
  10   2.0000      -0.683524       -18.5996
  11   2.0000      -0.638945       -17.3866
  12   2.0000      -0.622362       -16.9353
  13   2.0000      -0.605162       -16.4673
  14   2.0000      -0.542933       -14.7740
  15   2.0000      -0.524394       -14.2695
  16   2.0000      -0.512560       -13.9475
  17   2.0000      -0.510155       -13.8820
  18   2.0000      -0.393047       -10.6954
  19   2.0000      -0.280010        -7.6195
  20   0.0000       0.082337         2.2405
  21   0.0000       0.117787         3.2052
  22   0.0000       0.124687         3.3929
  23   0.0000       0.152815         4.1583
  24   0.0000       0.155768         4.2387

MULLIKEN ATOMIC CHARGES
-----------------------
   0 C :    0.804523
   1 N :   -0.512948
   2 C :    0.561565
   3 C :    0.261202
   4 N :   -0.070363
   5 H :   -0.115817
   6 H :   -0.009220
   7 H :   -0.168686
   8 H :   -0.188165
   9 H :   -0.340586
  10 H :   -0.223193
  11 H :    0.008971
  12 H :   -0.007284
Sum of atomic charges:    0.0000000

LOEWDIN ATOMIC CHARGES
----------------------
   0 C :    0.170078
   1 N :   -0.064324
   2 C :   -0.236738
   3 C :    0.101976
   4 N :    0.183842
   5 H :   -0.018527
   6 H :    0.013284
   7 H :    0.037158
   8 H :   -0.092060
   9 H :   -0.083912
  10 H :    0.000915
  11 H :   -0.005448
  12 H :   -0.006244

  Mayer bond orders larger than 0.100000
B(  0-C ,  1-N ) :   0.9868 B(  0-C ,  7-H ) :  -0.1301 B(  0-C , 10-H ) :   0.9032
B(  0-C , 11-H ) :   0.8572 B(  0-C , 12-H ) :   0.8507 B(  1-N ,  2-C ) :   1.1072
B(  1-N ,  3-C ) :   0.2303 B(  1-N ,  4-N ) :   0.1148 B(  1-N ,  7-H ) :   1.2403
B(  1-N , 10-H ) :   0.1528 B(  1-N , 11-H ) :   0.1366 B(  1-N , 12-H ) :   0.1302
B(  2-C ,  3-C ) :   1.7149 B(  2-C ,  4-N ) :   0.9280 B(  2-C ,  7-H ) :  -0.1604
B(  2-C ,  8-H ) :   0.1700 B(  2-C ,  9-H ) :   0.1735 B(  3-C ,  4-N ) :   0.2092
B(  3-C ,  8-H ) :   0.8477 B(  3-C ,  9-H ) :   0.8084 B(  4-N ,  5-H ) :   1.0761
B(  4-N ,  6-H ) :   1.1187 B(  5-H ,  6-H ) :  -0.1219

FINAL SINGLE POINT ENERGY      -227.698731055974

DIPOLE MOMENT
-------------
                                X             Y             Z
Electronic contribution:      0.10631      -0.70415       0.63720
Nuclear contribution   :      0.39640       1.67380      -1.02505
                        -----------------------------------------
Total Dipole Moment    :      0.50270       0.96965      -0.38785
                        -----------------------------------------
Magnitude (a.u.)       :      1.15903
Magnitude (Debye)      :      2.94602

Rotational constants in cm-1:     0.316500     0.141146     0.099607
Rotational constants in MHz :  9488.425850  4231.454938  2986.155520

                             ****ORCA TERMINATED NORMALLY****
TOTAL RUN TIME: 0 days 0 hours 0 minutes 18 seconds 382 msec
