                         Program Version 5.0.0 -  RELEASE  -
|  1> !LC-PBE RIJCOSX def2-SVPD def2/J TightSCF
|  2> *xyz 0 1
|  3> C          3.48828        1.60092       -1.52204
|  4> N          2.81029        0.42878       -1.01420
|  5> C          3.29098       -0.41802       -0.12908
|  6> N          2.51754       -1.43202        0.23936
|  7> C          4.53549       -0.28441        0.39580
|  8> H          5.04363        0.57189        0.22290
|  9> H          4.72335       -0.73327        1.28180
| 10> H          1.93479        0.10230       -1.40379
| 11> H          1.67464       -1.50562       -0.31610
| 12> H          2.92850       -2.21850        0.72549
| 13> H          2.85802        2.09943       -2.22855
| 14> H          4.39853        1.30677       -2.00144
| 15> H          3.70992        2.26379       -0.71187
| 16> *
| 17> %MaxCore 64000
| 18>
| 19> %pal nprocs 4
| 20> end
| 21>
| 22> %scf
| 23>   MaxIter 150
| 24> end
| 25>
| 26>
| 27>                          ****END OF INPUT****

CARTESIAN COORDINATES (ANGSTROEM)
---------------------------------
  C      3.488280    1.600920   -1.522040
  N      2.810290    0.428780   -1.014200
  C      3.290980   -0.418020   -0.129080
  N      2.517540   -1.432020    0.239360
  C      4.535490   -0.284410    0.395800
  H      5.043630    0.571890    0.222900
  H      4.723350   -0.733270    1.281800
  H      1.934790    0.102300   -1.403790
  H      1.674640   -1.505620   -0.316100
  H      2.928500   -2.218500    0.725490
  H      2.858020    2.099430   -2.228550
  H      4.398530    1.306770   -2.001440
  H      3.709920    2.263790   -0.711870

 Total Charge           Charge          ....    0
 Multiplicity           Mult            ....    1
 Number of Electrons    NEL             ....   40
 Basis Dimension        Dim             ....  164

ORBITAL ENERGIES
----------------

  NO   OCC          E(Eh)            E(eV)
   0   2.0000     -14.240681      -387.5086
   1   2.0000     -14.231994      -387.2723
   2   2.0000     -10.181537      -277.0537
   3   2.0000     -10.153880      -276.3011
   4   2.0000     -10.038104      -273.1507
   5   2.0000      -1.150691       -31.3119
   6   2.0000      -1.051437       -28.6111
   7   2.0000      -0.883196       -24.0330
   8   2.0000      -0.865645       -23.5554
   9   2.0000      -0.719003       -19.5651
  10   2.0000      -0.694586       -18.9006
  11   2.0000      -0.676786       -18.4163
  12   2.0000      -0.606723       -16.5098
  13   2.0000      -0.592598       -16.1254
  14   2.0000      -0.553897       -15.0723
  15   2.0000      -0.526377       -14.3235
  16   2.0000      -0.508630       -13.8405
  17   2.0000      -0.500883       -13.6297
  18   2.0000      -0.384003       -10.4493
  19   2.0000      -0.285435        -7.7671
  20   0.0000       0.085905         2.3376
  21   0.0000       0.106500         2.8980
  22   0.0000       0.125092         3.4039
  23   0.0000       0.156188         4.2501
  24   0.0000       0.158825         4.3218

MULLIKEN ATOMIC CHARGES
-----------------------
   0 C :    0.768527
   1 N :   -0.540305
   2 C :    0.444652
   3 N :   -0.046622
   4 C :    0.315468
   5 H :   -0.136165
   6 H :   -0.343288
   7 H :   -0.267838
   8 H :   -0.069283
   9 H :   -0.025006
  10 H :   -0.243455
  11 H :    0.076509
  12 H :    0.066807
Sum of atomic charges:    0.0000000

LOEWDIN ATOMIC CHARGES
----------------------
   0 C :    0.177789
   1 N :   -0.065805
   2 C :   -0.248511
   3 N :    0.167202
   4 C :    0.125847
   5 H :   -0.112335
   6 H :   -0.094858
   7 H :    0.025958
   8 H :   -0.002904
   9 H :    0.023448
  10 H :   -0.000741
  11 H :    0.002248
  12 H :    0.002661

  Mayer bond orders larger than 0.100000
B(  0-C ,  1-N ) :   1.0047 B(  0-C ,  7-H ) :  -0.1267 B(  0-C , 10-H ) :   0.9168
B(  0-C , 11-H ) :   0.8473 B(  0-C , 12-H ) :   0.8392 B(  1-N ,  2-C ) :   1.0454
B(  1-N ,  3-N ) :   0.1648 B(  1-N ,  4-C ) :   0.3045 B(  1-N ,  7-H ) :   1.3233
B(  1-N , 10-H ) :   0.1453 B(  1-N , 11-H ) :   0.1115 B(  1-N , 12-H ) :   0.1187
B(  2-C ,  3-N ) :   0.9122 B(  2-C ,  4-C ) :   1.8578 B(  2-C ,  5-H ) :   0.2572
B(  2-C ,  6-H ) :   0.2197 B(  2-C ,  7-H ) :  -0.2130 B(  3-N ,  4-C ) :   0.2281
B(  3-N ,  8-H ) :   1.0991 B(  3-N ,  9-H ) :   1.1477 B(  4-C ,  5-H ) :   0.7525
B(  4-C ,  6-H ) :   0.8074 B(  5-H ,  6-H ) :   0.1643 B(  8-H ,  9-H ) :  -0.1215

FINAL SINGLE POINT ENERGY      -227.700442987367

DIPOLE MOMENT
-------------
                                X             Y             Z
Electronic contribution:     -1.85731      -1.94697       0.38528
Nuclear contribution   :      0.80512       1.90624      -0.99336
                        -----------------------------------------
Total Dipole Moment    :     -1.05219      -0.04073      -0.60808
                        -----------------------------------------
Magnitude (a.u.)       :      1.21595
Magnitude (Debye)      :      3.09069

Rotational constants in cm-1:     0.332728     0.136065     0.098521
Rotational constants in MHz :  9974.927067  4079.126590  2953.598000

                             ****ORCA TERMINATED NORMALLY****
TOTAL RUN TIME: 0 days 0 hours 0 minutes 18 seconds 441 msec
