                         Program Version 5.0.0 -  RELEASE  -
|  1> !LC-PBE RIJCOSX def2-SVPD def2/J TightSCF xyzfile
|  2>
|  3> *xyzfile 0 1 D1.xyz
|  4>
|  5> %MaxCore 64000
|  6>
|  7> %pal nprocs 4
|  8> end
|  9>
| 10> %scf
| 11>   MaxIter 150
| 12> end
| 13>
| 14>
| 15>                          ****END OF INPUT****

CARTESIAN COORDINATES (ANGSTROEM)
---------------------------------
  C      3.488276    1.600919   -1.522040
  C      4.342970    1.313419   -2.756826
  C      2.810285    0.428783   -1.014196
  H      5.132033    0.604994   -2.484466
  C      3.535896    0.749253   -3.924604
  H      4.841247    2.242136   -3.054083
  H      2.991617   -0.132199   -3.574137
  H      4.225505    0.392784   -4.695962
  C      2.564776    1.750890   -4.544523
  H      1.918749    2.171679   -3.769419
  C      1.686235    1.161657   -5.650111
  H      3.132494    2.594775   -4.951604
  C      0.839616   -0.037582   -5.220473
  H      2.323886    0.866395   -6.490796
  H      1.029518    1.951850   -6.029329
  C     -0.151019    0.254955   -4.094256
  H      1.499442   -0.857141   -4.922958
  H      0.290097   -0.410143   -6.091131
  H      0.328265    0.833022   -3.299125
  C     -0.721843   -0.999513   -3.439309
  H     -0.957367    0.884951   -4.485450
  H     -1.083403   -1.697555   -4.205656
  H     -1.581056   -0.723848   -2.820490
  C      0.287250   -1.711771   -2.527405
  H      1.131780   -2.067380   -3.159396
  H     -0.204137   -2.637326   -2.170480
  F      0.710505   -0.927506   -1.481767
  H      2.714548    2.331455   -1.760302
  H      4.090991    2.063151   -0.733382
  C      3.290978   -0.418021   -0.129083
  N      2.517536   -1.432017    0.239360
  N      4.535490   -0.284410    0.395800
  H      5.043627    0.571888    0.222899
  H      4.723346   -0.733273    1.281800
  H      1.934787    0.102305   -1.403788
  H      1.674638   -1.505616   -0.316095
  H      2.928503   -2.218502    0.725494

 Total Charge           Charge          ....    0
 Multiplicity           Mult            ....    1
 Number of Electrons    NEL             ....  112
 Basis Dimension        Dim             ....  467

ORBITAL ENERGIES
----------------

  NO   OCC          E(Eh)            E(eV)
   0   2.0000     -24.525688      -667.3779
   1   2.0000     -14.214867      -386.8062
   2   2.0000     -14.197359      -386.3298
   3   2.0000     -10.221232      -278.1339
   4   2.0000     -10.153973      -276.3036
   5   2.0000     -10.141087      -275.9530
   6   2.0000     -10.125483      -275.5284
   7   2.0000     -10.121493      -275.4198
   8   2.0000     -10.116487      -275.2836
   9   2.0000     -10.108829      -275.0752
  10   2.0000     -10.103215      -274.9225
  11   2.0000     -10.097916      -274.7783
  12   2.0000     -10.091095      -274.5927
  13   2.0000     -10.023818      -272.7620
  14   2.0000      -1.377607       -37.4866
  15   2.0000      -1.110520       -30.2188
  16   2.0000      -1.014043       -27.5935
  17   2.0000      -0.996851       -27.1257
  18   2.0000      -0.970350       -26.4046
  19   2.0000      -0.937620       -25.5139
  20   2.0000      -0.899414       -24.4743
  21   2.0000      -0.856955       -23.3189
  22   2.0000      -0.829805       -22.5801
  23   2.0000      -0.793266       -21.5859
  24   2.0000      -0.761382       -20.7183
  25   2.0000      -0.745341       -20.2818
  26   2.0000      -0.720023       -19.5928
  27   2.0000      -0.700927       -19.0732
  28   2.0000      -0.690211       -18.7816
  29   2.0000      -0.672047       -18.2873
  30   2.0000      -0.662649       -18.0316
  31   2.0000      -0.647340       -17.6150
  32   2.0000      -0.634009       -17.2523
  33   2.0000      -0.612761       -16.6741
  34   2.0000      -0.601660       -16.3720
  35   2.0000      -0.587387       -15.9836
  36   2.0000      -0.579882       -15.7794
  37   2.0000      -0.566919       -15.4267
  38   2.0000      -0.555146       -15.1063
  39   2.0000      -0.543029       -14.7766
  40   2.0000      -0.535956       -14.5841
  41   2.0000      -0.520911       -14.1747
  42   2.0000      -0.509073       -13.8526
  43   2.0000      -0.502913       -13.6850
  44   2.0000      -0.494637       -13.4598
  45   2.0000      -0.490530       -13.3480
  46   2.0000      -0.469733       -12.7821
  47   2.0000      -0.460563       -12.5326
  48   2.0000      -0.449693       -12.2368
  49   2.0000      -0.446284       -12.1440
  50   2.0000      -0.442571       -12.0430
  51   2.0000      -0.425503       -11.5785
  52   2.0000      -0.418960       -11.4005
  53   2.0000      -0.413077       -11.2404
  54   2.0000      -0.382841       -10.4176
  55   2.0000      -0.261241        -7.1087
  56   0.0000       0.087253         2.3743
  57   0.0000       0.100616         2.7379
  58   0.0000       0.101503         2.7620
  59   0.0000       0.106437         2.8963
  60   0.0000       0.122257         3.3268

MULLIKEN ATOMIC CHARGES
-----------------------
   0 C :    0.311737
   1 C :    0.338949
   2 C :    0.126879
   3 H :   -0.005800
   4 C :    0.105535
   5 H :    0.004472
   6 H :   -0.296858
   7 H :   -0.024442
   8 C :   -0.140807
   9 H :    0.051445
  10 C :    0.459421
  11 H :   -0.137001
  12 C :   -0.126466
  13 H :    0.054165
  14 H :   -0.045140
  15 C :    0.086425
  16 H :   -0.017267
  17 H :   -0.121884
  18 H :   -0.233121
  19 C :    0.102684
  20 H :   -0.037718
  21 H :    0.026805
  22 H :    0.048419
  23 C :    0.649988
  24 H :    0.000938
  25 H :   -0.108450
  26 F :   -0.503321
  27 H :    0.070426
  28 H :   -0.105451
  29 C :    0.431215
  30 N :    0.171609
  31 N :   -0.064468
  32 H :   -0.003042
  33 H :   -0.182235
  34 H :   -0.602359
  35 H :   -0.108357
  36 H :   -0.176923
Sum of atomic charges:    0.0000000

LOEWDIN ATOMIC CHARGES
----------------------
   0 C :   -0.067338
   1 C :   -0.050025
   2 C :   -0.034228
   3 H :    0.031066
   4 C :   -0.051401
   5 H :    0.028608
   6 H :    0.008465
   7 H :    0.036985
   8 C :   -0.055546
   9 H :    0.010784
  10 C :   -0.053911
  11 H :    0.037245
  12 C :   -0.057488
  13 H :    0.034588
  14 H :    0.033898
  15 C :   -0.045188
  16 H :    0.008162
  17 H :    0.035167
  18 H :    0.019267
  19 C :   -0.034676
  20 H :    0.041527
  21 H :    0.047939
  22 H :    0.040718
  23 C :    0.135563
  24 H :    0.047903
  25 H :    0.050227
  26 F :   -0.208367
  27 H :    0.017343
  28 H :    0.017887
  29 C :   -0.201729
  30 N :    0.177958
  31 N :    0.184563
  32 H :   -0.015258
  33 H :   -0.005795
  34 H :   -0.100395
  35 H :   -0.067601
  36 H :    0.003084

  Mayer bond orders larger than 0.100000
B(  0-C ,  1-C ) :   1.0930 B(  0-C ,  2-C ) :   1.0484 B(  0-C ,  3-H ) :   0.1346
B(  0-C ,  5-H ) :   0.1651 B(  0-C , 27-H ) :   0.8348 B(  0-C , 28-H ) :   0.7201
B(  0-C , 34-H ) :   0.4531 B(  1-C ,  3-H ) :   0.7880 B(  1-C ,  4-C ) :   1.2720
B(  1-C ,  5-H ) :   0.8198 B(  1-C ,  6-H ) :   0.1042 B(  2-C , 27-H ) :   0.2299
B(  2-C , 28-H ) :   0.2889 B(  2-C , 29-C ) :   2.0435 B(  2-C , 30-N ) :   0.3007
B(  2-C , 31-N ) :   0.1741 B(  2-C , 32-H ) :  -0.1457 B(  2-C , 34-H ) :   0.2267
B(  3-H ,  4-C ) :   0.2020 B(  4-C ,  5-H ) :   0.1106 B(  4-C ,  6-H ) :   0.9024
B(  4-C ,  7-H ) :   0.8047 B(  4-C ,  8-C ) :   1.1918 B(  4-C , 11-H ) :   0.1545
B(  6-H ,  8-C ) :   0.1416 B(  7-H ,  8-C ) :   0.1397 B(  8-C ,  9-H ) :   0.8770
B(  8-C , 10-C ) :   1.1716 B(  8-C , 11-H ) :   0.9687 B(  8-C , 13-H ) :   0.1009
B(  8-C , 14-H ) :   0.2539 B( 10-C , 12-C ) :   1.2075 B( 10-C , 13-H ) :   0.7556
B( 10-C , 14-H ) :   0.7566 B( 12-C , 13-H ) :   0.2034 B( 12-C , 14-H ) :   0.1013
B( 12-C , 15-C ) :   1.2097 B( 12-C , 16-H ) :   0.9207 B( 12-C , 17-H ) :   0.9231
B( 12-C , 18-H ) :   0.1313 B( 12-C , 20-H ) :   0.1741 B( 13-H , 14-H ) :  -0.1014
B( 15-C , 17-H ) :   0.2150 B( 15-C , 18-H ) :   0.9069 B( 15-C , 19-C ) :   1.1993
B( 15-C , 20-H ) :   0.8663 B( 15-C , 22-H ) :   0.1808 B( 18-H , 19-C ) :   0.1146
B( 19-C , 21-H ) :   0.8329 B( 19-C , 22-H ) :   0.7951 B( 19-C , 23-C ) :   1.2234
B( 19-C , 24-H ) :   0.1055 B( 19-C , 25-H ) :   0.1120 B( 21-H , 23-C ) :   0.1313
B( 22-H , 23-C ) :   0.1252 B( 23-C , 24-H ) :   0.8500 B( 23-C , 25-H ) :   0.9459
B( 23-C , 26-F ) :   0.6517 B( 24-H , 26-F ) :   0.1304 B( 27-H , 34-H ) :  -0.1602
B( 29-C , 30-N ) :   0.7629 B( 29-C , 31-N ) :   0.8826 B( 29-C , 34-H ) :   0.3557
B( 30-N , 35-H ) :   1.1194 B( 30-N , 36-H ) :   1.1828 B( 31-N , 32-H ) :   1.0164
B( 31-N , 33-H ) :   1.2213 B( 32-H , 33-H ) :  -0.1327 B( 35-H , 36-H ) :  -0.1281

FINAL SINGLE POINT ENERGY      -639.847479550826

DIPOLE MOMENT
-------------
                                X             Y             Z
Electronic contribution:     -1.59687      -4.85633      10.63928
Nuclear contribution   :      1.15699       3.94991     -10.89335
                        -----------------------------------------
Total Dipole Moment    :     -0.43988      -0.90642      -0.25407
                        -----------------------------------------
Magnitude (a.u.)       :      1.03906
Magnitude (Debye)      :      2.64107

Rotational constants in cm-1:     0.026548     0.016177     0.010851
Rotational constants in MHz :   795.884848   484.988695   325.313537

                             ****ORCA TERMINATED NORMALLY****
TOTAL RUN TIME: 0 days 0 hours 4 minutes 11 seconds 249 msec
